### Starting Gaussian ###
 Entering Gaussian System, Link 0=g16
 Initial command:
 /cluster/software/gaussian/gaussian-16-A.03/avx2/g16/l1.exe "/local/scratch/ks29c/Gau-1607.inp" -scrdir="/local/scratch/ks29c/"
 Entering Link 1 = /cluster/software/gaussian/gaussian-16-A.03/avx2/g16/l1.exe PID=      1633.
  
 Copyright (c) 1988,1990,1992,1993,1995,1998,2003,2009,2016,
            Gaussian, Inc.  All Rights Reserved.
  
 This is part of the Gaussian(R) 16 program.  It is based on
 the Gaussian(R) 09 system (copyright 2009, Gaussian, Inc.),
 the Gaussian(R) 03 system (copyright 2003, Gaussian, Inc.),
 the Gaussian(R) 98 system (copyright 1998, Gaussian, Inc.),
 the Gaussian(R) 94 system (copyright 1995, Gaussian, Inc.),
 the Gaussian 92(TM) system (copyright 1992, Gaussian, Inc.),
 the Gaussian 90(TM) system (copyright 1990, Gaussian, Inc.),
 the Gaussian 88(TM) system (copyright 1988, Gaussian, Inc.),
 the Gaussian 86(TM) system (copyright 1986, Carnegie Mellon
 University), and the Gaussian 82(TM) system (copyright 1983,
 Carnegie Mellon University). Gaussian is a federally registered
 trademark of Gaussian, Inc.
  
 This software contains proprietary and confidential information,
 including trade secrets, belonging to Gaussian, Inc.
  
 This software is provided under written license and may be
 used, copied, transmitted, or stored only in accord with that
 written license.
  
 The following legend is applicable only to US Government
 contracts under FAR:
  
                    RESTRICTED RIGHTS LEGEND
  
 Use, reproduction and disclosure by the US Government is
 subject to restrictions as set forth in subparagraphs (a)
 and (c) of the Commercial Computer Software - Restricted
 Rights clause in FAR 52.227-19.
  
 Gaussian, Inc.
 340 Quinnipiac St., Bldg. 40, Wallingford CT 06492
  
  
 ---------------------------------------------------------------
 Warning -- This program may not be used in any manner that
 competes with the business of Gaussian, Inc. or will provide
 assistance to any competitor of Gaussian, Inc.  The licensee
 of this program is prohibited from giving any competitor of
 Gaussian, Inc. access to this program.  By using this program,
 the user acknowledges that Gaussian, Inc. is engaged in the
 business of creating and licensing software in the field of
 computational chemistry and represents and warrants to the
 licensee that it is not a competitor of Gaussian, Inc. and that
 it will not use this program in any manner prohibited above.
 ---------------------------------------------------------------
  

 Cite this work as:
 Gaussian 16, Revision A.03,
 M. J. Frisch, G. W. Trucks, H. B. Schlegel, G. E. Scuseria, 
 M. A. Robb, J. R. Cheeseman, G. Scalmani, V. Barone, 
 G. A. Petersson, H. Nakatsuji, X. Li, M. Caricato, A. V. Marenich, 
 J. Bloino, B. G. Janesko, R. Gomperts, B. Mennucci, H. P. Hratchian, 
 J. V. Ortiz, A. F. Izmaylov, J. L. Sonnenberg, D. Williams-Young, 
 F. Ding, F. Lipparini, F. Egidi, J. Goings, B. Peng, A. Petrone, 
 T. Henderson, D. Ranasinghe, V. G. Zakrzewski, J. Gao, N. Rega, 
 G. Zheng, W. Liang, M. Hada, M. Ehara, K. Toyota, R. Fukuda, 
 J. Hasegawa, M. Ishida, T. Nakajima, Y. Honda, O. Kitao, H. Nakai, 
 T. Vreven, K. Throssell, J. A. Montgomery, Jr., J. E. Peralta, 
 F. Ogliaro, M. J. Bearpark, J. J. Heyd, E. N. Brothers, K. N. Kudin, 
 V. N. Staroverov, T. A. Keith, R. Kobayashi, J. Normand, 
 K. Raghavachari, A. P. Rendell, J. C. Burant, S. S. Iyengar, 
 J. Tomasi, M. Cossi, J. M. Millam, M. Klene, C. Adamo, R. Cammi, 
 J. W. Ochterski, R. L. Martin, K. Morokuma, O. Farkas, 
 J. B. Foresman, and D. J. Fox, Gaussian, Inc., Wallingford CT, 2016.
 
 ******************************************
 Gaussian 16:  ES64L-G16RevA.03 25-Dec-2016
                25-May-2023 
 ******************************************
 %chk=CC1CCCCCCCqCrC1O.chk
 %NProcShared=20
 Will use up to   20 processors via shared memory.
 -----------------------------------------------------------------
 # opt freq b3lyp/6-31+g(3df,2p) Geom=AllCheckpoint TD(NStates=10)
 -----------------------------------------------------------------
 1/18=20,19=15,26=3,29=7,38=1/1,3;
 2/9=110,12=2,40=1/2;
 3/5=1,6=6,7=216,11=9,14=-4,25=1,30=1,71=1,74=-5/1,2,3,8;
 4//1;
 5/5=2,38=5/2;
 8/6=1,10=2,108=10/1;
 9/15=2,41=10,42=1,70=2/14;
 10/5=4/2;
 6/7=2,8=2,9=2,10=2/1;
 7/12=6,13=5/1,2,3,16;
 1/18=20,19=15,26=3/3(2);
 2/9=110/2;
 99//99;
 2/9=110/2;
 3/5=1,6=6,7=216,11=9,14=-2,25=1,30=1,71=1,74=-5/1,2,3,8;
 4/5=5,16=3,69=1/1;
 5/5=2,38=5/2;
 8/6=1,10=2,108=10/1;
 9/15=2,41=10,42=1,49=4,70=2/14;
 10/5=4/2;
 7/12=6,13=5/1,2,3,16;
 1/18=20,19=15,26=3/3(-8);
 2/9=110/2;
 6/7=2,8=2,9=2,10=2/1;
 99//99;
 Structure from the checkpoint file:  "CC1CCCCCCCqCrC1O.chk"
 -------------------
 Title Card Required
 -------------------
 Charge =  0 Multiplicity = 1
 Redundant internal coordinates found in file.  (old form).
 C,0,1.2999822146,-0.156057706,-0.9063354148
 C,0,2.6299539242,0.0680955304,-0.1650038045
 C,0,2.9399703179,1.5698089728,0.1502308237
 C,0,2.5237250442,2.3023277016,1.4460289162
 C,0,1.0241825804,2.3458900953,1.820521209
 C,0,0.7170889618,1.799629535,3.2278164722
 C,0,1.2143824777,0.3663498923,3.4886469164
 C,0,0.6887598367,-0.6618238086,2.4597679753
 C,0,1.7184684043,-1.5909690084,1.7787058443
 C,0,2.2838436586,-2.6086326802,2.7840255762
 C,0,2.9029594764,-0.9951414962,0.9493467068
 O,0,4.0294912234,-0.6233498361,1.7454113335
 H,0,1.260776106,0.4708892377,-1.8032684294
 H,0,0.4168599515,0.0756651286,-0.3079529771
 H,0,1.2087865817,-1.1973197961,-1.2347967039
 H,0,3.4001470403,-0.1594890781,-0.9135627866
 H,0,2.5403020625,2.1409288661,-0.6978745866
 H,0,4.0282337321,1.683285291,0.0842754833
 H,0,2.8959648071,3.3276937683,1.3363063322
 H,0,3.0908338201,1.9132470864,2.3008941482
 H,0,0.4375408338,1.8016053669,1.0757778759
 H,0,0.6618553342,3.3785582844,1.7692235417
 H,0,-0.3681482944,1.8389204486,3.3890863461
 H,0,1.1598962486,2.4693607144,3.9769722309
 H,0,0.9142031413,0.076624548,4.5014230768
 H,0,2.3079511723,0.3518408321,3.5107904615
 H,0,0.1213817242,-0.1366451081,1.6886307745
 H,0,-0.0451728885,-1.3148480766,2.9474557452
 H,0,1.1390916652,-2.1635364204,1.0406575977
 H,0,2.8673498182,-2.1152268479,3.5653793542
 H,0,2.948188582,-3.3269838756,2.2927062153
 H,0,1.4722609032,-3.1682442775,3.2606263896
 H,0,3.2733721951,-1.8763801356,0.4087834791
 H,0,3.8615073433,0.2427468513,2.1237838773
 Recover connectivity data from disk.

 GradGradGradGradGradGradGradGradGradGradGradGradGradGradGradGradGradGrad
 Berny optimization.
 Initialization pass.
                           ----------------------------
                           !    Initial Parameters    !
                           ! (Angstroms and Degrees)  !
 --------------------------                            --------------------------
 ! Name  Definition              Value          Derivative Info.                !
 --------------------------------------------------------------------------------
 ! R1    R(1,2)                  1.539          estimate D2E/DX2                !
 ! R2    R(1,13)                 1.095          estimate D2E/DX2                !
 ! R3    R(1,14)                 1.0916         estimate D2E/DX2                !
 ! R4    R(1,15)                 1.0956         estimate D2E/DX2                !
 ! R5    R(2,3)                  1.5654         estimate D2E/DX2                !
 ! R6    R(2,11)                 1.5642         estimate D2E/DX2                !
 ! R7    R(2,16)                 1.0979         estimate D2E/DX2                !
 ! R8    R(3,4)                  1.5456         estimate D2E/DX2                !
 ! R9    R(3,17)                 1.0978         estimate D2E/DX2                !
 ! R10   R(3,18)                 1.0961         estimate D2E/DX2                !
 ! R11   R(4,5)                  1.5462         estimate D2E/DX2                !
 ! R12   R(4,19)                 1.0963         estimate D2E/DX2                !
 ! R13   R(4,20)                 1.0972         estimate D2E/DX2                !
 ! R14   R(5,6)                  1.5405         estimate D2E/DX2                !
 ! R15   R(5,21)                 1.0932         estimate D2E/DX2                !
 ! R16   R(5,22)                 1.0956         estimate D2E/DX2                !
 ! R17   R(6,7)                  1.5394         estimate D2E/DX2                !
 ! R18   R(6,23)                 1.0979         estimate D2E/DX2                !
 ! R19   R(6,24)                 1.0981         estimate D2E/DX2                !
 ! R20   R(7,8)                  1.5466         estimate D2E/DX2                !
 ! R21   R(7,25)                 1.0953         estimate D2E/DX2                !
 ! R22   R(7,26)                 1.0939         estimate D2E/DX2                !
 ! R23   R(8,9)                  1.5451         estimate D2E/DX2                !
 ! R24   R(8,27)                 1.092          estimate D2E/DX2                !
 ! R25   R(8,28)                 1.0968         estimate D2E/DX2                !
 ! R26   R(9,10)                 1.5382         estimate D2E/DX2                !
 ! R27   R(9,11)                 1.5639         estimate D2E/DX2                !
 ! R28   R(9,29)                 1.0992         estimate D2E/DX2                !
 ! R29   R(10,30)                1.0929         estimate D2E/DX2                !
 ! R30   R(10,31)                1.0949         estimate D2E/DX2                !
 ! R31   R(10,32)                1.095          estimate D2E/DX2                !
 ! R32   R(11,12)                1.4286         estimate D2E/DX2                !
 ! R33   R(11,33)                1.0982         estimate D2E/DX2                !
 ! R34   R(12,34)                0.96           estimate D2E/DX2                !
 ! A1    A(2,1,13)             110.0048         estimate D2E/DX2                !
 ! A2    A(2,1,14)             113.8374         estimate D2E/DX2                !
 ! A3    A(2,1,15)             110.778          estimate D2E/DX2                !
 ! A4    A(13,1,14)            107.367          estimate D2E/DX2                !
 ! A5    A(13,1,15)            107.1927         estimate D2E/DX2                !
 ! A6    A(14,1,15)            107.3814         estimate D2E/DX2                !
 ! A7    A(1,2,3)              114.0697         estimate D2E/DX2                !
 ! A8    A(1,2,11)             113.2645         estimate D2E/DX2                !
 ! A9    A(1,2,16)             104.3365         estimate D2E/DX2                !
 ! A10   A(3,2,11)             118.2962         estimate D2E/DX2                !
 ! A11   A(3,2,16)             101.3748         estimate D2E/DX2                !
 ! A12   A(11,2,16)            102.8494         estimate D2E/DX2                !
 ! A13   A(2,3,4)              124.7591         estimate D2E/DX2                !
 ! A14   A(2,3,17)             105.747          estimate D2E/DX2                !
 ! A15   A(2,3,18)             106.4873         estimate D2E/DX2                !
 ! A16   A(4,3,17)             107.6424         estimate D2E/DX2                !
 ! A17   A(4,3,18)             105.59           estimate D2E/DX2                !
 ! A18   A(17,3,18)            105.1353         estimate D2E/DX2                !
 ! A19   A(3,4,5)              118.5277         estimate D2E/DX2                !
 ! A20   A(3,4,19)             105.5398         estimate D2E/DX2                !
 ! A21   A(3,4,20)             110.2398         estimate D2E/DX2                !
 ! A22   A(5,4,19)             109.097          estimate D2E/DX2                !
 ! A23   A(5,4,20)             108.8179         estimate D2E/DX2                !
 ! A24   A(19,4,20)            103.5412         estimate D2E/DX2                !
 ! A25   A(4,5,6)              113.8656         estimate D2E/DX2                !
 ! A26   A(4,5,21)             109.9629         estimate D2E/DX2                !
 ! A27   A(4,5,22)             109.6302         estimate D2E/DX2                !
 ! A28   A(6,5,21)             109.8052         estimate D2E/DX2                !
 ! A29   A(6,5,22)             108.1242         estimate D2E/DX2                !
 ! A30   A(21,5,22)            105.0656         estimate D2E/DX2                !
 ! A31   A(5,6,7)              114.8693         estimate D2E/DX2                !
 ! A32   A(5,6,23)             108.5755         estimate D2E/DX2                !
 ! A33   A(5,6,24)             109.061          estimate D2E/DX2                !
 ! A34   A(7,6,23)             109.1336         estimate D2E/DX2                !
 ! A35   A(7,6,24)             108.7839         estimate D2E/DX2                !
 ! A36   A(23,6,24)            106.0554         estimate D2E/DX2                !
 ! A37   A(6,7,8)              113.3576         estimate D2E/DX2                !
 ! A38   A(6,7,25)             108.3256         estimate D2E/DX2                !
 ! A39   A(6,7,26)             109.8            estimate D2E/DX2                !
 ! A40   A(8,7,25)             110.2504         estimate D2E/DX2                !
 ! A41   A(8,7,26)             110.1454         estimate D2E/DX2                !
 ! A42   A(25,7,26)            104.5809         estimate D2E/DX2                !
 ! A43   A(7,8,9)              117.8075         estimate D2E/DX2                !
 ! A44   A(7,8,27)             109.0655         estimate D2E/DX2                !
 ! A45   A(7,8,28)             109.1129         estimate D2E/DX2                !
 ! A46   A(9,8,27)             108.9174         estimate D2E/DX2                !
 ! A47   A(9,8,28)             106.4933         estimate D2E/DX2                !
 ! A48   A(27,8,28)            104.6356         estimate D2E/DX2                !
 ! A49   A(8,9,10)             110.776          estimate D2E/DX2                !
 ! A50   A(8,9,11)             120.6227         estimate D2E/DX2                !
 ! A51   A(8,9,29)             104.9471         estimate D2E/DX2                !
 ! A52   A(10,9,11)            108.6794         estimate D2E/DX2                !
 ! A53   A(10,9,29)            106.7356         estimate D2E/DX2                !
 ! A54   A(11,9,29)            103.9805         estimate D2E/DX2                !
 ! A55   A(9,10,30)            111.3965         estimate D2E/DX2                !
 ! A56   A(9,10,31)            111.3348         estimate D2E/DX2                !
 ! A57   A(9,10,32)            110.4979         estimate D2E/DX2                !
 ! A58   A(30,10,31)           107.0415         estimate D2E/DX2                !
 ! A59   A(30,10,32)           108.3771         estimate D2E/DX2                !
 ! A60   A(31,10,32)           108.0433         estimate D2E/DX2                !
 ! A61   A(2,11,9)             120.3025         estimate D2E/DX2                !
 ! A62   A(2,11,12)            110.9586         estimate D2E/DX2                !
 ! A63   A(2,11,33)            104.6935         estimate D2E/DX2                !
 ! A64   A(9,11,12)            113.6327         estimate D2E/DX2                !
 ! A65   A(9,11,33)            102.168          estimate D2E/DX2                !
 ! A66   A(12,11,33)           102.5414         estimate D2E/DX2                !
 ! A67   A(11,12,34)           108.4479         estimate D2E/DX2                !
 ! D1    D(13,1,2,3)            52.9676         estimate D2E/DX2                !
 ! D2    D(13,1,2,11)         -167.8173         estimate D2E/DX2                !
 ! D3    D(13,1,2,16)          -56.7335         estimate D2E/DX2                !
 ! D4    D(14,1,2,3)           -67.5723         estimate D2E/DX2                !
 ! D5    D(14,1,2,11)           71.6428         estimate D2E/DX2                !
 ! D6    D(14,1,2,16)         -177.2733         estimate D2E/DX2                !
 ! D7    D(15,1,2,3)           171.2998         estimate D2E/DX2                !
 ! D8    D(15,1,2,11)          -49.4851         estimate D2E/DX2                !
 ! D9    D(15,1,2,16)           61.5987         estimate D2E/DX2                !
 ! D10   D(1,2,3,4)             90.5811         estimate D2E/DX2                !
 ! D11   D(1,2,3,17)           -34.7967         estimate D2E/DX2                !
 ! D12   D(1,2,3,18)          -146.2886         estimate D2E/DX2                !
 ! D13   D(11,2,3,4)           -46.4542         estimate D2E/DX2                !
 ! D14   D(11,2,3,17)         -171.832          estimate D2E/DX2                !
 ! D15   D(11,2,3,18)           76.6761         estimate D2E/DX2                !
 ! D16   D(16,2,3,4)          -157.9194         estimate D2E/DX2                !
 ! D17   D(16,2,3,17)           76.7028         estimate D2E/DX2                !
 ! D18   D(16,2,3,18)          -34.7891         estimate D2E/DX2                !
 ! D19   D(1,2,11,9)           -34.4793         estimate D2E/DX2                !
 ! D20   D(1,2,11,12)         -170.621          estimate D2E/DX2                !
 ! D21   D(1,2,11,33)           79.4515         estimate D2E/DX2                !
 ! D22   D(3,2,11,9)           102.8828         estimate D2E/DX2                !
 ! D23   D(3,2,11,12)          -33.2589         estimate D2E/DX2                !
 ! D24   D(3,2,11,33)         -143.1864         estimate D2E/DX2                !
 ! D25   D(16,2,11,9)         -146.4742         estimate D2E/DX2                !
 ! D26   D(16,2,11,12)          77.3841         estimate D2E/DX2                !
 ! D27   D(16,2,11,33)         -32.5434         estimate D2E/DX2                !
 ! D28   D(2,3,4,5)            -57.4325         estimate D2E/DX2                !
 ! D29   D(2,3,4,19)          -179.9574         estimate D2E/DX2                !
 ! D30   D(2,3,4,20)            68.8471         estimate D2E/DX2                !
 ! D31   D(17,3,4,5)            67.1326         estimate D2E/DX2                !
 ! D32   D(17,3,4,19)          -55.3923         estimate D2E/DX2                !
 ! D33   D(17,3,4,20)         -166.5878         estimate D2E/DX2                !
 ! D34   D(18,3,4,5)           179.0449         estimate D2E/DX2                !
 ! D35   D(18,3,4,19)           56.52           estimate D2E/DX2                !
 ! D36   D(18,3,4,20)          -54.6755         estimate D2E/DX2                !
 ! D37   D(3,4,5,6)            124.776          estimate D2E/DX2                !
 ! D38   D(3,4,5,21)             1.0727         estimate D2E/DX2                !
 ! D39   D(3,4,5,22)          -113.9618         estimate D2E/DX2                !
 ! D40   D(19,4,5,6)          -114.5009         estimate D2E/DX2                !
 ! D41   D(19,4,5,21)          121.7958         estimate D2E/DX2                !
 ! D42   D(19,4,5,22)            6.7613         estimate D2E/DX2                !
 ! D43   D(20,4,5,6)            -2.1822         estimate D2E/DX2                !
 ! D44   D(20,4,5,21)         -125.8855         estimate D2E/DX2                !
 ! D45   D(20,4,5,22)          119.0799         estimate D2E/DX2                !
 ! D46   D(4,5,6,7)            -55.6087         estimate D2E/DX2                !
 ! D47   D(4,5,6,23)          -178.0817         estimate D2E/DX2                !
 ! D48   D(4,5,6,24)            66.7799         estimate D2E/DX2                !
 ! D49   D(21,5,6,7)            68.18           estimate D2E/DX2                !
 ! D50   D(21,5,6,23)          -54.2931         estimate D2E/DX2                !
 ! D51   D(21,5,6,24)         -169.4315         estimate D2E/DX2                !
 ! D52   D(22,5,6,7)          -177.7053         estimate D2E/DX2                !
 ! D53   D(22,5,6,23)           59.8216         estimate D2E/DX2                !
 ! D54   D(22,5,6,24)          -55.3168         estimate D2E/DX2                !
 ! D55   D(5,6,7,8)            -55.5665         estimate D2E/DX2                !
 ! D56   D(5,6,7,25)          -178.2639         estimate D2E/DX2                !
 ! D57   D(5,6,7,26)            68.089          estimate D2E/DX2                !
 ! D58   D(23,6,7,8)            66.6054         estimate D2E/DX2                !
 ! D59   D(23,6,7,25)          -56.092          estimate D2E/DX2                !
 ! D60   D(23,6,7,26)         -169.7391         estimate D2E/DX2                !
 ! D61   D(24,6,7,8)          -178.1044         estimate D2E/DX2                !
 ! D62   D(24,6,7,25)           59.1983         estimate D2E/DX2                !
 ! D63   D(24,6,7,26)          -54.4489         estimate D2E/DX2                !
 ! D64   D(6,7,8,9)            129.4112         estimate D2E/DX2                !
 ! D65   D(6,7,8,27)             4.6555         estimate D2E/DX2                !
 ! D66   D(6,7,8,28)          -109.0914         estimate D2E/DX2                !
 ! D67   D(25,7,8,9)          -108.9628         estimate D2E/DX2                !
 ! D68   D(25,7,8,27)          126.2815         estimate D2E/DX2                !
 ! D69   D(25,7,8,28)           12.5346         estimate D2E/DX2                !
 ! D70   D(26,7,8,9)             5.9449         estimate D2E/DX2                !
 ! D71   D(26,7,8,27)         -118.8108         estimate D2E/DX2                !
 ! D72   D(26,7,8,28)          127.4423         estimate D2E/DX2                !
 ! D73   D(7,8,9,10)            69.8153         estimate D2E/DX2                !
 ! D74   D(7,8,9,11)           -58.6932         estimate D2E/DX2                !
 ! D75   D(7,8,9,29)          -175.3471         estimate D2E/DX2                !
 ! D76   D(27,8,9,10)         -165.3556         estimate D2E/DX2                !
 ! D77   D(27,8,9,11)           66.1359         estimate D2E/DX2                !
 ! D78   D(27,8,9,29)          -50.518          estimate D2E/DX2                !
 ! D79   D(28,8,9,10)          -53.0199         estimate D2E/DX2                !
 ! D80   D(28,8,9,11)          178.4716         estimate D2E/DX2                !
 ! D81   D(28,8,9,29)           61.8178         estimate D2E/DX2                !
 ! D82   D(8,9,10,30)          -65.5575         estimate D2E/DX2                !
 ! D83   D(8,9,10,31)          175.0391         estimate D2E/DX2                !
 ! D84   D(8,9,10,32)           54.9717         estimate D2E/DX2                !
 ! D85   D(11,9,10,30)          69.1401         estimate D2E/DX2                !
 ! D86   D(11,9,10,31)         -50.2633         estimate D2E/DX2                !
 ! D87   D(11,9,10,32)        -170.3307         estimate D2E/DX2                !
 ! D88   D(29,9,10,30)        -179.2698         estimate D2E/DX2                !
 ! D89   D(29,9,10,31)          61.3267         estimate D2E/DX2                !
 ! D90   D(29,9,10,32)         -58.7407         estimate D2E/DX2                !
 ! D91   D(8,9,11,2)           -50.9509         estimate D2E/DX2                !
 ! D92   D(8,9,11,12)           84.117          estimate D2E/DX2                !
 ! D93   D(8,9,11,33)         -166.1998         estimate D2E/DX2                !
 ! D94   D(10,9,11,2)          179.6112         estimate D2E/DX2                !
 ! D95   D(10,9,11,12)         -45.3209         estimate D2E/DX2                !
 ! D96   D(10,9,11,33)          64.3624         estimate D2E/DX2                !
 ! D97   D(29,9,11,2)           66.1944         estimate D2E/DX2                !
 ! D98   D(29,9,11,12)        -158.7377         estimate D2E/DX2                !
 ! D99   D(29,9,11,33)         -49.0544         estimate D2E/DX2                !
 ! D100  D(2,11,12,34)          57.4822         estimate D2E/DX2                !
 ! D101  D(9,11,12,34)         -81.7515         estimate D2E/DX2                !
 ! D102  D(33,11,12,34)        168.7953         estimate D2E/DX2                !
 --------------------------------------------------------------------------------
 Trust Radius=3.00D-01 FncErr=1.00D-07 GrdErr=1.00D-06 EigMax=2.50D+02 EigMin=1.00D-04
 Number of steps in this run=    204 maximum allowed number of steps=    204.
 GradGradGradGradGradGradGradGradGradGradGradGradGradGradGradGradGradGrad

                          Input orientation:                          
 ---------------------------------------------------------------------
 Center     Atomic      Atomic             Coordinates (Angstroms)
 Number     Number       Type             X           Y           Z
 ---------------------------------------------------------------------
      1          6           0        1.299982   -0.156058   -0.906335
      2          6           0        2.629954    0.068096   -0.165004
      3          6           0        2.939970    1.569809    0.150231
      4          6           0        2.523725    2.302328    1.446029
      5          6           0        1.024183    2.345890    1.820521
      6          6           0        0.717089    1.799630    3.227816
      7          6           0        1.214382    0.366350    3.488647
      8          6           0        0.688760   -0.661824    2.459768
      9          6           0        1.718468   -1.590969    1.778706
     10          6           0        2.283844   -2.608633    2.784026
     11          6           0        2.902959   -0.995141    0.949347
     12          8           0        4.029491   -0.623350    1.745411
     13          1           0        1.260776    0.470889   -1.803268
     14          1           0        0.416860    0.075665   -0.307953
     15          1           0        1.208787   -1.197320   -1.234797
     16          1           0        3.400147   -0.159489   -0.913563
     17          1           0        2.540302    2.140929   -0.697875
     18          1           0        4.028234    1.683285    0.084275
     19          1           0        2.895965    3.327694    1.336306
     20          1           0        3.090834    1.913247    2.300894
     21          1           0        0.437541    1.801605    1.075778
     22          1           0        0.661855    3.378558    1.769224
     23          1           0       -0.368148    1.838920    3.389086
     24          1           0        1.159896    2.469361    3.976972
     25          1           0        0.914203    0.076625    4.501423
     26          1           0        2.307951    0.351841    3.510790
     27          1           0        0.121382   -0.136645    1.688631
     28          1           0       -0.045173   -1.314848    2.947456
     29          1           0        1.139092   -2.163536    1.040658
     30          1           0        2.867350   -2.115227    3.565379
     31          1           0        2.948189   -3.326984    2.292706
     32          1           0        1.472261   -3.168244    3.260626
     33          1           0        3.273372   -1.876380    0.408783
     34          1           0        3.861507    0.242747    2.123784
 ---------------------------------------------------------------------
                    Distance matrix (angstroms):
                    1          2          3          4          5
     1  C    0.000000
     2  C    1.539039   0.000000
     3  C    2.604709   1.565448   0.000000
     4  C    3.615913   2.756538   1.545618   0.000000
     5  C    3.711005   3.421865   2.657520   1.546211   0.000000
     6  C    4.610389   4.262451   3.803361   2.586775   1.540515
     7  C    4.426749   3.929626   3.946009   3.103978   2.595650
     8  C    3.458330   3.345212   3.922001   3.630559   3.093136
     9  C    3.073036   2.713173   3.759590   3.989595   3.997830
    10  C    4.538928   3.997679   4.982645   5.095617   5.202152
    11  C    2.591747   1.564219   2.686806   3.356161   3.930806
    12  O    3.834103   2.467081   2.922602   3.304020   4.225388
    13  H    1.095029   2.172741   2.800621   3.937911   4.086986
    14  H    1.091633   2.217719   2.967909   3.531764   3.170673
    15  H    1.095641   2.182991   3.545744   4.600372   4.682241
    16  H    2.100180   1.097876   2.081800   3.520842   4.404242
    17  H    2.618778   2.142108   1.097814   2.150034   2.946684
    18  H    3.436255   2.150852   1.096150   2.121587   3.532410
    19  H    4.439947   3.598566   2.121054   1.096347   2.168403
    20  H    4.216099   3.114105   2.183131   1.097174   2.165407
    21  H    2.916337   3.057985   2.678156   2.177148   1.093177
    22  H    4.478765   4.309734   3.329042   2.174692   1.095589
    23  H    5.021279   4.975540   4.637484   3.514705   2.157777
    24  H    5.546092   5.008304   4.315299   2.879862   2.164242
    25  H    5.426492   4.971862   5.026550   4.108497   3.514100
    26  H    4.559053   3.700765   3.629911   2.848543   2.912268
    27  H    2.850145   3.125830   3.636358   3.432011   2.644887
    28  H    4.243105   4.330848   5.005676   4.683746   3.976746
    29  H    2.801185   2.942188   4.239563   4.693131   4.577807
    30  H    5.127496   4.328858   5.024739   4.911671   5.132578
    31  H    4.796376   4.203353   5.344983   5.708431   6.008848
    32  H    5.144562   4.852741   5.854731   5.858797   5.716673
    33  H    2.929730   2.127018   3.471920   4.370292   4.987928
    34  H    3.987741   2.604952   2.550536   2.547722   3.544798
                    6          7          8          9         10
     6  C    0.000000
     7  C    1.539358   0.000000
     8  C    2.578653   1.546613   0.000000
     9  C    3.820843   2.647470   1.545140   0.000000
    10  C    4.699409   3.238944   2.537617   1.538167   0.000000
    11  C    4.216657   3.339610   2.700954   1.563927   2.520457
    12  O    4.363526   3.455895   3.416471   2.505638   2.840309
    13  H    5.231918   5.293151   4.447889   4.158279   5.619020
    14  H    3.945105   3.890336   2.877169   2.970858   4.500157
    15  H    5.397999   4.975542   3.769216   3.081547   4.393004
    16  H    5.309234   4.943028   4.356985   3.482167   4.573467
    17  H    4.341848   4.736471   4.610243   4.553671   5.894721
    18  H    4.567173   4.608885   4.721714   4.350500   5.362099
    19  H    3.265010   4.028628   4.695761   5.076954   6.140892
    20  H    2.550835   2.706421   3.525080   3.799421   4.618663
    21  H    2.170120   2.912967   2.836727   3.693839   5.077120
    22  H    2.150247   3.512136   4.099056   5.080622   6.285469
    23  H    1.097858   2.163973   2.869566   4.325672   5.213433
    24  H    1.098113   2.159649   3.511153   4.650877   5.335953
    25  H    2.151668   1.095337   2.182770   3.292552   3.469290
    26  H    2.169564   1.093889   2.180354   2.668729   3.048470
    27  H    2.544233   2.165113   1.091963   2.161911   3.462204
    28  H    3.218636   2.169284   1.096785   2.133694   2.669252
    29  H    4.546255   3.521171   2.114666   1.099193   2.132581
    30  H    4.479249   2.982685   2.842712   2.187916   1.092906
    31  H    5.668721   4.251714   3.498000   2.188642   1.094887
    32  H    5.025050   3.551317   2.745431   2.178188   1.094979
    33  H    5.290990   4.330685   3.515950   2.091859   2.675282
    34  H    3.678334   2.980839   3.316242   2.841515   3.324952
                   11         12         13         14         15
    11  C    0.000000
    12  O    1.428643   0.000000
    13  H    3.524614   4.632091   0.000000
    14  H    2.984647   4.213791   1.761921   0.000000
    15  H    2.771566   4.143363   1.763175   1.762577   0.000000
    16  H    2.101414   2.771531   2.401221   3.053205   2.445883
    17  H    3.560870   3.978513   2.376576   2.987701   3.633885
    18  H    3.031264   2.842523   3.562520   3.972443   4.241122
    19  H    4.340126   4.130738   4.548857   4.407407   5.471096
    20  H    3.212585   2.761152   4.719498   4.163283   5.071374
    21  H    3.730424   4.385308   3.276802   2.212241   3.863564
    22  H    4.982368   5.230374   4.644991   3.909449   5.501085
    23  H    4.968338   5.301290   5.611190   4.170540   5.752023
    24  H    4.920118   4.772766   6.116800   4.964118   6.372556
    25  H    4.209641   4.217889   6.326507   4.835023   5.883361
    26  H    2.954554   2.651652   5.417561   4.270281   5.111620
    27  H    3.003453   3.938709   3.722993   2.029465   3.294527
    28  H    3.575771   4.304180   5.240586   3.569970   4.367775
    29  H    2.117714   3.350114   3.878520   2.711898   2.473080
    30  H    2.845960   2.624605   6.171827   5.080119   5.160918
    31  H    2.691496   2.962834   5.835084   4.974844   4.472613
    32  H    3.480128   3.913028   6.239475   4.936758   4.915566
    33  H    1.098178   1.982013   3.801761   3.533250   2.724884
    34  H    1.957162   0.959952   4.715675   4.219817   4.515615
                   16         17         18         19         20
    16  H    0.000000
    17  H    2.465315   0.000000
    18  H    2.187691   1.742164   0.000000
    19  H    4.180497   2.381764   2.356628   0.000000
    20  H    3.837270   3.057374   2.417643   1.723097   0.000000
    21  H    4.071904   2.771748   3.726949   2.905283   2.924609
    22  H    5.216643   3.338692   4.128620   2.276236   2.886130
    23  H    6.058587   5.025290   5.502197   4.133375   3.626878
    24  H    5.987229   4.885446   4.898812   3.274719   2.616681
    25  H    5.963031   5.825654   5.638239   4.951242   3.599060
    26  H    4.585766   4.579048   4.058709   3.732270   2.124793
    27  H    4.185957   4.090712   4.598869   4.452425   3.659859
    28  H    5.302127   5.649381   5.811992   5.727066   4.546777
    29  H    3.598271   4.849155   4.905084   5.773008   4.692298
    30  H    4.916270   6.033006   5.281518   5.881749   4.228176
    31  H    4.529619   6.245640   5.580901   6.723255   5.242178
    32  H    5.494835   6.708037   6.337156   6.922944   5.418710
    33  H    2.170803   4.230940   3.653264   5.299540   4.239655
    34  H    3.098406   3.648347   2.502507   3.327054   1.848209
                   21         22         23         24         25
    21  H    0.000000
    22  H    1.737229   0.000000
    23  H    2.449882   2.460762   0.000000
    24  H    3.063433   2.439024   1.754419   0.000000
    25  H    3.864946   4.293176   2.446917   2.461829   0.000000
    26  H    3.395517   3.860532   3.063940   2.453415   1.731944
    27  H    2.057270   3.557423   2.652178   3.620260   2.930162
    28  H    3.667216   4.890417   3.200876   4.102723   2.295956
    29  H    4.026879   5.610114   4.879196   5.485081   4.128655
    30  H    5.238670   6.186441   5.112221   4.909506   3.081424
    31  H    5.838381   7.103918   6.235921   6.295423   4.538731
    32  H    5.526628   6.763258   5.336226   5.691512   3.518548
    33  H    4.691950   6.023719   5.995526   6.007014   5.111713
    34  H    3.905368   4.494085   4.694544   3.961164   3.790431
                   26         27         28         29         30
    26  H    0.000000
    27  H    2.887901   0.000000
    28  H    2.938093   1.732208   0.000000
    29  H    3.714150   2.358790   2.399715   0.000000
    30  H    2.530283   3.870053   3.083054   3.059972   0.000000
    31  H    3.927771   4.305114   3.665733   2.488788   1.759144
    32  H    3.626563   3.672416   2.415731   2.459411   1.774258
    33  H    3.939474   3.820959   4.215794   2.244299   3.191551
    34  H    2.085480   3.784420   4.285637   3.791426   2.937105
                   31         32         33         34
    31  H    0.000000
    32  H    1.772126   0.000000
    33  H    2.399825   3.611914   0.000000
    34  H    3.688586   4.316917   2.788876   0.000000
 Stoichiometry    C11H22O
 Framework group  C1[X(C11H22O)]
 Deg. of freedom    96
 Full point group                 C1      NOp   1
 Largest Abelian subgroup         C1      NOp   1
 Largest concise Abelian subgroup C1      NOp   1
                         Standard orientation:                         
 ---------------------------------------------------------------------
 Center     Atomic      Atomic             Coordinates (Angstroms)
 Number     Number       Type             X           Y           Z
 ---------------------------------------------------------------------
      1          6           0       -0.091439   -1.944068    1.704600
      2          6           0       -0.002462   -1.838932    0.171737
      3          6           0       -1.385646   -1.650175   -0.536641
      4          6           0       -2.034329   -0.283450   -0.853201
      5          6           0       -2.293955    0.698461    0.312653
      6          6           0       -1.659661    2.087700    0.110480
      7          6           0       -0.142616    2.074963   -0.150359
      8          6           0        0.662720    1.345675    0.950361
      9          6           0        1.675711    0.266456    0.506974
     10          6           0        2.877945    0.907172   -0.207220
     11          6           0        1.205987   -0.975570   -0.319220
     12          8           0        1.121384   -0.730192   -1.724088
     13          1           0       -0.809031   -2.721968    1.985709
     14          1           0       -0.405282   -1.019475    2.192752
     15          1           0        0.877008   -2.227231    2.131636
     16          1           0        0.271707   -2.850668   -0.154689
     17          1           0       -2.105180   -2.230876    0.055181
     18          1           0       -1.317053   -2.173313   -1.497456
     19          1           0       -2.986324   -0.516878   -1.344317
     20          1           0       -1.463572    0.236076   -1.633021
     21          1           0       -1.942208    0.263838    1.252022
     22          1           0       -3.372899    0.832767    0.447405
     23          1           0       -1.867022    2.699381    0.998252
     24          1           0       -2.158463    2.591027   -0.728394
     25          1           0        0.199021    3.111214   -0.246444
     26          1           0        0.061734    1.625977   -1.126702
     27          1           0       -0.032301    0.905231    1.668231
     28          1           0        1.228874    2.084622    1.530330
     29          1           0        2.057124   -0.165928    1.442813
     30          1           0        2.579438    1.374955   -1.148770
     31          1           0        3.642308    0.161076   -0.447777
     32          1           0        3.338099    1.671676    0.427423
     33          1           0        2.074063   -1.644185   -0.245780
     34          1           0        0.285358   -0.295185   -1.906672
 ---------------------------------------------------------------------
 Rotational constants (GHZ):           1.0044684           0.8728724           0.6453803
 Standard basis: 6-31+G(3df,2p) (6D, 7F)
 There are   668 symmetry adapted cartesian basis functions of A   symmetry.
 There are   632 symmetry adapted basis functions of A   symmetry.
   632 basis functions,   868 primitive gaussians,   668 cartesian basis functions
    48 alpha electrons       48 beta electrons
       nuclear repulsion energy       814.6435185049 Hartrees.
 NAtoms=   34 NActive=   34 NUniq=   34 SFac= 1.00D+00 NAtFMM=   60 NAOKFM=F Big=F
 Integral buffers will be    131072 words long.
 Regular integral format.
 Two-electron integral symmetry is turned on.
 One-electron integrals computed using PRISM.
 PrsmSu:  requested number of processors reduced to:  12 ShMem   1 Linda.
 NBasis=   632 RedAO= T EigKep=  4.87D-06  NBF=   632
 NBsUse=   632 1.00D-06 EigRej= -1.00D+00 NBFU=   632
 ExpMin= 4.38D-02 ExpMax= 5.48D+03 ExpMxC= 8.25D+02 IAcc=3 IRadAn=         5 AccDes= 0.00D+00
 Harris functional with IExCor=  402 and IRadAn=       5 diagonalized for initial guess.
 HarFok:  IExCor=  402 AccDes= 0.00D+00 IRadAn=         5 IDoV= 1 UseB2=F ITyADJ=14
 ICtDFT=  3500011 ScaDFX=  1.000000  1.000000  1.000000  1.000000
 FoFCou: FMM=F IPFlag=           0 FMFlag=      100000 FMFlg1=           0
         NFxFlg=           0 DoJE=T BraDBF=F KetDBF=T FulRan=T
         wScrn=  0.000000 ICntrl=       500 IOpCl=  0 I1Cent=   200000004 NGrid=           0
         NMat0=    1 NMatS0=      1 NMatT0=    0 NMatD0=    1 NMtDS0=    0 NMtDT0=    0
 Petite list used in FoFCou.
 Requested convergence on RMS density matrix=1.00D-08 within 128 cycles.
 Requested convergence on MAX density matrix=1.00D-06.
 Requested convergence on             energy=1.00D-06.
 No special actions if energy rises.
 SCF Done:  E(RB3LYP) =  -507.693600809     A.U. after   12 cycles
            NFock= 12  Conv=0.35D-08     -V/T= 2.0083
 DoSCS=F DFT=T ScalE2(SS,OS)=  1.000000  1.000000
 ExpMin= 4.38D-02 ExpMax= 5.48D+03 ExpMxC= 8.25D+02 IAcc=3 IRadAn=         5 AccDes= 0.00D+00
 HarFok:  IExCor=  205 AccDes= 0.00D+00 IRadAn=         5 IDoV=-2 UseB2=F ITyADJ=14
 ICtDFT= 12500011 ScaDFX=  1.000000  1.000000  1.000000  1.000000
 Range of M.O.s used for correlation:    13   632
 NBasis=   632 NAE=    48 NBE=    48 NFC=    12 NFV=     0
 NROrb=    620 NOA=    36 NOB=    36 NVA=   584 NVB=   584

 **** Warning!!: The largest alpha MO coefficient is  0.96363363D+02

 Orbital symmetries:
       Occupied  (A) (A) (A) (A) (A) (A) (A) (A) (A) (A) (A) (A)
                 (A) (A) (A) (A) (A) (A) (A) (A) (A) (A) (A) (A)
                 (A) (A) (A) (A) (A) (A) (A) (A) (A) (A) (A) (A)
                 (A) (A) (A) (A) (A) (A) (A) (A) (A) (A) (A) (A)
       Virtual   (A) (A) (A) (A) (A) (A) (A) (A) (A) (A) (A) (A)
                 (A) (A) (A) (A) (A) (A) (A) (A) (A) (A) (A) (A)
                 (A) (A) (A) (A) (A) (A) (A) (A) (A) (A) (A) (A)
                 (A) (A) (A) (A) (A) (A) (A) (A) (A) (A) (A) (A)
                 (A) (A) (A) (A) (A) (A) (A) (A) (A) (A) (A) (A)
                 (A) (A) (A) (A) (A) (A) (A) (A) (A) (A) (A) (A)
                 (A) (A) (A) (A) (A) (A) (A) (A) (A) (A) (A) (A)
                 (A) (A) (A) (A) (A) (A) (A) (A) (A) (A) (A) (A)
                 (A) (A) (A) (A) (A) (A) (A) (A) (A) (A) (A) (A)
                 (A) (A) (A) (A) (A) (A) (A) (A) (A) (A) (A) (A)
                 (A) (A) (A) (A) (A) (A) (A) (A) (A) (A) (A) (A)
                 (A) (A) (A) (A) (A) (A) (A) (A) (A) (A) (A) (A)
                 (A) (A) (A) (A) (A) (A) (A) (A) (A) (A) (A) (A)
                 (A) (A) (A) (A) (A) (A) (A) (A) (A) (A) (A) (A)
                 (A) (A) (A) (A) (A) (A) (A) (A) (A) (A) (A) (A)
                 (A) (A) (A) (A) (A) (A) (A) (A) (A) (A) (A) (A)
                 (A) (A) (A) (A) (A) (A) (A) (A) (A) (A) (A) (A)
                 (A) (A) (A) (A) (A) (A) (A) (A) (A) (A) (A) (A)
                 (A) (A) (A) (A) (A) (A) (A) (A) (A) (A) (A) (A)
                 (A) (A) (A) (A) (A) (A) (A) (A) (A) (A) (A) (A)
                 (A) (A) (A) (A) (A) (A) (A) (A) (A) (A) (A) (A)
                 (A) (A) (A) (A) (A) (A) (A) (A) (A) (A) (A) (A)
                 (A) (A) (A) (A) (A) (A) (A) (A) (A) (A) (A) (A)
                 (A) (A) (A) (A) (A) (A) (A) (A) (A) (A) (A) (A)
                 (A) (A) (A) (A) (A) (A) (A) (A) (A) (A) (A) (A)
                 (A) (A) (A) (A) (A) (A) (A) (A) (A) (A) (A) (A)
                 (A) (A) (A) (A) (A) (A) (A) (A) (A) (A) (A) (A)
                 (A) (A) (A) (A) (A) (A) (A) (A) (A) (A) (A) (A)
                 (A) (A) (A) (A) (A) (A) (A) (A) (A) (A) (A) (A)
                 (A) (A) (A) (A) (A) (A) (A) (A) (A) (A) (A) (A)
                 (A) (A) (A) (A) (A) (A) (A) (A) (A) (A) (A) (A)
                 (A) (A) (A) (A) (A) (A) (A) (A) (A) (A) (A) (A)
                 (A) (A) (A) (A) (A) (A) (A) (A) (A) (A) (A) (A)
                 (A) (A) (A) (A) (A) (A) (A) (A) (A) (A) (A) (A)
                 (A) (A) (A) (A) (A) (A) (A) (A) (A) (A) (A) (A)
                 (A) (A) (A) (A) (A) (A) (A) (A) (A) (A) (A) (A)
                 (A) (A) (A) (A) (A) (A) (A) (A) (A) (A) (A) (A)
                 (A) (A) (A) (A) (A) (A) (A) (A) (A) (A) (A) (A)
                 (A) (A) (A) (A) (A) (A) (A) (A) (A) (A) (A) (A)
                 (A) (A) (A) (A) (A) (A) (A) (A) (A) (A) (A) (A)
                 (A) (A) (A) (A) (A) (A) (A) (A) (A) (A) (A) (A)
                 (A) (A) (A) (A) (A) (A) (A) (A) (A) (A) (A) (A)
                 (A) (A) (A) (A) (A) (A) (A) (A) (A) (A) (A) (A)
                 (A) (A) (A) (A) (A) (A) (A) (A) (A) (A) (A) (A)
                 (A) (A) (A) (A) (A) (A) (A) (A) (A) (A) (A) (A)
                 (A) (A) (A) (A) (A) (A) (A) (A) (A) (A) (A) (A)
                 (A) (A) (A) (A) (A) (A) (A) (A) (A) (A) (A) (A)
                 (A) (A) (A) (A) (A) (A) (A) (A) (A) (A) (A) (A)
                 (A) (A) (A) (A) (A) (A) (A) (A)
    40 initial guesses have been made.
 Convergence on wavefunction:    0.000001000000000
 Iteration     1 Dimension    40 NMult     0 NNew     40
 CISAX will form     2 AO SS matrices at one time.
 New state      8 was old state      9
 New state      9 was old state     10
 New state     10 was old state      8
 Iteration     2 Dimension    60 NMult    40 NNew     20
 New state      7 was old state      8
 New state      8 was old state      7
 Iteration     3 Dimension    80 NMult    60 NNew     20
 Iteration     4 Dimension   100 NMult    80 NNew     20
 Iteration     5 Dimension   120 NMult   100 NNew     20
