### Starting Gaussian ###
 Entering Gaussian System, Link 0=g16
 Initial command:
 /cluster/software/gaussian/gaussian-16-A.03/avx2/g16/l1.exe "/local/scratch/ks29c/Gau-16013.inp" -scrdir="/local/scratch/ks29c/"
 Entering Link 1 = /cluster/software/gaussian/gaussian-16-A.03/avx2/g16/l1.exe PID=     16014.
  
 Copyright (c) 1988,1990,1992,1993,1995,1998,2003,2009,2016,
            Gaussian, Inc.  All Rights Reserved.
  
 This is part of the Gaussian(R) 16 program.  It is based on
 the Gaussian(R) 09 system (copyright 2009, Gaussian, Inc.),
 the Gaussian(R) 03 system (copyright 2003, Gaussian, Inc.),
 the Gaussian(R) 98 system (copyright 1998, Gaussian, Inc.),
 the Gaussian(R) 94 system (copyright 1995, Gaussian, Inc.),
 the Gaussian 92(TM) system (copyright 1992, Gaussian, Inc.),
 the Gaussian 90(TM) system (copyright 1990, Gaussian, Inc.),
 the Gaussian 88(TM) system (copyright 1988, Gaussian, Inc.),
 the Gaussian 86(TM) system (copyright 1986, Carnegie Mellon
 University), and the Gaussian 82(TM) system (copyright 1983,
 Carnegie Mellon University). Gaussian is a federally registered
 trademark of Gaussian, Inc.
  
 This software contains proprietary and confidential information,
 including trade secrets, belonging to Gaussian, Inc.
  
 This software is provided under written license and may be
 used, copied, transmitted, or stored only in accord with that
 written license.
  
 The following legend is applicable only to US Government
 contracts under FAR:
  
                    RESTRICTED RIGHTS LEGEND
  
 Use, reproduction and disclosure by the US Government is
 subject to restrictions as set forth in subparagraphs (a)
 and (c) of the Commercial Computer Software - Restricted
 Rights clause in FAR 52.227-19.
  
 Gaussian, Inc.
 340 Quinnipiac St., Bldg. 40, Wallingford CT 06492
  
  
 ---------------------------------------------------------------
 Warning -- This program may not be used in any manner that
 competes with the business of Gaussian, Inc. or will provide
 assistance to any competitor of Gaussian, Inc.  The licensee
 of this program is prohibited from giving any competitor of
 Gaussian, Inc. access to this program.  By using this program,
 the user acknowledges that Gaussian, Inc. is engaged in the
 business of creating and licensing software in the field of
 computational chemistry and represents and warrants to the
 licensee that it is not a competitor of Gaussian, Inc. and that
 it will not use this program in any manner prohibited above.
 ---------------------------------------------------------------
  

 Cite this work as:
 Gaussian 16, Revision A.03,
 M. J. Frisch, G. W. Trucks, H. B. Schlegel, G. E. Scuseria, 
 M. A. Robb, J. R. Cheeseman, G. Scalmani, V. Barone, 
 G. A. Petersson, H. Nakatsuji, X. Li, M. Caricato, A. V. Marenich, 
 J. Bloino, B. G. Janesko, R. Gomperts, B. Mennucci, H. P. Hratchian, 
 J. V. Ortiz, A. F. Izmaylov, J. L. Sonnenberg, D. Williams-Young, 
 F. Ding, F. Lipparini, F. Egidi, J. Goings, B. Peng, A. Petrone, 
 T. Henderson, D. Ranasinghe, V. G. Zakrzewski, J. Gao, N. Rega, 
 G. Zheng, W. Liang, M. Hada, M. Ehara, K. Toyota, R. Fukuda, 
 J. Hasegawa, M. Ishida, T. Nakajima, Y. Honda, O. Kitao, H. Nakai, 
 T. Vreven, K. Throssell, J. A. Montgomery, Jr., J. E. Peralta, 
 F. Ogliaro, M. J. Bearpark, J. J. Heyd, E. N. Brothers, K. N. Kudin, 
 V. N. Staroverov, T. A. Keith, R. Kobayashi, J. Normand, 
 K. Raghavachari, A. P. Rendell, J. C. Burant, S. S. Iyengar, 
 J. Tomasi, M. Cossi, J. M. Millam, M. Klene, C. Adamo, R. Cammi, 
 J. W. Ochterski, R. L. Martin, K. Morokuma, O. Farkas, 
 J. B. Foresman, and D. J. Fox, Gaussian, Inc., Wallingford CT, 2016.
 
 ******************************************
 Gaussian 16:  ES64L-G16RevA.03 25-Dec-2016
                24-May-2023 
 ******************************************
 %chk=CC1CC1CC1OCCCdCCdCC1O.chk
 %NProcShared=20
 Will use up to   20 processors via shared memory.
 -----------------------------------------------------------------
 # opt freq b3lyp/6-31+g(3df,2p) Geom=AllCheckpoint TD(NStates=10)
 -----------------------------------------------------------------
 1/18=20,19=15,26=3,29=7,38=1/1,3;
 2/9=110,12=2,40=1/2;
 3/5=1,6=6,7=216,11=9,14=-4,25=1,30=1,71=1,74=-5/1,2,3,8;
 4//1;
 5/5=2,38=5/2;
 8/6=1,10=2,108=10/1;
 9/15=2,41=10,42=1,70=2/14;
 10/5=4/2;
 6/7=2,8=2,9=2,10=2/1;
 7/12=6,13=5/1,2,3,16;
 1/18=20,19=15,26=3/3(2);
 2/9=110/2;
 99//99;
 2/9=110/2;
 3/5=1,6=6,7=216,11=9,14=-2,25=1,30=1,71=1,74=-5/1,2,3,8;
 4/5=5,16=3,69=1/1;
 5/5=2,38=5/2;
 8/6=1,10=2,108=10/1;
 9/15=2,41=10,42=1,49=4,70=2/14;
 10/5=4/2;
 7/12=6,13=5/1,2,3,16;
 1/18=20,19=15,26=3/3(-8);
 2/9=110/2;
 6/7=2,8=2,9=2,10=2/1;
 99//99;
 Structure from the checkpoint file:  "CC1CC1CC1OCCCdCCdCC1O.chk"
 -------------------
 Title Card Required
 -------------------
 Charge =  0 Multiplicity = 1
 Redundant internal coordinates found in file.  (old form).
 C,0,1.2445621053,0.0003168794,0.0136576251
 C,0,2.7502913441,0.0959933698,-0.0826742499
 C,0,3.5141049501,-0.6884255536,-1.119052555
 C,0,3.4142318987,0.8156220663,-1.2350197198
 C,0,4.6344397576,1.6816395191,-1.0254767112
 C,0,4.2958292874,3.1445651095,-0.6351564642
 O,0,5.5289388384,3.8408342099,-0.6319400475
 C,0,5.4014403173,5.2584670742,-0.6072798543
 C,0,6.7867567994,5.8825028279,-0.4649045506
 C,0,6.6965542355,7.3822959291,-0.4778444181
 C,0,6.9193332021,8.1645449742,0.5822314501
 C,0,6.7665978989,9.6402589951,0.6367528825
 C,0,5.9048873872,10.3651750443,-0.0478498266
 C,0,3.6090461458,3.2592473081,0.6761163885
 O,0,2.2862410878,3.3904856656,0.8083826753
 H,0,0.9365734117,-0.8719371334,0.6002943839
 H,0,0.7908024205,-0.094155684,-0.9790409584
 H,0,0.8226302822,0.8900221537,0.4950515596
 H,0,3.2541027088,0.2068022004,0.8749440996
 H,0,2.9484088123,-1.2895832997,-1.8233067427
 H,0,4.4733804726,-1.1138043493,-0.843003882
 H,0,2.7405480798,1.1711554682,-2.0138703344
 H,0,5.239083659,1.7356855832,-1.9390110016
 H,0,5.2762078328,1.2602362565,-0.2439628185
 H,0,3.6199179755,3.554161587,-1.4150297777
 H,0,4.7608487284,5.5697823959,0.2322191874
 H,0,4.9157249517,5.6037399698,-1.5351241207
 H,0,7.4162503728,5.5153516112,-1.2859899607
 H,0,7.2371243782,5.5313655235,0.469861427
 H,0,6.3974865805,7.844483598,-1.4177036522
 H,0,7.2510480881,7.6969525013,1.5119848396
 H,0,7.419666863,10.1207361061,1.372720237
 H,0,5.1762831927,10.0551575963,-0.7978890089
 H,0,4.136595067,3.167393281,1.6167972951
 H,0,1.8744108666,3.4716812154,-0.0630333958
 Recover connectivity data from disk.

 GradGradGradGradGradGradGradGradGradGradGradGradGradGradGradGradGradGrad
 Berny optimization.
 Initialization pass.
                           ----------------------------
                           !    Initial Parameters    !
                           ! (Angstroms and Degrees)  !
 --------------------------                            --------------------------
 ! Name  Definition              Value          Derivative Info.                !
 --------------------------------------------------------------------------------
 ! R1    R(1,2)                  1.5118         estimate D2E/DX2                !
 ! R2    R(1,16)                 1.0954         estimate D2E/DX2                !
 ! R3    R(1,17)                 1.0956         estimate D2E/DX2                !
 ! R4    R(1,18)                 1.0961         estimate D2E/DX2                !
 ! R5    R(2,3)                  1.5076         estimate D2E/DX2                !
 ! R6    R(2,4)                  1.5121         estimate D2E/DX2                !
 ! R7    R(2,19)                 1.0877         estimate D2E/DX2                !
 ! R8    R(3,4)                  1.5118         estimate D2E/DX2                !
 ! R9    R(3,20)                 1.0851         estimate D2E/DX2                !
 ! R10   R(3,21)                 1.0851         estimate D2E/DX2                !
 ! R11   R(4,5)                  1.5109         estimate D2E/DX2                !
 ! R12   R(4,22)                 1.0894         estimate D2E/DX2                !
 ! R13   R(5,6)                  1.5515         estimate D2E/DX2                !
 ! R14   R(5,23)                 1.0968         estimate D2E/DX2                !
 ! R15   R(5,24)                 1.0955         estimate D2E/DX2                !
 ! R16   R(6,7)                  1.4161         estimate D2E/DX2                !
 ! R17   R(6,14)                 1.4847         estimate D2E/DX2                !
 ! R18   R(6,25)                 1.1103         estimate D2E/DX2                !
 ! R19   R(6,35)                 2.5095         estimate D2E/DX2                !
 ! R20   R(7,8)                  1.4236         estimate D2E/DX2                !
 ! R21   R(8,9)                  1.526          estimate D2E/DX2                !
 ! R22   R(8,26)                 1.1009         estimate D2E/DX2                !
 ! R23   R(8,27)                 1.1027         estimate D2E/DX2                !
 ! R24   R(9,10)                 1.5026         estimate D2E/DX2                !
 ! R25   R(9,28)                 1.0978         estimate D2E/DX2                !
 ! R26   R(9,29)                 1.0954         estimate D2E/DX2                !
 ! R27   R(10,11)                1.3362         estimate D2E/DX2                !
 ! R28   R(10,30)                1.0892         estimate D2E/DX2                !
 ! R29   R(11,12)                1.4846         estimate D2E/DX2                !
 ! R30   R(11,31)                1.0923         estimate D2E/DX2                !
 ! R31   R(12,13)                1.3179         estimate D2E/DX2                !
 ! R32   R(12,32)                1.095          estimate D2E/DX2                !
 ! R33   R(13,33)                1.0907         estimate D2E/DX2                !
 ! R34   R(14,15)                1.3359         estimate D2E/DX2                !
 ! R35   R(14,26)                2.6196         estimate D2E/DX2                !
 ! R36   R(14,34)                1.0824         estimate D2E/DX2                !
 ! R37   R(15,35)                0.9672         estimate D2E/DX2                !
 ! R38   R(25,35)                2.2094         estimate D2E/DX2                !
 ! A1    A(2,1,16)             111.3804         estimate D2E/DX2                !
 ! A2    A(2,1,17)             111.114          estimate D2E/DX2                !
 ! A3    A(2,1,18)             111.101          estimate D2E/DX2                !
 ! A4    A(16,1,17)            107.4667         estimate D2E/DX2                !
 ! A5    A(16,1,18)            107.6338         estimate D2E/DX2                !
 ! A6    A(17,1,18)            107.9702         estimate D2E/DX2                !
 ! A7    A(1,2,3)              121.0292         estimate D2E/DX2                !
 ! A8    A(1,2,4)              121.0625         estimate D2E/DX2                !
 ! A9    A(1,2,19)             114.3091         estimate D2E/DX2                !
 ! A10   A(3,2,19)             115.0592         estimate D2E/DX2                !
 ! A11   A(4,2,19)             114.7752         estimate D2E/DX2                !
 ! A12   A(2,3,20)             118.0544         estimate D2E/DX2                !
 ! A13   A(2,3,21)             118.4899         estimate D2E/DX2                !
 ! A14   A(4,3,20)             117.8367         estimate D2E/DX2                !
 ! A15   A(4,3,21)             117.9004         estimate D2E/DX2                !
 ! A16   A(20,3,21)            114.1316         estimate D2E/DX2                !
 ! A17   A(2,4,5)              121.4454         estimate D2E/DX2                !
 ! A18   A(2,4,22)             115.3789         estimate D2E/DX2                !
 ! A19   A(3,4,5)              120.4142         estimate D2E/DX2                !
 ! A20   A(3,4,22)             114.8574         estimate D2E/DX2                !
 ! A21   A(5,4,22)             114.2992         estimate D2E/DX2                !
 ! A22   A(4,5,6)              113.5214         estimate D2E/DX2                !
 ! A23   A(4,5,23)             110.9733         estimate D2E/DX2                !
 ! A24   A(4,5,24)             110.5824         estimate D2E/DX2                !
 ! A25   A(6,5,23)             106.4621         estimate D2E/DX2                !
 ! A26   A(6,5,24)             108.1242         estimate D2E/DX2                !
 ! A27   A(23,5,24)            106.8679         estimate D2E/DX2                !
 ! A28   A(5,6,7)              105.9105         estimate D2E/DX2                !
 ! A29   A(5,6,14)             113.3274         estimate D2E/DX2                !
 ! A30   A(5,6,25)             107.6975         estimate D2E/DX2                !
 ! A31   A(5,6,35)             113.0074         estimate D2E/DX2                !
 ! A32   A(7,6,14)             111.2734         estimate D2E/DX2                !
 ! A33   A(7,6,25)             110.5057         estimate D2E/DX2                !
 ! A34   A(7,6,35)             140.8596         estimate D2E/DX2                !
 ! A35   A(14,6,25)            108.0746         estimate D2E/DX2                !
 ! A36   A(14,6,35)             48.87           estimate D2E/DX2                !
 ! A37   A(6,7,8)              114.3103         estimate D2E/DX2                !
 ! A38   A(7,8,9)              109.1191         estimate D2E/DX2                !
 ! A39   A(7,8,26)             110.2991         estimate D2E/DX2                !
 ! A40   A(7,8,27)             109.6743         estimate D2E/DX2                !
 ! A41   A(9,8,26)             109.9642         estimate D2E/DX2                !
 ! A42   A(9,8,27)             110.5063         estimate D2E/DX2                !
 ! A43   A(26,8,27)            107.2639         estimate D2E/DX2                !
 ! A44   A(8,9,10)             110.6631         estimate D2E/DX2                !
 ! A45   A(8,9,28)             108.2995         estimate D2E/DX2                !
 ! A46   A(8,9,29)             108.7695         estimate D2E/DX2                !
 ! A47   A(10,9,28)            111.2106         estimate D2E/DX2                !
 ! A48   A(10,9,29)            110.6094         estimate D2E/DX2                !
 ! A49   A(28,9,29)            107.1744         estimate D2E/DX2                !
 ! A50   A(9,10,11)            124.5781         estimate D2E/DX2                !
 ! A51   A(9,10,30)            116.581          estimate D2E/DX2                !
 ! A52   A(11,10,30)           118.8124         estimate D2E/DX2                !
 ! A53   A(10,11,12)           126.4363         estimate D2E/DX2                !
 ! A54   A(10,11,31)           118.3808         estimate D2E/DX2                !
 ! A55   A(12,11,31)           115.1825         estimate D2E/DX2                !
 ! A56   A(11,12,13)           126.5109         estimate D2E/DX2                !
 ! A57   A(11,12,32)           113.5465         estimate D2E/DX2                !
 ! A58   A(13,12,32)           119.8524         estimate D2E/DX2                !
 ! A59   A(12,13,33)           129.6209         estimate D2E/DX2                !
 ! A60   A(6,14,15)            123.5797         estimate D2E/DX2                !
 ! A61   A(6,14,26)             73.4458         estimate D2E/DX2                !
 ! A62   A(6,14,34)            122.381          estimate D2E/DX2                !
 ! A63   A(15,14,26)           111.4393         estimate D2E/DX2                !
 ! A64   A(15,14,34)           113.8853         estimate D2E/DX2                !
 ! A65   A(14,15,35)           109.917          estimate D2E/DX2                !
 ! A66   A(8,26,14)             97.7956         estimate D2E/DX2                !
 ! A67   A(6,35,15)             77.5036         estimate D2E/DX2                !
 ! A68   A(15,35,25)           102.5949         estimate D2E/DX2                !
 ! A69   L(26,14,34,6,-1)      195.8268         estimate D2E/DX2                !
 ! A70   L(26,14,34,6,-2)       79.6977         estimate D2E/DX2                !
 ! D1    D(16,1,2,3)            83.406          estimate D2E/DX2                !
 ! D2    D(16,1,2,4)           154.9201         estimate D2E/DX2                !
 ! D3    D(16,1,2,19)          -61.0925         estimate D2E/DX2                !
 ! D4    D(17,1,2,3)           -36.3765         estimate D2E/DX2                !
 ! D5    D(17,1,2,4)            35.1376         estimate D2E/DX2                !
 ! D6    D(17,1,2,19)          179.125          estimate D2E/DX2                !
 ! D7    D(18,1,2,3)          -156.6087         estimate D2E/DX2                !
 ! D8    D(18,1,2,4)           -85.0947         estimate D2E/DX2                !
 ! D9    D(18,1,2,19)           58.8928         estimate D2E/DX2                !
 ! D10   D(1,2,3,20)             2.7043         estimate D2E/DX2                !
 ! D11   D(1,2,3,21)          -142.0149         estimate D2E/DX2                !
 ! D12   D(19,2,3,20)          146.9557         estimate D2E/DX2                !
 ! D13   D(19,2,3,21)            2.2366         estimate D2E/DX2                !
 ! D14   D(1,2,4,5)            140.34           estimate D2E/DX2                !
 ! D15   D(1,2,4,22)            -5.1414         estimate D2E/DX2                !
 ! D16   D(19,2,4,5)            -3.4923         estimate D2E/DX2                !
 ! D17   D(19,2,4,22)         -148.9736         estimate D2E/DX2                !
 ! D18   D(20,3,4,5)          -140.9491         estimate D2E/DX2                !
 ! D19   D(20,3,4,22)            1.9757         estimate D2E/DX2                !
 ! D20   D(21,3,4,5)             2.4435         estimate D2E/DX2                !
 ! D21   D(21,3,4,22)          145.3683         estimate D2E/DX2                !
 ! D22   D(2,4,5,6)            -86.5545         estimate D2E/DX2                !
 ! D23   D(2,4,5,23)           153.5885         estimate D2E/DX2                !
 ! D24   D(2,4,5,24)            35.171          estimate D2E/DX2                !
 ! D25   D(3,4,5,6)           -157.6146         estimate D2E/DX2                !
 ! D26   D(3,4,5,23)            82.5284         estimate D2E/DX2                !
 ! D27   D(3,4,5,24)           -35.8891         estimate D2E/DX2                !
 ! D28   D(22,4,5,6)            59.2684         estimate D2E/DX2                !
 ! D29   D(22,4,5,23)          -60.5886         estimate D2E/DX2                !
 ! D30   D(22,4,5,24)         -179.0061         estimate D2E/DX2                !
 ! D31   D(4,5,6,7)           -173.4182         estimate D2E/DX2                !
 ! D32   D(4,5,6,14)            64.3205         estimate D2E/DX2                !
 ! D33   D(4,5,6,25)           -55.1689         estimate D2E/DX2                !
 ! D34   D(4,5,6,35)            10.8412         estimate D2E/DX2                !
 ! D35   D(23,5,6,7)           -51.0288         estimate D2E/DX2                !
 ! D36   D(23,5,6,14)         -173.2901         estimate D2E/DX2                !
 ! D37   D(23,5,6,25)           67.2205         estimate D2E/DX2                !
 ! D38   D(23,5,6,35)          133.2307         estimate D2E/DX2                !
 ! D39   D(24,5,6,7)            63.496          estimate D2E/DX2                !
 ! D40   D(24,5,6,14)          -58.7654         estimate D2E/DX2                !
 ! D41   D(24,5,6,25)         -178.2548         estimate D2E/DX2                !
 ! D42   D(24,5,6,35)         -112.2446         estimate D2E/DX2                !
 ! D43   D(5,6,7,8)            165.9039         estimate D2E/DX2                !
 ! D44   D(14,6,7,8)           -70.5331         estimate D2E/DX2                !
 ! D45   D(25,6,7,8)            49.5384         estimate D2E/DX2                !
 ! D46   D(35,6,7,8)           -20.3137         estimate D2E/DX2                !
 ! D47   D(5,6,14,15)          -98.6183         estimate D2E/DX2                !
 ! D48   D(5,6,14,26)          156.2898         estimate D2E/DX2                !
 ! D49   D(5,6,14,34)           76.592          estimate D2E/DX2                !
 ! D50   D(7,6,14,15)          142.1548         estimate D2E/DX2                !
 ! D51   D(7,6,14,26)           37.0628         estimate D2E/DX2                !
 ! D52   D(7,6,14,34)          -42.6349         estimate D2E/DX2                !
 ! D53   D(25,6,14,15)          20.6549         estimate D2E/DX2                !
 ! D54   D(25,6,14,26)         -84.437          estimate D2E/DX2                !
 ! D55   D(25,6,14,34)        -164.1347         estimate D2E/DX2                !
 ! D56   D(35,6,14,15)           2.2477         estimate D2E/DX2                !
 ! D57   D(35,6,14,26)        -102.8443         estimate D2E/DX2                !
 ! D58   D(35,6,14,34)         177.458          estimate D2E/DX2                !
 ! D59   D(5,6,35,15)           98.9075         estimate D2E/DX2                !
 ! D60   D(7,6,35,15)          -74.5952         estimate D2E/DX2                !
 ! D61   D(14,6,35,15)          -2.6492         estimate D2E/DX2                !
 ! D62   D(6,7,8,9)            174.3724         estimate D2E/DX2                !
 ! D63   D(6,7,8,26)            53.4738         estimate D2E/DX2                !
 ! D64   D(6,7,8,27)           -64.4499         estimate D2E/DX2                !
 ! D65   D(7,8,9,10)           178.2508         estimate D2E/DX2                !
 ! D66   D(7,8,9,28)            56.1109         estimate D2E/DX2                !
 ! D67   D(7,8,9,29)           -60.0482         estimate D2E/DX2                !
 ! D68   D(26,8,9,10)          -60.6463         estimate D2E/DX2                !
 ! D69   D(26,8,9,28)          177.2137         estimate D2E/DX2                !
 ! D70   D(26,8,9,29)           61.0547         estimate D2E/DX2                !
 ! D71   D(27,8,9,10)           57.5811         estimate D2E/DX2                !
 ! D72   D(27,8,9,28)          -64.5588         estimate D2E/DX2                !
 ! D73   D(27,8,9,29)          179.2822         estimate D2E/DX2                !
 ! D74   D(7,8,26,14)          -18.1318         estimate D2E/DX2                !
 ! D75   D(9,8,26,14)         -138.5241         estimate D2E/DX2                !
 ! D76   D(27,8,26,14)         101.265          estimate D2E/DX2                !
 ! D77   D(8,9,10,11)          110.0814         estimate D2E/DX2                !
 ! D78   D(8,9,10,30)          -67.9503         estimate D2E/DX2                !
 ! D79   D(28,9,10,11)        -129.4999         estimate D2E/DX2                !
 ! D80   D(28,9,10,30)          52.4685         estimate D2E/DX2                !
 ! D81   D(29,9,10,11)         -10.5306         estimate D2E/DX2                !
 ! D82   D(29,9,10,30)         171.4378         estimate D2E/DX2                !
 ! D83   D(9,10,11,12)        -176.2366         estimate D2E/DX2                !
 ! D84   D(9,10,11,31)           4.0115         estimate D2E/DX2                !
 ! D85   D(30,10,11,12)          1.7544         estimate D2E/DX2                !
 ! D86   D(30,10,11,31)       -177.9975         estimate D2E/DX2                !
 ! D87   D(10,11,12,13)         31.3022         estimate D2E/DX2                !
 ! D88   D(10,11,12,32)       -152.1841         estimate D2E/DX2                !
 ! D89   D(31,11,12,13)       -148.939          estimate D2E/DX2                !
 ! D90   D(31,11,12,32)         27.5747         estimate D2E/DX2                !
 ! D91   D(11,12,13,33)         -2.5537         estimate D2E/DX2                !
 ! D92   D(32,12,13,33)       -178.8684         estimate D2E/DX2                !
 ! D93   D(6,14,15,35)          -4.6758         estimate D2E/DX2                !
 ! D94   D(26,14,15,35)         79.198          estimate D2E/DX2                !
 ! D95   D(34,14,15,35)        179.7472         estimate D2E/DX2                !
 ! D96   D(6,14,26,8)          -12.8692         estimate D2E/DX2                !
 ! D97   D(15,14,26,8)        -133.08           estimate D2E/DX2                !
 ! D98   D(14,15,35,6)           2.3586         estimate D2E/DX2                !
 ! D99   D(14,15,35,25)         -5.3843         estimate D2E/DX2                !
 --------------------------------------------------------------------------------
 Trust Radius=3.00D-01 FncErr=1.00D-07 GrdErr=1.00D-06 EigMax=2.50D+02 EigMin=1.00D-04
 Number of steps in this run=    210 maximum allowed number of steps=    210.
 GradGradGradGradGradGradGradGradGradGradGradGradGradGradGradGradGradGrad

                          Input orientation:                          
 ---------------------------------------------------------------------
 Center     Atomic      Atomic             Coordinates (Angstroms)
 Number     Number       Type             X           Y           Z
 ---------------------------------------------------------------------
      1          6           0        1.244562    0.000317    0.013658
      2          6           0        2.750291    0.095993   -0.082674
      3          6           0        3.514105   -0.688426   -1.119053
      4          6           0        3.414232    0.815622   -1.235020
      5          6           0        4.634440    1.681640   -1.025477
      6          6           0        4.295829    3.144565   -0.635156
      7          8           0        5.528939    3.840834   -0.631940
      8          6           0        5.401440    5.258467   -0.607280
      9          6           0        6.786757    5.882503   -0.464905
     10          6           0        6.696554    7.382296   -0.477844
     11          6           0        6.919333    8.164545    0.582231
     12          6           0        6.766598    9.640259    0.636753
     13          6           0        5.904887   10.365175   -0.047850
     14          6           0        3.609046    3.259247    0.676116
     15          8           0        2.286241    3.390486    0.808383
     16          1           0        0.936573   -0.871937    0.600294
     17          1           0        0.790802   -0.094156   -0.979041
     18          1           0        0.822630    0.890022    0.495052
     19          1           0        3.254103    0.206802    0.874944
     20          1           0        2.948409   -1.289583   -1.823307
     21          1           0        4.473380   -1.113804   -0.843004
     22          1           0        2.740548    1.171155   -2.013870
     23          1           0        5.239084    1.735686   -1.939011
     24          1           0        5.276208    1.260236   -0.243963
     25          1           0        3.619918    3.554162   -1.415030
     26          1           0        4.760849    5.569782    0.232219
     27          1           0        4.915725    5.603740   -1.535124
     28          1           0        7.416250    5.515352   -1.285990
     29          1           0        7.237124    5.531366    0.469861
     30          1           0        6.397487    7.844484   -1.417704
     31          1           0        7.251048    7.696953    1.511985
     32          1           0        7.419667   10.120736    1.372720
     33          1           0        5.176283   10.055158   -0.797889
     34          1           0        4.136595    3.167393    1.616797
     35          1           0        1.874411    3.471681   -0.063033
 ---------------------------------------------------------------------
                    Distance matrix (angstroms):
                    1          2          3          4          5
     1  C    0.000000
     2  C    1.511838   0.000000
     3  C    2.628350   1.507582   0.000000
     4  C    2.632752   1.512145   1.511814   0.000000
     5  C    3.924018   2.636886   2.623188   1.510894   0.000000
     6  C    4.429163   3.462328   3.941708   2.561450   1.551502
     7  O    5.789841   4.695360   4.981067   3.740000   2.370047
     8  C    6.731519   5.827086   6.260150   4.907334   3.681966
     9  C    8.095990   7.065610   7.369889   6.135168   4.753311
    10  C    9.190180   8.295743   8.699177   7.380255   6.086847
    11  C    9.958962   9.106291   9.636651   8.342350   7.059287
    12  C   11.126977  10.379851  10.970109   9.623726   8.405280
    13  C   11.364537  10.742848  11.359815   9.940156   8.830265
    14  C    4.080473   3.364431   4.337714   3.108327   2.536868
    15  O    3.634546   3.444271   4.675486   3.475310   3.434710
    16  H    1.095366   2.166312   3.103788   3.514972   4.778923
    17  H    1.095570   2.163152   2.790902   2.788477   4.234283
    18  H    1.096058   2.163360   3.512957   3.116902   4.179540
    19  H    2.196066   1.087721   2.201149   2.201874   2.773459
    20  H    2.818044   2.233579   1.085070   2.234941   3.508190
    21  H    3.521421   2.238470   1.085062   2.235656   2.806019
    22  H    2.778436   2.210336   2.203890   1.089432   2.196438
    23  H    4.772905   3.511220   3.086130   2.161528   1.096841
    24  H    4.231777   2.785988   2.769128   2.155651   1.095541
    25  H    4.507025   3.806619   4.254215   2.752146   2.165028
    26  H    6.590219   5.839851   6.522689   5.154436   4.088451
    27  H    6.875646   6.093766   6.459799   5.026989   3.965064
    28  H    8.378212   7.251799   7.330857   6.173023   4.743805
    29  H    8.167706   7.069670   7.421005   6.305503   4.881638
    30  H    9.493807   8.667378   9.011860   7.637937   6.422058
    31  H    9.877300   8.976320   9.549956   8.343854   7.033444
    32  H   11.933225  11.154224  11.760116  10.460830   9.204737
    33  H   10.826674  10.275306  10.876146   9.416205   8.394117
    34  H    4.578677   3.774061   4.768617   3.766364   3.071958
    35  H    3.528875   3.487524   4.594590   3.286221   3.427580
                    6          7          8          9         10
     6  C    0.000000
     7  O    1.416107   0.000000
     8  C    2.385736   1.423568   0.000000
     9  C    3.705403   2.403834   1.526038   0.000000
    10  C    4.873047   3.732161   2.490928   1.502559   0.000000
    11  C    5.793531   4.701264   3.487725   2.514316   1.336153
    12  C    7.065160   6.064215   4.755142   3.915966   2.519053
    13  C    7.420998   6.561213   5.161869   4.587590   3.115959
    14  C    1.484675   2.394837   2.976015   4.275657   5.278623
    15  O    2.486509   3.576651   3.898451   5.299627   6.086032
    16  H    5.379891   6.694657   7.679527   8.998986  10.122852
    17  H    4.784640   6.168838   7.074373   8.481524   9.540777
    18  H    4.292254   5.668046   6.423702   7.836912   8.809037
    19  H    3.463531   4.544422   5.685716   6.818241   8.072684
    20  H    4.784236   5.865123   7.097397   8.247241   9.542555
    21  H    4.267134   5.070226   6.443811   7.378549   8.789742
    22  H    2.866025   4.100249   5.075920   6.400617   7.522475
    23  H    2.138856   2.494815   3.769596   4.665230   6.011941
    24  H    2.159831   2.621810   4.016657   4.867846   6.289014
    25  H    1.110328   2.083212   2.594405   4.043857   4.999862
    26  H    2.617301   2.079903   1.100924   2.165197   2.745242
    27  H    2.691051   2.073550   1.102736   2.173439   2.729918
    28  H    3.972561   2.606479   2.141517   1.097836   2.157902
    29  H    3.945770   2.643816   2.145797   1.095407   2.148559
    30  H    5.207550   4.171452   2.887278   2.215564   1.089217
    31  H    5.836760   4.736214   3.722706   2.723212   2.089472
    32  H    7.902967   6.857892   5.624527   4.662624   3.383273
    33  H    6.968355   6.226534   4.805754   4.485036   3.091576
    34  H    2.257692   2.729279   3.304382   4.327662   5.357828
    35  H    2.509501   3.716921   3.991083   5.486775   6.222382
                   11         12         13         14         15
    11  C    0.000000
    12  C    1.484598   0.000000
    13  C    2.503772   1.317850   0.000000
    14  C    5.918510   7.119620   7.502614   0.000000
    15  O    6.656450   7.691731   7.904051   1.335863   0.000000
    16  H   10.837516  12.020681  12.303533   4.920828   4.475841
    17  H   10.402048  11.536020  11.679837   4.682665   4.192129
    18  H    9.491895  10.579106  10.765807   3.661984   2.914215
    19  H    8.766143  10.068985  10.539011   3.079438   3.328217
    20  H   10.532587  11.836043  12.154275   5.232152   5.409926
    21  H    9.700605  11.094972  11.595191   4.709393   5.272503
    22  H    8.550409   9.744773   9.920095   3.514320   3.618969
    23  H    7.107048   8.452818   8.859338   3.437609   4.359566
    24  H    7.145064   8.556968   9.128724   2.760800   3.819070
    25  H    6.010892   7.152062   7.313014   2.111868   2.597893
    26  H    3.393281   4.555816   4.937920   2.619593   3.347384
    27  H    3.880124   4.943305   5.085439   3.477591   4.159892
    28  H    3.279543   4.597157   5.228575   4.840937   5.934513
    29  H    2.654666   4.139113   5.040694   4.285792   5.404554
    30  H    2.091531   2.753515   2.910848   5.760545   6.457236
    31  H    1.092300   2.185672   3.371149   5.801386   6.609843
    32  H    2.168384   1.094991   2.091011   7.879474   8.483325
    33  H    2.918454   2.181614   1.090657   7.128346   7.439778
    34  H    5.812528   7.055168   7.596445   1.082417   2.031530
    35  H    6.920302   7.904084   7.985313   1.897480   0.967245
                   16         17         18         19         20
    16  H    0.000000
    17  H    1.766492   0.000000
    18  H    1.768773   1.772729   0.000000
    19  H    2.571002   3.097690   2.554049   0.000000
    20  H    3.177381   2.607124   3.826800   3.100512   0.000000
    21  H    3.827612   3.823555   4.374207   2.486360   1.821381
    22  H    3.776560   2.544286   3.170510   3.088521   2.476844
    23  H    5.635545   4.904800   5.113205   3.767755   3.796423
    24  H    4.908295   4.742740   4.529631   2.539800   3.796651
    25  H    5.554477   4.637262   4.309393   4.072176   4.907085
    26  H    7.500421   7.022009   6.121993   5.607578   7.386543
    27  H    7.894812   7.056219   6.564615   6.139736   7.174349
    28  H    9.292026   8.686619   8.248734   7.083347   8.158275
    29  H    8.984222   8.677608   7.917603   6.661796   8.377174
    30  H   10.481883   9.728789   9.116040   8.571539   9.771992
    31  H   10.683147  10.423116   9.417697   8.513739  10.506888
    32  H   12.785383  12.402284  11.379687  10.765026  12.664996
    33  H   11.803875  11.057749  10.228670  10.172672  11.606811
    34  H    5.252581   5.345129   4.174577   3.177143   5.754193
    35  H    4.492946   3.837769   2.843003   3.666441   5.188610
                   21         22         23         24         25
    21  H    0.000000
    22  H    3.097528   0.000000
    23  H    3.147559   2.562612   0.000000
    24  H    2.576713   3.093554   1.760857   0.000000
    25  H    4.779699   2.609716   2.490604   3.062154   0.000000
    26  H    6.775624   5.336146   4.432070   4.366295   2.842161
    27  H    6.767577   4.960685   3.902503   4.545665   2.427820
    28  H    7.266528   6.423709   4.410484   4.875614   4.274934
    29  H    7.315749   6.737919   4.919555   4.753660   4.532806
    30  H    9.180598   7.632950   6.239477   6.781390   5.110945
    31  H    9.533669   8.681146   7.175937   6.958065   6.238208
    32  H   11.823914  10.651673   9.275321   9.258323   8.082669
    33  H   11.191149   9.291766   8.397602   8.812914   6.713128
    34  H    4.949010   4.372146   3.988614   2.897998   3.099761
    35  H    5.328196   3.138212   4.225399   4.061459   2.209410
                   26         27         28         29         30
    26  H    0.000000
    27  H    1.774441   0.000000
    28  H    3.059261   2.514460   0.000000
    29  H    2.487949   3.068241   1.765037   0.000000
    30  H    3.251937   2.688929   2.545601   3.101356   0.000000
    31  H    3.516212   4.372659   3.551808   2.403327   3.055063
    32  H    5.392702   5.926933   5.317736   4.680897   3.743347
    33  H    4.620855   4.519571   5.085817   5.130200   2.600498
    34  H    2.842221   4.059241   4.969429   4.064125   6.016228
    35  H    3.580604   3.995287   6.031931   5.769313   6.435429
                   31         32         33         34         35
    31  H    0.000000
    32  H    2.433630   0.000000
    33  H    3.898884   3.122277   0.000000
    34  H    5.497973   7.693316   7.372446   0.000000
    35  H    7.017252   8.776171   7.401658   2.834061   0.000000
 Stoichiometry    C13H20O2
 Framework group  C1[X(C13H20O2)]
 Deg. of freedom    99
 Full point group                 C1      NOp   1
 Largest Abelian subgroup         C1      NOp   1
 Largest concise Abelian subgroup C1      NOp   1
                         Standard orientation:                         
 ---------------------------------------------------------------------
 Center     Atomic      Atomic             Coordinates (Angstroms)
 Number     Number       Type             X           Y           Z
 ---------------------------------------------------------------------
      1          6           0       -5.017709    1.435768   -0.105477
      2          6           0       -4.302886    0.198772    0.389015
      3          6           0       -4.755600   -1.178251   -0.025307
      4          6           0       -3.444055   -0.629770   -0.539699
      5          6           0       -2.133400   -1.224691   -0.080293
      6          6           0       -0.928009   -0.259950   -0.233476
      7          8           0        0.221608   -1.020487    0.091062
      8          6           0        1.452111   -0.413858   -0.288952
      9          6           0        2.609177   -1.258346    0.237197
     10          6           0        3.927380   -0.671132   -0.181375
     11          6           0        4.795202   -0.086590    0.649589
     12          6           0        6.069491    0.574640    0.271443
     13          6           0        6.319654    1.207617   -0.857046
     14          6           0       -1.031655    0.950528    0.619906
     15          8           0       -1.461867    2.134101    0.174256
     16          1           0       -5.900023    1.657788    0.504487
     17          1           0       -5.356323    1.309011   -1.139666
     18          1           0       -4.360377    2.312118   -0.069883
     19          1           0       -3.930598    0.274094    1.408262
     20          1           0       -5.581800   -1.254951   -0.724512
     21          1           0       -4.719159   -1.977438    0.707721
     22          1           0       -3.454790   -0.321805   -1.584642
     23          1           0       -1.886850   -2.124247   -0.657417
     24          1           0       -2.195541   -1.528275    0.970510
     25          1           0       -0.890830    0.068090   -1.293587
     26          1           0        1.516373    0.607041    0.118072
     27          1           0        1.501966   -0.331925   -1.387509
     28          1           0        2.490869   -2.280976   -0.144215
     29          1           0        2.539557   -1.310319    1.329153
     30          1           0        4.160893   -0.706156   -1.244690
     31          1           0        4.569920   -0.084720    1.718404
     32          1           0        6.825285    0.553215    1.063480
     33          1           0        5.685394    1.343023   -1.733924
     34          1           0       -0.833795    0.928385    1.683855
     35          1           0       -1.616301    2.090711   -0.779595
 ---------------------------------------------------------------------
 Rotational constants (GHZ):           1.6515307           0.1738873           0.1628314
 Standard basis: 6-31+G(3df,2p) (6D, 7F)
 There are   775 symmetry adapted cartesian basis functions of A   symmetry.
 There are   730 symmetry adapted basis functions of A   symmetry.
   730 basis functions,  1010 primitive gaussians,   775 cartesian basis functions
    57 alpha electrons       57 beta electrons
       nuclear repulsion energy       937.0387650798 Hartrees.
 NAtoms=   35 NActive=   35 NUniq=   35 SFac= 1.00D+00 NAtFMM=   60 NAOKFM=F Big=F
 Integral buffers will be    131072 words long.
 Regular integral format.
 Two-electron integral symmetry is turned on.
 One-electron integrals computed using PRISM.
 PrsmSu:  requested number of processors reduced to:  12 ShMem   1 Linda.
 NBasis=   730 RedAO= T EigKep=  5.30D-06  NBF=   730
 NBsUse=   730 1.00D-06 EigRej= -1.00D+00 NBFU=   730
 ExpMin= 4.38D-02 ExpMax= 5.48D+03 ExpMxC= 8.25D+02 IAcc=3 IRadAn=         5 AccDes= 0.00D+00
 Harris functional with IExCor=  402 and IRadAn=       5 diagonalized for initial guess.
 HarFok:  IExCor=  402 AccDes= 0.00D+00 IRadAn=         5 IDoV= 1 UseB2=F ITyADJ=14
 ICtDFT=  3500011 ScaDFX=  1.000000  1.000000  1.000000  1.000000
 FoFCou: FMM=F IPFlag=           0 FMFlag=      100000 FMFlg1=           0
         NFxFlg=           0 DoJE=T BraDBF=F KetDBF=T FulRan=T
         wScrn=  0.000000 ICntrl=       500 IOpCl=  0 I1Cent=   200000004 NGrid=           0
         NMat0=    1 NMatS0=      1 NMatT0=    0 NMatD0=    1 NMtDS0=    0 NMtDT0=    0
 Petite list used in FoFCou.
 Requested convergence on RMS density matrix=1.00D-08 within 128 cycles.
 Requested convergence on MAX density matrix=1.00D-06.
 Requested convergence on             energy=1.00D-06.
 No special actions if energy rises.
 EnCoef did     3 forward-backward iterations
 EnCoef did     6 forward-backward iterations
 EnCoef did    15 forward-backward iterations
 EnCoef did   100 forward-backward iterations
 EnCoef did    34 forward-backward iterations
 EnCoef did    74 forward-backward iterations
 Rare condition: small coef for last iteration:  0.000D+00
 EnCoef did   100 forward-backward iterations
 EnCoef did   100 forward-backward iterations
 Rare condition: small coef for last iteration:  0.000D+00
 Restarting incremental Fock formation.
 SCF Done:  E(RB3LYP) =  -657.682354609     A.U. after   27 cycles
            NFock= 27  Conv=0.44D-08     -V/T= 2.0081
 DoSCS=F DFT=T ScalE2(SS,OS)=  1.000000  1.000000
 ExpMin= 4.38D-02 ExpMax= 5.48D+03 ExpMxC= 8.25D+02 IAcc=3 IRadAn=         5 AccDes= 0.00D+00
 HarFok:  IExCor=  205 AccDes= 0.00D+00 IRadAn=         5 IDoV=-2 UseB2=F ITyADJ=14
 ICtDFT= 12500011 ScaDFX=  1.000000  1.000000  1.000000  1.000000
 Range of M.O.s used for correlation:    16   730
 NBasis=   730 NAE=    57 NBE=    57 NFC=    15 NFV=     0
 NROrb=    715 NOA=    42 NOB=    42 NVA=   673 NVB=   673

 **** Warning!!: The largest alpha MO coefficient is  0.72169566D+02


 **** Warning!!: The smallest alpha delta epsilon is  0.15059208D-01

 Orbital symmetries:
       Occupied  (A) (A) (A) (A) (A) (A) (A) (A) (A) (A) (A) (A)
                 (A) (A) (A) (A) (A) (A) (A) (A) (A) (A) (A) (A)
                 (A) (A) (A) (A) (A) (A) (A) (A) (A) (A) (A) (A)
                 (A) (A) (A) (A) (A) (A) (A) (A) (A) (A) (A) (A)
                 (A) (A) (A) (A) (A) (A) (A) (A) (A)
       Virtual   (A) (A) (A) (A) (A) (A) (A) (A) (A) (A) (A) (A)
                 (A) (A) (A) (A) (A) (A) (A) (A) (A) (A) (A) (A)
                 (A) (A) (A) (A) (A) (A) (A) (A) (A) (A) (A) (A)
                 (A) (A) (A) (A) (A) (A) (A) (A) (A) (A) (A) (A)
                 (A) (A) (A) (A) (A) (A) (A) (A) (A) (A) (A) (A)
                 (A) (A) (A) (A) (A) (A) (A) (A) (A) (A) (A) (A)
                 (A) (A) (A) (A) (A) (A) (A) (A) (A) (A) (A) (A)
                 (A) (A) (A) (A) (A) (A) (A) (A) (A) (A) (A) (A)
                 (A) (A) (A) (A) (A) (A) (A) (A) (A) (A) (A) (A)
                 (A) (A) (A) (A) (A) (A) (A) (A) (A) (A) (A) (A)
                 (A) (A) (A) (A) (A) (A) (A) (A) (A) (A) (A) (A)
                 (A) (A) (A) (A) (A) (A) (A) (A) (A) (A) (A) (A)
                 (A) (A) (A) (A) (A) (A) (A) (A) (A) (A) (A) (A)
                 (A) (A) (A) (A) (A) (A) (A) (A) (A) (A) (A) (A)
                 (A) (A) (A) (A) (A) (A) (A) (A) (A) (A) (A) (A)
                 (A) (A) (A) (A) (A) (A) (A) (A) (A) (A) (A) (A)
                 (A) (A) (A) (A) (A) (A) (A) (A) (A) (A) (A) (A)
                 (A) (A) (A) (A) (A) (A) (A) (A) (A) (A) (A) (A)
                 (A) (A) (A) (A) (A) (A) (A) (A) (A) (A) (A) (A)
                 (A) (A) (A) (A) (A) (A) (A) (A) (A) (A) (A) (A)
                 (A) (A) (A) (A) (A) (A) (A) (A) (A) (A) (A) (A)
                 (A) (A) (A) (A) (A) (A) (A) (A) (A) (A) (A) (A)
                 (A) (A) (A) (A) (A) (A) (A) (A) (A) (A) (A) (A)
                 (A) (A) (A) (A) (A) (A) (A) (A) (A) (A) (A) (A)
                 (A) (A) (A) (A) (A) (A) (A) (A) (A) (A) (A) (A)
                 (A) (A) (A) (A) (A) (A) (A) (A) (A) (A) (A) (A)
                 (A) (A) (A) (A) (A) (A) (A) (A) (A) (A) (A) (A)
                 (A) (A) (A) (A) (A) (A) (A) (A) (A) (A) (A) (A)
                 (A) (A) (A) (A) (A) (A) (A) (A) (A) (A) (A) (A)
                 (A) (A) (A) (A) (A) (A) (A) (A) (A) (A) (A) (A)
                 (A) (A) (A) (A) (A) (A) (A) (A) (A) (A) (A) (A)
                 (A) (A) (A) (A) (A) (A) (A) (A) (A) (A) (A) (A)
                 (A) (A) (A) (A) (A) (A) (A) (A) (A) (A) (A) (A)
                 (A) (A) (A) (A) (A) (A) (A) (A) (A) (A) (A) (A)
                 (A) (A) (A) (A) (A) (A) (A) (A) (A) (A) (A) (A)
                 (A) (A) (A) (A) (A) (A) (A) (A) (A) (A) (A) (A)
                 (A) (A) (A) (A) (A) (A) (A) (A) (A) (A) (A) (A)
                 (A) (A) (A) (A) (A) (A) (A) (A) (A) (A) (A) (A)
                 (A) (A) (A) (A) (A) (A) (A) (A) (A) (A) (A) (A)
                 (A) (A) (A) (A) (A) (A) (A) (A) (A) (A) (A) (A)
                 (A) (A) (A) (A) (A) (A) (A) (A) (A) (A) (A) (A)
                 (A) (A) (A) (A) (A) (A) (A) (A) (A) (A) (A) (A)
                 (A) (A) (A) (A) (A) (A) (A) (A) (A) (A) (A) (A)
                 (A) (A) (A) (A) (A) (A) (A) (A) (A) (A) (A) (A)
                 (A) (A) (A) (A) (A) (A) (A) (A) (A) (A) (A) (A)
                 (A) (A) (A) (A) (A) (A) (A) (A) (A) (A) (A) (A)
                 (A) (A) (A) (A) (A) (A) (A) (A) (A) (A) (A) (A)
                 (A) (A) (A) (A) (A) (A) (A) (A) (A) (A) (A) (A)
                 (A) (A) (A) (A) (A) (A) (A) (A) (A) (A) (A) (A)
                 (A) (A) (A) (A) (A) (A) (A) (A) (A) (A) (A) (A)
                 (A) (A) (A) (A) (A) (A) (A) (A) (A) (A) (A) (A)
                 (A) (A) (A) (A) (A) (A) (A) (A) (A) (A) (A) (A)
                 (A) (A) (A) (A) (A) (A) (A) (A) (A) (A) (A) (A)
                 (A) (A) (A) (A) (A) (A) (A) (A) (A) (A) (A) (A)
                 (A) (A) (A) (A) (A) (A) (A) (A) (A) (A) (A) (A)
                 (A) (A) (A) (A) (A) (A) (A) (A) (A) (A) (A) (A)
                 (A)
    40 initial guesses have been made.
 Convergence on wavefunction:    0.000001000000000
 Iteration     1 Dimension    40 NMult     0 NNew     40
 CISAX will form     2 AO SS matrices at one time.
 New state      7 was old state      8
 New state      8 was old state      9
 New state      9 was old state      7
 Iteration     2 Dimension    60 NMult    40 NNew     20
 No map to state      1
 Iteration     3 Dimension    80 NMult    60 NNew     20
 No map to state      1
 Iteration     4 Dimension   100 NMult    80 NNew     20
 No map to state      1
 Iteration     5 Dimension   120 NMult   100 NNew     20
 No map to state      1
 Iteration     6 Dimension   140 NMult   120 NNew     20
 No map to state      1
 Iteration     7 Dimension   160 NMult   140 NNew     20
 No map to state      1
 Iteration     8 Dimension   178 NMult   160 NNew     18
 No map to state      1
 Iteration     9 Dimension   188 NMult   178 NNew     10
 No map to state      1
 Iteration    10 Dimension   192 NMult   188 NNew      4
 No map to state      1
 Iteration    11 Dimension   196 NMult   192 NNew      4
 No map to state      1
 Iteration    12 Dimension   199 NMult   196 NNew      3
 No map to state      1
 Iteration    13 Dimension   201 NMult   199 NNew      2
 No map to state      1
 Iteration    14 Dimension   203 NMult   201 NNew      2
 No map to state      1
 Iteration    15 Dimension   204 NMult   203 NNew      1
 No map to state      1
 Iteration    16 Dimension   206 NMult   204 NNew      2
 No map to state      1
 Iteration    17 Dimension   207 NMult   206 NNew      1
 No map to state      1
 Iteration    18 Dimension   208 NMult   207 NNew      1
 No map to state      1
 Iteration    19 Dimension   210 NMult   208 NNew      2
 No map to state      1
 ***********************************************************************
 Excited states from <AA,BB:AA,BB> singles matrix:
 ***********************************************************************
 
 Ground to excited state transition densities written to RWF  633
 Ground to excited state transition electric dipole moments (Au):
       state          X           Y           Z        Dip. S.      Osc.
         1         2.0119      0.0508     -0.2028      4.0913      0.0475
         2         0.0260     -0.1425     -0.0117      0.0211      0.0007
         3         0.0048      0.0469     -0.1213      0.0169      0.0010
         4         0.0480     -0.0857     -0.1058      0.0208      0.0014
         5         0.1794      0.0151     -0.0979      0.0420      0.0034
         6         0.1442      0.1365      0.0620      0.0433      0.0036
         7        -0.1992     -0.0298      0.0469      0.0428      0.0036
         8        -0.1386     -0.0152      0.0286      0.0203      0.0018
         9        -0.0170     -0.1169      0.0529      0.0167      0.0015
        10        -0.1098     -0.0793     -0.2178      0.0658      0.0063
 Ground to excited state transition velocity dipole moments (Au):
       state          X           Y           Z        Dip. S.      Osc.
         1        -0.0348     -0.0019      0.0031      0.0012      0.0468
         2        -0.0010      0.0066     -0.0002      0.0000      0.0006
         3        -0.0023     -0.0051      0.0123      0.0002      0.0013
         4        -0.0054      0.0095      0.0126      0.0003      0.0019
         5        -0.0193     -0.0015      0.0126      0.0005      0.0030
         6        -0.0195     -0.0162     -0.0085      0.0007      0.0038
         7         0.0265      0.0048     -0.0070      0.0008      0.0040
         8         0.0174      0.0032     -0.0035      0.0003      0.0017
         9         0.0005      0.0160     -0.0067      0.0003      0.0015
        10         0.0159      0.0114      0.0299      0.0013      0.0059
 Ground to excited state transition magnetic dipole moments (Au):
       state          X           Y           Z
         1         0.0513     -0.0953     -0.1255
         2        -0.0560      0.1433     -0.3783
         3        -0.0970      0.2582      0.1395
         4         0.1654     -0.4284      0.6571
         5        -0.0147      0.0104     -0.1421
         6         0.0448     -0.0905      0.1878
         7         0.1069     -0.1553      0.3872
         8        -0.0112      0.1668      0.0807
         9         0.0243     -0.1925      0.0946
        10         0.0707     -0.4843      0.1309
 Ground to excited state transition velocity quadrupole moments (Au):
       state          XX          YY          ZZ          XY          XZ          YZ
         1        -0.2907      0.0053     -0.0027     -0.0662      0.0221      0.0130
         2         0.0197      0.0237      0.0031      0.0729      0.0031     -0.0024
         3         0.1010     -0.0413     -0.0377     -0.0383     -0.0636      0.0329
         4        -0.2166      0.1131     -0.0701      0.1735      0.1545      0.0170
         5         0.0489      0.0001      0.0011      0.0044     -0.1679     -0.0260
         6         0.2330      0.0443      0.0471      0.1220     -0.0535     -0.0021
         7         0.1270     -0.0228      0.0207      0.0324     -0.0412     -0.0038
         8         0.3522     -0.0285      0.0162      0.0373     -0.0512      0.0052
         9         0.3724      0.0085     -0.0558      0.0325     -0.0550     -0.0399
        10         0.1199     -0.0720      0.0811     -0.0801      0.1322      0.0028
 <0|del|b> * <b|rxdel|0> + <0|del|b> * <b|delr+rdel|0>
 Rotatory Strengths (R) in cgs (10**-40 erg-esu-cm/Gauss)
       state          XX          YY          ZZ    R(velocity)    E-M Angle
         1        -7.4222    -49.0184    -24.2430    -26.8945      110.07
         2         6.5541      1.0118      6.7550      4.7736       66.65
         3        -1.4939      8.9405     -2.6288      1.6060       81.33
         4        17.5400     18.1955    -12.1104      7.8750       75.63
         5        -5.8778     -3.0976      0.0611     -2.9714      117.31
         6        -5.6875     -3.9055      3.9933     -1.8666      100.06
         7        -9.6098      0.7284      5.5135     -1.1226       92.91
         8         0.7843     -0.6881      0.2360      0.1107       90.00
         9        -8.1182     -1.1240    -10.4637     -6.5686      171.30
        10       -13.5878     18.4028     -7.2414     -0.8088       91.56
 1/2[<0|r|b>*<b|rxdel|0> + (<0|rxdel|b>*<b|r|0>)*]
 Rotatory Strengths (R) in cgs (10**-40 erg-esu-cm/Gauss)
       state          XX          YY          ZZ     R(length)
         1       -72.9691      3.4243    -18.0017    -29.1822
         2         1.0279     14.4413     -3.1362      4.1110
         3         0.3326     -8.5659     11.9687      1.2451
         4        -5.6140    -25.9744     49.1674      5.8597
         5         1.8609     -0.1117     -9.8442     -2.6983
         6        -4.5681      8.7386     -8.2325     -1.3540
         7        15.0500     -3.2704    -12.8369     -0.3525
         8        -1.0947      1.7951     -1.6333     -0.3110
         9         0.2922    -15.9114     -3.5384     -6.3859
        10         5.4878    -27.1602     20.1708     -0.5005
  1/2[<0|del|b>*<b|r|0> + (<0|r|b>*<b|del|0>)*] (Au)
       state          X           Y           Z        Dip. S.   Osc.(frdel)
         1        -0.0700     -0.0001     -0.0006      0.0707      0.0471
         2        -0.0000     -0.0009      0.0000      0.0010      0.0006
         3        -0.0000     -0.0002     -0.0015      0.0017      0.0012
         4        -0.0003     -0.0008     -0.0013      0.0024      0.0016
         5        -0.0035     -0.0000     -0.0012      0.0047      0.0032
         6        -0.0028     -0.0022     -0.0005      0.0055      0.0037
         7        -0.0053     -0.0001     -0.0003      0.0058      0.0038
         8        -0.0024     -0.0000     -0.0001      0.0026      0.0017
         9        -0.0000     -0.0019     -0.0004      0.0022      0.0015
        10        -0.0017     -0.0009     -0.0065      0.0092      0.0061

 Excitation energies and oscillator strengths:
 
 Excited State   1:      Singlet-A      0.4742 eV 2614.70 nm  f=0.0475  <S**2>=0.000
      57 -> 58         1.52858
      57 <- 58        -1.35558
 This state for optimization and/or second-order correction.
 Total Energy, E(TD-HF/TD-DFT) =  -657.664928775    
 Copying the excited state density for this state as the 1-particle RhoCI density.
 
 Excited State   2:      Singlet-A      1.4464 eV  857.18 nm  f=0.0007  <S**2>=0.000
      56 -> 58         0.70466
 
 Excited State   3:      Singlet-A      2.5035 eV  495.23 nm  f=0.0010  <S**2>=0.000
      57 -> 59         0.70054
 
 Excited State   4:      Singlet-A      2.6999 eV  459.22 nm  f=0.0014  <S**2>=0.000
      57 -> 60         0.69717
 
 Excited State   5:      Singlet-A      3.2810 eV  377.88 nm  f=0.0034  <S**2>=0.000
      57 -> 61         0.67976
      57 -> 63         0.13916
 
 Excited State   6:      Singlet-A      3.4201 eV  362.52 nm  f=0.0036  <S**2>=0.000
      57 -> 62         0.64167
      57 -> 63         0.27593
 
 Excited State   7:      Singlet-A      3.4731 eV  356.98 nm  f=0.0036  <S**2>=0.000
      54 -> 58        -0.36925
      55 -> 58         0.59157
 
 Excited State   8:      Singlet-A      3.5752 eV  346.79 nm  f=0.0018  <S**2>=0.000
      54 -> 58         0.58882
      55 -> 58         0.37439
 
 Excited State   9:      Singlet-A      3.6154 eV  342.94 nm  f=0.0015  <S**2>=0.000
      57 -> 61        -0.15949
      57 -> 62        -0.26676
      57 -> 63         0.60889
      57 -> 66         0.10394
 
 Excited State  10:      Singlet-A      3.9059 eV  317.43 nm  f=0.0063  <S**2>=0.000
      53 -> 58         0.55569
      57 -> 64        -0.41241
 SavETr:  write IOETrn=   770 NScale= 10 NData=  16 NLR=1 NState=   10 LETran=     190.
          IDoAtm=11111111111111111111111111111111111
          Differentiating once with respect to electric field.
                with respect to dipole field.
          Differentiating once with respect to nuclear coordinates.
          There are     1 degrees of freedom in the 1st order CPHF.  IDoFFX=0 NUNeed=     1.
 LinEq1:  Iter=  0 NonCon=     1 RMS=8.96D-01 Max=1.75D+02 NDo=     1
 AX will form     1 AO Fock derivatives at one time.
 LinEq1:  Iter=  1 NonCon=     1 RMS=3.95D-02 Max=2.89D+00 NDo=     1
 LinEq1:  Iter=  2 NonCon=     1 RMS=1.73D-02 Max=1.04D+00 NDo=     1
 LinEq1:  Iter=  3 NonCon=     1 RMS=1.33D-02 Max=1.27D+00 NDo=     1
 LinEq1:  Iter=  4 NonCon=     1 RMS=6.80D-03 Max=5.67D-01 NDo=     1
 LinEq1:  Iter=  5 NonCon=     1 RMS=4.81D-03 Max=4.82D-01 NDo=     1
 LinEq1:  Iter=  6 NonCon=     1 RMS=2.99D-03 Max=1.81D-01 NDo=     1
slurmstepd: error: *** JOB 27484581 ON lewis4-r630-hpc4-node237 CANCELLED AT 2023-05-24T17:48:44 DUE TO TIME LIMIT ***
