### Starting Gaussian ###
 Entering Gaussian System, Link 0=g16
 Initial command:
 /cluster/software/gaussian/gaussian-16-A.03/avx2/g16/l1.exe "/local/scratch/ks29c/Gau-24879.inp" -scrdir="/local/scratch/ks29c/"
 Entering Link 1 = /cluster/software/gaussian/gaussian-16-A.03/avx2/g16/l1.exe PID=     24883.
  
 Copyright (c) 1988,1990,1992,1993,1995,1998,2003,2009,2016,
            Gaussian, Inc.  All Rights Reserved.
  
 This is part of the Gaussian(R) 16 program.  It is based on
 the Gaussian(R) 09 system (copyright 2009, Gaussian, Inc.),
 the Gaussian(R) 03 system (copyright 2003, Gaussian, Inc.),
 the Gaussian(R) 98 system (copyright 1998, Gaussian, Inc.),
 the Gaussian(R) 94 system (copyright 1995, Gaussian, Inc.),
 the Gaussian 92(TM) system (copyright 1992, Gaussian, Inc.),
 the Gaussian 90(TM) system (copyright 1990, Gaussian, Inc.),
 the Gaussian 88(TM) system (copyright 1988, Gaussian, Inc.),
 the Gaussian 86(TM) system (copyright 1986, Carnegie Mellon
 University), and the Gaussian 82(TM) system (copyright 1983,
 Carnegie Mellon University). Gaussian is a federally registered
 trademark of Gaussian, Inc.
  
 This software contains proprietary and confidential information,
 including trade secrets, belonging to Gaussian, Inc.
  
 This software is provided under written license and may be
 used, copied, transmitted, or stored only in accord with that
 written license.
  
 The following legend is applicable only to US Government
 contracts under FAR:
  
                    RESTRICTED RIGHTS LEGEND
  
 Use, reproduction and disclosure by the US Government is
 subject to restrictions as set forth in subparagraphs (a)
 and (c) of the Commercial Computer Software - Restricted
 Rights clause in FAR 52.227-19.
  
 Gaussian, Inc.
 340 Quinnipiac St., Bldg. 40, Wallingford CT 06492
  
  
 ---------------------------------------------------------------
 Warning -- This program may not be used in any manner that
 competes with the business of Gaussian, Inc. or will provide
 assistance to any competitor of Gaussian, Inc.  The licensee
 of this program is prohibited from giving any competitor of
 Gaussian, Inc. access to this program.  By using this program,
 the user acknowledges that Gaussian, Inc. is engaged in the
 business of creating and licensing software in the field of
 computational chemistry and represents and warrants to the
 licensee that it is not a competitor of Gaussian, Inc. and that
 it will not use this program in any manner prohibited above.
 ---------------------------------------------------------------
  

 Cite this work as:
 Gaussian 16, Revision A.03,
 M. J. Frisch, G. W. Trucks, H. B. Schlegel, G. E. Scuseria, 
 M. A. Robb, J. R. Cheeseman, G. Scalmani, V. Barone, 
 G. A. Petersson, H. Nakatsuji, X. Li, M. Caricato, A. V. Marenich, 
 J. Bloino, B. G. Janesko, R. Gomperts, B. Mennucci, H. P. Hratchian, 
 J. V. Ortiz, A. F. Izmaylov, J. L. Sonnenberg, D. Williams-Young, 
 F. Ding, F. Lipparini, F. Egidi, J. Goings, B. Peng, A. Petrone, 
 T. Henderson, D. Ranasinghe, V. G. Zakrzewski, J. Gao, N. Rega, 
 G. Zheng, W. Liang, M. Hada, M. Ehara, K. Toyota, R. Fukuda, 
 J. Hasegawa, M. Ishida, T. Nakajima, Y. Honda, O. Kitao, H. Nakai, 
 T. Vreven, K. Throssell, J. A. Montgomery, Jr., J. E. Peralta, 
 F. Ogliaro, M. J. Bearpark, J. J. Heyd, E. N. Brothers, K. N. Kudin, 
 V. N. Staroverov, T. A. Keith, R. Kobayashi, J. Normand, 
 K. Raghavachari, A. P. Rendell, J. C. Burant, S. S. Iyengar, 
 J. Tomasi, M. Cossi, J. M. Millam, M. Klene, C. Adamo, R. Cammi, 
 J. W. Ochterski, R. L. Martin, K. Morokuma, O. Farkas, 
 J. B. Foresman, and D. J. Fox, Gaussian, Inc., Wallingford CT, 2016.
 
 ******************************************
 Gaussian 16:  ES64L-G16RevA.03 25-Dec-2016
                24-May-2023 
 ******************************************
 %chk=CC1CCCCCCCCCCCN1C.chk
 %NProcShared=20
 Will use up to   20 processors via shared memory.
 -----------------------------------------------------------------
 # opt freq b3lyp/6-31+g(3df,2p) Geom=AllCheckpoint TD(NStates=10)
 -----------------------------------------------------------------
 1/18=20,19=15,26=3,29=7,38=1/1,3;
 2/9=110,12=2,40=1/2;
 3/5=1,6=6,7=216,11=9,14=-4,25=1,30=1,71=1,74=-5/1,2,3,8;
 4//1;
 5/5=2,38=5/2;
 8/6=1,10=2,108=10/1;
 9/15=2,41=10,42=1,70=2/14;
 10/5=4/2;
 6/7=2,8=2,9=2,10=2/1;
 7/12=6,13=5/1,2,3,16;
 1/18=20,19=15,26=3/3(2);
 2/9=110/2;
 99//99;
 2/9=110/2;
 3/5=1,6=6,7=216,11=9,14=-2,25=1,30=1,71=1,74=-5/1,2,3,8;
 4/5=5,16=3,69=1/1;
 5/5=2,38=5/2;
 8/6=1,10=2,108=10/1;
 9/15=2,41=10,42=1,49=4,70=2/14;
 10/5=4/2;
 7/12=6,13=5/1,2,3,16;
 1/18=20,19=15,26=3/3(-8);
 2/9=110/2;
 6/7=2,8=2,9=2,10=2/1;
 99//99;
 Structure from the checkpoint file:  "CC1CCCCCCCCCCCN1C.chk"
 -------------------
 Title Card Required
 -------------------
 Charge =  0 Multiplicity = 1
 Redundant internal coordinates found in file.  (old form).
 C,0,0.946045161,-0.3900626124,-0.1369397131
 C,0,2.4290516474,0.0298695067,-0.1612926757
 C,0,3.3103775736,-1.0749775136,-0.800224167
 C,0,3.6857416195,-2.2345146075,0.1615317695
 C,0,5.087881863,-2.1235599197,0.8002725771
 C,0,5.2959860657,-0.8256764928,1.5846104029
 C,0,6.6943147967,-0.584100822,2.1658519223
 C,0,6.9032197258,0.8450563298,2.722608284
 C,0,7.1398538706,1.9622358819,1.6622419629
 C,0,6.0318343436,3.0255394948,1.4877522174
 C,0,4.7153404718,2.4216164078,0.9990225654
 C,0,3.6257157888,3.3383735504,0.4439774277
 C,0,2.3728671641,2.5046461487,0.0834100216
 N,0,2.6722135352,1.3490523545,-0.7707651785
 C,0,2.2425855101,1.5095384937,-2.147364985
 H,0,0.8183022282,-1.3432816878,0.3866091641
 H,0,0.5530320004,-0.5172239145,-1.1511126079
 H,0,0.3288381166,0.3557129574,0.3747511213
 H,0,2.7545329409,0.1348557641,0.8778831424
 H,0,4.2239979488,-0.6069196705,-1.1833363825
 H,0,2.7895998454,-1.4869821206,-1.6728245571
 H,0,3.6358425566,-3.185903013,-0.3799453951
 H,0,2.9323728505,-2.3086461798,0.9575098713
 H,0,5.8426603183,-2.1826629215,0.0032404518
 H,0,5.2569685841,-2.9965061522,1.4446311244
 H,0,4.5594181504,-0.7677882645,2.3993894609
 H,0,5.063958904,-0.0042646899,0.9117450444
 H,0,7.4541372991,-0.7776713141,1.3956311745
 H,0,6.8869660852,-1.3102542691,2.9664417708
 H,0,7.7713512709,0.8171631213,3.3903924374
 H,0,6.0515940562,1.1089539068,3.363844281
 H,0,7.3201192346,1.4948385602,0.684634219
 H,0,8.0694682893,2.4867713138,1.9109882572
 H,0,6.3884062405,3.7723875454,0.7656157175
 H,0,5.8807783318,3.5647255195,2.4330111042
 H,0,4.2811142423,1.8248990169,1.8106756896
 H,0,4.9406427363,1.7207231486,0.1911259328
 H,0,3.9977475332,3.8611224083,-0.4473712378
 H,0,3.3344302399,4.1134685168,1.165508345
 H,0,1.6227926324,3.1515739813,-0.3936117769
 H,0,1.9153069547,2.1559503753,1.0187337599
 H,0,2.6755975676,2.4260120084,-2.5622419605
 H,0,1.1463849006,1.57490326,-2.2783957912
 H,0,2.6037088044,0.6765165931,-2.7579547921
 Recover connectivity data from disk.

 GradGradGradGradGradGradGradGradGradGradGradGradGradGradGradGradGradGrad
 Berny optimization.
 Initialization pass.
                           ----------------------------
                           !    Initial Parameters    !
                           ! (Angstroms and Degrees)  !
 --------------------------                            --------------------------
 ! Name  Definition              Value          Derivative Info.                !
 --------------------------------------------------------------------------------
 ! R1    R(1,2)                  1.5415         estimate D2E/DX2                !
 ! R2    R(1,16)                 1.095          estimate D2E/DX2                !
 ! R3    R(1,17)                 1.0951         estimate D2E/DX2                !
 ! R4    R(1,18)                 1.095          estimate D2E/DX2                !
 ! R5    R(2,3)                  1.551          estimate D2E/DX2                !
 ! R6    R(2,14)                 1.4734         estimate D2E/DX2                !
 ! R7    R(2,19)                 1.094          estimate D2E/DX2                !
 ! R8    R(3,4)                  1.5525         estimate D2E/DX2                !
 ! R9    R(3,20)                 1.0957         estimate D2E/DX2                !
 ! R10   R(3,21)                 1.0965         estimate D2E/DX2                !
 ! R11   R(4,5)                  1.5448         estimate D2E/DX2                !
 ! R12   R(4,22)                 1.0958         estimate D2E/DX2                !
 ! R13   R(4,23)                 1.0985         estimate D2E/DX2                !
 ! R14   R(5,6)                  1.5307         estimate D2E/DX2                !
 ! R15   R(5,24)                 1.0993         estimate D2E/DX2                !
 ! R16   R(5,25)                 1.0981         estimate D2E/DX2                !
 ! R17   R(6,7)                  1.5335         estimate D2E/DX2                !
 ! R18   R(6,26)                 1.0999         estimate D2E/DX2                !
 ! R19   R(6,27)                 1.0869         estimate D2E/DX2                !
 ! R20   R(7,8)                  1.5479         estimate D2E/DX2                !
 ! R21   R(7,28)                 1.0991         estimate D2E/DX2                !
 ! R22   R(7,29)                 1.0979         estimate D2E/DX2                !
 ! R23   R(8,9)                  1.5584         estimate D2E/DX2                !
 ! R24   R(8,30)                 1.0956         estimate D2E/DX2                !
 ! R25   R(8,31)                 1.0982         estimate D2E/DX2                !
 ! R26   R(9,10)                 1.5456         estimate D2E/DX2                !
 ! R27   R(9,32)                 1.0985         estimate D2E/DX2                !
 ! R28   R(9,33)                 1.096          estimate D2E/DX2                !
 ! R29   R(10,11)                1.5286         estimate D2E/DX2                !
 ! R30   R(10,34)                1.0984         estimate D2E/DX2                !
 ! R31   R(10,35)                1.0987         estimate D2E/DX2                !
 ! R32   R(11,12)                1.5283         estimate D2E/DX2                !
 ! R33   R(11,36)                1.097          estimate D2E/DX2                !
 ! R34   R(11,37)                1.093          estimate D2E/DX2                !
 ! R35   R(12,13)                1.5475         estimate D2E/DX2                !
 ! R36   R(12,38)                1.0983         estimate D2E/DX2                !
 ! R37   R(12,39)                1.0983         estimate D2E/DX2                !
 ! R38   R(13,14)                1.4679         estimate D2E/DX2                !
 ! R39   R(13,40)                1.0994         estimate D2E/DX2                !
 ! R40   R(13,41)                1.0981         estimate D2E/DX2                !
 ! R41   R(14,15)                1.451          estimate D2E/DX2                !
 ! R42   R(15,42)                1.0952         estimate D2E/DX2                !
 ! R43   R(15,43)                1.1059         estimate D2E/DX2                !
 ! R44   R(15,44)                1.0941         estimate D2E/DX2                !
 ! A1    A(2,1,16)             110.9116         estimate D2E/DX2                !
 ! A2    A(2,1,17)             111.24           estimate D2E/DX2                !
 ! A3    A(2,1,18)             111.3538         estimate D2E/DX2                !
 ! A4    A(16,1,17)            107.4485         estimate D2E/DX2                !
 ! A5    A(16,1,18)            107.6806         estimate D2E/DX2                !
 ! A6    A(17,1,18)            108.0339         estimate D2E/DX2                !
 ! A7    A(1,2,3)              111.0459         estimate D2E/DX2                !
 ! A8    A(1,2,14)             114.1557         estimate D2E/DX2                !
 ! A9    A(1,2,19)             107.299          estimate D2E/DX2                !
 ! A10   A(3,2,14)             111.9383         estimate D2E/DX2                !
 ! A11   A(3,2,19)             106.894          estimate D2E/DX2                !
 ! A12   A(14,2,19)            104.9457         estimate D2E/DX2                !
 ! A13   A(2,3,4)              114.4697         estimate D2E/DX2                !
 ! A14   A(2,3,20)             108.2728         estimate D2E/DX2                !
 ! A15   A(2,3,21)             109.0018         estimate D2E/DX2                !
 ! A16   A(4,3,20)             109.5144         estimate D2E/DX2                !
 ! A17   A(4,3,21)             109.0969         estimate D2E/DX2                !
 ! A18   A(20,3,21)            106.1569         estimate D2E/DX2                !
 ! A19   A(3,4,5)              114.9577         estimate D2E/DX2                !
 ! A20   A(3,4,22)             109.3486         estimate D2E/DX2                !
 ! A21   A(3,4,23)             109.4795         estimate D2E/DX2                !
 ! A22   A(5,4,22)             107.9391         estimate D2E/DX2                !
 ! A23   A(5,4,23)             109.1315         estimate D2E/DX2                !
 ! A24   A(22,4,23)            105.5593         estimate D2E/DX2                !
 ! A25   A(4,5,6)              113.3396         estimate D2E/DX2                !
 ! A26   A(4,5,24)             108.636          estimate D2E/DX2                !
 ! A27   A(4,5,25)             108.9836         estimate D2E/DX2                !
 ! A28   A(6,5,24)             108.8904         estimate D2E/DX2                !
 ! A29   A(6,5,25)             110.6367         estimate D2E/DX2                !
 ! A30   A(24,5,25)            106.0803         estimate D2E/DX2                !
 ! A31   A(5,6,7)              116.8574         estimate D2E/DX2                !
 ! A32   A(5,6,26)             109.4611         estimate D2E/DX2                !
 ! A33   A(5,6,27)             107.1314         estimate D2E/DX2                !
 ! A34   A(7,6,26)             108.7587         estimate D2E/DX2                !
 ! A35   A(7,6,27)             108.0751         estimate D2E/DX2                !
 ! A36   A(26,6,27)            106.0137         estimate D2E/DX2                !
 ! A37   A(6,7,8)              113.8812         estimate D2E/DX2                !
 ! A38   A(6,7,28)             109.6956         estimate D2E/DX2                !
 ! A39   A(6,7,29)             109.4031         estimate D2E/DX2                !
 ! A40   A(8,7,28)             108.7449         estimate D2E/DX2                !
 ! A41   A(8,7,29)             108.9472         estimate D2E/DX2                !
 ! A42   A(28,7,29)            105.8557         estimate D2E/DX2                !
 ! A43   A(7,8,9)              115.9535         estimate D2E/DX2                !
 ! A44   A(7,8,30)             107.6172         estimate D2E/DX2                !
 ! A45   A(7,8,31)             109.0997         estimate D2E/DX2                !
 ! A46   A(9,8,30)             108.2199         estimate D2E/DX2                !
 ! A47   A(9,8,31)             110.0466         estimate D2E/DX2                !
 ! A48   A(30,8,31)            105.3483         estimate D2E/DX2                !
 ! A49   A(8,9,10)             117.4622         estimate D2E/DX2                !
 ! A50   A(8,9,32)             108.9928         estimate D2E/DX2                !
 ! A51   A(8,9,33)             108.5099         estimate D2E/DX2                !
 ! A52   A(10,9,32)            108.0531         estimate D2E/DX2                !
 ! A53   A(10,9,33)            107.7243         estimate D2E/DX2                !
 ! A54   A(32,9,33)            105.452          estimate D2E/DX2                !
 ! A55   A(9,10,11)            112.4395         estimate D2E/DX2                !
 ! A56   A(9,10,34)            108.0162         estimate D2E/DX2                !
 ! A57   A(9,10,35)            109.8201         estimate D2E/DX2                !
 ! A58   A(11,10,34)           109.7562         estimate D2E/DX2                !
 ! A59   A(11,10,35)           110.5212         estimate D2E/DX2                !
 ! A60   A(34,10,35)           106.0572         estimate D2E/DX2                !
 ! A61   A(10,11,12)           119.547          estimate D2E/DX2                !
 ! A62   A(10,11,36)           108.6174         estimate D2E/DX2                !
 ! A63   A(10,11,37)           108.1876         estimate D2E/DX2                !
 ! A64   A(12,11,36)           108.227          estimate D2E/DX2                !
 ! A65   A(12,11,37)           105.2581         estimate D2E/DX2                !
 ! A66   A(36,11,37)           106.24           estimate D2E/DX2                !
 ! A67   A(11,12,13)           109.7947         estimate D2E/DX2                !
 ! A68   A(11,12,38)           109.8008         estimate D2E/DX2                !
 ! A69   A(11,12,39)           111.9518         estimate D2E/DX2                !
 ! A70   A(13,12,38)           109.9733         estimate D2E/DX2                !
 ! A71   A(13,12,39)           108.5766         estimate D2E/DX2                !
 ! A72   A(38,12,39)           106.6855         estimate D2E/DX2                !
 ! A73   A(12,13,14)           113.2428         estimate D2E/DX2                !
 ! A74   A(12,13,40)           109.6593         estimate D2E/DX2                !
 ! A75   A(12,13,41)           108.0574         estimate D2E/DX2                !
 ! A76   A(14,13,40)           110.4812         estimate D2E/DX2                !
 ! A77   A(14,13,41)           109.3081         estimate D2E/DX2                !
 ! A78   A(40,13,41)           105.7922         estimate D2E/DX2                !
 ! A79   A(2,14,13)            115.4995         estimate D2E/DX2                !
 ! A80   A(2,14,15)            116.2708         estimate D2E/DX2                !
 ! A81   A(13,14,15)           113.8677         estimate D2E/DX2                !
 ! A82   A(14,15,42)           109.5646         estimate D2E/DX2                !
 ! A83   A(14,15,43)           114.3575         estimate D2E/DX2                !
 ! A84   A(14,15,44)           110.335          estimate D2E/DX2                !
 ! A85   A(42,15,43)           107.31           estimate D2E/DX2                !
 ! A86   A(42,15,44)           107.1695         estimate D2E/DX2                !
 ! A87   A(43,15,44)           107.8198         estimate D2E/DX2                !
 ! D1    D(16,1,2,3)            56.197          estimate D2E/DX2                !
 ! D2    D(16,1,2,14)         -176.1196         estimate D2E/DX2                !
 ! D3    D(16,1,2,19)          -60.2881         estimate D2E/DX2                !
 ! D4    D(17,1,2,3)           -63.3342         estimate D2E/DX2                !
 ! D5    D(17,1,2,14)           64.3493         estimate D2E/DX2                !
 ! D6    D(17,1,2,19)         -179.8193         estimate D2E/DX2                !
 ! D7    D(18,1,2,3)           176.0962         estimate D2E/DX2                !
 ! D8    D(18,1,2,14)          -56.2203         estimate D2E/DX2                !
 ! D9    D(18,1,2,19)           59.6111         estimate D2E/DX2                !
 ! D10   D(1,2,3,4)            -81.2382         estimate D2E/DX2                !
 ! D11   D(1,2,3,20)           156.2981         estimate D2E/DX2                !
 ! D12   D(1,2,3,21)            41.2335         estimate D2E/DX2                !
 ! D13   D(14,2,3,4)           149.8829         estimate D2E/DX2                !
 ! D14   D(14,2,3,20)           27.4192         estimate D2E/DX2                !
 ! D15   D(14,2,3,21)          -87.6454         estimate D2E/DX2                !
 ! D16   D(19,2,3,4)            35.4955         estimate D2E/DX2                !
 ! D17   D(19,2,3,20)          -86.9681         estimate D2E/DX2                !
 ! D18   D(19,2,3,21)          157.9673         estimate D2E/DX2                !
 ! D19   D(1,2,14,13)           78.2938         estimate D2E/DX2                !
 ! D20   D(1,2,14,15)          -59.0439         estimate D2E/DX2                !
 ! D21   D(3,2,14,13)         -154.4814         estimate D2E/DX2                !
 ! D22   D(3,2,14,15)           68.1809         estimate D2E/DX2                !
 ! D23   D(19,2,14,13)         -38.9013         estimate D2E/DX2                !
 ! D24   D(19,2,14,15)        -176.239          estimate D2E/DX2                !
 ! D25   D(2,3,4,5)            -98.3257         estimate D2E/DX2                !
 ! D26   D(2,3,4,22)           140.1073         estimate D2E/DX2                !
 ! D27   D(2,3,4,23)            24.9086         estimate D2E/DX2                !
 ! D28   D(20,3,4,5)            23.4612         estimate D2E/DX2                !
 ! D29   D(20,3,4,22)          -98.1058         estimate D2E/DX2                !
 ! D30   D(20,3,4,23)          146.6954         estimate D2E/DX2                !
 ! D31   D(21,3,4,5)           139.2542         estimate D2E/DX2                !
 ! D32   D(21,3,4,22)           17.6872         estimate D2E/DX2                !
 ! D33   D(21,3,4,23)          -97.5115         estimate D2E/DX2                !
 ! D34   D(3,4,5,6)             57.2646         estimate D2E/DX2                !
 ! D35   D(3,4,5,24)           -63.9092         estimate D2E/DX2                !
 ! D36   D(3,4,5,25)          -179.0685         estimate D2E/DX2                !
 ! D37   D(22,4,5,6)           179.5941         estimate D2E/DX2                !
 ! D38   D(22,4,5,24)           58.4203         estimate D2E/DX2                !
 ! D39   D(22,4,5,25)          -56.7389         estimate D2E/DX2                !
 ! D40   D(23,4,5,6)           -66.1551         estimate D2E/DX2                !
 ! D41   D(23,4,5,24)          172.6711         estimate D2E/DX2                !
 ! D42   D(23,4,5,25)           57.5118         estimate D2E/DX2                !
 ! D43   D(4,5,6,7)           -175.6212         estimate D2E/DX2                !
 ! D44   D(4,5,6,26)            60.2368         estimate D2E/DX2                !
 ! D45   D(4,5,6,27)           -54.2879         estimate D2E/DX2                !
 ! D46   D(24,5,6,7)           -54.5906         estimate D2E/DX2                !
 ! D47   D(24,5,6,26)         -178.7326         estimate D2E/DX2                !
 ! D48   D(24,5,6,27)           66.7427         estimate D2E/DX2                !
 ! D49   D(25,5,6,7)            61.6215         estimate D2E/DX2                !
 ! D50   D(25,5,6,26)          -62.5204         estimate D2E/DX2                !
 ! D51   D(25,5,6,27)         -177.0451         estimate D2E/DX2                !
 ! D52   D(5,6,7,8)            169.6966         estimate D2E/DX2                !
 ! D53   D(5,6,7,28)            47.5715         estimate D2E/DX2                !
 ! D54   D(5,6,7,29)           -68.1342         estimate D2E/DX2                !
 ! D55   D(26,6,7,8)           -65.805          estimate D2E/DX2                !
 ! D56   D(26,6,7,28)          172.0699         estimate D2E/DX2                !
 ! D57   D(26,6,7,29)           56.3642         estimate D2E/DX2                !
 ! D58   D(27,6,7,8)            48.8599         estimate D2E/DX2                !
 ! D59   D(27,6,7,28)          -73.2652         estimate D2E/DX2                !
 ! D60   D(27,6,7,29)          171.0291         estimate D2E/DX2                !
 ! D61   D(6,7,8,9)            -77.0904         estimate D2E/DX2                !
 ! D62   D(6,7,8,30)           161.6172         estimate D2E/DX2                !
 ! D63   D(6,7,8,31)            47.7983         estimate D2E/DX2                !
 ! D64   D(28,7,8,9)            45.5573         estimate D2E/DX2                !
 ! D65   D(28,7,8,30)          -75.7351         estimate D2E/DX2                !
 ! D66   D(28,7,8,31)          170.4459         estimate D2E/DX2                !
 ! D67   D(29,7,8,9)           160.4895         estimate D2E/DX2                !
 ! D68   D(29,7,8,30)           39.1971         estimate D2E/DX2                !
 ! D69   D(29,7,8,31)          -74.6219         estimate D2E/DX2                !
 ! D70   D(7,8,9,10)           111.7776         estimate D2E/DX2                !
 ! D71   D(7,8,9,32)           -11.4692         estimate D2E/DX2                !
 ! D72   D(7,8,9,33)          -125.8232         estimate D2E/DX2                !
 ! D73   D(30,8,9,10)         -127.2527         estimate D2E/DX2                !
 ! D74   D(30,8,9,32)          109.5005         estimate D2E/DX2                !
 ! D75   D(30,8,9,33)           -4.8534         estimate D2E/DX2                !
 ! D76   D(31,8,9,10)          -12.6238         estimate D2E/DX2                !
 ! D77   D(31,8,9,32)         -135.8706         estimate D2E/DX2                !
 ! D78   D(31,8,9,33)          109.7755         estimate D2E/DX2                !
 ! D79   D(8,9,10,11)          -62.988          estimate D2E/DX2                !
 ! D80   D(8,9,10,34)          175.755          estimate D2E/DX2                !
 ! D81   D(8,9,10,35)           60.5161         estimate D2E/DX2                !
 ! D82   D(32,9,10,11)          60.7347         estimate D2E/DX2                !
 ! D83   D(32,9,10,34)         -60.5223         estimate D2E/DX2                !
 ! D84   D(32,9,10,35)        -175.7612         estimate D2E/DX2                !
 ! D85   D(33,9,10,11)         174.2108         estimate D2E/DX2                !
 ! D86   D(33,9,10,34)          52.9538         estimate D2E/DX2                !
 ! D87   D(33,9,10,35)         -62.285          estimate D2E/DX2                !
 ! D88   D(9,10,11,12)        -164.9651         estimate D2E/DX2                !
 ! D89   D(9,10,11,36)          70.2601         estimate D2E/DX2                !
 ! D90   D(9,10,11,37)         -44.6567         estimate D2E/DX2                !
 ! D91   D(34,10,11,12)        -44.7084         estimate D2E/DX2                !
 ! D92   D(34,10,11,36)       -169.4832         estimate D2E/DX2                !
 ! D93   D(34,10,11,37)         75.6            estimate D2E/DX2                !
 ! D94   D(35,10,11,12)         71.9228         estimate D2E/DX2                !
 ! D95   D(35,10,11,36)        -52.8521         estimate D2E/DX2                !
 ! D96   D(35,10,11,37)       -167.7689         estimate D2E/DX2                !
 ! D97   D(10,11,12,13)       -177.2182         estimate D2E/DX2                !
 ! D98   D(10,11,12,38)         61.7555         estimate D2E/DX2                !
 ! D99   D(10,11,12,39)        -56.5471         estimate D2E/DX2                !
 ! D100  D(36,11,12,13)        -52.2568         estimate D2E/DX2                !
 ! D101  D(36,11,12,38)       -173.2831         estimate D2E/DX2                !
 ! D102  D(36,11,12,39)         68.4143         estimate D2E/DX2                !
 ! D103  D(37,11,12,13)         61.0106         estimate D2E/DX2                !
 ! D104  D(37,11,12,38)        -60.0157         estimate D2E/DX2                !
 ! D105  D(37,11,12,39)       -178.3183         estimate D2E/DX2                !
 ! D106  D(11,12,13,14)        -51.3525         estimate D2E/DX2                !
 ! D107  D(11,12,13,40)       -175.2571         estimate D2E/DX2                !
 ! D108  D(11,12,13,41)         69.8805         estimate D2E/DX2                !
 ! D109  D(38,12,13,14)         69.5698         estimate D2E/DX2                !
 ! D110  D(38,12,13,40)        -54.3348         estimate D2E/DX2                !
 ! D111  D(38,12,13,41)       -169.1972         estimate D2E/DX2                !
 ! D112  D(39,12,13,14)       -174.0432         estimate D2E/DX2                !
 ! D113  D(39,12,13,40)         62.0522         estimate D2E/DX2                !
 ! D114  D(39,12,13,41)        -52.8101         estimate D2E/DX2                !
 ! D115  D(12,13,14,2)         114.9412         estimate D2E/DX2                !
 ! D116  D(12,13,14,15)       -106.7034         estimate D2E/DX2                !
 ! D117  D(40,13,14,2)        -121.6049         estimate D2E/DX2                !
 ! D118  D(40,13,14,15)         16.7506         estimate D2E/DX2                !
 ! D119  D(41,13,14,2)          -5.5846         estimate D2E/DX2                !
 ! D120  D(41,13,14,15)        132.7708         estimate D2E/DX2                !
 ! D121  D(2,14,15,42)        -166.8953         estimate D2E/DX2                !
 ! D122  D(2,14,15,43)          72.606          estimate D2E/DX2                !
 ! D123  D(2,14,15,44)         -49.132          estimate D2E/DX2                !
 ! D124  D(13,14,15,42)         55.0841         estimate D2E/DX2                !
 ! D125  D(13,14,15,43)        -65.4147         estimate D2E/DX2                !
 ! D126  D(13,14,15,44)        172.8473         estimate D2E/DX2                !
 --------------------------------------------------------------------------------
 Trust Radius=3.00D-01 FncErr=1.00D-07 GrdErr=1.00D-06 EigMax=2.50D+02 EigMin=1.00D-04
 Number of steps in this run=    264 maximum allowed number of steps=    264.
 GradGradGradGradGradGradGradGradGradGradGradGradGradGradGradGradGradGrad

                          Input orientation:                          
 ---------------------------------------------------------------------
 Center     Atomic      Atomic             Coordinates (Angstroms)
 Number     Number       Type             X           Y           Z
 ---------------------------------------------------------------------
      1          6           0        0.946045   -0.390063   -0.136940
      2          6           0        2.429052    0.029870   -0.161293
      3          6           0        3.310378   -1.074978   -0.800224
      4          6           0        3.685742   -2.234515    0.161532
      5          6           0        5.087882   -2.123560    0.800273
      6          6           0        5.295986   -0.825676    1.584610
      7          6           0        6.694315   -0.584101    2.165852
      8          6           0        6.903220    0.845056    2.722608
      9          6           0        7.139854    1.962236    1.662242
     10          6           0        6.031834    3.025539    1.487752
     11          6           0        4.715340    2.421616    0.999023
     12          6           0        3.625716    3.338374    0.443977
     13          6           0        2.372867    2.504646    0.083410
     14          7           0        2.672214    1.349052   -0.770765
     15          6           0        2.242586    1.509538   -2.147365
     16          1           0        0.818302   -1.343282    0.386609
     17          1           0        0.553032   -0.517224   -1.151113
     18          1           0        0.328838    0.355713    0.374751
     19          1           0        2.754533    0.134856    0.877883
     20          1           0        4.223998   -0.606920   -1.183336
     21          1           0        2.789600   -1.486982   -1.672825
     22          1           0        3.635843   -3.185903   -0.379945
     23          1           0        2.932373   -2.308646    0.957510
     24          1           0        5.842660   -2.182663    0.003240
     25          1           0        5.256969   -2.996506    1.444631
     26          1           0        4.559418   -0.767788    2.399389
     27          1           0        5.063959   -0.004265    0.911745
     28          1           0        7.454137   -0.777671    1.395631
     29          1           0        6.886966   -1.310254    2.966442
     30          1           0        7.771351    0.817163    3.390392
     31          1           0        6.051594    1.108954    3.363844
     32          1           0        7.320119    1.494839    0.684634
     33          1           0        8.069468    2.486771    1.910988
     34          1           0        6.388406    3.772388    0.765616
     35          1           0        5.880778    3.564726    2.433011
     36          1           0        4.281114    1.824899    1.810676
     37          1           0        4.940643    1.720723    0.191126
     38          1           0        3.997748    3.861122   -0.447371
     39          1           0        3.334430    4.113469    1.165508
     40          1           0        1.622793    3.151574   -0.393612
     41          1           0        1.915307    2.155950    1.018734
     42          1           0        2.675598    2.426012   -2.562242
     43          1           0        1.146385    1.574903   -2.278396
     44          1           0        2.603709    0.676517   -2.757955
 ---------------------------------------------------------------------
                    Distance matrix (angstroms):
                    1          2          3          4          5
     1  C    0.000000
     2  C    1.541507   0.000000
     3  C    2.549338   1.551018   0.000000
     4  C    3.316176   2.609774   1.552546   0.000000
     5  C    4.586741   3.554046   2.611635   1.544765   0.000000
     6  C    4.698455   3.464022   3.113234   2.569604   1.530684
     7  C    6.195410   4.897452   4.526544   3.974000   2.610626
     8  C    6.722385   5.385127   5.385666   5.137610   3.975363
     9  C    6.865394   5.408417   5.472960   5.638771   4.652667
    10  C    6.338076   4.967236   5.427283   5.910261   5.279858
    11  C    4.837720   3.506266   4.175809   4.841593   4.564747
    12  C    4.628103   3.569952   4.596210   5.580364   5.665474
    13  C    3.234766   2.487480   3.804398   4.918271   5.413454
    14  N    2.530990   1.473373   2.506799   3.839058   4.512499
    15  C    3.054719   2.483681   3.103980   4.629432   5.475736
    16  H    1.095011   2.186379   2.773265   3.011173   4.359961
    17  H    1.095069   2.190549   2.834990   3.806047   5.191636
    18  H    1.094967   2.191897   3.509561   4.245414   5.382969
    19  H    2.139166   1.094005   2.142126   2.644660   3.248228
    20  H    3.447745   2.161459   1.095699   2.178866   2.642196
    21  H    2.638346   2.171535   1.096535   2.174106   3.435628
    22  H    3.887259   3.441707   2.176825   1.095823   2.151722
    23  H    2.970569   2.640778   2.180471   1.098472   2.169147
    24  H    5.216312   4.071252   2.878364   2.163341   1.099292
    25  H    5.280054   4.442415   3.538483   2.166963   1.098100
    26  H    4.430813   3.425173   3.448477   2.814712   2.162074
    27  H    4.266825   2.845226   2.674381   2.726961   2.122360
    28  H    6.697334   5.322370   4.699034   4.224476   2.786581
    29  H    6.765521   5.608178   5.199530   4.355412   2.930948
    30  H    7.777163   6.463317   6.406384   6.035767   4.749482
    31  H    6.369393   5.168542   5.442728   5.199120   4.236719
    32  H    6.697511   5.175352   4.988666   5.233585   4.253124
    33  H    7.950682   6.491919   6.533427   6.675942   5.601669
    34  H    6.910853   5.526490   5.951728   6.614544   6.037778
    35  H    6.826169   5.580326   6.211893   6.603710   5.970855
    36  H    4.452184   3.246679   4.020996   4.421876   4.154770
    37  H    4.529884   3.048159   3.384742   4.149646   3.895029
    38  H    5.242311   4.149837   4.996205   6.133914   6.209785
    39  H    5.261421   4.388154   5.548392   6.436480   6.489107
    40  H    3.614839   3.232501   4.569137   5.794298   6.423336
    41  H    2.959262   2.485280   3.961531   4.810968   5.331713
    42  H    4.099234   3.401006   3.970463   5.491798   6.150140
    43  H    2.913256   2.917960   3.726892   5.187798   6.220308
    44  H    3.279506   2.681662   2.720261   4.262429   5.164545
                    6          7          8          9         10
     6  C    0.000000
     7  C    1.533468   0.000000
     8  C    2.582554   1.547937   0.000000
     9  C    3.343401   2.633621   1.558353   0.000000
    10  C    3.922081   3.732051   2.653053   1.545564   0.000000
    11  C    3.350369   3.783142   3.200485   2.555221   1.528639
    12  C    4.629272   5.269436   4.706466   3.965740   2.641351
    13  C    4.678598   5.705421   5.499427   5.050850   3.953675
    14  N    4.142635   5.342106   5.509908   5.123995   4.381616
    15  C    5.357623   6.542558   6.773455   6.221035   5.465413
    16  H    4.663987   6.186242   6.875459   7.246772   6.890576
    17  H    5.484062   6.980120   7.562169   7.579506   7.037901
    18  H    5.247094   6.679116   6.998170   7.115370   6.394600
    19  H    2.807324   4.206857   4.595541   4.815140   4.412335
    20  H    2.976330   4.161736   4.954076   4.816647   4.857751
    21  H    4.162953   5.549543   6.456013   6.476456   6.392510
    22  H    3.490877   4.754441   6.045678   6.553774   6.914556
    23  H    2.859916   4.311189   5.369268   6.036553   6.192040
    24  H    2.154297   2.820923   4.205571   4.649213   5.418942
    25  H    2.175688   2.899280   4.370466   5.308647   6.071846
    26  H    1.099886   2.155473   2.863415   3.828194   4.169943
    27  H    1.086877   2.137067   2.717251   2.956300   3.232380
    28  H    2.166941   1.099109   2.167400   2.770730   4.061508
    29  H    2.162288   1.097888   2.169120   3.531867   4.660137
    30  H    3.476666   2.150127   1.095612   2.167137   3.394538
    31  H    2.734851   2.171338   1.098222   2.192681   2.682054
    32  H    3.208093   2.628236   2.179303   1.098487   2.155858
    33  H    4.332555   3.374353   2.171196   1.095990   2.149733
    34  H    4.796491   4.586200   3.558668   2.155287   1.098365
    35  H    4.509700   4.236269   2.919906   2.178837   1.098660
    36  H    2.847213   3.428260   2.944002   2.865883   2.147286
    37  H    2.924418   3.505299   3.320678   2.656885   2.138804
    38  H    5.270717   5.818971   5.252351   4.234273   2.929234
    39  H    5.330901   5.861456   5.083634   4.399522   2.926332
    40  H    5.764047   6.799004   6.550860   6.006582   4.795317
    41  H    4.543050   5.626960   5.431474   5.267591   4.233434
    42  H    5.885261   6.896792   6.949953   6.163679   5.293979
    43  H    6.156687   7.429143   7.660540   7.183336   6.336863
    44  H    5.325675   6.524269   6.967838   6.462803   5.941042
                   11         12         13         14         15
    11  C    0.000000
    12  C    1.528333   0.000000
    13  C    2.516430   1.547495   0.000000
    14  N    2.908077   2.518366   1.467863   0.000000
    15  C    4.104407   3.460165   2.446134   1.450987   0.000000
    16  H    5.453111   5.459190   4.161148   3.467732   4.072860
    17  H    5.530341   5.181827   3.737318   2.849312   2.820439
    18  H    4.888668   4.446398   2.980075   2.791118   3.369690
    19  H    3.014750   3.348098   2.528391   2.049168   3.362138
    20  H    3.765121   4.309458   3.835775   2.530628   3.055281
    21  H    5.111202   5.335166   4.380767   2.978352   3.082783
    22  H    5.874618   6.576103   5.847406   4.652649   5.206929
    23  H    5.055302   5.712554   4.923909   4.053810   4.969365
    24  H    4.843740   5.965814   5.832389   4.808724   5.587306
    25  H    5.463330   6.617628   6.358745   5.520219   6.503336
    26  H    3.486781   4.642844   4.566573   4.253520   5.588104
    27  H    2.452356   3.668866   3.771306   3.222228   4.428307
    28  H    4.230100   5.701253   6.189898   5.664188   6.704060
    29  H    4.744845   6.213559   6.575897   6.229187   7.461402
    30  H    4.199062   5.676633   6.551898   6.602980   7.855787
    31  H    3.016793   4.402365   5.122718   5.345358   6.711367
    32  H    2.782558   4.135838   5.084927   4.872624   5.813930
    33  H    3.476507   4.756499   5.982610   6.133234   7.167829
    34  H    2.162917   2.815009   4.265809   4.695009   5.549214
    35  H    2.172848   3.015427   4.353141   5.046611   6.200007
    36  H    1.096998   2.141966   2.662125   3.078771   4.463310
    37  H    1.093028   2.099943   2.686933   2.491816   3.576682
    38  H    2.163139   1.098261   2.182199   2.858692   3.391242
    39  H    2.190204   1.098283   2.164220   3.439431   4.352896
    40  H    3.469311   2.179025   1.099399   2.119579   2.481144
    41  H    2.812677   2.157306   1.098080   2.103877   3.247944
    42  H    4.104044   3.282146   2.664076   2.090273   1.095238
    43  H    4.918927   4.082674   2.819008   2.156875   1.105937
    44  H    4.649650   4.287464   3.386547   2.099028   1.094146
                   16         17         18         19         20
    16  H    0.000000
    17  H    1.765596   0.000000
    18  H    1.768134   1.772157   0.000000
    19  H    2.485001   3.064088   2.487150   0.000000
    20  H    3.821743   3.672203   4.304250   2.637837   0.000000
    21  H    2.854458   2.492960   3.693703   3.022862   1.752600
    22  H    3.452737   4.149731   4.903967   3.658726   2.764511
    23  H    2.393147   3.649212   3.770519   2.451259   3.024465
    24  H    5.108396   5.664485   6.081415   3.958841   2.551666
    25  H    4.853279   5.917072   6.055451   4.048310   3.699103
    26  H    4.287007   5.359102   4.822782   2.527322   3.601987
    27  H    4.482671   4.986679   4.779050   2.313860   2.336256
    28  H    6.735900   7.360638   7.286744   4.815293   4.136911
    29  H    6.594339   7.596175   7.245782   4.850508   4.980636
    30  H    7.876238   8.631917   8.043509   5.652142   5.960765
    31  H    6.501133   7.298183   6.500153   4.242580   5.192416
    32  H    7.100519   7.294644   7.090250   4.767754   4.182424
    33  H    8.341010   8.654321   8.174276   5.903164   5.825239
    34  H    7.572303   7.491743   6.967410   5.142886   5.259411
    35  H    7.342000   7.608754   6.734852   4.894470   5.764158
    36  H    4.904733   5.306254   4.454310   2.461056   3.857605
    37  H    5.140042   5.105011   4.813077   2.786698   2.796542
    38  H    6.155503   5.615268   5.140494   4.145714   4.533898
    39  H    6.059184   5.877603   4.876434   4.030927   5.347005
    40  H    4.632459   3.895930   3.175144   3.463831   4.638557
    41  H    3.721240   3.702686   2.484442   2.192935   4.220500
    42  H    5.133502   3.893483   4.291777   4.134016   3.673908
    43  H    3.965563   2.449455   3.032160   3.823869   3.928258
    44  H    4.141925   2.865699   3.884816   3.679057   2.598455
                   21         22         23         24         25
    21  H    0.000000
    22  H    2.296518   0.000000
    23  H    2.759379   1.747351   0.000000
    24  H    3.551668   2.454255   3.065334   0.000000
    25  H    4.252658   2.448061   2.472688   1.755842   0.000000
    26  H    4.498047   3.798022   2.664683   3.064329   2.522959
    27  H    3.748488   3.718979   3.139415   2.485392   3.045444
    28  H    5.628184   4.850941   4.793974   2.551394   3.123008
    29  H    6.192127   5.028536   4.546581   3.260711   2.795755
    30  H    7.467469   6.880583   6.253424   4.918496   4.965096
    31  H    6.538159   6.188506   5.215360   4.708721   4.601045
    32  H    5.913922   6.051162   5.813198   4.021343   5.000636
    33  H    7.517409   7.555438   7.091890   5.513782   6.180127
    34  H    6.823369   7.570121   6.997140   6.028406   6.896313
    35  H    7.206457   7.650062   6.735480   6.240009   6.664518
    36  H    5.032688   5.506663   4.430936   4.665383   4.932771
    37  H    4.288434   5.109169   4.566871   4.010656   4.891175
    38  H    5.618147   7.056634   6.416756   6.335148   7.224429
    39  H    6.302224   7.467269   6.438049   6.876289   7.370604
    40  H    4.951164   6.649524   5.775338   6.813139   7.374636
    41  H    4.613007   5.783766   4.579388   5.939604   6.155965
    42  H    4.014422   6.097383   5.905216   6.152387   7.219571
    43  H    3.527324   5.697964   5.361231   6.432742   7.187184
    44  H    2.427507   4.651722   4.777436   5.127369   6.180017
                   26         27         28         29         30
    26  H    0.000000
    27  H    1.746601   0.000000
    28  H    3.063826   2.558370   0.000000
    29  H    2.456277   3.041503   1.752933   0.000000
    30  H    3.716271   3.761437   2.573557   2.342600   0.000000
    31  H    2.584361   2.868357   3.065998   2.590047   1.744538
    32  H    3.959967   2.718299   2.384906   3.641815   2.825594
    33  H    4.811564   4.029496   3.361668   4.114571   2.250578
    34  H    5.160195   4.004824   4.715479   5.561065   4.187522
    35  H    4.529658   3.964737   4.733712   5.006235   3.469862
    36  H    2.673212   2.183292   4.124768   4.237387   3.961413
    37  H    3.348798   1.873521   3.743055   4.547238   4.366307
    38  H    5.463180   4.233819   6.071383   6.837020   6.183381
    39  H    5.181672   4.473409   6.399077   6.729089   5.958356
    40  H    5.637910   4.848185   7.255683   7.675245   7.587683
    41  H    4.176815   3.819946   6.279079   6.365967   6.458357
    42  H    6.194104   4.866118   6.983036   7.890605   7.999310
    43  H    6.246493   5.293218   7.669473   8.293776   8.752115
    44  H    5.701668   4.470234   6.549320   7.420395   8.032838
                   31         32         33         34         35
    31  H    0.000000
    32  H    2.989353   0.000000
    33  H    2.842708   1.746253   0.000000
    34  H    3.736056   2.462088   2.406378   0.000000
    35  H    2.631814   3.068054   2.494966   1.755283   0.000000
    36  H    2.461607   3.257677   3.847046   3.053775   2.444018
    37  H    3.416814   2.440591   3.651617   2.575924   3.051270
    38  H    5.130115   4.233071   4.902001   2.682249   3.454021
    39  H    4.608988   4.793139   5.061864   3.098874   2.896821
    40  H    6.156708   6.030499   6.878428   4.943712   5.127469
    41  H    4.868739   5.455336   6.227300   4.762936   4.439571
    42  H    6.946257   5.742897   7.007662   5.164524   6.043377
    43  H    7.490865   6.848427   8.143189   6.447769   6.969306
    44  H    7.039271   5.896236   7.412866   6.026931   6.784325
                   36         37         38         39         40
    36  H    0.000000
    37  H    1.751791   0.000000
    38  H    3.053732   2.424467   0.000000
    39  H    2.559297   3.042132   1.762115   0.000000
    40  H    3.699409   3.660243   2.479266   2.507150   0.000000
    41  H    2.516706   3.166546   3.064904   2.422257   1.752584
    42  H    4.696960   3.634405   2.877551   4.144598   2.517498
    43  H    5.158443   4.529480   4.087752   4.805448   2.503051
    44  H    5.000486   3.904959   4.174189   5.266892   3.560649
                   41         42         43         44
    41  H    0.000000
    42  H    3.670744   0.000000
    43  H    3.435101   1.772977   0.000000
    44  H    4.114122   1.761876   1.777883   0.000000
 Stoichiometry    C14H29N
 Framework group  C1[X(C14H29N)]
 Deg. of freedom   126
 Full point group                 C1      NOp   1
 Largest Abelian subgroup         C1      NOp   1
 Largest concise Abelian subgroup C1      NOp   1
                         Standard orientation:                         
 ---------------------------------------------------------------------
 Center     Atomic      Atomic             Coordinates (Angstroms)
 Number     Number       Type             X           Y           Z
 ---------------------------------------------------------------------
      1          6           0        3.194181    0.752260    1.125445
      2          6           0        1.910518    0.441436    0.330560
      3          6           0        1.603595    1.565248   -0.693404
      4          6           0        0.893704    2.807701   -0.091104
      5          6           0       -0.638565    2.840436   -0.284439
      6          6           0       -1.348962    1.613530    0.292651
      7          6           0       -2.860431    1.512339    0.054438
      8          6           0       -3.465084    0.140435    0.439642
      9          6           0       -3.218013   -1.021251   -0.569270
     10          6           0       -2.289854   -2.171798   -0.118125
     11          6           0       -0.861427   -1.698111    0.150117
     12          6           0        0.264104   -2.725532    0.265821
     13          6           0        1.593588   -2.010347    0.606003
     14          7           0        1.897032   -0.892295   -0.295386
     15          6           0        2.965272   -1.170617   -1.237067
     16          1           0        3.119827    1.724767    1.623188
     17          1           0        4.069439    0.785850    0.468199
     18          1           0        3.378217   -0.002864    1.896724
     19          1           0        1.081515    0.426550    1.044268
     20          1           0        0.985204    1.142099   -1.492836
     21          1           0        2.540304    1.881939   -1.167400
     22          1           0        1.310000    3.716701   -0.539708
     23          1           0        1.122851    2.876643    0.980987
     24          1           0       -0.855617    2.904139   -1.360206
     25          1           0       -1.035192    3.762444    0.160994
     26          1           0       -1.156497    1.553493    1.373901
     27          1           0       -0.879188    0.736398   -0.144675
     28          1           0       -3.082917    1.711945   -1.003247
     29          1           0       -3.372727    2.299857    0.622528
     30          1           0       -4.546905    0.274070    0.549958
     31          1           0       -3.104126   -0.144056    1.437072
     32          1           0       -2.814963   -0.604699   -1.502388
     33          1           0       -4.185670   -1.459459   -0.839102
     34          1           0       -2.285793   -2.934701   -0.908296
     35          1           0       -2.707598   -2.659708    0.773215
     36          1           0       -0.860857   -1.084660    1.059558
     37          1           0       -0.562925   -1.035121   -0.666001
     38          1           0        0.364953   -3.274963   -0.679764
     39          1           0        0.059552   -3.472676    1.044384
     40          1           0        2.416497   -2.739386    0.605182
     41          1           0        1.525561   -1.637637    1.636653
     42          1           0        2.727737   -2.077304   -1.803671
     43          1           0        3.956108   -1.324297   -0.770457
     44          1           0        3.058207   -0.353680   -1.958963
 ---------------------------------------------------------------------
 Rotational constants (GHZ):           0.6501606           0.4437128           0.2925379
 Standard basis: 6-31+G(3df,2p) (6D, 7F)
 There are   847 symmetry adapted cartesian basis functions of A   symmetry.
 There are   802 symmetry adapted basis functions of A   symmetry.
   802 basis functions,  1100 primitive gaussians,   847 cartesian basis functions
    60 alpha electrons       60 beta electrons
       nuclear repulsion energy      1123.1502063699 Hartrees.
 NAtoms=   44 NActive=   44 NUniq=   44 SFac= 1.00D+00 NAtFMM=   60 NAOKFM=F Big=F
 Integral buffers will be    131072 words long.
 Regular integral format.
 Two-electron integral symmetry is turned on.
 One-electron integrals computed using PRISM.
 PrsmSu:  requested number of processors reduced to:  11 ShMem   1 Linda.
 NBasis=   802 RedAO= T EigKep=  5.72D-06  NBF=   802
 NBsUse=   802 1.00D-06 EigRej= -1.00D+00 NBFU=   802
 ExpMin= 4.38D-02 ExpMax= 4.17D+03 ExpMxC= 6.27D+02 IAcc=3 IRadAn=         5 AccDes= 0.00D+00
 Harris functional with IExCor=  402 and IRadAn=       5 diagonalized for initial guess.
 HarFok:  IExCor=  402 AccDes= 0.00D+00 IRadAn=         5 IDoV= 1 UseB2=F ITyADJ=14
 ICtDFT=  3500011 ScaDFX=  1.000000  1.000000  1.000000  1.000000
 FoFCou: FMM=F IPFlag=           0 FMFlag=      100000 FMFlg1=           0
         NFxFlg=           0 DoJE=T BraDBF=F KetDBF=T FulRan=T
         wScrn=  0.000000 ICntrl=       500 IOpCl=  0 I1Cent=   200000004 NGrid=           0
         NMat0=    1 NMatS0=      1 NMatT0=    0 NMatD0=    1 NMtDS0=    0 NMtDT0=    0
 Petite list used in FoFCou.
 Requested convergence on RMS density matrix=1.00D-08 within 128 cycles.
 Requested convergence on MAX density matrix=1.00D-06.
 Requested convergence on             energy=1.00D-06.
 No special actions if energy rises.
 SCF Done:  E(RB3LYP) =  -605.777762957     A.U. after   12 cycles
            NFock= 12  Conv=0.41D-08     -V/T= 2.0084
 DoSCS=F DFT=T ScalE2(SS,OS)=  1.000000  1.000000
 ExpMin= 4.38D-02 ExpMax= 4.17D+03 ExpMxC= 6.27D+02 IAcc=3 IRadAn=         5 AccDes= 0.00D+00
 HarFok:  IExCor=  205 AccDes= 0.00D+00 IRadAn=         5 IDoV=-2 UseB2=F ITyADJ=14
 ICtDFT= 12500011 ScaDFX=  1.000000  1.000000  1.000000  1.000000
 Range of M.O.s used for correlation:    16   802
 NBasis=   802 NAE=    60 NBE=    60 NFC=    15 NFV=     0
 NROrb=    787 NOA=    45 NOB=    45 NVA=   742 NVB=   742

 **** Warning!!: The largest alpha MO coefficient is  0.65828054D+02

 Orbital symmetries:
       Occupied  (A) (A) (A) (A) (A) (A) (A) (A) (A) (A) (A) (A)
                 (A) (A) (A) (A) (A) (A) (A) (A) (A) (A) (A) (A)
                 (A) (A) (A) (A) (A) (A) (A) (A) (A) (A) (A) (A)
                 (A) (A) (A) (A) (A) (A) (A) (A) (A) (A) (A) (A)
                 (A) (A) (A) (A) (A) (A) (A) (A) (A) (A) (A) (A)
       Virtual   (A) (A) (A) (A) (A) (A) (A) (A) (A) (A) (A) (A)
                 (A) (A) (A) (A) (A) (A) (A) (A) (A) (A) (A) (A)
                 (A) (A) (A) (A) (A) (A) (A) (A) (A) (A) (A) (A)
                 (A) (A) (A) (A) (A) (A) (A) (A) (A) (A) (A) (A)
                 (A) (A) (A) (A) (A) (A) (A) (A) (A) (A) (A) (A)
                 (A) (A) (A) (A) (A) (A) (A) (A) (A) (A) (A) (A)
                 (A) (A) (A) (A) (A) (A) (A) (A) (A) (A) (A) (A)
                 (A) (A) (A) (A) (A) (A) (A) (A) (A) (A) (A) (A)
                 (A) (A) (A) (A) (A) (A) (A) (A) (A) (A) (A) (A)
                 (A) (A) (A) (A) (A) (A) (A) (A) (A) (A) (A) (A)
                 (A) (A) (A) (A) (A) (A) (A) (A) (A) (A) (A) (A)
                 (A) (A) (A) (A) (A) (A) (A) (A) (A) (A) (A) (A)
                 (A) (A) (A) (A) (A) (A) (A) (A) (A) (A) (A) (A)
                 (A) (A) (A) (A) (A) (A) (A) (A) (A) (A) (A) (A)
                 (A) (A) (A) (A) (A) (A) (A) (A) (A) (A) (A) (A)
                 (A) (A) (A) (A) (A) (A) (A) (A) (A) (A) (A) (A)
                 (A) (A) (A) (A) (A) (A) (A) (A) (A) (A) (A) (A)
                 (A) (A) (A) (A) (A) (A) (A) (A) (A) (A) (A) (A)
                 (A) (A) (A) (A) (A) (A) (A) (A) (A) (A) (A) (A)
                 (A) (A) (A) (A) (A) (A) (A) (A) (A) (A) (A) (A)
                 (A) (A) (A) (A) (A) (A) (A) (A) (A) (A) (A) (A)
                 (A) (A) (A) (A) (A) (A) (A) (A) (A) (A) (A) (A)
                 (A) (A) (A) (A) (A) (A) (A) (A) (A) (A) (A) (A)
                 (A) (A) (A) (A) (A) (A) (A) (A) (A) (A) (A) (A)
                 (A) (A) (A) (A) (A) (A) (A) (A) (A) (A) (A) (A)
                 (A) (A) (A) (A) (A) (A) (A) (A) (A) (A) (A) (A)
                 (A) (A) (A) (A) (A) (A) (A) (A) (A) (A) (A) (A)
                 (A) (A) (A) (A) (A) (A) (A) (A) (A) (A) (A) (A)
                 (A) (A) (A) (A) (A) (A) (A) (A) (A) (A) (A) (A)
                 (A) (A) (A) (A) (A) (A) (A) (A) (A) (A) (A) (A)
                 (A) (A) (A) (A) (A) (A) (A) (A) (A) (A) (A) (A)
                 (A) (A) (A) (A) (A) (A) (A) (A) (A) (A) (A) (A)
                 (A) (A) (A) (A) (A) (A) (A) (A) (A) (A) (A) (A)
                 (A) (A) (A) (A) (A) (A) (A) (A) (A) (A) (A) (A)
                 (A) (A) (A) (A) (A) (A) (A) (A) (A) (A) (A) (A)
                 (A) (A) (A) (A) (A) (A) (A) (A) (A) (A) (A) (A)
                 (A) (A) (A) (A) (A) (A) (A) (A) (A) (A) (A) (A)
                 (A) (A) (A) (A) (A) (A) (A) (A) (A) (A) (A) (A)
                 (A) (A) (A) (A) (A) (A) (A) (A) (A) (A) (A) (A)
                 (A) (A) (A) (A) (A) (A) (A) (A) (A) (A) (A) (A)
                 (A) (A) (A) (A) (A) (A) (A) (A) (A) (A) (A) (A)
                 (A) (A) (A) (A) (A) (A) (A) (A) (A) (A) (A) (A)
                 (A) (A) (A) (A) (A) (A) (A) (A) (A) (A) (A) (A)
                 (A) (A) (A) (A) (A) (A) (A) (A) (A) (A) (A) (A)
                 (A) (A) (A) (A) (A) (A) (A) (A) (A) (A) (A) (A)
                 (A) (A) (A) (A) (A) (A) (A) (A) (A) (A) (A) (A)
                 (A) (A) (A) (A) (A) (A) (A) (A) (A) (A) (A) (A)
                 (A) (A) (A) (A) (A) (A) (A) (A) (A) (A) (A) (A)
                 (A) (A) (A) (A) (A) (A) (A) (A) (A) (A) (A) (A)
                 (A) (A) (A) (A) (A) (A) (A) (A) (A) (A) (A) (A)
                 (A) (A) (A) (A) (A) (A) (A) (A) (A) (A) (A) (A)
                 (A) (A) (A) (A) (A) (A) (A) (A) (A) (A) (A) (A)
                 (A) (A) (A) (A) (A) (A) (A) (A) (A) (A) (A) (A)
                 (A) (A) (A) (A) (A) (A) (A) (A) (A) (A) (A) (A)
                 (A) (A) (A) (A) (A) (A) (A) (A) (A) (A) (A) (A)
                 (A) (A) (A) (A) (A) (A) (A) (A) (A) (A) (A) (A)
                 (A) (A) (A) (A) (A) (A) (A) (A) (A) (A) (A) (A)
                 (A) (A) (A) (A) (A) (A) (A) (A) (A) (A) (A) (A)
                 (A) (A) (A) (A) (A) (A) (A) (A) (A) (A) (A) (A)
                 (A) (A) (A) (A) (A) (A) (A) (A) (A) (A) (A) (A)
                 (A) (A) (A) (A) (A) (A) (A) (A) (A) (A) (A) (A)
                 (A) (A) (A) (A) (A) (A) (A) (A) (A) (A)
    40 initial guesses have been made.
 Convergence on wavefunction:    0.000001000000000
 Iteration     1 Dimension    40 NMult     0 NNew     40
 CISAX will form     1 AO SS matrices at one time.
 New state      2 was old state      3
 New state      3 was old state      2
 New state      6 was old state      7
 New state      7 was old state      6
 Iteration     2 Dimension    60 NMult    40 NNew     20
 Iteration     3 Dimension    80 NMult    60 NNew     20
 Iteration     4 Dimension   100 NMult    80 NNew     20
 Iteration     5 Dimension   120 NMult   100 NNew     20
 Iteration     6 Dimension   140 NMult   120 NNew     20
slurmstepd: error: *** JOB 27484608 ON lewis4-r630-hpc4-node303 CANCELLED AT 2023-05-25T01:49:02 DUE TO TIME LIMIT ***
