### Starting Gaussian ###
 Entering Gaussian System, Link 0=g16
 Initial command:
 /cluster/software/gaussian/gaussian-16-A.03/avx2/g16/l1.exe "/local/scratch/ks29c/Gau-1022.inp" -scrdir="/local/scratch/ks29c/"
 Entering Link 1 = /cluster/software/gaussian/gaussian-16-A.03/avx2/g16/l1.exe PID=      1023.
  
 Copyright (c) 1988,1990,1992,1993,1995,1998,2003,2009,2016,
            Gaussian, Inc.  All Rights Reserved.
  
 This is part of the Gaussian(R) 16 program.  It is based on
 the Gaussian(R) 09 system (copyright 2009, Gaussian, Inc.),
 the Gaussian(R) 03 system (copyright 2003, Gaussian, Inc.),
 the Gaussian(R) 98 system (copyright 1998, Gaussian, Inc.),
 the Gaussian(R) 94 system (copyright 1995, Gaussian, Inc.),
 the Gaussian 92(TM) system (copyright 1992, Gaussian, Inc.),
 the Gaussian 90(TM) system (copyright 1990, Gaussian, Inc.),
 the Gaussian 88(TM) system (copyright 1988, Gaussian, Inc.),
 the Gaussian 86(TM) system (copyright 1986, Carnegie Mellon
 University), and the Gaussian 82(TM) system (copyright 1983,
 Carnegie Mellon University). Gaussian is a federally registered
 trademark of Gaussian, Inc.
  
 This software contains proprietary and confidential information,
 including trade secrets, belonging to Gaussian, Inc.
  
 This software is provided under written license and may be
 used, copied, transmitted, or stored only in accord with that
 written license.
  
 The following legend is applicable only to US Government
 contracts under FAR:
  
                    RESTRICTED RIGHTS LEGEND
  
 Use, reproduction and disclosure by the US Government is
 subject to restrictions as set forth in subparagraphs (a)
 and (c) of the Commercial Computer Software - Restricted
 Rights clause in FAR 52.227-19.
  
 Gaussian, Inc.
 340 Quinnipiac St., Bldg. 40, Wallingford CT 06492
  
  
 ---------------------------------------------------------------
 Warning -- This program may not be used in any manner that
 competes with the business of Gaussian, Inc. or will provide
 assistance to any competitor of Gaussian, Inc.  The licensee
 of this program is prohibited from giving any competitor of
 Gaussian, Inc. access to this program.  By using this program,
 the user acknowledges that Gaussian, Inc. is engaged in the
 business of creating and licensing software in the field of
 computational chemistry and represents and warrants to the
 licensee that it is not a competitor of Gaussian, Inc. and that
 it will not use this program in any manner prohibited above.
 ---------------------------------------------------------------
  

 Cite this work as:
 Gaussian 16, Revision A.03,
 M. J. Frisch, G. W. Trucks, H. B. Schlegel, G. E. Scuseria, 
 M. A. Robb, J. R. Cheeseman, G. Scalmani, V. Barone, 
 G. A. Petersson, H. Nakatsuji, X. Li, M. Caricato, A. V. Marenich, 
 J. Bloino, B. G. Janesko, R. Gomperts, B. Mennucci, H. P. Hratchian, 
 J. V. Ortiz, A. F. Izmaylov, J. L. Sonnenberg, D. Williams-Young, 
 F. Ding, F. Lipparini, F. Egidi, J. Goings, B. Peng, A. Petrone, 
 T. Henderson, D. Ranasinghe, V. G. Zakrzewski, J. Gao, N. Rega, 
 G. Zheng, W. Liang, M. Hada, M. Ehara, K. Toyota, R. Fukuda, 
 J. Hasegawa, M. Ishida, T. Nakajima, Y. Honda, O. Kitao, H. Nakai, 
 T. Vreven, K. Throssell, J. A. Montgomery, Jr., J. E. Peralta, 
 F. Ogliaro, M. J. Bearpark, J. J. Heyd, E. N. Brothers, K. N. Kudin, 
 V. N. Staroverov, T. A. Keith, R. Kobayashi, J. Normand, 
 K. Raghavachari, A. P. Rendell, J. C. Burant, S. S. Iyengar, 
 J. Tomasi, M. Cossi, J. M. Millam, M. Klene, C. Adamo, R. Cammi, 
 J. W. Ochterski, R. L. Martin, K. Morokuma, O. Farkas, 
 J. B. Foresman, and D. J. Fox, Gaussian, Inc., Wallingford CT, 2016.
 
 ******************************************
 Gaussian 16:  ES64L-G16RevA.03 25-Dec-2016
                24-May-2023 
 ******************************************
 %chk=CCC1dCCCCCqCCqCrCOrCC1.chk
 %NProcShared=20
 Will use up to   20 processors via shared memory.
 -----------------------------------------------------------------
 # opt freq b3lyp/6-31+g(3df,2p) Geom=AllCheckpoint TD(NStates=10)
 -----------------------------------------------------------------
 1/18=20,19=15,26=3,29=7,38=1/1,3;
 2/9=110,12=2,40=1/2;
 3/5=1,6=6,7=216,11=9,14=-4,25=1,30=1,71=1,74=-5/1,2,3,8;
 4//1;
 5/5=2,38=5/2;
 8/6=1,10=2,108=10/1;
 9/15=2,41=10,42=1,70=2/14;
 10/5=4/2;
 6/7=2,8=2,9=2,10=2/1;
 7/12=6,13=5/1,2,3,16;
 1/18=20,19=15,26=3/3(2);
 2/9=110/2;
 99//99;
 2/9=110/2;
 3/5=1,6=6,7=216,11=9,14=-2,25=1,30=1,71=1,74=-5/1,2,3,8;
 4/5=5,16=3,69=1/1;
 5/5=2,38=5/2;
 8/6=1,10=2,108=10/1;
 9/15=2,41=10,42=1,49=4,70=2/14;
 10/5=4/2;
 7/12=6,13=5/1,2,3,16;
 1/18=20,19=15,26=3/3(-8);
 2/9=110/2;
 6/7=2,8=2,9=2,10=2/1;
 99//99;
 Structure from the checkpoint file:  "CCC1dCCCCCqCCqCrCOrCC1.chk"
 -------------------
 Title Card Required
 -------------------
 Charge =  0 Multiplicity = 1
 Redundant internal coordinates found in file.  (old form).
 C,0,1.8442335161,0.8391716527,0.1465549432
 C,0,2.9429290033,-0.201446328,0.425521738
 C,0,2.9635068952,-1.3391695875,-0.5774977146
 C,0,2.5196577859,-2.5485462945,-0.2134281053
 C,0,2.4029293146,-3.8566564266,-0.9613046907
 C,0,2.8466595148,-3.9498444266,-2.4300701706
 C,0,4.3707680287,-3.9503254283,-2.6821213165
 C,0,5.2522581993,-2.969731444,-1.8807007896
 C,0,6.7484548982,-3.2704084247,-2.1374747702
 C,0,7.3298462343,-4.5153577906,-1.4366635535
 C,0,8.6288503102,-4.980321425,-2.1070110704
 C,0,7.5672304131,-4.2481035842,0.0580394667
 O,0,8.0203861809,-5.3914384875,0.7707457111
 C,0,4.976699137,-1.4842821274,-2.17395991
 C,0,3.5316968861,-0.9843106904,-1.9416233787
 H,0,1.8857020019,1.6561217323,0.8742086423
 H,0,0.8529716118,0.3787322149,0.2066101532
 H,0,1.9456734198,1.2792665258,-0.8508856893
 H,0,2.8070681145,-0.6011549963,1.4362812942
 H,0,3.9187797542,0.3048267091,0.4192803081
 H,0,2.1635713547,-2.6376302436,0.8143797906
 H,0,1.3483401639,-4.1656371262,-0.9053215601
 H,0,2.9382806293,-4.6243168216,-0.3797345938
 H,0,2.3508882869,-3.1705508426,-3.0130489245
 H,0,2.4539662346,-4.893038461,-2.8296868087
 H,0,4.5484583033,-3.7895376061,-3.7549027296
 H,0,4.7349957155,-4.9643967994,-2.4748585948
 H,0,5.0502180933,-3.1294420019,-0.8151616247
 H,0,7.3485713323,-2.401052699,-1.83401254
 H,0,6.9027973191,-3.3684004121,-3.220561581
 H,0,6.5996297675,-5.3362738542,-1.5063989809
 H,0,9.3586847613,-4.1622701768,-2.1451042933
 H,0,8.4492881079,-5.3137722483,-3.1341253147
 H,0,9.0787153605,-5.8028263677,-1.5453741527
 H,0,6.6616403079,-3.8322204094,0.5245476182
 H,0,8.3609516399,-3.499554692,0.172432345
 H,0,7.3165643698,-6.0476418789,0.7469051972
 H,0,5.256413452,-1.2599574529,-3.2128598437
 H,0,5.6538244983,-0.890749763,-1.5457103613
 H,0,2.8839780182,-1.3427960283,-2.7423893729
 H,0,3.5426810639,0.1063245119,-2.0475347719
 Recover connectivity data from disk.

 GradGradGradGradGradGradGradGradGradGradGradGradGradGradGradGradGradGrad
 Berny optimization.
 Initialization pass.
                           ----------------------------
                           !    Initial Parameters    !
                           ! (Angstroms and Degrees)  !
 --------------------------                            --------------------------
 ! Name  Definition              Value          Derivative Info.                !
 --------------------------------------------------------------------------------
 ! R1    R(1,2)                  1.5388         estimate D2E/DX2                !
 ! R2    R(1,16)                 1.0948         estimate D2E/DX2                !
 ! R3    R(1,17)                 1.0946         estimate D2E/DX2                !
 ! R4    R(1,18)                 1.0949         estimate D2E/DX2                !
 ! R5    R(2,3)                  1.5169         estimate D2E/DX2                !
 ! R6    R(2,19)                 1.0954         estimate D2E/DX2                !
 ! R7    R(2,20)                 1.0994         estimate D2E/DX2                !
 ! R8    R(3,4)                  1.3387         estimate D2E/DX2                !
 ! R9    R(3,15)                 1.5197         estimate D2E/DX2                !
 ! R10   R(4,5)                  1.5113         estimate D2E/DX2                !
 ! R11   R(4,21)                 1.0914         estimate D2E/DX2                !
 ! R12   R(5,6)                  1.5372         estimate D2E/DX2                !
 ! R13   R(5,22)                 1.1003         estimate D2E/DX2                !
 ! R14   R(5,23)                 1.1019         estimate D2E/DX2                !
 ! R15   R(6,7)                  1.5448         estimate D2E/DX2                !
 ! R16   R(6,24)                 1.0922         estimate D2E/DX2                !
 ! R17   R(6,25)                 1.097          estimate D2E/DX2                !
 ! R18   R(7,8)                  1.543          estimate D2E/DX2                !
 ! R19   R(7,26)                 1.0992         estimate D2E/DX2                !
 ! R20   R(7,27)                 1.0973         estimate D2E/DX2                !
 ! R21   R(8,9)                  1.5476         estimate D2E/DX2                !
 ! R22   R(8,14)                 1.539          estimate D2E/DX2                !
 ! R23   R(8,28)                 1.0962         estimate D2E/DX2                !
 ! R24   R(9,10)                 1.5424         estimate D2E/DX2                !
 ! R25   R(9,29)                 1.0991         estimate D2E/DX2                !
 ! R26   R(9,30)                 1.0984         estimate D2E/DX2                !
 ! R27   R(10,11)                1.5339         estimate D2E/DX2                !
 ! R28   R(10,12)                1.5369         estimate D2E/DX2                !
 ! R29   R(10,31)                1.1009         estimate D2E/DX2                !
 ! R30   R(11,32)                1.097          estimate D2E/DX2                !
 ! R31   R(11,33)                1.0947         estimate D2E/DX2                !
 ! R32   R(11,34)                1.0929         estimate D2E/DX2                !
 ! R33   R(12,13)                1.4214         estimate D2E/DX2                !
 ! R34   R(12,35)                1.1003         estimate D2E/DX2                !
 ! R35   R(12,36)                1.097          estimate D2E/DX2                !
 ! R36   R(13,37)                0.9626         estimate D2E/DX2                !
 ! R37   R(14,15)                1.5466         estimate D2E/DX2                !
 ! R38   R(14,38)                1.099          estimate D2E/DX2                !
 ! R39   R(14,39)                1.0979         estimate D2E/DX2                !
 ! R40   R(15,40)                1.0905         estimate D2E/DX2                !
 ! R41   R(15,41)                1.0958         estimate D2E/DX2                !
 ! A1    A(2,1,16)             110.9217         estimate D2E/DX2                !
 ! A2    A(2,1,17)             110.6204         estimate D2E/DX2                !
 ! A3    A(2,1,18)             111.7661         estimate D2E/DX2                !
 ! A4    A(16,1,17)            108.1626         estimate D2E/DX2                !
 ! A5    A(16,1,18)            107.5793         estimate D2E/DX2                !
 ! A6    A(17,1,18)            107.6346         estimate D2E/DX2                !
 ! A7    A(1,2,3)              113.3931         estimate D2E/DX2                !
 ! A8    A(1,2,19)             108.9957         estimate D2E/DX2                !
 ! A9    A(1,2,20)             108.743          estimate D2E/DX2                !
 ! A10   A(3,2,19)             109.7641         estimate D2E/DX2                !
 ! A11   A(3,2,20)             109.2449         estimate D2E/DX2                !
 ! A12   A(19,2,20)            106.4617         estimate D2E/DX2                !
 ! A13   A(2,3,4)              119.555          estimate D2E/DX2                !
 ! A14   A(2,3,15)             115.054          estimate D2E/DX2                !
 ! A15   A(4,3,15)             125.3809         estimate D2E/DX2                !
 ! A16   A(3,4,5)              132.2952         estimate D2E/DX2                !
 ! A17   A(3,4,21)             115.9781         estimate D2E/DX2                !
 ! A18   A(5,4,21)             111.7263         estimate D2E/DX2                !
 ! A19   A(4,5,6)              120.1992         estimate D2E/DX2                !
 ! A20   A(4,5,22)             106.9714         estimate D2E/DX2                !
 ! A21   A(4,5,23)             107.7162         estimate D2E/DX2                !
 ! A22   A(6,5,22)             107.9542         estimate D2E/DX2                !
 ! A23   A(6,5,23)             108.7737         estimate D2E/DX2                !
 ! A24   A(22,5,23)            104.0735         estimate D2E/DX2                !
 ! A25   A(5,6,7)              116.1499         estimate D2E/DX2                !
 ! A26   A(5,6,24)             109.6164         estimate D2E/DX2                !
 ! A27   A(5,6,25)             107.2685         estimate D2E/DX2                !
 ! A28   A(7,6,24)             111.1593         estimate D2E/DX2                !
 ! A29   A(7,6,25)             107.065          estimate D2E/DX2                !
 ! A30   A(24,6,25)            104.8638         estimate D2E/DX2                !
 ! A31   A(6,7,8)              118.5995         estimate D2E/DX2                !
 ! A32   A(6,7,26)             108.5828         estimate D2E/DX2                !
 ! A33   A(6,7,27)             107.2754         estimate D2E/DX2                !
 ! A34   A(8,7,26)             108.7591         estimate D2E/DX2                !
 ! A35   A(8,7,27)             107.433          estimate D2E/DX2                !
 ! A36   A(26,7,27)            105.419          estimate D2E/DX2                !
 ! A37   A(7,8,9)              110.0396         estimate D2E/DX2                !
 ! A38   A(7,8,14)             114.3393         estimate D2E/DX2                !
 ! A39   A(7,8,28)             107.8769         estimate D2E/DX2                !
 ! A40   A(9,8,14)             109.2095         estimate D2E/DX2                !
 ! A41   A(9,8,28)             108.1291         estimate D2E/DX2                !
 ! A42   A(14,8,28)            107.0282         estimate D2E/DX2                !
 ! A43   A(8,9,10)             116.4782         estimate D2E/DX2                !
 ! A44   A(8,9,29)             109.1715         estimate D2E/DX2                !
 ! A45   A(8,9,30)             108.469          estimate D2E/DX2                !
 ! A46   A(10,9,29)            107.8887         estimate D2E/DX2                !
 ! A47   A(10,9,30)            108.8474         estimate D2E/DX2                !
 ! A48   A(29,9,30)            105.4319         estimate D2E/DX2                !
 ! A49   A(9,10,11)            111.4263         estimate D2E/DX2                !
 ! A50   A(9,10,12)            111.0855         estimate D2E/DX2                !
 ! A51   A(9,10,31)            108.8486         estimate D2E/DX2                !
 ! A52   A(11,10,12)           110.2998         estimate D2E/DX2                !
 ! A53   A(11,10,31)           107.9383         estimate D2E/DX2                !
 ! A54   A(12,10,31)           107.0814         estimate D2E/DX2                !
 ! A55   A(10,11,32)           110.6436         estimate D2E/DX2                !
 ! A56   A(10,11,33)           111.3122         estimate D2E/DX2                !
 ! A57   A(10,11,34)           110.6183         estimate D2E/DX2                !
 ! A58   A(32,11,33)           107.6802         estimate D2E/DX2                !
 ! A59   A(32,11,34)           107.7722         estimate D2E/DX2                !
 ! A60   A(33,11,34)           108.6904         estimate D2E/DX2                !
 ! A61   A(10,12,13)           113.3915         estimate D2E/DX2                !
 ! A62   A(10,12,35)           110.5456         estimate D2E/DX2                !
 ! A63   A(10,12,36)           109.3804         estimate D2E/DX2                !
 ! A64   A(13,12,35)           110.721          estimate D2E/DX2                !
 ! A65   A(13,12,36)           105.4208         estimate D2E/DX2                !
 ! A66   A(35,12,36)           107.06           estimate D2E/DX2                !
 ! A67   A(12,13,37)           107.627          estimate D2E/DX2                !
 ! A68   A(8,14,15)            116.7878         estimate D2E/DX2                !
 ! A69   A(8,14,38)            109.3639         estimate D2E/DX2                !
 ! A70   A(8,14,39)            107.5969         estimate D2E/DX2                !
 ! A71   A(15,14,38)           108.289          estimate D2E/DX2                !
 ! A72   A(15,14,39)           108.3906         estimate D2E/DX2                !
 ! A73   A(38,14,39)           105.8784         estimate D2E/DX2                !
 ! A74   A(3,15,14)            114.1214         estimate D2E/DX2                !
 ! A75   A(3,15,40)            111.1175         estimate D2E/DX2                !
 ! A76   A(3,15,41)            108.8382         estimate D2E/DX2                !
 ! A77   A(14,15,40)           109.7765         estimate D2E/DX2                !
 ! A78   A(14,15,41)           107.3289         estimate D2E/DX2                !
 ! A79   A(40,15,41)           105.1978         estimate D2E/DX2                !
 ! D1    D(16,1,2,3)          -178.2362         estimate D2E/DX2                !
 ! D2    D(16,1,2,19)           59.1774         estimate D2E/DX2                !
 ! D3    D(16,1,2,20)          -56.4988         estimate D2E/DX2                !
 ! D4    D(17,1,2,3)            61.7366         estimate D2E/DX2                !
 ! D5    D(17,1,2,19)          -60.8498         estimate D2E/DX2                !
 ! D6    D(17,1,2,20)         -176.5261         estimate D2E/DX2                !
 ! D7    D(18,1,2,3)           -58.1824         estimate D2E/DX2                !
 ! D8    D(18,1,2,19)          179.2312         estimate D2E/DX2                !
 ! D9    D(18,1,2,20)           63.5549         estimate D2E/DX2                !
 ! D10   D(1,2,3,4)           -106.568          estimate D2E/DX2                !
 ! D11   D(1,2,3,15)            74.5266         estimate D2E/DX2                !
 ! D12   D(19,2,3,4)            15.592          estimate D2E/DX2                !
 ! D13   D(19,2,3,15)         -163.3133         estimate D2E/DX2                !
 ! D14   D(20,2,3,4)           131.9755         estimate D2E/DX2                !
 ! D15   D(20,2,3,15)          -46.9299         estimate D2E/DX2                !
 ! D16   D(2,3,4,5)            179.6036         estimate D2E/DX2                !
 ! D17   D(2,3,4,21)            -0.1373         estimate D2E/DX2                !
 ! D18   D(15,3,4,5)            -1.6127         estimate D2E/DX2                !
 ! D19   D(15,3,4,21)          178.6464         estimate D2E/DX2                !
 ! D20   D(2,3,15,14)          102.6749         estimate D2E/DX2                !
 ! D21   D(2,3,15,40)         -132.5506         estimate D2E/DX2                !
 ! D22   D(2,3,15,41)          -17.1658         estimate D2E/DX2                !
 ! D23   D(4,3,15,14)          -76.1572         estimate D2E/DX2                !
 ! D24   D(4,3,15,40)           48.6173         estimate D2E/DX2                !
 ! D25   D(4,3,15,41)          164.0021         estimate D2E/DX2                !
 ! D26   D(3,4,5,6)              0.0613         estimate D2E/DX2                !
 ! D27   D(3,4,5,22)          -123.3412         estimate D2E/DX2                !
 ! D28   D(3,4,5,23)           125.289          estimate D2E/DX2                !
 ! D29   D(21,4,5,6)           179.8106         estimate D2E/DX2                !
 ! D30   D(21,4,5,22)           56.4081         estimate D2E/DX2                !
 ! D31   D(21,4,5,23)          -54.9618         estimate D2E/DX2                !
 ! D32   D(4,5,6,7)             73.7668         estimate D2E/DX2                !
 ! D33   D(4,5,6,24)           -53.2383         estimate D2E/DX2                !
 ! D34   D(4,5,6,25)          -166.5651         estimate D2E/DX2                !
 ! D35   D(22,5,6,7)          -163.3038         estimate D2E/DX2                !
 ! D36   D(22,5,6,24)           69.6912         estimate D2E/DX2                !
 ! D37   D(22,5,6,25)          -43.6357         estimate D2E/DX2                !
 ! D38   D(23,5,6,7)           -50.9626         estimate D2E/DX2                !
 ! D39   D(23,5,6,24)         -177.9676         estimate D2E/DX2                !
 ! D40   D(23,5,6,25)           68.7055         estimate D2E/DX2                !
 ! D41   D(5,6,7,8)            -42.5216         estimate D2E/DX2                !
 ! D42   D(5,6,7,26)          -167.2529         estimate D2E/DX2                !
 ! D43   D(5,6,7,27)            79.2747         estimate D2E/DX2                !
 ! D44   D(24,6,7,8)            83.7118         estimate D2E/DX2                !
 ! D45   D(24,6,7,26)          -41.0194         estimate D2E/DX2                !
 ! D46   D(24,6,7,27)         -154.4919         estimate D2E/DX2                !
 ! D47   D(25,6,7,8)          -162.2998         estimate D2E/DX2                !
 ! D48   D(25,6,7,26)           72.969          estimate D2E/DX2                !
 ! D49   D(25,6,7,27)          -40.5035         estimate D2E/DX2                !
 ! D50   D(6,7,8,9)            172.0767         estimate D2E/DX2                !
 ! D51   D(6,7,8,14)           -64.5984         estimate D2E/DX2                !
 ! D52   D(6,7,8,28)            54.3234         estimate D2E/DX2                !
 ! D53   D(26,7,8,9)           -63.2781         estimate D2E/DX2                !
 ! D54   D(26,7,8,14)           60.0467         estimate D2E/DX2                !
 ! D55   D(26,7,8,28)          178.9686         estimate D2E/DX2                !
 ! D56   D(27,7,8,9)            50.36           estimate D2E/DX2                !
 ! D57   D(27,7,8,14)          173.6848         estimate D2E/DX2                !
 ! D58   D(27,7,8,28)          -67.3933         estimate D2E/DX2                !
 ! D59   D(7,8,9,10)           -75.2286         estimate D2E/DX2                !
 ! D60   D(7,8,9,29)           162.326          estimate D2E/DX2                !
 ! D61   D(7,8,9,30)            47.9239         estimate D2E/DX2                !
 ! D62   D(14,8,9,10)          158.4969         estimate D2E/DX2                !
 ! D63   D(14,8,9,29)           36.0515         estimate D2E/DX2                !
 ! D64   D(14,8,9,30)          -78.3506         estimate D2E/DX2                !
 ! D65   D(28,8,9,10)           42.3684         estimate D2E/DX2                !
 ! D66   D(28,8,9,29)          -80.077          estimate D2E/DX2                !
 ! D67   D(28,8,9,30)          165.5209         estimate D2E/DX2                !
 ! D68   D(7,8,14,15)           57.5814         estimate D2E/DX2                !
 ! D69   D(7,8,14,38)          -65.789          estimate D2E/DX2                !
 ! D70   D(7,8,14,39)          179.6474         estimate D2E/DX2                !
 ! D71   D(9,8,14,15)         -178.6474         estimate D2E/DX2                !
 ! D72   D(9,8,14,38)           57.9822         estimate D2E/DX2                !
 ! D73   D(9,8,14,39)          -56.5814         estimate D2E/DX2                !
 ! D74   D(28,8,14,15)         -61.8186         estimate D2E/DX2                !
 ! D75   D(28,8,14,38)         174.8109         estimate D2E/DX2                !
 ! D76   D(28,8,14,39)          60.2473         estimate D2E/DX2                !
 ! D77   D(8,9,10,11)          160.8776         estimate D2E/DX2                !
 ! D78   D(8,9,10,12)          -75.7044         estimate D2E/DX2                !
 ! D79   D(8,9,10,31)           41.9588         estimate D2E/DX2                !
 ! D80   D(29,9,10,11)         -76.0092         estimate D2E/DX2                !
 ! D81   D(29,9,10,12)          47.4088         estimate D2E/DX2                !
 ! D82   D(29,9,10,31)         165.072          estimate D2E/DX2                !
 ! D83   D(30,9,10,11)          37.9215         estimate D2E/DX2                !
 ! D84   D(30,9,10,12)         161.3395         estimate D2E/DX2                !
 ! D85   D(30,9,10,31)         -80.9973         estimate D2E/DX2                !
 ! D86   D(9,10,11,32)          55.3164         estimate D2E/DX2                !
 ! D87   D(9,10,11,33)         -64.3761         estimate D2E/DX2                !
 ! D88   D(9,10,11,34)         174.6731         estimate D2E/DX2                !
 ! D89   D(12,10,11,32)        -68.5476         estimate D2E/DX2                !
 ! D90   D(12,10,11,33)        171.7599         estimate D2E/DX2                !
 ! D91   D(12,10,11,34)         50.8091         estimate D2E/DX2                !
 ! D92   D(31,10,11,32)        174.7771         estimate D2E/DX2                !
 ! D93   D(31,10,11,33)         55.0846         estimate D2E/DX2                !
 ! D94   D(31,10,11,34)        -65.8662         estimate D2E/DX2                !
 ! D95   D(9,10,12,13)         176.0931         estimate D2E/DX2                !
 ! D96   D(9,10,12,35)          51.0768         estimate D2E/DX2                !
 ! D97   D(9,10,12,36)         -66.5661         estimate D2E/DX2                !
 ! D98   D(11,10,12,13)        -59.8461         estimate D2E/DX2                !
 ! D99   D(11,10,12,35)        175.1377         estimate D2E/DX2                !
 ! D100  D(11,10,12,36)         57.4947         estimate D2E/DX2                !
 ! D101  D(31,10,12,13)         57.3611         estimate D2E/DX2                !
 ! D102  D(31,10,12,35)        -67.6551         estimate D2E/DX2                !
 ! D103  D(31,10,12,36)        174.7019         estimate D2E/DX2                !
 ! D104  D(10,12,13,37)        -64.5563         estimate D2E/DX2                !
 ! D105  D(35,12,13,37)         60.3655         estimate D2E/DX2                !
 ! D106  D(36,12,13,37)        175.8154         estimate D2E/DX2                !
 ! D107  D(8,14,15,3)           50.9159         estimate D2E/DX2                !
 ! D108  D(8,14,15,40)         -74.5692         estimate D2E/DX2                !
 ! D109  D(8,14,15,41)         171.6012         estimate D2E/DX2                !
 ! D110  D(38,14,15,3)         174.837          estimate D2E/DX2                !
 ! D111  D(38,14,15,40)         49.3519         estimate D2E/DX2                !
 ! D112  D(38,14,15,41)        -64.4777         estimate D2E/DX2                !
 ! D113  D(39,14,15,3)         -70.7352         estimate D2E/DX2                !
 ! D114  D(39,14,15,40)        163.7797         estimate D2E/DX2                !
 ! D115  D(39,14,15,41)         49.9501         estimate D2E/DX2                !
 --------------------------------------------------------------------------------
 Trust Radius=3.00D-01 FncErr=1.00D-07 GrdErr=1.00D-06 EigMax=2.50D+02 EigMin=1.00D-04
 Number of steps in this run=    245 maximum allowed number of steps=    246.
 GradGradGradGradGradGradGradGradGradGradGradGradGradGradGradGradGradGrad

                          Input orientation:                          
 ---------------------------------------------------------------------
 Center     Atomic      Atomic             Coordinates (Angstroms)
 Number     Number       Type             X           Y           Z
 ---------------------------------------------------------------------
      1          6           0        1.844234    0.839172    0.146555
      2          6           0        2.942929   -0.201446    0.425522
      3          6           0        2.963507   -1.339170   -0.577498
      4          6           0        2.519658   -2.548546   -0.213428
      5          6           0        2.402929   -3.856656   -0.961305
      6          6           0        2.846660   -3.949844   -2.430070
      7          6           0        4.370768   -3.950325   -2.682121
      8          6           0        5.252258   -2.969731   -1.880701
      9          6           0        6.748455   -3.270408   -2.137475
     10          6           0        7.329846   -4.515358   -1.436664
     11          6           0        8.628850   -4.980321   -2.107011
     12          6           0        7.567230   -4.248104    0.058039
     13          8           0        8.020386   -5.391438    0.770746
     14          6           0        4.976699   -1.484282   -2.173960
     15          6           0        3.531697   -0.984311   -1.941623
     16          1           0        1.885702    1.656122    0.874209
     17          1           0        0.852972    0.378732    0.206610
     18          1           0        1.945673    1.279267   -0.850886
     19          1           0        2.807068   -0.601155    1.436281
     20          1           0        3.918780    0.304827    0.419280
     21          1           0        2.163571   -2.637630    0.814380
     22          1           0        1.348340   -4.165637   -0.905322
     23          1           0        2.938281   -4.624317   -0.379735
     24          1           0        2.350888   -3.170551   -3.013049
     25          1           0        2.453966   -4.893038   -2.829687
     26          1           0        4.548458   -3.789538   -3.754903
     27          1           0        4.734996   -4.964397   -2.474859
     28          1           0        5.050218   -3.129442   -0.815162
     29          1           0        7.348571   -2.401053   -1.834013
     30          1           0        6.902797   -3.368400   -3.220562
     31          1           0        6.599630   -5.336274   -1.506399
     32          1           0        9.358685   -4.162270   -2.145104
     33          1           0        8.449288   -5.313772   -3.134125
     34          1           0        9.078715   -5.802826   -1.545374
     35          1           0        6.661640   -3.832220    0.524548
     36          1           0        8.360952   -3.499555    0.172432
     37          1           0        7.316564   -6.047642    0.746905
     38          1           0        5.256413   -1.259957   -3.212860
     39          1           0        5.653824   -0.890750   -1.545710
     40          1           0        2.883978   -1.342796   -2.742389
     41          1           0        3.542681    0.106325   -2.047535
 ---------------------------------------------------------------------
                    Distance matrix (angstroms):
                    1          2          3          4          5
     1  C    0.000000
     2  C    1.538779   0.000000
     3  C    2.553859   1.516867   0.000000
     4  C    3.473099   2.469067   1.338709   0.000000
     5  C    4.856984   3.946574   2.607546   1.511323   0.000000
     6  C    5.529786   4.713190   3.203327   2.642739   1.537157
     7  C    6.109343   5.074472   3.637026   3.389106   2.615793
     8  C    5.498376   4.279611   3.097653   3.228668   3.122595
     9  C    6.793882   5.519919   4.526482   4.701677   4.539896
    10  C    7.827484   6.428266   5.467290   5.338779   4.993432
    11  C    9.218247   7.847361   6.906049   6.842618   6.429414
    12  C    7.657735   6.155862   5.482707   5.332933   5.278475
    13  O    8.795168   7.268822   6.618963   6.269661   6.075473
    14  C    4.538234   3.541072   2.573459   3.318644   3.704455
    15  C    3.245475   2.561816   1.519738   2.541203   3.238134
    16  H    1.094809   2.183943   3.498698   4.389087   5.833297
    17  H    1.094628   2.180012   2.832026   3.394589   4.658853
    18  H    1.094925   2.194595   2.822576   3.922749   5.157420
    19  H    2.159858   1.095381   2.150452   2.568361   4.063254
    20  H    2.159548   1.099380   2.146820   3.240309   4.639155
    21  H    3.554732   2.587199   2.064757   1.091386   2.167112
    22  H    5.138138   4.475340   3.271873   2.113217   1.100346
    23  H    5.596751   4.495580   3.291191   2.124082   1.101874
    24  H    5.130075   4.581469   3.108242   2.872847   2.164048
    25  H    6.487528   5.731187   4.238157   3.513655   2.137181
    26  H    6.630170   5.738299   4.314195   4.265927   3.523065
    27  H    6.993549   5.857423   4.458747   3.982226   2.992736
    28  H    5.191640   3.814855   2.759696   2.665194   2.749243
    29  H    6.687259   5.417882   4.683505   5.095729   5.228745
    30  H    7.391225   6.245325   5.159610   5.378376   5.058799
    31  H    7.967570   6.593196   5.482799   5.107775   4.483156
    32  H    9.313061   7.966063   7.164188   7.287508   7.062387
    33  H    9.604599   8.314262   7.240691   7.165017   6.588079
    34  H    9.965766   8.538604   7.632614   7.442154   6.978168
    35  H    6.721026   5.198186   4.594126   4.398687   4.510540
    36  H    7.828974   6.347956   5.861917   5.930769   6.075435
    37  H    8.816747   7.308213   6.547737   6.014667   5.644662
    38  H    5.228287   4.439648   3.494113   4.259916   4.467070
    39  H    4.513244   3.421966   2.894188   3.787647   4.439195
    40  H    3.766703   3.367761   2.166355   2.825280   3.118199
    41  H    2.869812   2.563286   2.141473   3.385094   4.264287
                    6          7          8          9         10
     6  C    0.000000
     7  C    1.544810   0.000000
     8  C    2.655058   1.543005   0.000000
     9  C    3.971304   2.532256   1.547561   0.000000
    10  C    4.626621   3.259842   2.627261   1.542417   0.000000
    11  C    5.882175   4.418474   3.936377   2.541774   1.533939
    12  C    5.344477   4.220726   3.279031   2.539008   1.536852
    13  O    6.252269   5.226740   4.534023   3.817633   2.473261
    14  C    3.268281   2.589739   1.538991   2.516088   3.907471
    15  C    3.082571   3.170114   2.627915   3.951219   5.210491
    16  H    6.577884   7.089096   6.349940   7.548993   8.547865
    17  H    5.446416   6.281751   5.909551   7.318995   8.282655
    18  H    5.536172   6.048400   5.481606   6.739552   7.931590
    19  H    5.115072   5.533836   4.753049   5.952409   6.635534
    20  H    5.231679   5.284818   4.217915   5.227463   6.189837
    21  H    3.565806   4.338249   4.112631   5.489536   5.939988
    22  H    2.148578   3.512613   4.197872   5.610782   6.015234
    23  H    2.160367   2.794149   3.216371   4.409098   4.518276
    24  H    1.092223   2.190314   3.120976   4.484997   5.392914
    25  H    1.097049   2.141171   3.525638   4.642706   5.085013
    26  H    2.162637   1.099221   2.163342   2.779488   3.692853
    27  H    2.144093   1.097251   2.144592   2.652818   2.830677
    28  H    2.852483   2.149661   1.096221   2.156940   2.739294
    29  H    4.798047   3.462203   2.172580   1.099094   2.151400
    30  H    4.173153   2.653248   2.162971   1.098408   2.163371
    31  H    4.106110   2.875935   2.748824   2.165226   1.100901
    32  H    6.521718   5.021217   4.284250   2.758401   2.177784
    33  H    5.809083   4.324075   4.157716   2.839275   2.184489
    34  H    6.561612   5.185434   4.772907   3.491968   2.174382
    35  H    4.826767   3.942686   2.918127   2.722046   2.181634
    36  H    6.114180   4.926788   3.762983   2.826362   2.164307
    37  H    5.871454   4.983440   4.543039   4.044184   2.667591
    38  H    3.695290   2.881689   2.167485   2.724803   4.248721
    39  H    4.245036   3.506946   2.143744   2.685363   3.994837
    40  H    2.625955   3.002230   2.999696   4.360710   5.615676
    41  H    4.133193   4.188656   3.523153   4.656973   6.006308
                   11         12         13         14         15
    11  C    0.000000
    12  C    2.520044   0.000000
    13  O    2.969971   1.421448   0.000000
    14  C    5.056182   4.396747   5.762048   0.000000
    15  C    6.478922   5.562061   6.850405   1.546604   0.000000
    16  H    9.919682   8.234426   9.344151   5.357960   4.196438
    17  H    9.722993   8.155425   9.218728   5.113029   3.694369
    18  H    9.242572   7.935986   9.166795   4.309854   2.971357
    19  H    8.100936   6.152961   7.111149   4.303609   3.475937
    20  H    7.516628   5.845585   7.028096   3.323402   2.717641
    21  H    7.471450   5.689043   6.472066   4.263106   3.492962
    22  H    7.423853   6.293605   6.987703   4.686587   3.995223
    23  H    5.957584   4.664800   5.266866   4.151411   4.005157
    24  H    6.596134   6.148409   7.168867   3.231479   2.705902
    25  H    6.217642   5.907654   6.648048   4.291128   4.150700
    26  H    4.558850   4.884854   5.924683   2.827892   3.491573
    27  H    3.911223   3.866549   4.637898   3.501451   4.192058
    28  H    4.230985   2.889504   4.056307   2.135015   2.859442
    29  H    2.892450   2.653162   4.022252   2.565504   4.072747
    30  H    2.611043   3.458985   4.612182   2.890524   4.322486
    31  H    2.145967   2.137249   2.684582   4.232893   5.342398
    32  H    1.096958   2.840866   3.435706   5.135587   6.640378
    33  H    1.094713   3.479022   3.929123   5.257926   6.659505
    34  H    1.092854   2.696792   2.579479   5.989281   7.358296
    35  H    3.480395   1.100310   2.082778   3.953958   4.897870
    36  H    2.731355   1.096998   2.013253   4.584762   5.841009
    37  H    3.317545   1.943118   0.962568   5.901752   6.869551
    38  H    5.141725   4.996766   6.370070   1.099034   2.160248
    39  H    5.088264   4.183893   5.587735   1.097942   2.160770
    40  H    6.829265   6.181914   7.424036   2.173157   1.090540
    41  H    7.193512   6.292176   7.630069   2.145325   1.095821
                   16         17         18         19         20
    16  H    0.000000
    17  H    1.773117   0.000000
    18  H    1.766796   1.767274   0.000000
    19  H    2.502027   2.508139   3.083686   0.000000
    20  H    2.483216   3.074064   2.540867   1.758123   0.000000
    21  H    4.303150   3.344473   4.261768   2.224428   3.448900
    22  H    6.111331   4.704580   5.477841   4.507385   5.324169
    23  H    6.490316   5.451863   6.004960   4.415989   5.088837
    24  H    6.214816   5.020694   4.963872   5.158143   5.130050
    25  H    7.545414   6.290775   6.501643   6.061636   6.302322
    26  H    7.627198   6.835545   6.395356   6.336136   5.880826
    27  H    7.947704   7.128072   7.028580   6.168614   6.066874
    28  H    5.980782   5.564906   5.392234   4.061152   3.820759
    29  H    7.323801   7.354193   6.610794   5.878750   4.915545
    30  H    8.196598   7.898538   7.196475   6.791085   5.970377
    31  H    8.762534   8.283705   8.115071   6.742718   6.535841
    32  H    9.940594   9.924637   9.286445   8.272336   7.491568
    33  H   10.379153  10.063257   9.538257   8.656329   8.044927
    34  H   10.640946  10.437623  10.075646   8.676475   8.233361
    35  H    7.283800   7.181493   7.089391   5.111631   4.964829
    36  H    8.306765   8.450565   8.064745   6.390904   5.853814
    37  H    9.426476   9.130621   9.224044   7.104577   7.211528
    38  H    6.047259   5.811057   4.794536   5.296020   4.174956
    39  H    5.151826   5.265966   4.352256   4.132815   2.881141
    40  H    4.803108   3.973065   3.366514   4.244671   3.712362
    41  H    3.699194   3.519931   2.314778   3.630238   2.503204
                   21         22         23         24         25
    21  H    0.000000
    22  H    2.440651   0.000000
    23  H    2.443974   1.736243   0.000000
    24  H    3.868889   2.537285   3.064769   0.000000
    25  H    4.295395   2.335531   2.511780   1.735284   0.000000
    26  H    5.281375   4.301432   3.831617   2.400584   2.541778
    27  H    4.779661   3.817185   2.780896   3.031749   2.309565
    28  H    3.351121   3.845222   2.623838   3.481204   3.729492
    29  H    5.827021   6.322895   5.148640   5.192214   5.581982
    30  H    6.266980   6.070249   5.036369   4.560930   4.719047
    31  H    5.687469   5.413661   3.896374   5.001215   4.374251
    32  H    7.927971   8.105720   6.674699   7.130641   6.976949
    33  H    7.890669   7.530554   6.199453   6.465179   6.017772
    34  H    7.962796   7.927721   6.360231   7.372015   6.809146
    35  H    4.663011   5.512427   3.912614   5.615601   5.484592
    36  H    6.289875   7.126145   5.565549   6.810022   6.771041
    37  H    6.179488   6.472364   4.739677   6.860965   6.145729
    38  H    5.261398   5.388946   4.971846   3.483155   4.604325
    39  H    4.561084   5.447218   4.761638   4.273168   5.282613
    40  H    3.853075   3.701545   4.043942   1.923052   3.577255
    41  H    4.197831   4.936541   5.052309   3.618080   5.175973
                   26         27         28         29         30
    26  H    0.000000
    27  H    1.747456   0.000000
    28  H    3.054434   2.494197   0.000000
    29  H    3.668561   3.716476   2.617448   0.000000
    30  H    2.450671   2.793321   3.045505   1.748426   0.000000
    31  H    3.414010   2.133792   2.783629   3.046928   2.627316
    32  H    5.086124   4.704322   4.625837   2.690580   2.796108
    33  H    4.233808   3.788491   4.658602   3.374286   2.486680
    34  H    5.427576   4.520487   4.889681   3.827372   3.669782
    35  H    4.772950   3.740350   2.210294   2.843048   3.781419
    36  H    5.481164   4.722443   3.474663   2.501488   3.695379
    37  H    5.746975   4.268217   4.011517   4.467636   4.805240
    38  H    2.682124   3.813056   3.047367   2.753260   2.675102
    39  H    3.808587   4.278103   2.431005   2.288296   3.240959
    40  H    3.127654   4.076007   3.405717   4.677355   4.525774
    41  H    4.370862   5.226513   3.776453   4.562602   4.973941
                   31         32         33         34         35
    31  H    0.000000
    32  H    3.065716   0.000000
    33  H    2.463988   1.769498   0.000000
    34  H    2.522906   1.769035   1.777493   0.000000
    35  H    2.527996   3.809202   4.333194   3.743009   0.000000
    36  H    3.048650   2.608762   3.772600   2.961605   1.767006
    37  H    2.469295   4.011060   4.109018   2.901664   2.320875
    38  H    4.618722   5.137329   5.160820   6.166698   4.749675
    39  H    4.545193   4.978766   5.468163   5.988186   3.735493
    40  H    5.592996   7.087172   6.847977   7.726544   5.580398
    41  H    6.265751   7.215007   7.391409   8.112823   5.644081
                   36         37         38         39         40
    36  H    0.000000
    37  H    2.813097   0.000000
    38  H    5.110201   6.545677   0.000000
    39  H    4.133572   5.883394   1.753179   0.000000
    40  H    6.568488   7.345650   2.420053   3.050973   0.000000
    41  H    6.414542   7.740956   2.482255   2.388077   1.736854
                   41
    41  H    0.000000
 Stoichiometry    C14H26O
 Framework group  C1[X(C14H26O)]
 Deg. of freedom   117
 Full point group                 C1      NOp   1
 Largest Abelian subgroup         C1      NOp   1
 Largest concise Abelian subgroup C1      NOp   1
                         Standard orientation:                         
 ---------------------------------------------------------------------
 Center     Atomic      Atomic             Coordinates (Angstroms)
 Number     Number       Type             X           Y           Z
 ---------------------------------------------------------------------
      1          6           0       -4.717033   -1.470636    0.249805
      2          6           0       -3.240773   -1.643195   -0.148590
      3          6           0       -2.466577   -0.338967   -0.170869
      4          6           0       -2.128487    0.208277   -1.344905
      5          6           0       -1.382471    1.473798   -1.699885
      6          6           0       -0.856551    2.398415   -0.590225
      7          6           0        0.381013    1.895349    0.185530
      8          6           0        0.436978    0.411458    0.604814
      9          6           0        1.831675    0.076857    1.186025
     10          6           0        2.983323   -0.067893    0.170247
     11          6           0        4.351140    0.073408    0.850013
     12          6           0        2.895576   -1.407480   -0.577898
     13          8           0        3.883248   -1.554635   -1.589513
     14          6           0       -0.645996   -0.003025    1.616677
     15          6           0       -2.116744    0.225216    1.196215
     16          1           0       -5.228611   -2.437995    0.283151
     17          1           0       -5.238912   -0.833329   -0.471092
     18          1           0       -4.819795   -1.008001    1.236856
     19          1           0       -3.190645   -2.120561   -1.133206
     20          1           0       -2.762788   -2.336296    0.558359
     21          1           0       -2.440886   -0.339840   -2.235466
     22          1           0       -2.044950    2.065802   -2.349049
     23          1           0       -0.542871    1.195033   -2.356764
     24          1           0       -1.671363    2.654434    0.090574
     25          1           0       -0.576103    3.347773   -1.063071
     26          1           0        0.511698    2.520623    1.080092
     27          1           0        1.260439    2.093593   -0.439985
     28          1           0        0.286773   -0.198053   -0.293871
     29          1           0        1.768536   -0.858132    1.760321
     30          1           0        2.098876    0.851606    1.917373
     31          1           0        2.895208    0.729762   -0.583387
     32          1           0        4.449168   -0.643502    1.674480
     33          1           0        4.487658    1.077402    1.264446
     34          1           0        5.156742   -0.124286    0.138499
     35          1           0        1.887361   -1.551956   -0.994204
     36          1           0        3.074056   -2.229841    0.125857
     37          1           0        3.714348   -0.886190   -2.261221
     38          1           0       -0.474391    0.519063    2.568439
     39          1           0       -0.508736   -1.071075    1.830930
     40          1           0       -2.357098    1.287247    1.256204
     41          1           0       -2.750134   -0.255697    1.950114
 ---------------------------------------------------------------------
 Rotational constants (GHZ):           0.8830507           0.2795282           0.2661475
 Standard basis: 6-31+G(3df,2p) (6D, 7F)
 There are   823 symmetry adapted cartesian basis functions of A   symmetry.
 There are   778 symmetry adapted basis functions of A   symmetry.
   778 basis functions,  1070 primitive gaussians,   823 cartesian basis functions
    59 alpha electrons       59 beta electrons
       nuclear repulsion energy      1061.8154717035 Hartrees.
 NAtoms=   41 NActive=   41 NUniq=   41 SFac= 1.00D+00 NAtFMM=   60 NAOKFM=F Big=F
 Integral buffers will be    131072 words long.
 Regular integral format.
 Two-electron integral symmetry is turned on.
 One-electron integrals computed using PRISM.
 PrsmSu:  requested number of processors reduced to:  11 ShMem   1 Linda.
 NBasis=   778 RedAO= T EigKep=  3.36D-06  NBF=   778
 NBsUse=   778 1.00D-06 EigRej= -1.00D+00 NBFU=   778
 ExpMin= 4.38D-02 ExpMax= 5.48D+03 ExpMxC= 8.25D+02 IAcc=3 IRadAn=         5 AccDes= 0.00D+00
 Harris functional with IExCor=  402 and IRadAn=       5 diagonalized for initial guess.
 HarFok:  IExCor=  402 AccDes= 0.00D+00 IRadAn=         5 IDoV= 1 UseB2=F ITyADJ=14
 ICtDFT=  3500011 ScaDFX=  1.000000  1.000000  1.000000  1.000000
 FoFCou: FMM=F IPFlag=           0 FMFlag=      100000 FMFlg1=           0
         NFxFlg=           0 DoJE=T BraDBF=F KetDBF=T FulRan=T
         wScrn=  0.000000 ICntrl=       500 IOpCl=  0 I1Cent=   200000004 NGrid=           0
         NMat0=    1 NMatS0=      1 NMatT0=    0 NMatD0=    1 NMtDS0=    0 NMtDT0=    0
 Petite list used in FoFCou.
 Requested convergence on RMS density matrix=1.00D-08 within 128 cycles.
 Requested convergence on MAX density matrix=1.00D-06.
 Requested convergence on             energy=1.00D-06.
 No special actions if energy rises.
 SCF Done:  E(RB3LYP) =  -624.442623096     A.U. after   13 cycles
            NFock= 13  Conv=0.33D-08     -V/T= 2.0083
 DoSCS=F DFT=T ScalE2(SS,OS)=  1.000000  1.000000
 ExpMin= 4.38D-02 ExpMax= 5.48D+03 ExpMxC= 8.25D+02 IAcc=3 IRadAn=         5 AccDes= 0.00D+00
 HarFok:  IExCor=  205 AccDes= 0.00D+00 IRadAn=         5 IDoV=-2 UseB2=F ITyADJ=14
 ICtDFT= 12500011 ScaDFX=  1.000000  1.000000  1.000000  1.000000
 Range of M.O.s used for correlation:    16   778
 NBasis=   778 NAE=    59 NBE=    59 NFC=    15 NFV=     0
 NROrb=    763 NOA=    44 NOB=    44 NVA=   719 NVB=   719

 **** Warning!!: The largest alpha MO coefficient is  0.85941999D+02

 Orbital symmetries:
       Occupied  (A) (A) (A) (A) (A) (A) (A) (A) (A) (A) (A) (A)
                 (A) (A) (A) (A) (A) (A) (A) (A) (A) (A) (A) (A)
                 (A) (A) (A) (A) (A) (A) (A) (A) (A) (A) (A) (A)
                 (A) (A) (A) (A) (A) (A) (A) (A) (A) (A) (A) (A)
                 (A) (A) (A) (A) (A) (A) (A) (A) (A) (A) (A)
       Virtual   (A) (A) (A) (A) (A) (A) (A) (A) (A) (A) (A) (A)
                 (A) (A) (A) (A) (A) (A) (A) (A) (A) (A) (A) (A)
                 (A) (A) (A) (A) (A) (A) (A) (A) (A) (A) (A) (A)
                 (A) (A) (A) (A) (A) (A) (A) (A) (A) (A) (A) (A)
                 (A) (A) (A) (A) (A) (A) (A) (A) (A) (A) (A) (A)
                 (A) (A) (A) (A) (A) (A) (A) (A) (A) (A) (A) (A)
                 (A) (A) (A) (A) (A) (A) (A) (A) (A) (A) (A) (A)
                 (A) (A) (A) (A) (A) (A) (A) (A) (A) (A) (A) (A)
                 (A) (A) (A) (A) (A) (A) (A) (A) (A) (A) (A) (A)
                 (A) (A) (A) (A) (A) (A) (A) (A) (A) (A) (A) (A)
                 (A) (A) (A) (A) (A) (A) (A) (A) (A) (A) (A) (A)
                 (A) (A) (A) (A) (A) (A) (A) (A) (A) (A) (A) (A)
                 (A) (A) (A) (A) (A) (A) (A) (A) (A) (A) (A) (A)
                 (A) (A) (A) (A) (A) (A) (A) (A) (A) (A) (A) (A)
                 (A) (A) (A) (A) (A) (A) (A) (A) (A) (A) (A) (A)
                 (A) (A) (A) (A) (A) (A) (A) (A) (A) (A) (A) (A)
                 (A) (A) (A) (A) (A) (A) (A) (A) (A) (A) (A) (A)
                 (A) (A) (A) (A) (A) (A) (A) (A) (A) (A) (A) (A)
                 (A) (A) (A) (A) (A) (A) (A) (A) (A) (A) (A) (A)
                 (A) (A) (A) (A) (A) (A) (A) (A) (A) (A) (A) (A)
                 (A) (A) (A) (A) (A) (A) (A) (A) (A) (A) (A) (A)
                 (A) (A) (A) (A) (A) (A) (A) (A) (A) (A) (A) (A)
                 (A) (A) (A) (A) (A) (A) (A) (A) (A) (A) (A) (A)
                 (A) (A) (A) (A) (A) (A) (A) (A) (A) (A) (A) (A)
                 (A) (A) (A) (A) (A) (A) (A) (A) (A) (A) (A) (A)
                 (A) (A) (A) (A) (A) (A) (A) (A) (A) (A) (A) (A)
                 (A) (A) (A) (A) (A) (A) (A) (A) (A) (A) (A) (A)
                 (A) (A) (A) (A) (A) (A) (A) (A) (A) (A) (A) (A)
                 (A) (A) (A) (A) (A) (A) (A) (A) (A) (A) (A) (A)
                 (A) (A) (A) (A) (A) (A) (A) (A) (A) (A) (A) (A)
                 (A) (A) (A) (A) (A) (A) (A) (A) (A) (A) (A) (A)
                 (A) (A) (A) (A) (A) (A) (A) (A) (A) (A) (A) (A)
                 (A) (A) (A) (A) (A) (A) (A) (A) (A) (A) (A) (A)
                 (A) (A) (A) (A) (A) (A) (A) (A) (A) (A) (A) (A)
                 (A) (A) (A) (A) (A) (A) (A) (A) (A) (A) (A) (A)
                 (A) (A) (A) (A) (A) (A) (A) (A) (A) (A) (A) (A)
                 (A) (A) (A) (A) (A) (A) (A) (A) (A) (A) (A) (A)
                 (A) (A) (A) (A) (A) (A) (A) (A) (A) (A) (A) (A)
                 (A) (A) (A) (A) (A) (A) (A) (A) (A) (A) (A) (A)
                 (A) (A) (A) (A) (A) (A) (A) (A) (A) (A) (A) (A)
                 (A) (A) (A) (A) (A) (A) (A) (A) (A) (A) (A) (A)
                 (A) (A) (A) (A) (A) (A) (A) (A) (A) (A) (A) (A)
                 (A) (A) (A) (A) (A) (A) (A) (A) (A) (A) (A) (A)
                 (A) (A) (A) (A) (A) (A) (A) (A) (A) (A) (A) (A)
                 (A) (A) (A) (A) (A) (A) (A) (A) (A) (A) (A) (A)
                 (A) (A) (A) (A) (A) (A) (A) (A) (A) (A) (A) (A)
                 (A) (A) (A) (A) (A) (A) (A) (A) (A) (A) (A) (A)
                 (A) (A) (A) (A) (A) (A) (A) (A) (A) (A) (A) (A)
                 (A) (A) (A) (A) (A) (A) (A) (A) (A) (A) (A) (A)
                 (A) (A) (A) (A) (A) (A) (A) (A) (A) (A) (A) (A)
                 (A) (A) (A) (A) (A) (A) (A) (A) (A) (A) (A) (A)
                 (A) (A) (A) (A) (A) (A) (A) (A) (A) (A) (A) (A)
                 (A) (A) (A) (A) (A) (A) (A) (A) (A) (A) (A) (A)
                 (A) (A) (A) (A) (A) (A) (A) (A) (A) (A) (A) (A)
                 (A) (A) (A) (A) (A) (A) (A) (A) (A) (A) (A) (A)
                 (A) (A) (A) (A) (A) (A) (A) (A) (A) (A) (A) (A)
                 (A) (A) (A) (A) (A) (A) (A) (A) (A) (A) (A) (A)
                 (A) (A) (A) (A) (A) (A) (A) (A) (A) (A) (A) (A)
                 (A) (A) (A) (A) (A) (A) (A) (A) (A) (A) (A) (A)
                 (A) (A) (A) (A) (A) (A) (A) (A) (A) (A) (A)
    40 initial guesses have been made.
 Convergence on wavefunction:    0.000001000000000
 Iteration     1 Dimension    40 NMult     0 NNew     40
 CISAX will form     1 AO SS matrices at one time.
 New state      5 was old state      6
 New state      6 was old state      9
 New state      7 was old state      8
 New state      8 was old state      7
 New state      9 was old state     10
 New state     10 was old state     12
 Iteration     2 Dimension    60 NMult    40 NNew     20
 New state      8 was old state      9
 New state      9 was old state      8
 Iteration     3 Dimension    80 NMult    60 NNew     20
 Iteration     4 Dimension   100 NMult    80 NNew     20
 Iteration     5 Dimension   120 NMult   100 NNew     20
 Iteration     6 Dimension   140 NMult   120 NNew     20
 Iteration     7 Dimension   160 NMult   140 NNew     20
slurmstepd: error: *** JOB 27484593 ON lewis4-r630-hpc4-node229 CANCELLED AT 2023-05-25T01:49:02 DUE TO TIME LIMIT ***
