### Starting Gaussian ###
 Entering Gaussian System, Link 0=g16
 Initial command:
 /cluster/software/gaussian/gaussian-16-A.03/avx2/g16/l1.exe "/local/scratch/ks29c/Gau-18874.inp" -scrdir="/local/scratch/ks29c/"
 Entering Link 1 = /cluster/software/gaussian/gaussian-16-A.03/avx2/g16/l1.exe PID=     18882.
  
 Copyright (c) 1988,1990,1992,1993,1995,1998,2003,2009,2016,
            Gaussian, Inc.  All Rights Reserved.
  
 This is part of the Gaussian(R) 16 program.  It is based on
 the Gaussian(R) 09 system (copyright 2009, Gaussian, Inc.),
 the Gaussian(R) 03 system (copyright 2003, Gaussian, Inc.),
 the Gaussian(R) 98 system (copyright 1998, Gaussian, Inc.),
 the Gaussian(R) 94 system (copyright 1995, Gaussian, Inc.),
 the Gaussian 92(TM) system (copyright 1992, Gaussian, Inc.),
 the Gaussian 90(TM) system (copyright 1990, Gaussian, Inc.),
 the Gaussian 88(TM) system (copyright 1988, Gaussian, Inc.),
 the Gaussian 86(TM) system (copyright 1986, Carnegie Mellon
 University), and the Gaussian 82(TM) system (copyright 1983,
 Carnegie Mellon University). Gaussian is a federally registered
 trademark of Gaussian, Inc.
  
 This software contains proprietary and confidential information,
 including trade secrets, belonging to Gaussian, Inc.
  
 This software is provided under written license and may be
 used, copied, transmitted, or stored only in accord with that
 written license.
  
 The following legend is applicable only to US Government
 contracts under FAR:
  
                    RESTRICTED RIGHTS LEGEND
  
 Use, reproduction and disclosure by the US Government is
 subject to restrictions as set forth in subparagraphs (a)
 and (c) of the Commercial Computer Software - Restricted
 Rights clause in FAR 52.227-19.
  
 Gaussian, Inc.
 340 Quinnipiac St., Bldg. 40, Wallingford CT 06492
  
  
 ---------------------------------------------------------------
 Warning -- This program may not be used in any manner that
 competes with the business of Gaussian, Inc. or will provide
 assistance to any competitor of Gaussian, Inc.  The licensee
 of this program is prohibited from giving any competitor of
 Gaussian, Inc. access to this program.  By using this program,
 the user acknowledges that Gaussian, Inc. is engaged in the
 business of creating and licensing software in the field of
 computational chemistry and represents and warrants to the
 licensee that it is not a competitor of Gaussian, Inc. and that
 it will not use this program in any manner prohibited above.
 ---------------------------------------------------------------
  

 Cite this work as:
 Gaussian 16, Revision A.03,
 M. J. Frisch, G. W. Trucks, H. B. Schlegel, G. E. Scuseria, 
 M. A. Robb, J. R. Cheeseman, G. Scalmani, V. Barone, 
 G. A. Petersson, H. Nakatsuji, X. Li, M. Caricato, A. V. Marenich, 
 J. Bloino, B. G. Janesko, R. Gomperts, B. Mennucci, H. P. Hratchian, 
 J. V. Ortiz, A. F. Izmaylov, J. L. Sonnenberg, D. Williams-Young, 
 F. Ding, F. Lipparini, F. Egidi, J. Goings, B. Peng, A. Petrone, 
 T. Henderson, D. Ranasinghe, V. G. Zakrzewski, J. Gao, N. Rega, 
 G. Zheng, W. Liang, M. Hada, M. Ehara, K. Toyota, R. Fukuda, 
 J. Hasegawa, M. Ishida, T. Nakajima, Y. Honda, O. Kitao, H. Nakai, 
 T. Vreven, K. Throssell, J. A. Montgomery, Jr., J. E. Peralta, 
 F. Ogliaro, M. J. Bearpark, J. J. Heyd, E. N. Brothers, K. N. Kudin, 
 V. N. Staroverov, T. A. Keith, R. Kobayashi, J. Normand, 
 K. Raghavachari, A. P. Rendell, J. C. Burant, S. S. Iyengar, 
 J. Tomasi, M. Cossi, J. M. Millam, M. Klene, C. Adamo, R. Cammi, 
 J. W. Ochterski, R. L. Martin, K. Morokuma, O. Farkas, 
 J. B. Foresman, and D. J. Fox, Gaussian, Inc., Wallingford CT, 2016.
 
 ******************************************
 Gaussian 16:  ES64L-G16RevA.03 25-Dec-2016
                24-May-2023 
 ******************************************
 %chk=CCC1CCqOrCCC1CCO.chk
 %NProcShared=20
 Will use up to   20 processors via shared memory.
 -----------------------------------------------------------------
 # opt freq b3lyp/6-31+g(3df,2p) Geom=AllCheckpoint TD(NStates=10)
 -----------------------------------------------------------------
 1/18=20,19=15,26=3,29=7,38=1/1,3;
 2/9=110,12=2,40=1/2;
 3/5=1,6=6,7=216,11=9,14=-4,25=1,30=1,71=1,74=-5/1,2,3,8;
 4//1;
 5/5=2,38=5/2;
 8/6=1,10=2,108=10/1;
 9/15=2,41=10,42=1,70=2/14;
 10/5=4/2;
 6/7=2,8=2,9=2,10=2/1;
 7/12=6,13=5/1,2,3,16;
 1/18=20,19=15,26=3/3(2);
 2/9=110/2;
 99//99;
 2/9=110/2;
 3/5=1,6=6,7=216,11=9,14=-2,25=1,30=1,71=1,74=-5/1,2,3,8;
 4/5=5,16=3,69=1/1;
 5/5=2,38=5/2;
 8/6=1,10=2,108=10/1;
 9/15=2,41=10,42=1,49=4,70=2/14;
 10/5=4/2;
 7/12=6,13=5/1,2,3,16;
 1/18=20,19=15,26=3/3(-8);
 2/9=110/2;
 6/7=2,8=2,9=2,10=2/1;
 99//99;
 Structure from the checkpoint file:  "CCC1CCqOrCCC1CCO.chk"
 -------------------
 Title Card Required
 -------------------
 Charge =  0 Multiplicity = 1
 Redundant internal coordinates found in file.  (old form).
 C,0,1.0490531724,-0.9133706385,-0.2165058992
 C,0,2.2829456853,-0.0055603909,-0.1539003029
 C,0,3.0154816838,0.1725535526,-1.4960291177
 C,0,3.63118541,-1.1364305356,-2.027044569
 C,0,4.2700981575,-0.9578805121,-3.4098426256
 O,0,4.8110872152,-2.1762193389,-3.9071872227
 C,0,5.3014421359,0.173557556,-3.3970754487
 C,0,4.6853603132,1.4775011229,-2.870095547
 C,0,4.0712734457,1.3115415956,-1.4640371549
 C,0,5.1649676878,1.1462189151,-0.3738752208
 C,0,4.9819181692,2.0977092316,0.8124830435
 O,0,6.0304159945,2.0036521144,1.7634840167
 H,0,0.5342930743,-0.9365014158,0.7490796764
 H,0,1.3085126157,-1.9448784852,-0.4725516027
 H,0,0.3333908278,-0.5556024638,-0.9653008397
 H,0,2.9783051621,-0.3955969633,0.6010528163
 H,0,1.9707269019,0.9845426781,0.2026043423
 H,0,2.2564039773,0.4874326231,-2.2294176617
 H,0,2.8766117071,-1.9259515239,-2.0921532602
 H,0,4.4000992538,-1.4987958862,-1.3274171993
 H,0,3.4790652306,-0.7013574434,-4.1274049334
 H,0,5.5276998817,-2.4374883219,-3.3183271882
 H,0,5.7046991158,0.3118177903,-4.4055205797
 H,0,6.1457838025,-0.1262785406,-2.7585010429
 H,0,3.900878259,1.8055405159,-3.5653573702
 H,0,5.4382150891,2.2738775243,-2.8558348839
 H,0,3.5262128019,2.2394661442,-1.2406574891
 H,0,6.1583884697,1.3373186645,-0.7952116347
 H,0,5.19384405,0.1162733522,0.0048850642
 H,0,3.9996322484,1.9371910275,1.2835869118
 H,0,4.9992149723,3.134702361,0.4580672368
 H,0,6.0111534883,1.1157656908,2.1344056864
 Recover connectivity data from disk.

 GradGradGradGradGradGradGradGradGradGradGradGradGradGradGradGradGradGrad
 Berny optimization.
 Initialization pass.
                           ----------------------------
                           !    Initial Parameters    !
                           ! (Angstroms and Degrees)  !
 --------------------------                            --------------------------
 ! Name  Definition              Value          Derivative Info.                !
 --------------------------------------------------------------------------------
 ! R1    R(1,2)                  1.5331         estimate D2E/DX2                !
 ! R2    R(1,13)                 1.0945         estimate D2E/DX2                !
 ! R3    R(1,14)                 1.094          estimate D2E/DX2                !
 ! R4    R(1,15)                 1.0958         estimate D2E/DX2                !
 ! R5    R(2,3)                  1.5394         estimate D2E/DX2                !
 ! R6    R(2,16)                 1.098          estimate D2E/DX2                !
 ! R7    R(2,17)                 1.0977         estimate D2E/DX2                !
 ! R8    R(3,4)                  1.5409         estimate D2E/DX2                !
 ! R9    R(3,9)                  1.5534         estimate D2E/DX2                !
 ! R10   R(3,18)                 1.1015         estimate D2E/DX2                !
 ! R11   R(4,5)                  1.5337         estimate D2E/DX2                !
 ! R12   R(4,19)                 1.0941         estimate D2E/DX2                !
 ! R13   R(4,20)                 1.1009         estimate D2E/DX2                !
 ! R14   R(5,6)                  1.4228         estimate D2E/DX2                !
 ! R15   R(5,7)                  1.531          estimate D2E/DX2                !
 ! R16   R(5,21)                 1.0984         estimate D2E/DX2                !
 ! R17   R(6,22)                 0.9636         estimate D2E/DX2                !
 ! R18   R(7,8)                  1.5354         estimate D2E/DX2                !
 ! R19   R(7,23)                 1.0948         estimate D2E/DX2                !
 ! R20   R(7,24)                 1.1003         estimate D2E/DX2                !
 ! R21   R(8,9)                  1.5433         estimate D2E/DX2                !
 ! R22   R(8,25)                 1.0984         estimate D2E/DX2                !
 ! R23   R(8,26)                 1.096          estimate D2E/DX2                !
 ! R24   R(9,10)                 1.553          estimate D2E/DX2                !
 ! R25   R(9,27)                 1.0991         estimate D2E/DX2                !
 ! R26   R(10,11)                1.5318         estimate D2E/DX2                !
 ! R27   R(10,28)                1.0959         estimate D2E/DX2                !
 ! R28   R(10,29)                1.0978         estimate D2E/DX2                !
 ! R29   R(11,12)                1.4187         estimate D2E/DX2                !
 ! R30   R(11,30)                1.1012         estimate D2E/DX2                !
 ! R31   R(11,31)                1.096          estimate D2E/DX2                !
 ! R32   R(12,32)                0.9624         estimate D2E/DX2                !
 ! A1    A(2,1,13)             110.7943         estimate D2E/DX2                !
 ! A2    A(2,1,14)             112.1464         estimate D2E/DX2                !
 ! A3    A(2,1,15)             111.1117         estimate D2E/DX2                !
 ! A4    A(13,1,14)            107.3433         estimate D2E/DX2                !
 ! A5    A(13,1,15)            107.6128         estimate D2E/DX2                !
 ! A6    A(14,1,15)            107.6249         estimate D2E/DX2                !
 ! A7    A(1,2,3)              114.5757         estimate D2E/DX2                !
 ! A8    A(1,2,16)             109.1125         estimate D2E/DX2                !
 ! A9    A(1,2,17)             108.5687         estimate D2E/DX2                !
 ! A10   A(3,2,16)             109.8287         estimate D2E/DX2                !
 ! A11   A(3,2,17)             108.3099         estimate D2E/DX2                !
 ! A12   A(16,2,17)            106.0953         estimate D2E/DX2                !
 ! A13   A(2,3,4)              113.0978         estimate D2E/DX2                !
 ! A14   A(2,3,9)              112.9742         estimate D2E/DX2                !
 ! A15   A(2,3,18)             106.5978         estimate D2E/DX2                !
 ! A16   A(4,3,9)              111.0008         estimate D2E/DX2                !
 ! A17   A(4,3,18)             106.7834         estimate D2E/DX2                !
 ! A18   A(9,3,18)             105.8132         estimate D2E/DX2                !
 ! A19   A(3,4,5)              112.2258         estimate D2E/DX2                !
 ! A20   A(3,4,19)             110.9739         estimate D2E/DX2                !
 ! A21   A(3,4,20)             109.857          estimate D2E/DX2                !
 ! A22   A(5,4,19)             108.5224         estimate D2E/DX2                !
 ! A23   A(5,4,20)             108.6832         estimate D2E/DX2                !
 ! A24   A(19,4,20)            106.3796         estimate D2E/DX2                !
 ! A25   A(4,5,6)              111.9544         estimate D2E/DX2                !
 ! A26   A(4,5,7)              111.0476         estimate D2E/DX2                !
 ! A27   A(4,5,21)             108.4326         estimate D2E/DX2                !
 ! A28   A(6,5,7)              112.3085         estimate D2E/DX2                !
 ! A29   A(6,5,21)             104.2089         estimate D2E/DX2                !
 ! A30   A(7,5,21)             108.5417         estimate D2E/DX2                !
 ! A31   A(5,6,22)             107.5372         estimate D2E/DX2                !
 ! A32   A(5,7,8)              111.1106         estimate D2E/DX2                !
 ! A33   A(5,7,23)             109.4971         estimate D2E/DX2                !
 ! A34   A(5,7,24)             108.6869         estimate D2E/DX2                !
 ! A35   A(8,7,23)             110.8959         estimate D2E/DX2                !
 ! A36   A(8,7,24)             109.8858         estimate D2E/DX2                !
 ! A37   A(23,7,24)            106.6391         estimate D2E/DX2                !
 ! A38   A(7,8,9)              112.398          estimate D2E/DX2                !
 ! A39   A(7,8,25)             108.8421         estimate D2E/DX2                !
 ! A40   A(7,8,26)             110.2381         estimate D2E/DX2                !
 ! A41   A(9,8,25)             108.9436         estimate D2E/DX2                !
 ! A42   A(9,8,26)             109.8536         estimate D2E/DX2                !
 ! A43   A(25,8,26)            106.3697         estimate D2E/DX2                !
 ! A44   A(3,9,8)              109.3014         estimate D2E/DX2                !
 ! A45   A(3,9,10)             114.5222         estimate D2E/DX2                !
 ! A46   A(3,9,27)             106.6282         estimate D2E/DX2                !
 ! A47   A(8,9,10)             111.7632         estimate D2E/DX2                !
 ! A48   A(8,9,27)             106.9604         estimate D2E/DX2                !
 ! A49   A(10,9,27)            107.2441         estimate D2E/DX2                !
 ! A50   A(9,10,11)            113.1653         estimate D2E/DX2                !
 ! A51   A(9,10,28)            110.4838         estimate D2E/DX2                !
 ! A52   A(9,10,29)            111.1366         estimate D2E/DX2                !
 ! A53   A(11,10,28)           107.3249         estimate D2E/DX2                !
 ! A54   A(11,10,29)           108.5853         estimate D2E/DX2                !
 ! A55   A(28,10,29)           105.8083         estimate D2E/DX2                !
 ! A56   A(10,11,12)           112.935          estimate D2E/DX2                !
 ! A57   A(10,11,30)           110.3284         estimate D2E/DX2                !
 ! A58   A(10,11,31)           109.596          estimate D2E/DX2                !
 ! A59   A(12,11,30)           111.2739         estimate D2E/DX2                !
 ! A60   A(12,11,31)           105.5354         estimate D2E/DX2                !
 ! A61   A(30,11,31)           106.8782         estimate D2E/DX2                !
 ! A62   A(11,12,32)           107.7415         estimate D2E/DX2                !
 ! D1    D(13,1,2,3)          -175.7263         estimate D2E/DX2                !
 ! D2    D(13,1,2,16)           60.6847         estimate D2E/DX2                !
 ! D3    D(13,1,2,17)          -54.5249         estimate D2E/DX2                !
 ! D4    D(14,1,2,3)            64.3514         estimate D2E/DX2                !
 ! D5    D(14,1,2,16)          -59.2376         estimate D2E/DX2                !
 ! D6    D(14,1,2,17)         -174.4471         estimate D2E/DX2                !
 ! D7    D(15,1,2,3)           -56.1505         estimate D2E/DX2                !
 ! D8    D(15,1,2,16)         -179.7395         estimate D2E/DX2                !
 ! D9    D(15,1,2,17)           65.051          estimate D2E/DX2                !
 ! D10   D(1,2,3,4)            -64.6124         estimate D2E/DX2                !
 ! D11   D(1,2,3,9)            168.2315         estimate D2E/DX2                !
 ! D12   D(1,2,3,18)            52.4327         estimate D2E/DX2                !
 ! D13   D(16,2,3,4)            58.5926         estimate D2E/DX2                !
 ! D14   D(16,2,3,9)           -68.5635         estimate D2E/DX2                !
 ! D15   D(16,2,3,18)          175.6377         estimate D2E/DX2                !
 ! D16   D(17,2,3,4)           174.0441         estimate D2E/DX2                !
 ! D17   D(17,2,3,9)            46.888          estimate D2E/DX2                !
 ! D18   D(17,2,3,18)          -68.9108         estimate D2E/DX2                !
 ! D19   D(2,3,4,5)            175.9905         estimate D2E/DX2                !
 ! D20   D(2,3,4,19)            54.3786         estimate D2E/DX2                !
 ! D21   D(2,3,4,20)           -62.9792         estimate D2E/DX2                !
 ! D22   D(9,3,4,5)            -55.8214         estimate D2E/DX2                !
 ! D23   D(9,3,4,19)          -177.4333         estimate D2E/DX2                !
 ! D24   D(9,3,4,20)            65.209          estimate D2E/DX2                !
 ! D25   D(18,3,4,5)            59.0546         estimate D2E/DX2                !
 ! D26   D(18,3,4,19)          -62.5573         estimate D2E/DX2                !
 ! D27   D(18,3,4,20)         -179.915          estimate D2E/DX2                !
 ! D28   D(2,3,9,8)           -176.3246         estimate D2E/DX2                !
 ! D29   D(2,3,9,10)            57.4069         estimate D2E/DX2                !
 ! D30   D(2,3,9,27)           -61.0367         estimate D2E/DX2                !
 ! D31   D(4,3,9,8)             55.4205         estimate D2E/DX2                !
 ! D32   D(4,3,9,10)           -70.8479         estimate D2E/DX2                !
 ! D33   D(4,3,9,27)           170.7084         estimate D2E/DX2                !
 ! D34   D(18,3,9,8)           -60.0589         estimate D2E/DX2                !
 ! D35   D(18,3,9,10)          173.6726         estimate D2E/DX2                !
 ! D36   D(18,3,9,27)           55.2289         estimate D2E/DX2                !
 ! D37   D(3,4,5,6)           -178.729          estimate D2E/DX2                !
 ! D38   D(3,4,5,7)             54.8544         estimate D2E/DX2                !
 ! D39   D(3,4,5,21)           -64.3159         estimate D2E/DX2                !
 ! D40   D(19,4,5,6)           -55.7251         estimate D2E/DX2                !
 ! D41   D(19,4,5,7)           177.8583         estimate D2E/DX2                !
 ! D42   D(19,4,5,21)           58.6879         estimate D2E/DX2                !
 ! D43   D(20,4,5,6)            59.5675         estimate D2E/DX2                !
 ! D44   D(20,4,5,7)           -66.8491         estimate D2E/DX2                !
 ! D45   D(20,4,5,21)          173.9805         estimate D2E/DX2                !
 ! D46   D(4,5,6,22)           -64.1652         estimate D2E/DX2                !
 ! D47   D(7,5,6,22)            61.5633         estimate D2E/DX2                !
 ! D48   D(21,5,6,22)          178.8511         estimate D2E/DX2                !
 ! D49   D(4,5,7,8)            -54.379          estimate D2E/DX2                !
 ! D50   D(4,5,7,23)          -177.2183         estimate D2E/DX2                !
 ! D51   D(4,5,7,24)            66.6512         estimate D2E/DX2                !
 ! D52   D(6,5,7,8)            179.4003         estimate D2E/DX2                !
 ! D53   D(6,5,7,23)            56.5611         estimate D2E/DX2                !
 ! D54   D(6,5,7,24)           -59.5694         estimate D2E/DX2                !
 ! D55   D(21,5,7,8)            64.726          estimate D2E/DX2                !
 ! D56   D(21,5,7,23)          -58.1133         estimate D2E/DX2                !
 ! D57   D(21,5,7,24)         -174.2438         estimate D2E/DX2                !
 ! D58   D(5,7,8,9)             56.4113         estimate D2E/DX2                !
 ! D59   D(5,7,8,25)           -64.3621         estimate D2E/DX2                !
 ! D60   D(5,7,8,26)           179.3298         estimate D2E/DX2                !
 ! D61   D(23,7,8,9)           178.4408         estimate D2E/DX2                !
 ! D62   D(23,7,8,25)           57.6674         estimate D2E/DX2                !
 ! D63   D(23,7,8,26)          -58.6407         estimate D2E/DX2                !
 ! D64   D(24,7,8,9)           -63.9116         estimate D2E/DX2                !
 ! D65   D(24,7,8,25)          175.3149         estimate D2E/DX2                !
 ! D66   D(24,7,8,26)           59.0068         estimate D2E/DX2                !
 ! D67   D(7,8,9,3)            -56.3919         estimate D2E/DX2                !
 ! D68   D(7,8,9,10)            71.4388         estimate D2E/DX2                !
 ! D69   D(7,8,9,27)          -171.4666         estimate D2E/DX2                !
 ! D70   D(25,8,9,3)            64.3231         estimate D2E/DX2                !
 ! D71   D(25,8,9,10)         -167.8461         estimate D2E/DX2                !
 ! D72   D(25,8,9,27)          -50.7515         estimate D2E/DX2                !
 ! D73   D(26,8,9,3)          -179.5262         estimate D2E/DX2                !
 ! D74   D(26,8,9,10)          -51.6954         estimate D2E/DX2                !
 ! D75   D(26,8,9,27)           65.3992         estimate D2E/DX2                !
 ! D76   D(3,9,10,11)         -105.741          estimate D2E/DX2                !
 ! D77   D(3,9,10,28)          133.8872         estimate D2E/DX2                !
 ! D78   D(3,9,10,29)           16.7449         estimate D2E/DX2                !
 ! D79   D(8,9,10,11)          129.2773         estimate D2E/DX2                !
 ! D80   D(8,9,10,28)            8.9056         estimate D2E/DX2                !
 ! D81   D(8,9,10,29)         -108.2368         estimate D2E/DX2                !
 ! D82   D(27,9,10,11)          12.3539         estimate D2E/DX2                !
 ! D83   D(27,9,10,28)        -108.0179         estimate D2E/DX2                !
 ! D84   D(27,9,10,29)         134.8398         estimate D2E/DX2                !
 ! D85   D(9,10,11,12)        -176.1563         estimate D2E/DX2                !
 ! D86   D(9,10,11,30)          58.6109         estimate D2E/DX2                !
 ! D87   D(9,10,11,31)         -58.8116         estimate D2E/DX2                !
 ! D88   D(28,10,11,12)        -54.0024         estimate D2E/DX2                !
 ! D89   D(28,10,11,30)       -179.2352         estimate D2E/DX2                !
 ! D90   D(28,10,11,31)         63.3423         estimate D2E/DX2                !
 ! D91   D(29,10,11,12)         59.9488         estimate D2E/DX2                !
 ! D92   D(29,10,11,30)        -65.284          estimate D2E/DX2                !
 ! D93   D(29,10,11,31)        177.2935         estimate D2E/DX2                !
 ! D94   D(10,11,12,32)        -63.5339         estimate D2E/DX2                !
 ! D95   D(30,11,12,32)         61.1855         estimate D2E/DX2                !
 ! D96   D(31,11,12,32)        176.7561         estimate D2E/DX2                !
 --------------------------------------------------------------------------------
 Trust Radius=3.00D-01 FncErr=1.00D-07 GrdErr=1.00D-06 EigMax=2.50D+02 EigMin=1.00D-04
 Number of steps in this run=    192 maximum allowed number of steps=    192.
 GradGradGradGradGradGradGradGradGradGradGradGradGradGradGradGradGradGrad

                          Input orientation:                          
 ---------------------------------------------------------------------
 Center     Atomic      Atomic             Coordinates (Angstroms)
 Number     Number       Type             X           Y           Z
 ---------------------------------------------------------------------
      1          6           0        1.049053   -0.913371   -0.216506
      2          6           0        2.282946   -0.005560   -0.153900
      3          6           0        3.015482    0.172554   -1.496029
      4          6           0        3.631185   -1.136431   -2.027045
      5          6           0        4.270098   -0.957881   -3.409843
      6          8           0        4.811087   -2.176219   -3.907187
      7          6           0        5.301442    0.173558   -3.397075
      8          6           0        4.685360    1.477501   -2.870096
      9          6           0        4.071273    1.311542   -1.464037
     10          6           0        5.164968    1.146219   -0.373875
     11          6           0        4.981918    2.097709    0.812483
     12          8           0        6.030416    2.003652    1.763484
     13          1           0        0.534293   -0.936501    0.749080
     14          1           0        1.308513   -1.944878   -0.472552
     15          1           0        0.333391   -0.555602   -0.965301
     16          1           0        2.978305   -0.395597    0.601053
     17          1           0        1.970727    0.984543    0.202604
     18          1           0        2.256404    0.487433   -2.229418
     19          1           0        2.876612   -1.925952   -2.092153
     20          1           0        4.400099   -1.498796   -1.327417
     21          1           0        3.479065   -0.701357   -4.127405
     22          1           0        5.527700   -2.437488   -3.318327
     23          1           0        5.704699    0.311818   -4.405521
     24          1           0        6.145784   -0.126279   -2.758501
     25          1           0        3.900878    1.805541   -3.565357
     26          1           0        5.438215    2.273878   -2.855835
     27          1           0        3.526213    2.239466   -1.240657
     28          1           0        6.158388    1.337319   -0.795212
     29          1           0        5.193844    0.116273    0.004885
     30          1           0        3.999632    1.937191    1.283587
     31          1           0        4.999215    3.134702    0.458067
     32          1           0        6.011153    1.115766    2.134406
 ---------------------------------------------------------------------
                    Distance matrix (angstroms):
                    1          2          3          4          5
     1  C    0.000000
     2  C    1.533144   0.000000
     3  C    2.585199   1.539365   0.000000
     4  C    3.161521   2.570075   1.540944   0.000000
     5  C    4.535914   3.931520   2.552377   1.533695   0.000000
     6  O    5.419300   5.019006   3.815051   2.451176   1.422804
     7  C    5.420355   4.434139   2.973145   2.526423   1.531008
     8  C    5.097110   3.917752   2.525756   2.941880   2.528805
     9  C    3.954793   2.578630   1.553388   2.550142   2.995992
    10  C    4.605152   3.111436   2.612957   3.208730   3.800674
    11  C    5.058937   3.555572   3.591981   4.510771   5.260356
    12  O    6.102734   4.664422   4.802830   5.475813   6.215521
    13  H    1.094472   2.177110   3.525169   4.163842   5.590468
    14  H    1.094023   2.193630   2.905988   2.909441   4.286354
    15  H    1.095840   2.182128   2.829398   3.512849   4.651374
    16  H    2.158357   1.098002   2.173000   2.807487   4.251138
    17  H    2.151095   1.097670   2.153182   3.496710   4.702115
    18  H    2.733452   2.133429   1.101457   2.137267   2.745414
    19  H    2.807729   2.792341   2.185949   1.094059   2.148318
    20  H    3.578597   2.844158   2.176926   1.100916   2.155455
    21  H    4.609234   4.207562   2.811186   2.150336   1.098377
    22  H    5.657076   5.143569   4.055161   2.637599   1.944010
    23  H    6.381534   5.466754   3.964395   3.471891   2.159071
    24  H    5.749601   4.660476   3.388499   2.806892   2.152674
    25  H    5.171092   4.187581   2.780772   3.330816   2.792312
    26  H    6.032359   4.738355   3.483428   3.947461   3.480759
    27  H    4.138307   2.786916   2.144339   3.467867   3.934686
    28  H    5.613004   4.151344   3.424279   3.744810   3.958519
    29  H    4.276502   2.917771   2.645973   2.853052   3.696955
    30  H    4.368283   2.964400   3.436388   4.532459   5.521130
    31  H    5.696115   4.196889   4.065466   5.127364   5.678166
    32  H    5.853770   4.515889   4.800391   5.296631   6.170087
                    6          7          8          9         10
     6  O    0.000000
     7  C    2.453999   0.000000
     8  C    3.800137   1.535426   0.000000
     9  C    4.322127   2.558312   1.543258   0.000000
    10  C    4.862933   3.178747   2.563374   1.553046   0.000000
    11  C    6.369532   4.639487   3.746197   2.574855   1.531759
    12  O    7.149448   5.523769   4.853460   3.838509   2.460182
    13  H    6.442724   6.414713   6.013085   4.739390   5.200183
    14  H    4.911035   5.383688   5.372523   4.384081   4.943366
    15  H    5.597398   5.579134   5.167339   4.207937   5.156560
    16  H    5.182078   4.658963   4.297837   2.893700   2.847661
    17  H    5.911721   4.970820   4.129616   2.701281   3.249868
    18  H    4.054178   3.276309   2.700099   2.135115   3.512375
    19  H    2.664428   3.462739   3.931953   3.507579   4.198486
    20  H    2.698708   2.809390   3.364457   2.832806   2.913824
    21  H    1.999499   2.149399   2.789874   3.390575   4.510520
    22  H    0.963614   2.622013   4.029589   4.428859   4.652347
    23  H    2.690206   1.094849   2.180688   3.509965   4.152313
    24  H    2.702434   1.100269   2.171957   2.836645   2.875359
    25  H    4.098749   2.157143   1.098367   2.165321   3.495452
    26  H    4.615408   2.173245   1.095997   2.175252   2.739781
    27  H    5.315972   3.474127   2.139926   1.099106   2.152212
    28  H    4.883089   2.976305   2.548452   2.191812   1.095869
    29  H    4.550421   3.404144   3.221337   2.201491   1.097762
    30  H    6.672536   5.168531   4.234928   2.818866   2.175046
    31  H    6.877262   4.870508   3.731151   2.807040   2.161867
    32  H    6.984137   5.655858   5.189760   4.092707   2.647344
                   11         12         13         14         15
    11  C    0.000000
    12  O    1.418660   0.000000
    13  H    5.384406   6.315132   0.000000
    14  H    5.611394   6.548826   1.763129   0.000000
    15  H    5.639981   6.815581   1.767639   1.767414   0.000000
    16  H    3.205580   4.052533   2.507526   2.518155   3.078090
    17  H    3.267777   4.467214   2.460160   3.078290   2.533164
    18  H    4.390282   5.699592   3.723533   3.146619   2.526637
    19  H    5.390647   6.344620   3.812882   2.254418   3.100907
    20  H    4.225226   4.947600   4.424079   3.238471   4.190329
    21  H    5.873315   6.966279   5.701498   4.428950   4.462669
    22  H    6.158692   6.767663   6.612932   5.112988   6.004921
    23  H    5.562318   6.405077   7.406842   6.315646   6.437273
    24  H    4.364932   4.999826   6.666964   5.650846   6.097852
    25  H    4.518794   5.742014   6.121034   5.509215   5.006222
    26  H    3.700784   4.664958   6.881162   6.366505   6.135088
    27  H    2.520825   3.918100   4.795561   4.797595   4.252334
    28  H    2.132360   2.647131   6.259836   5.865000   6.127208
    29  H    2.150166   2.711959   4.834623   4.424036   5.001668
    30  H    1.101177   2.087774   4.533473   5.039505   4.971201
    31  H    1.096022   2.011657   6.049373   6.347399   6.116718
    32  H    1.941911   0.962443   6.010568   6.186970   6.681216
                   16         17         18         19         20
    16  H    0.000000
    17  H    1.754640   0.000000
    18  H    3.051630   2.498692   0.000000
    19  H    3.099304   3.815431   2.495581   0.000000
    20  H    2.637715   3.796022   3.058454   1.757355   0.000000
    21  H    4.764721   4.885317   2.551564   2.450476   3.053546
    22  H    5.101987   6.062946   4.521312   2.965374   2.473125
    23  H    5.744514   5.969081   4.081299   4.284549   3.801976
    24  H    4.625155   5.237668   3.972889   3.790822   2.641821
    25  H    4.801575   4.312431   2.495283   4.140469   4.021969
    26  H    5.012716   4.799991   3.702392   4.978312   4.200811
    27  H    3.261236   2.465233   2.379009   4.300899   3.840027
    28  H    3.881428   4.319328   4.243199   4.806355   3.379108
    29  H    2.350753   3.343870   3.709235   3.733339   2.239087
    30  H    2.636449   2.488477   4.181130   5.251730   4.334019
    31  H    4.070324   3.722927   4.664078   6.051387   5.001620
    32  H    3.719349   4.480415   5.791019   6.077927   4.627704
                   21         22         23         24         25
    21  H    0.000000
    22  H    2.804579   0.000000
    23  H    2.461162   2.961757   0.000000
    24  H    3.052213   2.457056   1.760442   0.000000
    25  H    2.603529   4.550919   2.488142   3.069616   0.000000
    26  H    3.782484   4.734857   2.514402   2.504172   1.756749
    27  H    4.121162   5.495140   4.298603   3.842232   2.394347
    28  H    4.736928   4.583999   3.780452   2.448833   3.604066
    29  H    4.548055   4.204390   4.444197   2.932801   4.155961
    30  H    6.042496   6.530729   6.157519   5.020194   4.851736
    31  H    6.168692   6.752019   5.667528   4.721751   4.377323
    32  H    6.994546   6.526227   6.596278   5.049885   6.116891
                   26         27         28         29         30
    26  H    0.000000
    27  H    2.503145   0.000000
    28  H    2.375281   2.817914   0.000000
    29  H    3.591475   2.973267   1.749701   0.000000
    30  H    4.395190   2.585983   3.056383   2.525265   0.000000
    31  H    3.451911   2.420093   2.478907   3.058458   1.764846
    32  H    5.154802   4.339203   2.941670   2.490349   2.333420
                   31         32
    31  H    0.000000
    32  H    2.812514   0.000000
 Stoichiometry    C10H20O2
 Framework group  C1[X(C10H20O2)]
 Deg. of freedom    90
 Full point group                 C1      NOp   1
 Largest Abelian subgroup         C1      NOp   1
 Largest concise Abelian subgroup C1      NOp   1
                         Standard orientation:                         
 ---------------------------------------------------------------------
 Center     Atomic      Atomic             Coordinates (Angstroms)
 Number     Number       Type             X           Y           Z
 ---------------------------------------------------------------------
      1          6           0        0.204060    3.455245    0.037369
      2          6           0       -0.546648    2.121606    0.128880
      3          6           0        0.331566    0.917773    0.515103
      4          6           0        1.403787    0.588027   -0.541362
      5          6           0        2.329222   -0.549898   -0.093124
      6          8           0        3.334650   -0.830060   -1.060075
      7          6           0        1.524572   -1.795898    0.286360
      8          6           0        0.458522   -1.465786    1.340920
      9          6           0       -0.496714   -0.344555    0.880471
     10          6           0       -1.458303   -0.830560   -0.238054
     11          6           0       -2.928992   -0.516730    0.053273
     12          8           0       -3.810539   -1.038544   -0.928145
     13          1           0       -0.488642    4.277907   -0.165757
     14          1           0        0.951710    3.453701   -0.761320
     15          1           0        0.721886    3.681931    0.976162
     16          1           0       -1.048230    1.925004   -0.827870
     17          1           0       -1.344583    2.220209    0.876180
     18          1           0        0.867642    1.201496    1.434521
     19          1           0        2.016328    1.466498   -0.765074
     20          1           0        0.920316    0.297710   -1.486872
     21          1           0        2.890131   -0.214131    0.789527
     22          1           0        2.892477   -1.148506   -1.854825
     23          1           0        2.204598   -2.573693    0.648706
     24          1           0        1.043999   -2.194612   -0.619547
     25          1           0        0.960121   -1.149547    2.265474
     26          1           0       -0.116272   -2.364239    1.593116
     27          1           0       -1.115678   -0.074469    1.747633
     28          1           0       -1.376018   -1.915350   -0.369918
     29          1           0       -1.192069   -0.390378   -1.207817
     30          1           0       -3.070625    0.567756    0.181416
     31          1           0       -3.226079   -0.990051    0.996126
     32          1           0       -3.610326   -0.603742   -1.763105
 ---------------------------------------------------------------------
 Rotational constants (GHZ):           1.0040563           0.6025836           0.4430959
 Standard basis: 6-31+G(3df,2p) (6D, 7F)
 There are   652 symmetry adapted cartesian basis functions of A   symmetry.
 There are   616 symmetry adapted basis functions of A   symmetry.
   616 basis functions,   848 primitive gaussians,   652 cartesian basis functions
    48 alpha electrons       48 beta electrons
       nuclear repulsion energy       778.9154085275 Hartrees.
 NAtoms=   32 NActive=   32 NUniq=   32 SFac= 1.00D+00 NAtFMM=   60 NAOKFM=F Big=F
 Integral buffers will be    131072 words long.
 Regular integral format.
 Two-electron integral symmetry is turned on.
 One-electron integrals computed using PRISM.
 PrsmSu:  requested number of processors reduced to:  12 ShMem   1 Linda.
 NBasis=   616 RedAO= T EigKep=  5.48D-06  NBF=   616
 NBsUse=   616 1.00D-06 EigRej= -1.00D+00 NBFU=   616
 ExpMin= 4.38D-02 ExpMax= 5.48D+03 ExpMxC= 8.25D+02 IAcc=3 IRadAn=         5 AccDes= 0.00D+00
 Harris functional with IExCor=  402 and IRadAn=       5 diagonalized for initial guess.
 HarFok:  IExCor=  402 AccDes= 0.00D+00 IRadAn=         5 IDoV= 1 UseB2=F ITyADJ=14
 ICtDFT=  3500011 ScaDFX=  1.000000  1.000000  1.000000  1.000000
 FoFCou: FMM=F IPFlag=           0 FMFlag=      100000 FMFlg1=           0
         NFxFlg=           0 DoJE=T BraDBF=F KetDBF=T FulRan=T
         wScrn=  0.000000 ICntrl=       500 IOpCl=  0 I1Cent=   200000004 NGrid=           0
         NMat0=    1 NMatS0=      1 NMatT0=    0 NMatD0=    1 NMtDS0=    0 NMtDT0=    0
 Petite list used in FoFCou.
 Requested convergence on RMS density matrix=1.00D-08 within 128 cycles.
 Requested convergence on MAX density matrix=1.00D-06.
 Requested convergence on             energy=1.00D-06.
 No special actions if energy rises.
 SCF Done:  E(RB3LYP) =  -543.634124796     A.U. after   12 cycles
            NFock= 12  Conv=0.80D-08     -V/T= 2.0082
 DoSCS=F DFT=T ScalE2(SS,OS)=  1.000000  1.000000
 ExpMin= 4.38D-02 ExpMax= 5.48D+03 ExpMxC= 8.25D+02 IAcc=3 IRadAn=         5 AccDes= 0.00D+00
 HarFok:  IExCor=  205 AccDes= 0.00D+00 IRadAn=         5 IDoV=-2 UseB2=F ITyADJ=14
 ICtDFT= 12500011 ScaDFX=  1.000000  1.000000  1.000000  1.000000
 Range of M.O.s used for correlation:    13   616
 NBasis=   616 NAE=    48 NBE=    48 NFC=    12 NFV=     0
 NROrb=    604 NOA=    36 NOB=    36 NVA=   568 NVB=   568

 **** Warning!!: The largest alpha MO coefficient is  0.88141170D+02

 Orbital symmetries:
       Occupied  (A) (A) (A) (A) (A) (A) (A) (A) (A) (A) (A) (A)
                 (A) (A) (A) (A) (A) (A) (A) (A) (A) (A) (A) (A)
                 (A) (A) (A) (A) (A) (A) (A) (A) (A) (A) (A) (A)
                 (A) (A) (A) (A) (A) (A) (A) (A) (A) (A) (A) (A)
       Virtual   (A) (A) (A) (A) (A) (A) (A) (A) (A) (A) (A) (A)
                 (A) (A) (A) (A) (A) (A) (A) (A) (A) (A) (A) (A)
                 (A) (A) (A) (A) (A) (A) (A) (A) (A) (A) (A) (A)
                 (A) (A) (A) (A) (A) (A) (A) (A) (A) (A) (A) (A)
                 (A) (A) (A) (A) (A) (A) (A) (A) (A) (A) (A) (A)
                 (A) (A) (A) (A) (A) (A) (A) (A) (A) (A) (A) (A)
                 (A) (A) (A) (A) (A) (A) (A) (A) (A) (A) (A) (A)
                 (A) (A) (A) (A) (A) (A) (A) (A) (A) (A) (A) (A)
                 (A) (A) (A) (A) (A) (A) (A) (A) (A) (A) (A) (A)
                 (A) (A) (A) (A) (A) (A) (A) (A) (A) (A) (A) (A)
                 (A) (A) (A) (A) (A) (A) (A) (A) (A) (A) (A) (A)
                 (A) (A) (A) (A) (A) (A) (A) (A) (A) (A) (A) (A)
                 (A) (A) (A) (A) (A) (A) (A) (A) (A) (A) (A) (A)
                 (A) (A) (A) (A) (A) (A) (A) (A) (A) (A) (A) (A)
                 (A) (A) (A) (A) (A) (A) (A) (A) (A) (A) (A) (A)
                 (A) (A) (A) (A) (A) (A) (A) (A) (A) (A) (A) (A)
                 (A) (A) (A) (A) (A) (A) (A) (A) (A) (A) (A) (A)
                 (A) (A) (A) (A) (A) (A) (A) (A) (A) (A) (A) (A)
                 (A) (A) (A) (A) (A) (A) (A) (A) (A) (A) (A) (A)
                 (A) (A) (A) (A) (A) (A) (A) (A) (A) (A) (A) (A)
                 (A) (A) (A) (A) (A) (A) (A) (A) (A) (A) (A) (A)
                 (A) (A) (A) (A) (A) (A) (A) (A) (A) (A) (A) (A)
                 (A) (A) (A) (A) (A) (A) (A) (A) (A) (A) (A) (A)
                 (A) (A) (A) (A) (A) (A) (A) (A) (A) (A) (A) (A)
                 (A) (A) (A) (A) (A) (A) (A) (A) (A) (A) (A) (A)
                 (A) (A) (A) (A) (A) (A) (A) (A) (A) (A) (A) (A)
                 (A) (A) (A) (A) (A) (A) (A) (A) (A) (A) (A) (A)
                 (A) (A) (A) (A) (A) (A) (A) (A) (A) (A) (A) (A)
                 (A) (A) (A) (A) (A) (A) (A) (A) (A) (A) (A) (A)
                 (A) (A) (A) (A) (A) (A) (A) (A) (A) (A) (A) (A)
                 (A) (A) (A) (A) (A) (A) (A) (A) (A) (A) (A) (A)
                 (A) (A) (A) (A) (A) (A) (A) (A) (A) (A) (A) (A)
                 (A) (A) (A) (A) (A) (A) (A) (A) (A) (A) (A) (A)
                 (A) (A) (A) (A) (A) (A) (A) (A) (A) (A) (A) (A)
                 (A) (A) (A) (A) (A) (A) (A) (A) (A) (A) (A) (A)
                 (A) (A) (A) (A) (A) (A) (A) (A) (A) (A) (A) (A)
                 (A) (A) (A) (A) (A) (A) (A) (A) (A) (A) (A) (A)
                 (A) (A) (A) (A) (A) (A) (A) (A) (A) (A) (A) (A)
                 (A) (A) (A) (A) (A) (A) (A) (A) (A) (A) (A) (A)
                 (A) (A) (A) (A) (A) (A) (A) (A) (A) (A) (A) (A)
                 (A) (A) (A) (A) (A) (A) (A) (A) (A) (A) (A) (A)
                 (A) (A) (A) (A) (A) (A) (A) (A) (A) (A) (A) (A)
                 (A) (A) (A) (A) (A) (A) (A) (A) (A) (A) (A) (A)
                 (A) (A) (A) (A) (A) (A) (A) (A) (A) (A) (A) (A)
                 (A) (A) (A) (A) (A) (A) (A) (A) (A) (A) (A) (A)
                 (A) (A) (A) (A) (A) (A) (A) (A) (A) (A) (A) (A)
                 (A) (A) (A) (A) (A) (A) (A) (A) (A) (A) (A) (A)
                 (A) (A) (A) (A)
    40 initial guesses have been made.
 Convergence on wavefunction:    0.000001000000000
 Iteration     1 Dimension    40 NMult     0 NNew     40
 CISAX will form     3 AO SS matrices at one time.
 New state      2 was old state      3
 New state      3 was old state      2
 New state      8 was old state      9
 New state      9 was old state      8
 Iteration     2 Dimension    60 NMult    40 NNew     20
 Iteration     3 Dimension    80 NMult    60 NNew     20
 Iteration     4 Dimension   100 NMult    80 NNew     20
 Iteration     5 Dimension   120 NMult   100 NNew     20
 Iteration     6 Dimension   140 NMult   120 NNew     20
 Iteration     7 Dimension   160 NMult   140 NNew     20
 Iteration     8 Dimension   180 NMult   160 NNew     20
 Iteration     9 Dimension   200 NMult   180 NNew     20
 Iteration    10 Dimension   220 NMult   200 NNew     20
 Iteration    11 Dimension   236 NMult   220 NNew     16
 Iteration    12 Dimension   246 NMult   236 NNew     10
 Iteration    13 Dimension   248 NMult   246 NNew      2
slurmstepd: error: *** JOB 27484592 ON lewis4-r630-hpc4-node227 CANCELLED AT 2023-05-25T01:49:02 DUE TO TIME LIMIT ***
