### Starting Gaussian ###
 Entering Gaussian System, Link 0=g16
 Initial command:
 /cluster/software/gaussian/gaussian-16-A.03/avx2/g16/l1.exe "/local/scratch/ks29c/Gau-17288.inp" -scrdir="/local/scratch/ks29c/"
 Entering Link 1 = /cluster/software/gaussian/gaussian-16-A.03/avx2/g16/l1.exe PID=     17296.
  
 Copyright (c) 1988,1990,1992,1993,1995,1998,2003,2009,2016,
            Gaussian, Inc.  All Rights Reserved.
  
 This is part of the Gaussian(R) 16 program.  It is based on
 the Gaussian(R) 09 system (copyright 2009, Gaussian, Inc.),
 the Gaussian(R) 03 system (copyright 2003, Gaussian, Inc.),
 the Gaussian(R) 98 system (copyright 1998, Gaussian, Inc.),
 the Gaussian(R) 94 system (copyright 1995, Gaussian, Inc.),
 the Gaussian 92(TM) system (copyright 1992, Gaussian, Inc.),
 the Gaussian 90(TM) system (copyright 1990, Gaussian, Inc.),
 the Gaussian 88(TM) system (copyright 1988, Gaussian, Inc.),
 the Gaussian 86(TM) system (copyright 1986, Carnegie Mellon
 University), and the Gaussian 82(TM) system (copyright 1983,
 Carnegie Mellon University). Gaussian is a federally registered
 trademark of Gaussian, Inc.
  
 This software contains proprietary and confidential information,
 including trade secrets, belonging to Gaussian, Inc.
  
 This software is provided under written license and may be
 used, copied, transmitted, or stored only in accord with that
 written license.
  
 The following legend is applicable only to US Government
 contracts under FAR:
  
                    RESTRICTED RIGHTS LEGEND
  
 Use, reproduction and disclosure by the US Government is
 subject to restrictions as set forth in subparagraphs (a)
 and (c) of the Commercial Computer Software - Restricted
 Rights clause in FAR 52.227-19.
  
 Gaussian, Inc.
 340 Quinnipiac St., Bldg. 40, Wallingford CT 06492
  
  
 ---------------------------------------------------------------
 Warning -- This program may not be used in any manner that
 competes with the business of Gaussian, Inc. or will provide
 assistance to any competitor of Gaussian, Inc.  The licensee
 of this program is prohibited from giving any competitor of
 Gaussian, Inc. access to this program.  By using this program,
 the user acknowledges that Gaussian, Inc. is engaged in the
 business of creating and licensing software in the field of
 computational chemistry and represents and warrants to the
 licensee that it is not a competitor of Gaussian, Inc. and that
 it will not use this program in any manner prohibited above.
 ---------------------------------------------------------------
  

 Cite this work as:
 Gaussian 16, Revision A.03,
 M. J. Frisch, G. W. Trucks, H. B. Schlegel, G. E. Scuseria, 
 M. A. Robb, J. R. Cheeseman, G. Scalmani, V. Barone, 
 G. A. Petersson, H. Nakatsuji, X. Li, M. Caricato, A. V. Marenich, 
 J. Bloino, B. G. Janesko, R. Gomperts, B. Mennucci, H. P. Hratchian, 
 J. V. Ortiz, A. F. Izmaylov, J. L. Sonnenberg, D. Williams-Young, 
 F. Ding, F. Lipparini, F. Egidi, J. Goings, B. Peng, A. Petrone, 
 T. Henderson, D. Ranasinghe, V. G. Zakrzewski, J. Gao, N. Rega, 
 G. Zheng, W. Liang, M. Hada, M. Ehara, K. Toyota, R. Fukuda, 
 J. Hasegawa, M. Ishida, T. Nakajima, Y. Honda, O. Kitao, H. Nakai, 
 T. Vreven, K. Throssell, J. A. Montgomery, Jr., J. E. Peralta, 
 F. Ogliaro, M. J. Bearpark, J. J. Heyd, E. N. Brothers, K. N. Kudin, 
 V. N. Staroverov, T. A. Keith, R. Kobayashi, J. Normand, 
 K. Raghavachari, A. P. Rendell, J. C. Burant, S. S. Iyengar, 
 J. Tomasi, M. Cossi, J. M. Millam, M. Klene, C. Adamo, R. Cammi, 
 J. W. Ochterski, R. L. Martin, K. Morokuma, O. Farkas, 
 J. B. Foresman, and D. J. Fox, Gaussian, Inc., Wallingford CT, 2016.
 
 ******************************************
 Gaussian 16:  ES64L-G16RevA.03 25-Dec-2016
                25-May-2023 
 ******************************************
 %chk=CCC1OC2COCqCrC2C1CCN.chk
 %NProcShared=20
 Will use up to   20 processors via shared memory.
 -----------------------------------------------------------------
 # opt freq b3lyp/6-31+g(3df,2p) Geom=AllCheckpoint TD(NStates=10)
 -----------------------------------------------------------------
 1/18=20,19=15,26=3,29=7,38=1/1,3;
 2/9=110,12=2,40=1/2;
 3/5=1,6=6,7=216,11=9,14=-4,25=1,30=1,71=1,74=-5/1,2,3,8;
 4//1;
 5/5=2,38=5/2;
 8/6=1,10=2,108=10/1;
 9/15=2,41=10,42=1,70=2/14;
 10/5=4/2;
 6/7=2,8=2,9=2,10=2/1;
 7/12=6,13=5/1,2,3,16;
 1/18=20,19=15,26=3/3(2);
 2/9=110/2;
 99//99;
 2/9=110/2;
 3/5=1,6=6,7=216,11=9,14=-2,25=1,30=1,71=1,74=-5/1,2,3,8;
 4/5=5,16=3,69=1/1;
 5/5=2,38=5/2;
 8/6=1,10=2,108=10/1;
 9/15=2,41=10,42=1,49=4,70=2/14;
 10/5=4/2;
 7/12=6,13=5/1,2,3,16;
 1/18=20,19=15,26=3/3(-8);
 2/9=110/2;
 6/7=2,8=2,9=2,10=2/1;
 99//99;
 Structure from the checkpoint file:  "CCC1OC2COCqCrC2C1CCN.chk"
 -------------------
 Title Card Required
 -------------------
 Charge =  0 Multiplicity = 1
 Redundant internal coordinates found in file.  (old form).
 C,0,1.0183742241,-0.0481411888,-0.1272235762
 C,0,2.48819602,-0.455328997,-0.2667733457
 C,0,3.1484748598,-0.8379096738,1.0654679451
 O,0,4.4225308079,-1.4548363354,0.8484882797
 C,0,5.4884350886,-0.5395637712,1.0633148478
 C,0,6.1015423541,-0.012895857,-0.2403347448
 O,0,5.3801113016,1.1666061018,-0.5667374389
 C,0,5.0737685718,1.8406486155,0.6596196319
 C,0,6.1661410979,2.848113115,1.0233594187
 C,0,4.8848742096,0.7279520168,1.7255219689
 C,0,3.4240033988,0.3283432173,2.045738666
 C,0,3.2605070538,-0.0911952537,3.5170642819
 C,0,1.8066743722,-0.2539405291,3.964859322
 N,0,1.7517390594,-0.6191363829,5.3849978964
 H,0,0.5773143106,0.1598951115,-1.1066419048
 H,0,0.8957738752,0.852897099,0.483473447
 H,0,0.426476358,-0.8442558416,0.339410539
 H,0,3.0686243061,0.3372750652,-0.7501940216
 H,0,2.5637577886,-1.3327450644,-0.9196695192
 H,0,2.5246920511,-1.6042898668,1.5437825667
 H,0,6.2389589346,-1.047798366,1.6781519815
 H,0,5.9932024103,-0.7244482542,-1.061892663
 H,0,7.1724474769,0.2043718257,-0.0975828737
 H,0,4.1379783713,2.3806192899,0.4794924176
 H,0,7.1182301682,2.3493217486,1.2338774908
 H,0,5.8813952787,3.417060853,1.9148303646
 H,0,6.3221777525,3.5495850483,0.199392033
 H,0,5.4136013667,0.9973580009,2.642444441
 H,0,2.7504204517,1.1693396741,1.8471173062
 H,0,3.728587372,0.6533587988,4.1709696354
 H,0,3.8023693489,-1.0334966391,3.6829746124
 H,0,1.2872925884,-0.9686800766,3.3036487003
 H,0,1.2881784751,0.7066538136,3.8481111664
 H,0,2.1476357276,-1.5470909932,5.5111477349
 H,0,0.7839231681,-0.6879563041,5.6855833929
 Recover connectivity data from disk.

 GradGradGradGradGradGradGradGradGradGradGradGradGradGradGradGradGradGrad
 Berny optimization.
 Initialization pass.
                           ----------------------------
                           !    Initial Parameters    !
                           ! (Angstroms and Degrees)  !
 --------------------------                            --------------------------
 ! Name  Definition              Value          Derivative Info.                !
 --------------------------------------------------------------------------------
 ! R1    R(1,2)                  1.5316         estimate D2E/DX2                !
 ! R2    R(1,15)                 1.0941         estimate D2E/DX2                !
 ! R3    R(1,16)                 1.0954         estimate D2E/DX2                !
 ! R4    R(1,17)                 1.0963         estimate D2E/DX2                !
 ! R5    R(2,3)                  1.5353         estimate D2E/DX2                !
 ! R6    R(2,18)                 1.0949         estimate D2E/DX2                !
 ! R7    R(2,19)                 1.0963         estimate D2E/DX2                !
 ! R8    R(3,4)                  1.4321         estimate D2E/DX2                !
 ! R9    R(3,11)                 1.5482         estimate D2E/DX2                !
 ! R10   R(3,20)                 1.0978         estimate D2E/DX2                !
 ! R11   R(4,5)                  1.4213         estimate D2E/DX2                !
 ! R12   R(5,6)                  1.5339         estimate D2E/DX2                !
 ! R13   R(5,10)                 1.5522         estimate D2E/DX2                !
 ! R14   R(5,21)                 1.0953         estimate D2E/DX2                !
 ! R15   R(6,7)                  1.4206         estimate D2E/DX2                !
 ! R16   R(6,22)                 1.0922         estimate D2E/DX2                !
 ! R17   R(6,23)                 1.102          estimate D2E/DX2                !
 ! R18   R(7,8)                  1.4325         estimate D2E/DX2                !
 ! R19   R(8,9)                  1.5299         estimate D2E/DX2                !
 ! R20   R(8,10)                 1.5524         estimate D2E/DX2                !
 ! R21   R(8,24)                 1.0953         estimate D2E/DX2                !
 ! R22   R(9,25)                 1.0953         estimate D2E/DX2                !
 ! R23   R(9,26)                 1.0952         estimate D2E/DX2                !
 ! R24   R(9,27)                 1.0933         estimate D2E/DX2                !
 ! R25   R(10,11)                1.548          estimate D2E/DX2                !
 ! R26   R(10,28)                1.0922         estimate D2E/DX2                !
 ! R27   R(11,12)                1.5387         estimate D2E/DX2                !
 ! R28   R(11,29)                1.0956         estimate D2E/DX2                !
 ! R29   R(12,13)                1.5299         estimate D2E/DX2                !
 ! R30   R(12,30)                1.0959         estimate D2E/DX2                !
 ! R31   R(12,31)                1.0996         estimate D2E/DX2                !
 ! R32   R(13,14)                1.4674         estimate D2E/DX2                !
 ! R33   R(13,32)                1.1035         estimate D2E/DX2                !
 ! R34   R(13,33)                1.0978         estimate D2E/DX2                !
 ! R35   R(14,34)                1.0167         estimate D2E/DX2                !
 ! R36   R(14,35)                1.0158         estimate D2E/DX2                !
 ! A1    A(2,1,15)             110.8463         estimate D2E/DX2                !
 ! A2    A(2,1,16)             112.1424         estimate D2E/DX2                !
 ! A3    A(2,1,17)             111.3373         estimate D2E/DX2                !
 ! A4    A(15,1,16)            107.3107         estimate D2E/DX2                !
 ! A5    A(15,1,17)            107.545          estimate D2E/DX2                !
 ! A6    A(16,1,17)            107.4341         estimate D2E/DX2                !
 ! A7    A(1,2,3)              113.5727         estimate D2E/DX2                !
 ! A8    A(1,2,18)             110.8866         estimate D2E/DX2                !
 ! A9    A(1,2,19)             109.463          estimate D2E/DX2                !
 ! A10   A(3,2,18)             109.6044         estimate D2E/DX2                !
 ! A11   A(3,2,19)             106.7203         estimate D2E/DX2                !
 ! A12   A(18,2,19)            106.2538         estimate D2E/DX2                !
 ! A13   A(2,3,4)              111.0066         estimate D2E/DX2                !
 ! A14   A(2,3,11)             115.9915         estimate D2E/DX2                !
 ! A15   A(2,3,20)             107.9181         estimate D2E/DX2                !
 ! A16   A(4,3,11)             105.1953         estimate D2E/DX2                !
 ! A17   A(4,3,20)             105.7107         estimate D2E/DX2                !
 ! A18   A(11,3,20)            110.5556         estimate D2E/DX2                !
 ! A19   A(3,4,5)              111.5234         estimate D2E/DX2                !
 ! A20   A(4,5,6)              113.1051         estimate D2E/DX2                !
 ! A21   A(4,5,10)             107.3814         estimate D2E/DX2                !
 ! A22   A(4,5,21)             107.4535         estimate D2E/DX2                !
 ! A23   A(6,5,10)             103.7466         estimate D2E/DX2                !
 ! A24   A(6,5,21)             111.2556         estimate D2E/DX2                !
 ! A25   A(10,5,21)            113.9461         estimate D2E/DX2                !
 ! A26   A(5,6,7)              106.1031         estimate D2E/DX2                !
 ! A27   A(5,6,22)             112.0827         estimate D2E/DX2                !
 ! A28   A(5,6,23)             110.2446         estimate D2E/DX2                !
 ! A29   A(7,6,22)             108.5234         estimate D2E/DX2                !
 ! A30   A(7,6,23)             111.0731         estimate D2E/DX2                !
 ! A31   A(22,6,23)            108.7999         estimate D2E/DX2                !
 ! A32   A(6,7,8)              107.6118         estimate D2E/DX2                !
 ! A33   A(7,8,9)              111.143          estimate D2E/DX2                !
 ! A34   A(7,8,10)             106.0553         estimate D2E/DX2                !
 ! A35   A(7,8,24)             105.8952         estimate D2E/DX2                !
 ! A36   A(9,8,10)             113.3057         estimate D2E/DX2                !
 ! A37   A(9,8,24)             108.9346         estimate D2E/DX2                !
 ! A38   A(10,8,24)            111.2421         estimate D2E/DX2                !
 ! A39   A(8,9,25)             111.4992         estimate D2E/DX2                !
 ! A40   A(8,9,26)             110.4859         estimate D2E/DX2                !
 ! A41   A(8,9,27)             110.1958         estimate D2E/DX2                !
 ! A42   A(25,9,26)            107.8263         estimate D2E/DX2                !
 ! A43   A(25,9,27)            108.2393         estimate D2E/DX2                !
 ! A44   A(26,9,27)            108.4963         estimate D2E/DX2                !
 ! A45   A(5,10,8)             104.1852         estimate D2E/DX2                !
 ! A46   A(5,10,11)            104.1464         estimate D2E/DX2                !
 ! A47   A(5,10,28)            111.7986         estimate D2E/DX2                !
 ! A48   A(8,10,11)            116.2243         estimate D2E/DX2                !
 ! A49   A(8,10,28)            109.9213         estimate D2E/DX2                !
 ! A50   A(11,10,28)           110.2953         estimate D2E/DX2                !
 ! A51   A(3,11,10)            103.3811         estimate D2E/DX2                !
 ! A52   A(3,11,12)            112.4044         estimate D2E/DX2                !
 ! A53   A(3,11,29)            110.7332         estimate D2E/DX2                !
 ! A54   A(10,11,12)           111.6207         estimate D2E/DX2                !
 ! A55   A(10,11,29)           110.1529         estimate D2E/DX2                !
 ! A56   A(12,11,29)           108.5004         estimate D2E/DX2                !
 ! A57   A(11,12,13)           114.1959         estimate D2E/DX2                !
 ! A58   A(11,12,30)           109.8723         estimate D2E/DX2                !
 ! A59   A(11,12,31)           109.0006         estimate D2E/DX2                !
 ! A60   A(13,12,30)           107.6679         estimate D2E/DX2                !
 ! A61   A(13,12,31)           109.4486         estimate D2E/DX2                !
 ! A62   A(30,12,31)           106.362          estimate D2E/DX2                !
 ! A63   A(12,13,14)           110.2015         estimate D2E/DX2                !
 ! A64   A(12,13,32)           109.9237         estimate D2E/DX2                !
 ! A65   A(12,13,33)           108.9416         estimate D2E/DX2                !
 ! A66   A(14,13,32)           113.6452         estimate D2E/DX2                !
 ! A67   A(14,13,33)           107.6384         estimate D2E/DX2                !
 ! A68   A(32,13,33)           106.3028         estimate D2E/DX2                !
 ! A69   A(13,14,34)           109.4296         estimate D2E/DX2                !
 ! A70   A(13,14,35)           109.8118         estimate D2E/DX2                !
 ! A71   A(34,14,35)           105.8102         estimate D2E/DX2                !
 ! D1    D(15,1,2,3)          -176.782          estimate D2E/DX2                !
 ! D2    D(15,1,2,18)           59.2786         estimate D2E/DX2                !
 ! D3    D(15,1,2,19)          -57.6313         estimate D2E/DX2                !
 ! D4    D(16,1,2,3)            63.3041         estimate D2E/DX2                !
 ! D5    D(16,1,2,18)          -60.6353         estimate D2E/DX2                !
 ! D6    D(16,1,2,19)         -177.5451         estimate D2E/DX2                !
 ! D7    D(17,1,2,3)           -57.1085         estimate D2E/DX2                !
 ! D8    D(17,1,2,18)          178.9521         estimate D2E/DX2                !
 ! D9    D(17,1,2,19)           62.0423         estimate D2E/DX2                !
 ! D10   D(1,2,3,4)            168.6023         estimate D2E/DX2                !
 ! D11   D(1,2,3,11)           -71.4254         estimate D2E/DX2                !
 ! D12   D(1,2,3,20)            53.198          estimate D2E/DX2                !
 ! D13   D(18,2,3,4)           -66.7646         estimate D2E/DX2                !
 ! D14   D(18,2,3,11)           53.2077         estimate D2E/DX2                !
 ! D15   D(18,2,3,20)          177.8311         estimate D2E/DX2                !
 ! D16   D(19,2,3,4)            47.895          estimate D2E/DX2                !
 ! D17   D(19,2,3,11)          167.8672         estimate D2E/DX2                !
 ! D18   D(19,2,3,20)          -67.5094         estimate D2E/DX2                !
 ! D19   D(2,3,4,5)            100.7307         estimate D2E/DX2                !
 ! D20   D(11,3,4,5)           -25.4788         estimate D2E/DX2                !
 ! D21   D(20,3,4,5)          -142.5023         estimate D2E/DX2                !
 ! D22   D(2,3,11,10)          -93.9743         estimate D2E/DX2                !
 ! D23   D(2,3,11,12)          145.5125         estimate D2E/DX2                !
 ! D24   D(2,3,11,29)           23.9763         estimate D2E/DX2                !
 ! D25   D(4,3,11,10)           29.0969         estimate D2E/DX2                !
 ! D26   D(4,3,11,12)          -91.4163         estimate D2E/DX2                !
 ! D27   D(4,3,11,29)          147.0475         estimate D2E/DX2                !
 ! D28   D(20,3,11,10)         142.77           estimate D2E/DX2                !
 ! D29   D(20,3,11,12)          22.2569         estimate D2E/DX2                !
 ! D30   D(20,3,11,29)         -99.2793         estimate D2E/DX2                !
 ! D31   D(3,4,5,6)           -103.0005         estimate D2E/DX2                !
 ! D32   D(3,4,5,10)            10.8444         estimate D2E/DX2                !
 ! D33   D(3,4,5,21)           133.8172         estimate D2E/DX2                !
 ! D34   D(4,5,6,7)             90.6647         estimate D2E/DX2                !
 ! D35   D(4,5,6,22)           -27.6274         estimate D2E/DX2                !
 ! D36   D(4,5,6,23)          -148.9802         estimate D2E/DX2                !
 ! D37   D(10,5,6,7)           -25.3583         estimate D2E/DX2                !
 ! D38   D(10,5,6,22)         -143.6505         estimate D2E/DX2                !
 ! D39   D(10,5,6,23)           94.9968         estimate D2E/DX2                !
 ! D40   D(21,5,6,7)          -148.281          estimate D2E/DX2                !
 ! D41   D(21,5,6,22)           93.4269         estimate D2E/DX2                !
 ! D42   D(21,5,6,23)          -27.9259         estimate D2E/DX2                !
 ! D43   D(4,5,10,8)          -113.9673         estimate D2E/DX2                !
 ! D44   D(4,5,10,11)            8.2915         estimate D2E/DX2                !
 ! D45   D(4,5,10,28)          127.3733         estimate D2E/DX2                !
 ! D46   D(6,5,10,8)             6.0259         estimate D2E/DX2                !
 ! D47   D(6,5,10,11)          128.2848         estimate D2E/DX2                !
 ! D48   D(6,5,10,28)         -112.6334         estimate D2E/DX2                !
 ! D49   D(21,5,10,8)          127.1579         estimate D2E/DX2                !
 ! D50   D(21,5,10,11)        -110.5832         estimate D2E/DX2                !
 ! D51   D(21,5,10,28)           8.4985         estimate D2E/DX2                !
 ! D52   D(5,6,7,8)             36.5727         estimate D2E/DX2                !
 ! D53   D(22,6,7,8)           157.1967         estimate D2E/DX2                !
 ! D54   D(23,6,7,8)           -83.2433         estimate D2E/DX2                !
 ! D55   D(6,7,8,9)             91.3142         estimate D2E/DX2                !
 ! D56   D(6,7,8,10)           -32.2387         estimate D2E/DX2                !
 ! D57   D(6,7,8,24)          -150.5302         estimate D2E/DX2                !
 ! D58   D(7,8,9,25)           -64.9213         estimate D2E/DX2                !
 ! D59   D(7,8,9,26)           175.1846         estimate D2E/DX2                !
 ! D60   D(7,8,9,27)            55.2986         estimate D2E/DX2                !
 ! D61   D(10,8,9,25)           54.3844         estimate D2E/DX2                !
 ! D62   D(10,8,9,26)          -65.5097         estimate D2E/DX2                !
 ! D63   D(10,8,9,27)          174.6043         estimate D2E/DX2                !
 ! D64   D(24,8,9,25)          178.776          estimate D2E/DX2                !
 ! D65   D(24,8,9,26)           58.8819         estimate D2E/DX2                !
 ! D66   D(24,8,9,27)          -61.0041         estimate D2E/DX2                !
 ! D67   D(7,8,10,5)            14.8994         estimate D2E/DX2                !
 ! D68   D(7,8,10,11)          -99.0243         estimate D2E/DX2                !
 ! D69   D(7,8,10,28)          134.8337         estimate D2E/DX2                !
 ! D70   D(9,8,10,5)          -107.286          estimate D2E/DX2                !
 ! D71   D(9,8,10,11)          138.7904         estimate D2E/DX2                !
 ! D72   D(9,8,10,28)           12.6484         estimate D2E/DX2                !
 ! D73   D(24,8,10,5)          129.585          estimate D2E/DX2                !
 ! D74   D(24,8,10,11)          15.6614         estimate D2E/DX2                !
 ! D75   D(24,8,10,28)        -110.4806         estimate D2E/DX2                !
 ! D76   D(5,10,11,3)          -22.3319         estimate D2E/DX2                !
 ! D77   D(5,10,11,12)          98.7131         estimate D2E/DX2                !
 ! D78   D(5,10,11,29)        -140.6868         estimate D2E/DX2                !
 ! D79   D(8,10,11,3)           91.6138         estimate D2E/DX2                !
 ! D80   D(8,10,11,12)        -147.3412         estimate D2E/DX2                !
 ! D81   D(8,10,11,29)         -26.7411         estimate D2E/DX2                !
 ! D82   D(28,10,11,3)        -142.4324         estimate D2E/DX2                !
 ! D83   D(28,10,11,12)        -21.3873         estimate D2E/DX2                !
 ! D84   D(28,10,11,29)         99.2128         estimate D2E/DX2                !
 ! D85   D(3,11,12,13)         -74.868          estimate D2E/DX2                !
 ! D86   D(3,11,12,30)         164.0538         estimate D2E/DX2                !
 ! D87   D(3,11,12,31)          47.8693         estimate D2E/DX2                !
 ! D88   D(10,11,12,13)        169.4952         estimate D2E/DX2                !
 ! D89   D(10,11,12,30)         48.4171         estimate D2E/DX2                !
 ! D90   D(10,11,12,31)        -67.7675         estimate D2E/DX2                !
 ! D91   D(29,11,12,13)         47.9336         estimate D2E/DX2                !
 ! D92   D(29,11,12,30)        -73.1446         estimate D2E/DX2                !
 ! D93   D(29,11,12,31)        170.6709         estimate D2E/DX2                !
 ! D94   D(11,12,13,14)       -178.5116         estimate D2E/DX2                !
 ! D95   D(11,12,13,32)         55.4775         estimate D2E/DX2                !
 ! D96   D(11,12,13,33)        -60.6309         estimate D2E/DX2                !
 ! D97   D(30,12,13,14)        -56.2196         estimate D2E/DX2                !
 ! D98   D(30,12,13,32)        177.7695         estimate D2E/DX2                !
 ! D99   D(30,12,13,33)         61.6611         estimate D2E/DX2                !
 ! D100  D(31,12,13,14)         58.9952         estimate D2E/DX2                !
 ! D101  D(31,12,13,32)        -67.0156         estimate D2E/DX2                !
 ! D102  D(31,12,13,33)        176.876          estimate D2E/DX2                !
 ! D103  D(12,13,14,34)        -66.6004         estimate D2E/DX2                !
 ! D104  D(12,13,14,35)        177.6681         estimate D2E/DX2                !
 ! D105  D(32,13,14,34)         57.2816         estimate D2E/DX2                !
 ! D106  D(32,13,14,35)        -58.4499         estimate D2E/DX2                !
 ! D107  D(33,13,14,34)        174.7183         estimate D2E/DX2                !
 ! D108  D(33,13,14,35)         58.9867         estimate D2E/DX2                !
 --------------------------------------------------------------------------------
 Trust Radius=3.00D-01 FncErr=1.00D-07 GrdErr=1.00D-06 EigMax=2.50D+02 EigMin=1.00D-04
 Number of steps in this run=    210 maximum allowed number of steps=    210.
 GradGradGradGradGradGradGradGradGradGradGradGradGradGradGradGradGradGrad

                          Input orientation:                          
 ---------------------------------------------------------------------
 Center     Atomic      Atomic             Coordinates (Angstroms)
 Number     Number       Type             X           Y           Z
 ---------------------------------------------------------------------
      1          6           0        1.018374   -0.048141   -0.127224
      2          6           0        2.488196   -0.455329   -0.266773
      3          6           0        3.148475   -0.837910    1.065468
      4          8           0        4.422531   -1.454836    0.848488
      5          6           0        5.488435   -0.539564    1.063315
      6          6           0        6.101542   -0.012896   -0.240335
      7          8           0        5.380111    1.166606   -0.566737
      8          6           0        5.073769    1.840649    0.659620
      9          6           0        6.166141    2.848113    1.023359
     10          6           0        4.884874    0.727952    1.725522
     11          6           0        3.424003    0.328343    2.045739
     12          6           0        3.260507   -0.091195    3.517064
     13          6           0        1.806674   -0.253941    3.964859
     14          7           0        1.751739   -0.619136    5.384998
     15          1           0        0.577314    0.159895   -1.106642
     16          1           0        0.895774    0.852897    0.483473
     17          1           0        0.426476   -0.844256    0.339411
     18          1           0        3.068624    0.337275   -0.750194
     19          1           0        2.563758   -1.332745   -0.919670
     20          1           0        2.524692   -1.604290    1.543783
     21          1           0        6.238959   -1.047798    1.678152
     22          1           0        5.993202   -0.724448   -1.061893
     23          1           0        7.172447    0.204372   -0.097583
     24          1           0        4.137978    2.380619    0.479492
     25          1           0        7.118230    2.349322    1.233877
     26          1           0        5.881395    3.417061    1.914830
     27          1           0        6.322178    3.549585    0.199392
     28          1           0        5.413601    0.997358    2.642444
     29          1           0        2.750420    1.169340    1.847117
     30          1           0        3.728587    0.653359    4.170970
     31          1           0        3.802369   -1.033497    3.682975
     32          1           0        1.287293   -0.968680    3.303649
     33          1           0        1.288178    0.706654    3.848111
     34          1           0        2.147636   -1.547091    5.511148
     35          1           0        0.783923   -0.687956    5.685583
 ---------------------------------------------------------------------
                    Distance matrix (angstroms):
                    1          2          3          4          5
     1  C    0.000000
     2  C    1.531552   0.000000
     3  C    2.565848   1.535319   0.000000
     4  O    3.810392   2.446319   1.432095   0.000000
     5  C    4.651916   3.282935   2.358904   1.421276   0.000000
     6  C    5.084549   3.640428   3.332623   2.466538   1.533878
     7  O    4.549015   3.329238   3.415023   3.129183   2.362164
     8  C    4.542342   3.579791   3.323574   3.364521   2.449557
     9  C    6.017610   5.109252   4.763911   4.646088   3.455031
    10  C    4.357156   3.333686   2.429543   2.397397   1.552224
    11  C    3.263519   2.614878   1.548222   2.368585   2.445465
    12  C    4.279001   3.878980   2.565240   3.214205   3.344486
    13  C    4.172399   4.290891   3.247756   4.242243   4.696371
    14  N    5.590031   5.701905   4.545005   5.330239   5.713683
    15  H    1.094108   2.176086   3.510633   4.606038   5.414523
    16  H    1.095377   2.193202   2.876144   4.230471   4.834015
    17  H    1.096307   2.183898   2.817175   4.074361   5.122529
    18  H    2.177192   1.094904   2.164270   2.756902   3.148515
    19  H    2.160182   1.096286   2.127799   2.568331   3.621478
    20  H    2.735481   2.144657   1.097829   2.026712   3.185634
    21  H    5.613662   4.266377   3.157614   2.037997   1.095269
    22  H    5.106850   3.604124   3.554013   2.578765   2.192140
    23  H    6.159323   4.733502   4.316410   3.348143   2.176470
    24  H    3.999864   3.364714   3.417808   3.863657   3.269870
    25  H    6.693928   5.617405   5.093698   4.678348   3.321292
    26  H    6.310831   5.591833   5.127869   5.196225   4.066248
    27  H    6.417215   5.563817   5.483848   5.392051   4.261763
    28  H    5.299259   4.373996   3.314492   3.195897   2.204853
    29  H    2.894869   2.678963   2.190542   3.267952   3.321358
    30  H    5.129505   4.739338   3.493502   3.995613   3.765322
    31  H    4.820702   4.202599   2.705027   2.931969   3.154268
    32  H    3.562386   3.801791   2.913855   4.011718   4.780464
    33  H    4.055342   4.441004   3.686392   4.847055   5.191368
    34  H    5.942501   5.890017   4.611799   5.188839   5.653253
    35  H    5.852611   6.195903   5.192211   6.101234   6.596955
                    6          7          8          9         10
     6  C    0.000000
     7  O    1.420643   0.000000
     8  C    2.302578   1.432526   0.000000
     9  C    3.128333   2.444119   1.529892   0.000000
    10  C    2.427700   2.385819   1.552393   2.574832   0.000000
    11  C    3.537201   3.369581   2.632512   3.861841   1.548021
    12  C    4.711227   4.769929   3.896784   4.827091   2.553271
    13  C    6.015617   5.943297   5.097629   6.105744   3.931165
    14  N    7.136714   7.195632   6.278186   7.108632   5.002294
    15  H    5.594412   4.936783   5.114950   6.557317   5.186416
    16  H    5.326680   4.616345   4.296780   5.661195   4.179859
    17  H    5.764862   5.422469   5.376669   6.858945   4.926505
    18  H    3.095346   2.462604   2.875467   4.363990   3.095248
    19  H    3.836589   3.781952   4.343355   5.850821   4.078124
    20  H    4.302263   4.503951   4.375744   5.775369   3.323077
    21  H    2.184147   3.268139   3.276920   3.951225   2.233625
    22  H    1.092246   2.048694   3.223148   4.140215   3.332797
    23  H    1.102008   2.087695   2.766805   3.042784   2.971673
    24  H    3.178467   2.027639   1.095316   2.151229   2.200398
    25  H    2.964292   2.768048   2.183654   1.095255   2.803290
    26  H    4.056822   3.387331   2.170919   1.095218   2.874056
    27  H    3.596291   2.674515   2.165825   1.093313   3.515185
    28  H    3.131181   3.213816   2.181334   2.571585   1.092190
    29  H    4.121305   3.569590   2.694207   3.894099   2.183003
    30  H    5.053159   5.043493   3.943190   4.545994   2.706063
    31  H    4.660491   5.038827   4.360945   5.265725   2.847128
    32  H    6.053953   6.024160   5.405610   6.600818   4.279210
    33  H    6.356226   6.037082   5.077708   6.029891   4.176369
    34  H    7.146096   7.399577   6.601239   7.456973   5.196081
    35  H    7.990575   7.978462   7.075092   7.950370   5.874069
                   11         12         13         14         15
    11  C    0.000000
    12  C    1.538682   0.000000
    13  C    2.576399   1.529914   0.000000
    14  N    3.852900   2.458511   1.467372   0.000000
    15  H    4.250825   5.351750   5.234760   6.642857   0.000000
    16  H    3.017909   3.960549   3.764954   5.188882   1.763558
    17  H    3.643036   4.323923   3.923939   5.221585   1.766958
    18  H    2.818442   4.293006   4.916684   6.347400   2.522924
    19  H    3.506121   4.659561   5.059211   6.396674   2.491765
    20  H    2.189930   2.593206   2.863670   4.040163   3.732208
    21  H    3.154815   3.628755   5.050187   5.836060   6.424003
    22  H    4.167316   5.369868   6.558706   7.717739   5.487796
    23  H    4.319726   5.334446   6.745740   7.753769   6.672028
    24  H    2.678568   4.013311   4.952138   6.225484   4.486175
    25  H    4.288448   5.104027   6.515202   7.405591   7.283900
    26  H    3.949188   4.663054   5.855102   6.736988   6.918938
    27  H    4.710075   5.799660   7.002523   8.072029   6.796998
    28  H    2.182232   2.566266   4.040353   4.852205   6.176299
    29  H    1.095646   2.153569   2.720517   4.088106   3.803428
    30  H    2.171408   1.095925   2.135281   2.645947   6.166621
    31  H    2.162940   1.099579   2.161010   2.696973   5.896235
    32  H    2.798239   2.170046   1.103544   2.160996   4.607430
    33  H    2.820180   2.153192   1.097820   2.081977   5.035261
    34  H    4.141911   2.708225   2.044383   1.016734   7.012478
    35  H    4.609920   3.345455   2.048239   1.015754   6.848055
                   16         17         18         19         20
    16  H    0.000000
    17  H    1.766726   0.000000
    18  H    2.551290   3.092604   0.000000
    19  H    3.086748   2.528216   1.752877   0.000000
    20  H    3.132954   2.535877   3.054155   2.478681   0.000000
    21  H    5.795647   5.968133   4.226856   4.509653   3.758127
    22  H    5.555173   5.741641   3.126911   3.485878   4.426537
    23  H    6.336785   6.840958   4.157515   4.927329   5.250426
    24  H    3.584110   4.918810   2.613600   4.269063   4.428872
    25  H    6.443707   7.468506   4.938034   6.240080   6.068581
    26  H    5.786202   7.099078   4.949658   6.449943   6.051371
    27  H    6.066192   7.354233   4.669717   6.262201   6.541461
    28  H    5.009270   5.793697   4.176676   5.122465   4.039979
    29  H    2.323655   3.424684   2.745835   3.735021   2.799283
    30  H    4.654275   5.275190   4.975270   5.587132   3.667213
    31  H    4.716311   4.755196   4.697912   4.775777   2.556249
    32  H    3.380062   3.089206   4.616525   4.426999   2.243276
    33  H    3.390598   3.931772   4.944779   5.340223   3.489894
    34  H    5.710045   5.495747   6.603291   6.447830   3.985653
    35  H    5.426665   5.360388   6.905808   6.871167   4.585243
                   21         22         23         24         25
    21  H    0.000000
    22  H    2.769981   0.000000
    23  H    2.364861   1.784158   0.000000
    24  H    4.195826   3.931815   3.778501   0.000000
    25  H    3.537078   3.998038   2.525180   3.074407   0.000000
    26  H    4.485403   5.101517   4.004746   2.484735   1.770176
    27  H    4.830071   4.468381   3.464333   2.493123   1.773271
    28  H    2.407019   4.125854   3.351137   2.866878   2.591838
    29  H    4.136925   4.750201   4.926190   2.294104   4.565762
    30  H    3.925562   5.865977   5.502936   4.096100   4.795047
    31  H    3.155390   5.235363   5.213670   4.693732   5.332586
    32  H    5.212245   6.423643   6.897788   5.226861   7.020892
    33  H    5.683050   6.949348   7.102493   4.719228   6.597127
    34  H    5.628506   7.659633   7.731379   6.686249   7.627836
    35  H    6.778378   8.524456   8.663400   6.911528   8.316621
                   26         27         28         29         30
    26  H    0.000000
    27  H    1.776114   0.000000
    28  H    2.569672   3.647997   0.000000
    29  H    3.854846   4.597610   2.784718   0.000000
    30  H    4.166869   5.557721   2.300869   2.573584   0.000000
    31  H    5.220742   6.284061   2.793411   3.054416   1.757573
    32  H    6.501486   7.443198   4.618324   2.972096   3.056661
    33  H    5.672876   6.836414   4.307813   2.521152   2.462250
    34  H    7.177553   8.462722   5.036885   4.600811   3.022824
    35  H    7.553408   8.872841   5.790932   4.695794   3.572706
                   31         32         33         34         35
    31  H    0.000000
    32  H    2.544347   0.000000
    33  H    3.062115   1.761586   0.000000
    34  H    2.518758   2.438811   2.929799   0.000000
    35  H    3.638799   2.450673   2.361253   1.621189   0.000000
 Stoichiometry    C11H21NO2
 Framework group  C1[X(C11H21NO2)]
 Deg. of freedom    99
 Full point group                 C1      NOp   1
 Largest Abelian subgroup         C1      NOp   1
 Largest concise Abelian subgroup C1      NOp   1
                         Standard orientation:                         
 ---------------------------------------------------------------------
 Center     Atomic      Atomic             Coordinates (Angstroms)
 Number     Number       Type             X           Y           Z
 ---------------------------------------------------------------------
      1          6           0        0.968065    2.849319   -1.215813
      2          6           0       -0.019390    2.280562   -0.192533
      3          6           0        0.516341    1.055907    0.562725
      4          8           0       -0.324988    0.730160    1.674908
      5          6           0       -1.190078   -0.356526    1.373647
      6          6           0       -2.629395    0.083889    1.078379
      7          8           0       -2.694581    0.303199   -0.323720
      8          6           0       -1.872828   -0.685445   -0.955729
      9          6           0       -2.685184   -1.931460   -1.313634
     10          6           0       -0.710434   -0.972958    0.032248
     11          6           0        0.628302   -0.251981   -0.258180
     12          6           0        1.835935   -1.107313    0.163214
     13          6           0        3.184030   -0.571270   -0.322514
     14          7           0        4.266827   -1.468653    0.096334
     15          1           0        0.565190    3.751398   -1.685938
     16          1           0        1.189613    2.135584   -2.016657
     17          1           0        1.920049    3.119528   -0.744007
     18          1           0       -0.973488    2.030558   -0.667937
     19          1           0       -0.243254    3.043504    0.562216
     20          1           0        1.489283    1.324427    0.994592
     21          1           0       -1.152930   -1.050449    2.220231
     22          1           0       -2.886448    1.015345    1.587610
     23          1           0       -3.339359   -0.699065    1.390398
     24          1           0       -1.504516   -0.224159   -1.878377
     25          1           0       -3.056868   -2.439442   -0.417314
     26          1           0       -2.068270   -2.644085   -1.871384
     27          1           0       -3.543805   -1.657351   -1.932476
     28          1           0       -0.550369   -2.050167    0.115184
     29          1           0        0.714330   -0.032222   -1.328108
     30          1           0        1.724050   -2.126334   -0.224253
     31          1           0        1.849260   -1.192455    1.259410
     32          1           0        3.317740    0.471044    0.014403
     33          1           0        3.181593   -0.542497   -1.419955
     34          1           0        4.350543   -1.447835    1.109401
     35          1           0        5.154225   -1.127976   -0.261743
 ---------------------------------------------------------------------
 Rotational constants (GHZ):           0.9220355           0.4606342           0.3905359
 Standard basis: 6-31+G(3df,2p) (6D, 7F)
 There are   742 symmetry adapted cartesian basis functions of A   symmetry.
 There are   700 symmetry adapted basis functions of A   symmetry.
   700 basis functions,   966 primitive gaussians,   742 cartesian basis functions
    55 alpha electrons       55 beta electrons
       nuclear repulsion energy      1013.3874673809 Hartrees.
 NAtoms=   35 NActive=   35 NUniq=   35 SFac= 1.00D+00 NAtFMM=   60 NAOKFM=F Big=F
 Integral buffers will be    131072 words long.
 Regular integral format.
 Two-electron integral symmetry is turned on.
 One-electron integrals computed using PRISM.
 PrsmSu:  requested number of processors reduced to:  12 ShMem   1 Linda.
 NBasis=   700 RedAO= T EigKep=  1.50D-06  NBF=   700
 NBsUse=   700 1.00D-06 EigRej= -1.00D+00 NBFU=   700
 ExpMin= 4.38D-02 ExpMax= 5.48D+03 ExpMxC= 8.25D+02 IAcc=3 IRadAn=         5 AccDes= 0.00D+00
 Harris functional with IExCor=  402 and IRadAn=       5 diagonalized for initial guess.
 HarFok:  IExCor=  402 AccDes= 0.00D+00 IRadAn=         5 IDoV= 1 UseB2=F ITyADJ=14
 ICtDFT=  3500011 ScaDFX=  1.000000  1.000000  1.000000  1.000000
 FoFCou: FMM=F IPFlag=           0 FMFlag=      100000 FMFlg1=           0
         NFxFlg=           0 DoJE=T BraDBF=F KetDBF=T FulRan=T
         wScrn=  0.000000 ICntrl=       500 IOpCl=  0 I1Cent=   200000004 NGrid=           0
         NMat0=    1 NMatS0=      1 NMatT0=    0 NMatD0=    1 NMtDS0=    0 NMtDT0=    0
 Petite list used in FoFCou.
 Requested convergence on RMS density matrix=1.00D-08 within 128 cycles.
 Requested convergence on MAX density matrix=1.00D-06.
 Requested convergence on             energy=1.00D-06.
 No special actions if energy rises.
 SCF Done:  E(RB3LYP) =  -637.090401351     A.U. after   13 cycles
            NFock= 13  Conv=0.25D-08     -V/T= 2.0081
 DoSCS=F DFT=T ScalE2(SS,OS)=  1.000000  1.000000
 ExpMin= 4.38D-02 ExpMax= 5.48D+03 ExpMxC= 8.25D+02 IAcc=3 IRadAn=         5 AccDes= 0.00D+00
 HarFok:  IExCor=  205 AccDes= 0.00D+00 IRadAn=         5 IDoV=-2 UseB2=F ITyADJ=14
 ICtDFT= 12500011 ScaDFX=  1.000000  1.000000  1.000000  1.000000
 Range of M.O.s used for correlation:    15   700
 NBasis=   700 NAE=    55 NBE=    55 NFC=    14 NFV=     0
 NROrb=    686 NOA=    41 NOB=    41 NVA=   645 NVB=   645

 **** Warning!!: The largest alpha MO coefficient is  0.13295257D+03

 Orbital symmetries:
       Occupied  (A) (A) (A) (A) (A) (A) (A) (A) (A) (A) (A) (A)
                 (A) (A) (A) (A) (A) (A) (A) (A) (A) (A) (A) (A)
                 (A) (A) (A) (A) (A) (A) (A) (A) (A) (A) (A) (A)
                 (A) (A) (A) (A) (A) (A) (A) (A) (A) (A) (A) (A)
                 (A) (A) (A) (A) (A) (A) (A)
       Virtual   (A) (A) (A) (A) (A) (A) (A) (A) (A) (A) (A) (A)
                 (A) (A) (A) (A) (A) (A) (A) (A) (A) (A) (A) (A)
                 (A) (A) (A) (A) (A) (A) (A) (A) (A) (A) (A) (A)
                 (A) (A) (A) (A) (A) (A) (A) (A) (A) (A) (A) (A)
                 (A) (A) (A) (A) (A) (A) (A) (A) (A) (A) (A) (A)
                 (A) (A) (A) (A) (A) (A) (A) (A) (A) (A) (A) (A)
                 (A) (A) (A) (A) (A) (A) (A) (A) (A) (A) (A) (A)
                 (A) (A) (A) (A) (A) (A) (A) (A) (A) (A) (A) (A)
                 (A) (A) (A) (A) (A) (A) (A) (A) (A) (A) (A) (A)
                 (A) (A) (A) (A) (A) (A) (A) (A) (A) (A) (A) (A)
                 (A) (A) (A) (A) (A) (A) (A) (A) (A) (A) (A) (A)
                 (A) (A) (A) (A) (A) (A) (A) (A) (A) (A) (A) (A)
                 (A) (A) (A) (A) (A) (A) (A) (A) (A) (A) (A) (A)
                 (A) (A) (A) (A) (A) (A) (A) (A) (A) (A) (A) (A)
                 (A) (A) (A) (A) (A) (A) (A) (A) (A) (A) (A) (A)
                 (A) (A) (A) (A) (A) (A) (A) (A) (A) (A) (A) (A)
                 (A) (A) (A) (A) (A) (A) (A) (A) (A) (A) (A) (A)
                 (A) (A) (A) (A) (A) (A) (A) (A) (A) (A) (A) (A)
                 (A) (A) (A) (A) (A) (A) (A) (A) (A) (A) (A) (A)
                 (A) (A) (A) (A) (A) (A) (A) (A) (A) (A) (A) (A)
                 (A) (A) (A) (A) (A) (A) (A) (A) (A) (A) (A) (A)
                 (A) (A) (A) (A) (A) (A) (A) (A) (A) (A) (A) (A)
                 (A) (A) (A) (A) (A) (A) (A) (A) (A) (A) (A) (A)
                 (A) (A) (A) (A) (A) (A) (A) (A) (A) (A) (A) (A)
                 (A) (A) (A) (A) (A) (A) (A) (A) (A) (A) (A) (A)
                 (A) (A) (A) (A) (A) (A) (A) (A) (A) (A) (A) (A)
                 (A) (A) (A) (A) (A) (A) (A) (A) (A) (A) (A) (A)
                 (A) (A) (A) (A) (A) (A) (A) (A) (A) (A) (A) (A)
                 (A) (A) (A) (A) (A) (A) (A) (A) (A) (A) (A) (A)
                 (A) (A) (A) (A) (A) (A) (A) (A) (A) (A) (A) (A)
                 (A) (A) (A) (A) (A) (A) (A) (A) (A) (A) (A) (A)
                 (A) (A) (A) (A) (A) (A) (A) (A) (A) (A) (A) (A)
                 (A) (A) (A) (A) (A) (A) (A) (A) (A) (A) (A) (A)
                 (A) (A) (A) (A) (A) (A) (A) (A) (A) (A) (A) (A)
                 (A) (A) (A) (A) (A) (A) (A) (A) (A) (A) (A) (A)
                 (A) (A) (A) (A) (A) (A) (A) (A) (A) (A) (A) (A)
                 (A) (A) (A) (A) (A) (A) (A) (A) (A) (A) (A) (A)
                 (A) (A) (A) (A) (A) (A) (A) (A) (A) (A) (A) (A)
                 (A) (A) (A) (A) (A) (A) (A) (A) (A) (A) (A) (A)
                 (A) (A) (A) (A) (A) (A) (A) (A) (A) (A) (A) (A)
                 (A) (A) (A) (A) (A) (A) (A) (A) (A) (A) (A) (A)
                 (A) (A) (A) (A) (A) (A) (A) (A) (A) (A) (A) (A)
                 (A) (A) (A) (A) (A) (A) (A) (A) (A) (A) (A) (A)
                 (A) (A) (A) (A) (A) (A) (A) (A) (A) (A) (A) (A)
                 (A) (A) (A) (A) (A) (A) (A) (A) (A) (A) (A) (A)
                 (A) (A) (A) (A) (A) (A) (A) (A) (A) (A) (A) (A)
                 (A) (A) (A) (A) (A) (A) (A) (A) (A) (A) (A) (A)
                 (A) (A) (A) (A) (A) (A) (A) (A) (A) (A) (A) (A)
                 (A) (A) (A) (A) (A) (A) (A) (A) (A) (A) (A) (A)
                 (A) (A) (A) (A) (A) (A) (A) (A) (A) (A) (A) (A)
                 (A) (A) (A) (A) (A) (A) (A) (A) (A) (A) (A) (A)
                 (A) (A) (A) (A) (A) (A) (A) (A) (A) (A) (A) (A)
                 (A) (A) (A) (A) (A) (A) (A) (A) (A) (A) (A) (A)
                 (A) (A) (A) (A) (A) (A) (A) (A) (A)
    40 initial guesses have been made.
 Convergence on wavefunction:    0.000001000000000
 Iteration     1 Dimension    40 NMult     0 NNew     40
 CISAX will form     2 AO SS matrices at one time.
 New state      1 was old state      3
 New state      3 was old state      1
 New state      8 was old state     10
 New state     10 was old state      8
 Iteration     2 Dimension    60 NMult    40 NNew     20
 Iteration     3 Dimension    80 NMult    60 NNew     20
 Iteration     4 Dimension   100 NMult    80 NNew     20
 Iteration     5 Dimension   120 NMult   100 NNew     20
