### Starting Gaussian ###
 Entering Gaussian System, Link 0=g16
 Initial command:
 /cluster/software/gaussian/gaussian-16-A.03/avx2/g16/l1.exe "/local/scratch/ks29c/Gau-5211.inp" -scrdir="/local/scratch/ks29c/"
 Entering Link 1 = /cluster/software/gaussian/gaussian-16-A.03/avx2/g16/l1.exe PID=      5265.
  
 Copyright (c) 1988,1990,1992,1993,1995,1998,2003,2009,2016,
            Gaussian, Inc.  All Rights Reserved.
  
 This is part of the Gaussian(R) 16 program.  It is based on
 the Gaussian(R) 09 system (copyright 2009, Gaussian, Inc.),
 the Gaussian(R) 03 system (copyright 2003, Gaussian, Inc.),
 the Gaussian(R) 98 system (copyright 1998, Gaussian, Inc.),
 the Gaussian(R) 94 system (copyright 1995, Gaussian, Inc.),
 the Gaussian 92(TM) system (copyright 1992, Gaussian, Inc.),
 the Gaussian 90(TM) system (copyright 1990, Gaussian, Inc.),
 the Gaussian 88(TM) system (copyright 1988, Gaussian, Inc.),
 the Gaussian 86(TM) system (copyright 1986, Carnegie Mellon
 University), and the Gaussian 82(TM) system (copyright 1983,
 Carnegie Mellon University). Gaussian is a federally registered
 trademark of Gaussian, Inc.
  
 This software contains proprietary and confidential information,
 including trade secrets, belonging to Gaussian, Inc.
  
 This software is provided under written license and may be
 used, copied, transmitted, or stored only in accord with that
 written license.
  
 The following legend is applicable only to US Government
 contracts under FAR:
  
                    RESTRICTED RIGHTS LEGEND
  
 Use, reproduction and disclosure by the US Government is
 subject to restrictions as set forth in subparagraphs (a)
 and (c) of the Commercial Computer Software - Restricted
 Rights clause in FAR 52.227-19.
  
 Gaussian, Inc.
 340 Quinnipiac St., Bldg. 40, Wallingford CT 06492
  
  
 ---------------------------------------------------------------
 Warning -- This program may not be used in any manner that
 competes with the business of Gaussian, Inc. or will provide
 assistance to any competitor of Gaussian, Inc.  The licensee
 of this program is prohibited from giving any competitor of
 Gaussian, Inc. access to this program.  By using this program,
 the user acknowledges that Gaussian, Inc. is engaged in the
 business of creating and licensing software in the field of
 computational chemistry and represents and warrants to the
 licensee that it is not a competitor of Gaussian, Inc. and that
 it will not use this program in any manner prohibited above.
 ---------------------------------------------------------------
  

 Cite this work as:
 Gaussian 16, Revision A.03,
 M. J. Frisch, G. W. Trucks, H. B. Schlegel, G. E. Scuseria, 
 M. A. Robb, J. R. Cheeseman, G. Scalmani, V. Barone, 
 G. A. Petersson, H. Nakatsuji, X. Li, M. Caricato, A. V. Marenich, 
 J. Bloino, B. G. Janesko, R. Gomperts, B. Mennucci, H. P. Hratchian, 
 J. V. Ortiz, A. F. Izmaylov, J. L. Sonnenberg, D. Williams-Young, 
 F. Ding, F. Lipparini, F. Egidi, J. Goings, B. Peng, A. Petrone, 
 T. Henderson, D. Ranasinghe, V. G. Zakrzewski, J. Gao, N. Rega, 
 G. Zheng, W. Liang, M. Hada, M. Ehara, K. Toyota, R. Fukuda, 
 J. Hasegawa, M. Ishida, T. Nakajima, Y. Honda, O. Kitao, H. Nakai, 
 T. Vreven, K. Throssell, J. A. Montgomery, Jr., J. E. Peralta, 
 F. Ogliaro, M. J. Bearpark, J. J. Heyd, E. N. Brothers, K. N. Kudin, 
 V. N. Staroverov, T. A. Keith, R. Kobayashi, J. Normand, 
 K. Raghavachari, A. P. Rendell, J. C. Burant, S. S. Iyengar, 
 J. Tomasi, M. Cossi, J. M. Millam, M. Klene, C. Adamo, R. Cammi, 
 J. W. Ochterski, R. L. Martin, K. Morokuma, O. Farkas, 
 J. B. Foresman, and D. J. Fox, Gaussian, Inc., Wallingford CT, 2016.
 
 ******************************************
 Gaussian 16:  ES64L-G16RevA.03 25-Dec-2016
                25-May-2023 
 ******************************************
 %chk=CCCCOCCOCqCrCCqCrCCCO.chk
 %NProcShared=20
 Will use up to   20 processors via shared memory.
 -----------------------------------------------------------------
 # opt freq b3lyp/6-31+g(3df,2p) Geom=AllCheckpoint TD(NStates=10)
 -----------------------------------------------------------------
 1/18=20,19=15,26=3,29=7,38=1/1,3;
 2/9=110,12=2,40=1/2;
 3/5=1,6=6,7=216,11=9,14=-4,25=1,30=1,71=1,74=-5/1,2,3,8;
 4//1;
 5/5=2,38=5/2;
 8/6=1,10=2,108=10/1;
 9/15=2,41=10,42=1,70=2/14;
 10/5=4/2;
 6/7=2,8=2,9=2,10=2/1;
 7/12=6,13=5/1,2,3,16;
 1/18=20,19=15,26=3/3(2);
 2/9=110/2;
 99//99;
 2/9=110/2;
 3/5=1,6=6,7=216,11=9,14=-2,25=1,30=1,71=1,74=-5/1,2,3,8;
 4/5=5,16=3,69=1/1;
 5/5=2,38=5/2;
 8/6=1,10=2,108=10/1;
 9/15=2,41=10,42=1,49=4,70=2/14;
 10/5=4/2;
 7/12=6,13=5/1,2,3,16;
 1/18=20,19=15,26=3/3(-8);
 2/9=110/2;
 6/7=2,8=2,9=2,10=2/1;
 99//99;
 Structure from the checkpoint file:  "CCCCOCCOCqCrCCqCrCCCO.chk"
 -------------------
 Title Card Required
 -------------------
 Charge =  0 Multiplicity = 1
 Redundant internal coordinates found in file.  (old form).
 C,0,1.385029486,0.8701823146,-0.5905672995
 C,0,2.8894514018,0.6718016964,-0.3867067535
 C,0,3.3038348671,0.7289149161,1.086987391
 C,0,4.799619922,0.530775681,1.288621318
 O,0,5.0869372368,0.5997769969,2.669465395
 C,0,6.4524037715,0.4245882424,2.9656459428
 C,0,6.6166009455,0.5192097642,4.4757883778
 O,0,7.9791718631,0.3007426039,4.7632728868
 C,0,8.3796309176,0.5942234912,6.1017558754
 C,0,7.8085410317,-0.4293080691,7.0884371099
 C,0,9.9203656215,0.6314899759,6.0919314721
 C,0,10.5681420551,1.7942449542,6.8692647549
 C,0,10.2342950924,1.765216094,8.3679484722
 C,0,12.0895094937,1.7955098826,6.6199459319
 C,0,12.8375558559,3.0276160107,7.1427205186
 C,0,14.3156004213,3.0283341595,6.748494956
 O,0,15.0337498494,4.1293297606,7.2834636635
 H,0,1.1163507484,0.8250643387,-1.6505299709
 H,0,1.0586374034,1.8421966272,-0.2046270549
 H,0,0.8101119334,0.0981547461,-0.0673930149
 H,0,3.4386179546,1.4376266791,-0.9504188382
 H,0,3.1918171698,-0.293534908,-0.8139248911
 H,0,2.7691028938,-0.0398769501,1.6584097507
 H,0,3.0173034234,1.6947123178,1.5213630913
 H,0,5.3672777174,1.304003094,0.7416134683
 H,0,5.1168588504,-0.4453361691,0.8814375251
 H,0,7.0702354943,1.1944724575,2.4753707399
 H,0,6.8143461109,-0.5566249933,2.6173149307
 H,0,5.9637905679,-0.2252742722,4.9545562544
 H,0,6.2928765826,1.5142062945,4.8219600103
 H,0,7.9954227025,1.5965421726,6.3605062678
 H,0,8.1129962469,-1.4380727066,6.7904905601
 H,0,6.7158622073,-0.3960481544,7.1251085113
 H,0,8.1807000661,-0.2440231092,8.0995702968
 H,0,10.2198349634,0.705338397,5.041723465
 H,0,10.3178729099,-0.3226687195,6.4634147254
 H,0,10.164888912,2.7299494106,6.452636158
 H,0,10.5969607915,0.8395407341,8.8316554914
 H,0,9.1563191319,1.8266471828,8.5435415923
 H,0,10.6930494175,2.6041203392,8.8986706883
 H,0,12.2626985956,1.7118667628,5.5384499234
 H,0,12.5257397745,0.8896289444,7.0652140087
 H,0,12.7785879001,3.0938695018,8.2344697597
 H,0,12.363004444,3.93838175,6.7470472949
 H,0,14.4112549854,2.9839973839,5.6508510978
 H,0,14.8093937758,2.1347641916,7.1469897603
 H,0,14.642266493,4.9334881819,6.9278583854
 Recover connectivity data from disk.

 GradGradGradGradGradGradGradGradGradGradGradGradGradGradGradGradGradGrad
 Berny optimization.
 Initialization pass.
                           ----------------------------
                           !    Initial Parameters    !
                           ! (Angstroms and Degrees)  !
 --------------------------                            --------------------------
 ! Name  Definition              Value          Derivative Info.                !
 --------------------------------------------------------------------------------
 ! R1    R(1,2)                  1.5311         estimate D2E/DX2                !
 ! R2    R(1,18)                 1.0944         estimate D2E/DX2                !
 ! R3    R(1,19)                 1.0956         estimate D2E/DX2                !
 ! R4    R(1,20)                 1.0956         estimate D2E/DX2                !
 ! R5    R(2,3)                  1.5319         estimate D2E/DX2                !
 ! R6    R(2,21)                 1.0981         estimate D2E/DX2                !
 ! R7    R(2,22)                 1.0981         estimate D2E/DX2                !
 ! R8    R(3,4)                  1.5223         estimate D2E/DX2                !
 ! R9    R(3,23)                 1.097          estimate D2E/DX2                !
 ! R10   R(3,24)                 1.0971         estimate D2E/DX2                !
 ! R11   R(4,5)                  1.4121         estimate D2E/DX2                !
 ! R12   R(4,25)                 1.1042         estimate D2E/DX2                !
 ! R13   R(4,26)                 1.1042         estimate D2E/DX2                !
 ! R14   R(5,6)                  1.4082         estimate D2E/DX2                !
 ! R15   R(6,7)                  1.522          estimate D2E/DX2                !
 ! R16   R(6,27)                 1.1022         estimate D2E/DX2                !
 ! R17   R(6,28)                 1.1023         estimate D2E/DX2                !
 ! R18   R(7,8)                  1.4096         estimate D2E/DX2                !
 ! R19   R(7,29)                 1.0998         estimate D2E/DX2                !
 ! R20   R(7,30)                 1.1021         estimate D2E/DX2                !
 ! R21   R(8,9)                  1.4276         estimate D2E/DX2                !
 ! R22   R(9,10)                 1.5321         estimate D2E/DX2                !
 ! R23   R(9,11)                 1.5412         estimate D2E/DX2                !
 ! R24   R(9,31)                 1.1042         estimate D2E/DX2                !
 ! R25   R(10,32)                1.095          estimate D2E/DX2                !
 ! R26   R(10,33)                1.0938         estimate D2E/DX2                !
 ! R27   R(10,34)                1.0933         estimate D2E/DX2                !
 ! R28   R(11,12)                1.5414         estimate D2E/DX2                !
 ! R29   R(11,35)                1.0946         estimate D2E/DX2                !
 ! R30   R(11,36)                1.0984         estimate D2E/DX2                !
 ! R31   R(12,13)                1.5357         estimate D2E/DX2                !
 ! R32   R(12,14)                1.5417         estimate D2E/DX2                !
 ! R33   R(12,37)                1.1008         estimate D2E/DX2                !
 ! R34   R(13,38)                1.097          estimate D2E/DX2                !
 ! R35   R(13,39)                1.0939         estimate D2E/DX2                !
 ! R36   R(13,40)                1.0936         estimate D2E/DX2                !
 ! R37   R(14,15)                1.5333         estimate D2E/DX2                !
 ! R38   R(14,41)                1.0985         estimate D2E/DX2                !
 ! R39   R(14,42)                1.0996         estimate D2E/DX2                !
 ! R40   R(15,16)                1.5297         estimate D2E/DX2                !
 ! R41   R(15,43)                1.0953         estimate D2E/DX2                !
 ! R42   R(15,44)                1.1006         estimate D2E/DX2                !
 ! R43   R(16,17)                1.4192         estimate D2E/DX2                !
 ! R44   R(16,45)                1.1027         estimate D2E/DX2                !
 ! R45   R(16,46)                1.0959         estimate D2E/DX2                !
 ! R46   R(17,47)                0.9625         estimate D2E/DX2                !
 ! A1    A(2,1,18)             111.3978         estimate D2E/DX2                !
 ! A2    A(2,1,19)             111.1482         estimate D2E/DX2                !
 ! A3    A(2,1,20)             111.1458         estimate D2E/DX2                !
 ! A4    A(18,1,19)            107.7352         estimate D2E/DX2                !
 ! A5    A(18,1,20)            107.7355         estimate D2E/DX2                !
 ! A6    A(19,1,20)            107.4964         estimate D2E/DX2                !
 ! A7    A(1,2,3)              112.8954         estimate D2E/DX2                !
 ! A8    A(1,2,21)             109.4316         estimate D2E/DX2                !
 ! A9    A(1,2,22)             109.4305         estimate D2E/DX2                !
 ! A10   A(3,2,21)             109.4243         estimate D2E/DX2                !
 ! A11   A(3,2,22)             109.4242         estimate D2E/DX2                !
 ! A12   A(21,2,22)            106.0015         estimate D2E/DX2                !
 ! A13   A(2,3,4)              112.8529         estimate D2E/DX2                !
 ! A14   A(2,3,23)             110.0661         estimate D2E/DX2                !
 ! A15   A(2,3,24)             110.064          estimate D2E/DX2                !
 ! A16   A(4,3,23)             108.587          estimate D2E/DX2                !
 ! A17   A(4,3,24)             108.5891         estimate D2E/DX2                !
 ! A18   A(23,3,24)            106.4627         estimate D2E/DX2                !
 ! A19   A(3,4,5)              108.85           estimate D2E/DX2                !
 ! A20   A(3,4,25)             110.3878         estimate D2E/DX2                !
 ! A21   A(3,4,26)             110.3972         estimate D2E/DX2                !
 ! A22   A(5,4,25)             110.218          estimate D2E/DX2                !
 ! A23   A(5,4,26)             110.2024         estimate D2E/DX2                !
 ! A24   A(25,4,26)            106.7769         estimate D2E/DX2                !
 ! A25   A(4,5,6)              113.3842         estimate D2E/DX2                !
 ! A26   A(5,6,7)              107.7926         estimate D2E/DX2                !
 ! A27   A(5,6,27)             111.2905         estimate D2E/DX2                !
 ! A28   A(5,6,28)             111.2641         estimate D2E/DX2                !
 ! A29   A(7,6,27)             109.7222         estimate D2E/DX2                !
 ! A30   A(7,6,28)             109.4786         estimate D2E/DX2                !
 ! A31   A(27,6,28)            107.2864         estimate D2E/DX2                !
 ! A32   A(6,7,8)              107.278          estimate D2E/DX2                !
 ! A33   A(6,7,29)             109.0143         estimate D2E/DX2                !
 ! A34   A(6,7,30)             109.639          estimate D2E/DX2                !
 ! A35   A(8,7,29)             112.3374         estimate D2E/DX2                !
 ! A36   A(8,7,30)             111.0875         estimate D2E/DX2                !
 ! A37   A(29,7,30)            107.4601         estimate D2E/DX2                !
 ! A38   A(7,8,9)              115.4998         estimate D2E/DX2                !
 ! A39   A(8,9,10)             111.2175         estimate D2E/DX2                !
 ! A40   A(8,9,11)             106.2255         estimate D2E/DX2                !
 ! A41   A(8,9,31)             107.9818         estimate D2E/DX2                !
 ! A42   A(10,9,11)            113.1347         estimate D2E/DX2                !
 ! A43   A(10,9,31)            109.015          estimate D2E/DX2                !
 ! A44   A(11,9,31)            109.1107         estimate D2E/DX2                !
 ! A45   A(9,10,32)            109.668          estimate D2E/DX2                !
 ! A46   A(9,10,33)            111.9407         estimate D2E/DX2                !
 ! A47   A(9,10,34)            110.8252         estimate D2E/DX2                !
 ! A48   A(32,10,33)           108.3539         estimate D2E/DX2                !
 ! A49   A(32,10,34)           108.2482         estimate D2E/DX2                !
 ! A50   A(33,10,34)           107.6921         estimate D2E/DX2                !
 ! A51   A(9,11,12)            115.7949         estimate D2E/DX2                !
 ! A52   A(9,11,35)            106.3353         estimate D2E/DX2                !
 ! A53   A(9,11,36)            109.7934         estimate D2E/DX2                !
 ! A54   A(12,11,35)           108.5418         estimate D2E/DX2                !
 ! A55   A(12,11,36)           109.43           estimate D2E/DX2                !
 ! A56   A(35,11,36)           106.505          estimate D2E/DX2                !
 ! A57   A(11,12,13)           112.7391         estimate D2E/DX2                !
 ! A58   A(11,12,14)           109.4987         estimate D2E/DX2                !
 ! A59   A(11,12,37)           107.2417         estimate D2E/DX2                !
 ! A60   A(13,12,14)           111.8618         estimate D2E/DX2                !
 ! A61   A(13,12,37)           107.8058         estimate D2E/DX2                !
 ! A62   A(14,12,37)           107.4338         estimate D2E/DX2                !
 ! A63   A(12,13,38)           110.8914         estimate D2E/DX2                !
 ! A64   A(12,13,39)           111.7042         estimate D2E/DX2                !
 ! A65   A(12,13,40)           111.5875         estimate D2E/DX2                !
 ! A66   A(38,13,39)           107.7771         estimate D2E/DX2                !
 ! A67   A(38,13,40)           107.6672         estimate D2E/DX2                !
 ! A68   A(39,13,40)           107.0024         estimate D2E/DX2                !
 ! A69   A(12,14,15)           115.2755         estimate D2E/DX2                !
 ! A70   A(12,14,41)           108.3457         estimate D2E/DX2                !
 ! A71   A(12,14,42)           108.9852         estimate D2E/DX2                !
 ! A72   A(15,14,41)           108.6601         estimate D2E/DX2                !
 ! A73   A(15,14,42)           109.2923         estimate D2E/DX2                !
 ! A74   A(41,14,42)           105.8664         estimate D2E/DX2                !
 ! A75   A(14,15,16)           112.5757         estimate D2E/DX2                !
 ! A76   A(14,15,43)           111.2337         estimate D2E/DX2                !
 ! A77   A(14,15,44)           109.3932         estimate D2E/DX2                !
 ! A78   A(16,15,43)           107.9902         estimate D2E/DX2                !
 ! A79   A(16,15,44)           108.8797         estimate D2E/DX2                !
 ! A80   A(43,15,44)           106.563          estimate D2E/DX2                !
 ! A81   A(15,16,17)           113.0885         estimate D2E/DX2                !
 ! A82   A(15,16,45)           109.8969         estimate D2E/DX2                !
 ! A83   A(15,16,46)           109.9534         estimate D2E/DX2                !
 ! A84   A(17,16,45)           111.2551         estimate D2E/DX2                !
 ! A85   A(17,16,46)           105.5139         estimate D2E/DX2                !
 ! A86   A(45,16,46)           106.8624         estimate D2E/DX2                !
 ! A87   A(16,17,47)           107.6426         estimate D2E/DX2                !
 ! D1    D(18,1,2,3)           179.9918         estimate D2E/DX2                !
 ! D2    D(18,1,2,21)           57.8652         estimate D2E/DX2                !
 ! D3    D(18,1,2,22)          -57.8825         estimate D2E/DX2                !
 ! D4    D(19,1,2,3)            59.8343         estimate D2E/DX2                !
 ! D5    D(19,1,2,21)          -62.2922         estimate D2E/DX2                !
 ! D6    D(19,1,2,22)         -178.04           estimate D2E/DX2                !
 ! D7    D(20,1,2,3)           -59.852          estimate D2E/DX2                !
 ! D8    D(20,1,2,21)          178.0214         estimate D2E/DX2                !
 ! D9    D(20,1,2,22)           62.2737         estimate D2E/DX2                !
 ! D10   D(1,2,3,4)            179.9672         estimate D2E/DX2                !
 ! D11   D(1,2,3,23)            58.4877         estimate D2E/DX2                !
 ! D12   D(1,2,3,24)           -58.5521         estimate D2E/DX2                !
 ! D13   D(21,2,3,4)           -57.9021         estimate D2E/DX2                !
 ! D14   D(21,2,3,23)         -179.3816         estimate D2E/DX2                !
 ! D15   D(21,2,3,24)           63.5786         estimate D2E/DX2                !
 ! D16   D(22,2,3,4)            57.838          estimate D2E/DX2                !
 ! D17   D(22,2,3,23)          -63.6415         estimate D2E/DX2                !
 ! D18   D(22,2,3,24)          179.3187         estimate D2E/DX2                !
 ! D19   D(2,3,4,5)            179.9561         estimate D2E/DX2                !
 ! D20   D(2,3,4,25)            58.8606         estimate D2E/DX2                !
 ! D21   D(2,3,4,26)           -58.9618         estimate D2E/DX2                !
 ! D22   D(23,3,4,5)           -57.7309         estimate D2E/DX2                !
 ! D23   D(23,3,4,25)         -178.8265         estimate D2E/DX2                !
 ! D24   D(23,3,4,26)           63.3512         estimate D2E/DX2                !
 ! D25   D(24,3,4,5)            57.6442         estimate D2E/DX2                !
 ! D26   D(24,3,4,25)          -63.4513         estimate D2E/DX2                !
 ! D27   D(24,3,4,26)          178.7264         estimate D2E/DX2                !
 ! D28   D(3,4,5,6)            179.8576         estimate D2E/DX2                !
 ! D29   D(25,4,5,6)           -58.9429         estimate D2E/DX2                !
 ! D30   D(26,4,5,6)            58.6562         estimate D2E/DX2                !
 ! D31   D(4,5,6,7)           -179.8946         estimate D2E/DX2                !
 ! D32   D(4,5,6,27)            59.7453         estimate D2E/DX2                !
 ! D33   D(4,5,6,28)           -59.8496         estimate D2E/DX2                !
 ! D34   D(5,6,7,8)            178.193          estimate D2E/DX2                !
 ! D35   D(5,6,7,29)            56.3106         estimate D2E/DX2                !
 ! D36   D(5,6,7,30)           -61.0721         estimate D2E/DX2                !
 ! D37   D(27,6,7,8)           -60.4649         estimate D2E/DX2                !
 ! D38   D(27,6,7,29)          177.6527         estimate D2E/DX2                !
 ! D39   D(27,6,7,30)           60.27           estimate D2E/DX2                !
 ! D40   D(28,6,7,8)            57.0271         estimate D2E/DX2                !
 ! D41   D(28,6,7,29)          -64.8553         estimate D2E/DX2                !
 ! D42   D(28,6,7,30)          177.762          estimate D2E/DX2                !
 ! D43   D(6,7,8,9)            168.8055         estimate D2E/DX2                !
 ! D44   D(29,7,8,9)           -71.4135         estimate D2E/DX2                !
 ! D45   D(30,7,8,9)            48.9917         estimate D2E/DX2                !
 ! D46   D(7,8,9,10)            70.4732         estimate D2E/DX2                !
 ! D47   D(7,8,9,11)          -166.0276         estimate D2E/DX2                !
 ! D48   D(7,8,9,31)           -49.0952         estimate D2E/DX2                !
 ! D49   D(8,9,10,32)           56.202          estimate D2E/DX2                !
 ! D50   D(8,9,10,33)          -64.0951         estimate D2E/DX2                !
 ! D51   D(8,9,10,34)          175.6563         estimate D2E/DX2                !
 ! D52   D(11,9,10,32)         -63.2582         estimate D2E/DX2                !
 ! D53   D(11,9,10,33)         176.4447         estimate D2E/DX2                !
 ! D54   D(11,9,10,34)          56.1961         estimate D2E/DX2                !
 ! D55   D(31,9,10,32)         175.1534         estimate D2E/DX2                !
 ! D56   D(31,9,10,33)          54.8563         estimate D2E/DX2                !
 ! D57   D(31,9,10,34)         -65.3923         estimate D2E/DX2                !
 ! D58   D(8,9,11,12)          136.2236         estimate D2E/DX2                !
 ! D59   D(8,9,11,35)           15.5798         estimate D2E/DX2                !
 ! D60   D(8,9,11,36)          -99.2623         estimate D2E/DX2                !
 ! D61   D(10,9,11,12)        -101.4855         estimate D2E/DX2                !
 ! D62   D(10,9,11,35)         137.8708         estimate D2E/DX2                !
 ! D63   D(10,9,11,36)          23.0286         estimate D2E/DX2                !
 ! D64   D(31,9,11,12)          20.0491         estimate D2E/DX2                !
 ! D65   D(31,9,11,35)        -100.5947         estimate D2E/DX2                !
 ! D66   D(31,9,11,36)         144.5631         estimate D2E/DX2                !
 ! D67   D(9,11,12,13)          61.815          estimate D2E/DX2                !
 ! D68   D(9,11,12,14)        -172.9648         estimate D2E/DX2                !
 ! D69   D(9,11,12,37)         -56.6899         estimate D2E/DX2                !
 ! D70   D(35,11,12,13)       -178.7396         estimate D2E/DX2                !
 ! D71   D(35,11,12,14)        -53.5194         estimate D2E/DX2                !
 ! D72   D(35,11,12,37)         62.7555         estimate D2E/DX2                !
 ! D73   D(36,11,12,13)        -62.8867         estimate D2E/DX2                !
 ! D74   D(36,11,12,14)         62.3335         estimate D2E/DX2                !
 ! D75   D(36,11,12,37)        178.6084         estimate D2E/DX2                !
 ! D76   D(11,12,13,38)         60.6543         estimate D2E/DX2                !
 ! D77   D(11,12,13,39)        -59.5882         estimate D2E/DX2                !
 ! D78   D(11,12,13,40)       -179.321          estimate D2E/DX2                !
 ! D79   D(14,12,13,38)        -63.2715         estimate D2E/DX2                !
 ! D80   D(14,12,13,39)        176.4861         estimate D2E/DX2                !
 ! D81   D(14,12,13,40)         56.7533         estimate D2E/DX2                !
 ! D82   D(37,12,13,38)        178.829          estimate D2E/DX2                !
 ! D83   D(37,12,13,39)         58.5865         estimate D2E/DX2                !
 ! D84   D(37,12,13,40)        -61.1463         estimate D2E/DX2                !
 ! D85   D(11,12,14,15)        170.471          estimate D2E/DX2                !
 ! D86   D(11,12,14,41)         48.5096         estimate D2E/DX2                !
 ! D87   D(11,12,14,42)        -66.2422         estimate D2E/DX2                !
 ! D88   D(13,12,14,15)        -63.8038         estimate D2E/DX2                !
 ! D89   D(13,12,14,41)        174.2348         estimate D2E/DX2                !
 ! D90   D(13,12,14,42)         59.483          estimate D2E/DX2                !
 ! D91   D(37,12,14,15)         54.3179         estimate D2E/DX2                !
 ! D92   D(37,12,14,41)        -67.6435         estimate D2E/DX2                !
 ! D93   D(37,12,14,42)        177.6047         estimate D2E/DX2                !
 ! D94   D(12,14,15,16)       -174.597          estimate D2E/DX2                !
 ! D95   D(12,14,15,43)         64.0445         estimate D2E/DX2                !
 ! D96   D(12,14,15,44)        -53.4075         estimate D2E/DX2                !
 ! D97   D(41,14,15,16)        -52.8049         estimate D2E/DX2                !
 ! D98   D(41,14,15,43)       -174.1633         estimate D2E/DX2                !
 ! D99   D(41,14,15,44)         68.3847         estimate D2E/DX2                !
 ! D100  D(42,14,15,16)         62.279          estimate D2E/DX2                !
 ! D101  D(42,14,15,43)        -59.0795         estimate D2E/DX2                !
 ! D102  D(42,14,15,44)       -176.5315         estimate D2E/DX2                !
 ! D103  D(14,15,16,17)       -177.0069         estimate D2E/DX2                !
 ! D104  D(14,15,16,45)         58.0057         estimate D2E/DX2                !
 ! D105  D(14,15,16,46)        -59.355          estimate D2E/DX2                !
 ! D106  D(43,15,16,17)        -53.8181         estimate D2E/DX2                !
 ! D107  D(43,15,16,45)       -178.8055         estimate D2E/DX2                !
 ! D108  D(43,15,16,46)         63.8338         estimate D2E/DX2                !
 ! D109  D(44,15,16,17)         61.511          estimate D2E/DX2                !
 ! D110  D(44,15,16,45)        -63.4765         estimate D2E/DX2                !
 ! D111  D(44,15,16,46)        179.1629         estimate D2E/DX2                !
 ! D112  D(15,16,17,47)        -61.6521         estimate D2E/DX2                !
 ! D113  D(45,16,17,47)         62.5967         estimate D2E/DX2                !
 ! D114  D(46,16,17,47)        178.1272         estimate D2E/DX2                !
 --------------------------------------------------------------------------------
 Trust Radius=3.00D-01 FncErr=1.00D-07 GrdErr=1.00D-06 EigMax=2.50D+02 EigMin=1.00D-04
 Number of steps in this run=    257 maximum allowed number of steps=    282.
 GradGradGradGradGradGradGradGradGradGradGradGradGradGradGradGradGradGrad

                          Input orientation:                          
 ---------------------------------------------------------------------
 Center     Atomic      Atomic             Coordinates (Angstroms)
 Number     Number       Type             X           Y           Z
 ---------------------------------------------------------------------
      1          6           0        1.385029    0.870182   -0.590567
      2          6           0        2.889451    0.671802   -0.386707
      3          6           0        3.303835    0.728915    1.086987
      4          6           0        4.799620    0.530776    1.288621
      5          8           0        5.086937    0.599777    2.669465
      6          6           0        6.452404    0.424588    2.965646
      7          6           0        6.616601    0.519210    4.475788
      8          8           0        7.979172    0.300743    4.763273
      9          6           0        8.379631    0.594223    6.101756
     10          6           0        7.808541   -0.429308    7.088437
     11          6           0        9.920366    0.631490    6.091931
     12          6           0       10.568142    1.794245    6.869265
     13          6           0       10.234295    1.765216    8.367948
     14          6           0       12.089509    1.795510    6.619946
     15          6           0       12.837556    3.027616    7.142721
     16          6           0       14.315600    3.028334    6.748495
     17          8           0       15.033750    4.129330    7.283464
     18          1           0        1.116351    0.825064   -1.650530
     19          1           0        1.058637    1.842197   -0.204627
     20          1           0        0.810112    0.098155   -0.067393
     21          1           0        3.438618    1.437627   -0.950419
     22          1           0        3.191817   -0.293535   -0.813925
     23          1           0        2.769103   -0.039877    1.658410
     24          1           0        3.017303    1.694712    1.521363
     25          1           0        5.367278    1.304003    0.741613
     26          1           0        5.116859   -0.445336    0.881438
     27          1           0        7.070235    1.194472    2.475371
     28          1           0        6.814346   -0.556625    2.617315
     29          1           0        5.963791   -0.225274    4.954556
     30          1           0        6.292877    1.514206    4.821960
     31          1           0        7.995423    1.596542    6.360506
     32          1           0        8.112996   -1.438073    6.790491
     33          1           0        6.715862   -0.396048    7.125109
     34          1           0        8.180700   -0.244023    8.099570
     35          1           0       10.219835    0.705338    5.041723
     36          1           0       10.317873   -0.322669    6.463415
     37          1           0       10.164889    2.729949    6.452636
     38          1           0       10.596961    0.839541    8.831655
     39          1           0        9.156319    1.826647    8.543542
     40          1           0       10.693049    2.604120    8.898671
     41          1           0       12.262699    1.711867    5.538450
     42          1           0       12.525740    0.889629    7.065214
     43          1           0       12.778588    3.093870    8.234470
     44          1           0       12.363004    3.938382    6.747047
     45          1           0       14.411255    2.983997    5.650851
     46          1           0       14.809394    2.134764    7.146990
     47          1           0       14.642266    4.933488    6.927858
 ---------------------------------------------------------------------
                    Distance matrix (angstroms):
                    1          2          3          4          5
     1  C    0.000000
     2  C    1.531078   0.000000
     3  C    2.552638   1.531911   0.000000
     4  C    3.912285   2.544672   1.522264   0.000000
     5  O    4.940147   3.764880   2.387544   1.412106   0.000000
     6  C    6.206729   4.898368   3.679057   2.356986   1.408159
     7  C    7.291123   6.128522   4.743666   3.668731   2.368368
     8  O    8.512965   7.250188   5.962984   4.715471   3.583081
     9  C    9.684410   8.499896   7.136508   5.998897   4.756310
    10  C   10.095409   9.015967   7.592842   6.604031   5.290884
    11  C   10.842727   9.560760   8.296833   7.021678   5.922526
    12  C   11.867289  10.624090   9.345577   8.125010   7.007758
    13  C   12.624009  11.479820  10.105325   9.009795   7.766998
    14  C   12.939615  11.618820  10.437401   9.119488   8.128474
    15  C   13.986373  12.696729  11.525961  10.252468   9.272352
    16  C   15.023952  13.675571  12.593609  11.251751  10.378082
    17  O   16.090680  14.773964  13.694891  12.394561  11.518932
    18  H    1.094415   2.182802   3.505472   4.721407   5.871854
    19  H    1.095579   2.180564   2.819322   4.236103   5.102079
    20  H    1.095567   2.180524   2.819416   4.235813   5.102279
    21  H    2.160720   1.098109   2.161357   2.772725   4.064789
    22  H    2.160696   1.098096   2.161347   2.772223   4.064910
    23  H    2.793164   2.168749   1.097043   2.141352   2.608399
    24  H    2.793639   2.168738   1.097063   2.141394   2.607759
    25  H    4.221517   2.795069   2.169748   1.104234   2.071506
    26  H    4.221841   2.795985   2.169832   1.104189   2.071280
    27  H    6.467357   5.093489   4.041055   2.646613   2.079617
    28  H    6.465583   5.092934   4.039580   2.647072   2.079405
    29  H    7.274165   6.227792   4.789982   3.919947   2.582871
    30  H    7.334656   6.278786   4.847791   3.959979   2.631293
    31  H    9.619892   8.511814   7.111524   6.088763   4.803812
    32  H   10.250541   9.124097   7.768772   6.717544   5.503882
    33  H    9.463233   8.497593   7.026121   6.212533   4.847455
    34  H   11.087880  10.042557   8.596903   7.643366   6.306299
    35  H   10.478724   9.121595   7.966903   6.595072   5.655563
    36  H   11.444529  10.153550   8.899917   7.613013   6.527453
    37  H   11.408391  10.195321   8.936912   7.764633   6.680989
    38  H   13.177211  12.017156  10.638694   9.518501   8.269851
    39  H   12.030782  10.970717   9.542368   8.561190   7.250507
    40  H   13.404903  12.282029  10.915094   9.846021   8.616779
    41  H   12.513871  11.137638  10.052012   8.669115   7.807648
    42  H   13.517647  12.183457  10.991294   9.653534   8.645369
    43  H   14.582155  13.341144  12.101672  10.884769   9.815868
    44  H   13.556193  12.300780  11.153722   9.930306   8.984103
    45  H   14.598153  13.211749  12.218389  10.836553  10.075518
    46  H   15.546141  14.176807  13.079676  11.708494  10.813444
    47  H   15.773126  14.484250  13.429603  12.168096  11.323395
                    6          7          8          9         10
     6  C    0.000000
     7  C    1.521987   0.000000
     8  O    2.361741   1.409601   0.000000
     9  C    3.684856   2.399515   1.427598   0.000000
    10  C    4.423308   3.024292   2.443047   1.532090   0.000000
    11  C    4.673674   3.679591   2.375492   1.541217   2.564784
    12  C    5.835538   4.792611   3.656298   2.611265   3.550721
    13  C    6.729402   5.457944   4.497105   3.153828   3.512459
    14  C    6.856405   6.014905   4.751467   3.933803   4.847266
    15  C    8.061878   7.218373   6.058177   5.184409   6.102808
    16  C    9.106004   8.410440   7.178523   6.448170   7.376495
    17  O   10.296026   9.579374   8.412878   7.626972   8.545341
    18  H    7.067031   8.238815   9.407980  10.625745  11.078285
    19  H    6.415057   7.385631   8.657361   9.742938  10.193612
    20  H    6.414152   7.384653   8.647069   9.777633  10.023080
    21  H    5.044275   6.355060   7.386163   8.652058   9.338355
    22  H    5.043043   6.353799   7.374081   8.690694   9.153136
    23  H    3.935899   4.801400   6.074621   7.184945   7.418409
    24  H    3.936887   4.802643   6.088782   7.137621   7.645897
    25  H    2.626250   4.015068   4.899211   6.189441   7.017571
    26  H    2.623809   4.012348   4.880381   6.243244   6.765519
    27  H    1.102183   2.159499   2.619048   3.901985   4.945922
    28  H    1.102323   2.156490   2.587863   3.989473   4.582092
    29  H    2.148681   1.099835   2.091661   2.797129   2.828106
    30  H    2.158383   1.102112   2.078348   2.615108   3.348344
    31  H    3.908895   2.571761   2.056822   1.104179   2.160758
    32  H    4.566893   3.380532   2.674135   2.162331   1.095021
    33  H    4.247821   2.804719   2.767623   2.189981   1.093800
    34  H    5.458134   4.020041   3.386482   2.175659   1.093263
    35  H    4.310737   3.652153   2.293862   2.126586   3.360178
    36  H    5.266368   4.284721   2.957811   2.174459   2.588198
    37  H    5.590737   4.624462   3.678635   2.805635   3.992183
    38  H    7.194415   5.909269   4.867737   3.525491   3.524780
    39  H    6.355301   4.970531   4.243170   2.843313   3.003859
    40  H    7.611453   6.366017   5.456390   4.149015   4.560594
    41  H    6.483512   5.867717   4.576109   4.079786   5.179441
    42  H    7.342216   6.462218   5.130010   4.266818   4.898173
    43  H    8.654835   7.663331   6.548676   5.490676   6.198995
    44  H    7.847353   7.061905   6.032062   5.240903   6.319525
    45  H    8.780901   8.259091   7.025621   6.503447   7.570544
    46  H    9.499875   8.767393   7.463087   6.693850   7.455859
    47  H   10.153972   9.482078   8.399083   7.663698   8.688220
                   11         12         13         14         15
    11  C    0.000000
    12  C    1.541383   0.000000
    13  C    2.562058   1.535692   0.000000
    14  C    2.517723   1.541662   2.549167   0.000000
    15  C    3.918619   2.597349   3.141943   1.533281   0.000000
    16  C    5.049161   3.947278   4.568933   2.547913   1.529716
    17  O    6.308830   5.056267   5.458929   3.815170   2.461067
    18  H   11.725778  12.761762  13.579054  13.775077  14.817528
    19  H   10.938130  11.852127  12.557375  12.971396  13.933114
    20  H   11.009925  12.091861  12.757324  13.222191  14.325742
    21  H    9.605082  10.587953  11.537786  11.501149  12.504679
    22  H    9.686067  10.853589  11.753372  11.781149  12.937485
    23  H    8.440818   9.557302  10.198302  10.717064  11.868484
    24  H    8.347024   9.253384   9.948149  10.407239  11.393579
    25  H    7.057534   8.052170   9.058784   8.943421   9.987496
    26  H    7.168157   8.401565   9.333946   9.304285  10.529683
    27  H    4.638933   5.648131   6.712637   6.536961   7.642418
    28  H    4.809567   6.139760   7.082145   7.027157   8.342969
    29  H    4.205015   5.380020   5.818119   6.661946   7.913154
    30  H    3.943437   4.748450   5.307713   6.075594   7.106980
    31  H    2.169992   2.629982   3.011781   4.107121   5.109411
    32  H    2.835076   4.059781   4.153233   5.128138   6.510599
    33  H    3.520246   4.438795   4.312202   5.825307   7.014052
    34  H    2.797065   3.371657   2.885537   4.650567   5.771091
    35  H    1.094565   2.155677   3.491035   2.678608   4.081620
    36  H    1.098376   2.169948   2.827277   2.765841   4.246724
    37  H    2.143229   1.100788   2.145681   2.146004   2.776323
    38  H    2.829691   2.182491   1.097008   2.834297   3.558151
    39  H    2.832412   2.190319   1.093910   3.507819   4.117782
    40  H    3.516546   2.188604   1.093564   2.792228   2.803858
    41  H    2.638196   2.156241   3.481857   1.098464   2.152984
    42  H    2.793186   2.165390   2.777497   1.099628   2.161996
    43  H    4.338573   2.904975   2.873423   2.183404   1.095346
    44  H    4.163075   2.798891   3.446937   2.163990   1.100568
    45  H    5.088903   4.203518   5.129819   2.782472   2.168895
    46  H    5.222603   4.263954   4.749614   2.791172   2.164566
    47  H    6.442229   5.143615   5.616228   4.056881   2.633533
                   16         17         18         19         20
    16  C    0.000000
    17  O    1.419197   0.000000
    18  H   15.799310  16.865005   0.000000
    19  H   15.016654  16.018934   1.768763   0.000000
    20  H   15.409104  16.510522   1.768757   1.766998   0.000000
    21  H   13.420595  14.473741   2.501662   2.526695   3.079442
    22  H   13.855092  15.012022   2.501746   3.079456   2.526510
    23  H   12.986319  14.122503   3.798525   3.152586   2.614401
    24  H   12.520103  13.547109   3.798791   2.614798   3.153543
    25  H   10.914597  12.009120   4.901236   4.444030   4.782920
    26  H   11.450135  12.659314   4.901922   4.783461   4.443392
    27  H    8.609178   9.754420   7.253155   6.613717   6.845196
    28  H    9.283717  10.549394   7.251946   6.844405   6.609631
    29  H    9.140947  10.327175   8.260027   7.412971   7.203123
    30  H    8.388577   9.449907   8.316517   7.264394   7.481423
    31  H    6.491934   7.536903  10.587422   9.554073   9.756626
    32  H    7.643484   8.895832  11.194895  10.462113  10.135220
    33  H    8.344115   9.470553  10.481292   9.525700   9.319560
    34  H    7.083130   8.170467  12.087698  11.137135  11.006450
    35  H    5.008460   6.318456  11.299293  10.618106  10.724487
    36  H    5.224205   6.536992  12.321583  11.613908  11.542359
    37  H    4.171927   5.133648  12.294956  11.315082  11.702520
    38  H    4.791519   5.736262  14.133591  13.177228  13.248590
    39  H    5.593248   6.436951  13.021649  11.920702  12.115901
    40  H    4.233921   4.876150  14.358406  13.276764  13.577283
    41  H    2.722444   4.070372  13.293191  12.590906  12.852676
    42  H    2.806773   4.102854  14.357664  13.610746  13.738866
    43  H    2.138884   2.657507  15.455370  14.496285  14.870765
    44  H    2.154256   2.730766  14.377040  13.435345  13.951819
    45  H    1.102696   2.089189  15.320758  14.624730  15.033878
    46  H    1.095946   2.011778  16.328230  15.595357  15.880019
    47  H    1.941261   0.962489  16.535365  15.650668  16.237072
                   21         22         23         24         25
    21  H    0.000000
    22  H    1.753985   0.000000
    23  H    3.072011   2.521005   0.000000
    24  H    2.520576   3.071995   1.757608   0.000000
    25  H    2.569155   3.115198   3.065459   2.506600   0.000000
    26  H    3.117329   2.569646   2.506001   3.065525   1.772695
    27  H    4.998380   5.298656   4.548712   4.193641   2.432689
    28  H    5.301066   4.996533   4.189334   4.548314   3.012341
    29  H    6.634039   6.400302   4.594016   4.914769   4.521438
    30  H    6.439955   6.681893   4.983995   4.653590   4.189290
    31  H    8.616226   8.838522   7.218171   6.943242   6.210047
    32  H    9.489001   9.129902   7.539920   7.971457   7.186575
    33  H    8.906000   8.686637   6.751930   7.032253   6.742245
    34  H   10.354593  10.214783   8.415201   8.584414   8.028154
    35  H    9.078927   9.202141   8.216786   8.077639   6.511272
    36  H   10.265852  10.185342   8.952763   9.043894   7.739087
    37  H   10.085536  10.515137   9.238733   8.745121   7.593825
    38  H   12.136250  12.212994  10.653834  10.565174   9.644381
    39  H   11.089577  11.297461   9.575254   9.328232   8.689078
    40  H   12.287882  12.609497  11.054457  10.684979   9.828109
    41  H   10.956506  11.254119  10.404407  10.080407   8.409686
    42  H   12.129569  12.272034  11.193278  11.035978   9.560503
    43  H   13.203801  13.610809  12.379609  11.929213  10.689903
    44  H   12.047798  12.616976  11.565627  10.940016   9.588815
    45  H   12.898325  13.357070  12.673717  12.187578  10.426721
    46  H   13.976715  14.291287  13.409779  13.072671  11.439955
    47  H   14.135418  14.777340  13.909474  13.223450  11.724684
                   26         27         28         29         30
    26  H    0.000000
    27  H    3.007536   0.000000
    28  H    2.430456   1.775379   0.000000
    29  H    4.166055   3.063701   2.509170   0.000000
    30  H    4.555276   2.492589   3.069321   1.775295   0.000000
    31  H    6.517330   4.013964   4.476891   3.069730   2.296207
    32  H    6.699199   5.161192   4.458569   3.075812   3.987969
    33  H    6.445360   4.927007   4.511728   2.303491   3.022000
    34  H    7.844048   5.910501   5.658601   3.847876   4.171088
    35  H    6.683741   4.092114   4.366653   4.357471   4.015416
    36  H    7.630469   5.362216   5.207871   4.609140   4.719012
    37  H    8.161085   5.268131   6.061138   5.350404   4.373742
    38  H    9.741067   7.277783   7.407799   6.134492   5.920977
    39  H    8.954719   6.447797   6.803307   5.223355   4.706070
    40  H   10.230792   7.508040   8.030572   6.776976   6.096639
    41  H    8.797972   6.050771   6.585107   6.615867   6.015912
    42  H    9.742317   7.135973   7.382105   6.982626   6.653636
    43  H   11.193532   8.328278   8.969432   8.259298   7.497000
    44  H   10.301892   7.334144   8.249084   7.842129   6.813886
    45  H   10.995155   8.196136   8.913550   9.063328   8.291888
    46  H   11.826212   9.088605   9.575088   9.413886   8.849967
    47  H   12.498974   9.546755  10.488015  10.287016   9.264913
                   31         32         33         34         35
    31  H    0.000000
    32  H    3.067181   0.000000
    33  H    2.488435   1.774759   0.000000
    34  H    2.538967   1.773141   1.765910   0.000000
    35  H    2.735223   3.477236   4.222721   3.796022   0.000000
    36  H    3.014587   2.492506   3.663018   2.692712   1.757161
    37  H    2.449425   4.657984   4.703176   3.936230   2.468348
    38  H    3.667101   3.940045   4.416097   2.747431   3.811013
    39  H    2.483198   3.849689   3.592792   2.331656   3.827679
    40  H    3.838578   5.238361   5.288152   3.881028   4.324968
    41  H    4.347266   5.358148   6.142327   5.200726   2.330907
    42  H    4.638977   4.996596   5.950734   4.608083   3.073382
    43  H    5.350925   6.662681   7.082856   5.683335   4.737713
    44  H    4.970855   6.853519   7.128845   6.067413   4.237201
    45  H    6.602389   7.779559   8.533300   7.432103   4.809504
    46  H    6.880294   7.598289   8.480020   7.106731   5.247805
    47  H    7.459064   9.123981   9.553573   8.362498   6.402551
                   36         37         38         39         40
    36  H    0.000000
    37  H    3.056468   0.000000
    38  H    2.652769   3.069212   0.000000
    39  H    3.208690   2.490994   1.769982   0.000000
    40  H    3.825875   2.505568   1.768464   1.758443   0.000000
    41  H    2.962641   2.504603   3.792208   4.323580   3.814577
    42  H    2.589692   3.055429   2.615915   3.796900   3.108022
    43  H    4.567766   3.184147   3.193450   3.849962   2.242875
    44  H    4.734930   2.525609   4.131261   4.239062   3.032901
    45  H    5.324479   4.328859   5.409718   6.109130   4.951534
    46  H    5.165270   4.733688   4.718082   5.831170   4.498108
    47  H    6.822263   5.012817   6.062124   6.508342   4.990628
                   41         42         43         44         45
    41  H    0.000000
    42  H    1.753931   0.000000
    43  H    3.073206   2.507941   0.000000
    44  H    2.535377   3.069626   1.760209   0.000000
    45  H    2.499449   3.153089   3.058228   2.511539   0.000000
    46  H    3.041693   2.602331   2.495329   3.065585   1.765826
    47  H    4.239298   4.566328   2.926556   2.493585   2.341928
                   46         47
    46  H    0.000000
    47  H    2.812260   0.000000
 Stoichiometry    C14H30O3
 Framework group  C1[X(C14H30O3)]
 Deg. of freedom   135
 Full point group                 C1      NOp   1
 Largest Abelian subgroup         C1      NOp   1
 Largest concise Abelian subgroup C1      NOp   1
                         Standard orientation:                         
 ---------------------------------------------------------------------
 Center     Atomic      Atomic             Coordinates (Angstroms)
 Number     Number       Type             X           Y           Z
 ---------------------------------------------------------------------
      1          6           0       -8.506019   -1.001423   -0.634862
      2          6           0       -7.203001   -1.308434    0.108164
      3          6           0       -6.036852   -0.423448   -0.343109
      4          6           0       -4.742055   -0.728955    0.396794
      5          8           0       -3.728844    0.129608   -0.083119
      6          6           0       -2.483549   -0.070802    0.542973
      7          6           0       -1.494207    0.913945   -0.063592
      8          8           0       -0.263515    0.732988    0.599451
      9          6           0        0.856617    1.389789    0.006195
     10          6           0        0.765373    2.909063    0.181640
     11          6           0        2.110727    0.778805    0.661369
     12          6           0        3.268916    0.436974   -0.296551
     13          6           0        3.825616    1.672242   -1.019424
     14          6           0        4.367959   -0.320724    0.474631
     15          6           0        5.478057   -0.925606   -0.392983
     16          6           0        6.461205   -1.772241    0.417362
     17          8           0        7.531310   -2.282109   -0.363042
     18          1           0       -9.321582   -1.646753   -0.294053
     19          1           0       -8.390458   -1.151377   -1.713960
     20          1           0       -8.814995    0.037897   -0.477968
     21          1           0       -6.938569   -2.364028   -0.038942
     22          1           0       -7.359909   -1.183296    1.187763
     23          1           0       -6.285764    0.634002   -0.190318
     24          1           0       -5.863006   -0.549618   -1.418937
     25          1           0       -4.452029   -1.783588    0.245246
     26          1           0       -4.877573   -0.588687    1.483621
     27          1           0       -2.121744   -1.101143    0.393634
     28          1           0       -2.550861    0.098375    1.630155
     29          1           0       -1.886511    1.934628    0.054480
     30          1           0       -1.394651    0.720877   -1.144084
     31          1           0        0.859629    1.151686   -1.072002
     32          1           0        0.674597    3.152427    1.245410
     33          1           0       -0.097297    3.329959   -0.342806
     34          1           0        1.661962    3.399684   -0.206486
     35          1           0        1.783078   -0.142124    1.153922
     36          1           0        2.477167    1.443808    1.455046
     37          1           0        2.869543   -0.248235   -1.059915
     38          1           0        4.219868    2.401392   -0.300862
     39          1           0        3.056965    2.172771   -1.615482
     40          1           0        4.637489    1.406924   -1.702322
     41          1           0        3.893229   -1.126838    1.050336
     42          1           0        4.815185    0.355874    1.217184
     43          1           0        6.048413   -0.145281   -0.908318
     44          1           0        5.028071   -1.554349   -1.176210
     45          1           0        5.921165   -2.583241    0.933670
     46          1           0        6.931355   -1.158529    1.194159
     47          1           0        7.152908   -2.852216   -1.039928
 ---------------------------------------------------------------------
 Rotational constants (GHZ):           0.9529495           0.0878169           0.0825122
 Standard basis: 6-31+G(3df,2p) (6D, 7F)
 There are   937 symmetry adapted cartesian basis functions of A   symmetry.
 There are   886 symmetry adapted basis functions of A   symmetry.
   886 basis functions,  1218 primitive gaussians,   937 cartesian basis functions
    69 alpha electrons       69 beta electrons
       nuclear repulsion energy      1196.9322842872 Hartrees.
 NAtoms=   47 NActive=   47 NUniq=   47 SFac= 1.00D+00 NAtFMM=   60 NAOKFM=F Big=F
 Integral buffers will be    131072 words long.
 Regular integral format.
 Two-electron integral symmetry is turned on.
 One-electron integrals computed using PRISM.
 PrsmSu:  requested number of processors reduced to:  11 ShMem   1 Linda.
 NBasis=   886 RedAO= T EigKep=  3.67D-06  NBF=   886
 NBsUse=   886 1.00D-06 EigRej= -1.00D+00 NBFU=   886
 ExpMin= 4.38D-02 ExpMax= 5.48D+03 ExpMxC= 8.25D+02 IAcc=3 IRadAn=         5 AccDes= 0.00D+00
 Harris functional with IExCor=  402 and IRadAn=       5 diagonalized for initial guess.
 HarFok:  IExCor=  402 AccDes= 0.00D+00 IRadAn=         5 IDoV= 1 UseB2=F ITyADJ=14
 ICtDFT=  3500011 ScaDFX=  1.000000  1.000000  1.000000  1.000000
 FoFCou: FMM=F IPFlag=           0 FMFlag=      100000 FMFlg1=           0
         NFxFlg=           0 DoJE=T BraDBF=F KetDBF=T FulRan=T
         wScrn=  0.000000 ICntrl=       500 IOpCl=  0 I1Cent=   200000004 NGrid=           0
         NMat0=    1 NMatS0=      1 NMatT0=    0 NMatD0=    1 NMtDS0=    0 NMtDT0=    0
 Petite list used in FoFCou.
 Requested convergence on RMS density matrix=1.00D-08 within 128 cycles.
 Requested convergence on MAX density matrix=1.00D-06.
 Requested convergence on             energy=1.00D-06.
 No special actions if energy rises.
 SCF Done:  E(RB3LYP) =  -777.325975603     A.U. after   12 cycles
            NFock= 12  Conv=0.57D-08     -V/T= 2.0083
 DoSCS=F DFT=T ScalE2(SS,OS)=  1.000000  1.000000
 ExpMin= 4.38D-02 ExpMax= 5.48D+03 ExpMxC= 8.25D+02 IAcc=3 IRadAn=         5 AccDes= 0.00D+00
 HarFok:  IExCor=  205 AccDes= 0.00D+00 IRadAn=         5 IDoV=-2 UseB2=F ITyADJ=14
 ICtDFT= 12500011 ScaDFX=  1.000000  1.000000  1.000000  1.000000
 Range of M.O.s used for correlation:    18   886
 NBasis=   886 NAE=    69 NBE=    69 NFC=    17 NFV=     0
 NROrb=    869 NOA=    52 NOB=    52 NVA=   817 NVB=   817

 **** Warning!!: The largest alpha MO coefficient is  0.81780729D+02

 Orbital symmetries:
       Occupied  (A) (A) (A) (A) (A) (A) (A) (A) (A) (A) (A) (A)
                 (A) (A) (A) (A) (A) (A) (A) (A) (A) (A) (A) (A)
                 (A) (A) (A) (A) (A) (A) (A) (A) (A) (A) (A) (A)
                 (A) (A) (A) (A) (A) (A) (A) (A) (A) (A) (A) (A)
                 (A) (A) (A) (A) (A) (A) (A) (A) (A) (A) (A) (A)
                 (A) (A) (A) (A) (A) (A) (A) (A) (A)
       Virtual   (A) (A) (A) (A) (A) (A) (A) (A) (A) (A) (A) (A)
                 (A) (A) (A) (A) (A) (A) (A) (A) (A) (A) (A) (A)
                 (A) (A) (A) (A) (A) (A) (A) (A) (A) (A) (A) (A)
                 (A) (A) (A) (A) (A) (A) (A) (A) (A) (A) (A) (A)
                 (A) (A) (A) (A) (A) (A) (A) (A) (A) (A) (A) (A)
                 (A) (A) (A) (A) (A) (A) (A) (A) (A) (A) (A) (A)
                 (A) (A) (A) (A) (A) (A) (A) (A) (A) (A) (A) (A)
                 (A) (A) (A) (A) (A) (A) (A) (A) (A) (A) (A) (A)
                 (A) (A) (A) (A) (A) (A) (A) (A) (A) (A) (A) (A)
                 (A) (A) (A) (A) (A) (A) (A) (A) (A) (A) (A) (A)
                 (A) (A) (A) (A) (A) (A) (A) (A) (A) (A) (A) (A)
                 (A) (A) (A) (A) (A) (A) (A) (A) (A) (A) (A) (A)
                 (A) (A) (A) (A) (A) (A) (A) (A) (A) (A) (A) (A)
                 (A) (A) (A) (A) (A) (A) (A) (A) (A) (A) (A) (A)
                 (A) (A) (A) (A) (A) (A) (A) (A) (A) (A) (A) (A)
                 (A) (A) (A) (A) (A) (A) (A) (A) (A) (A) (A) (A)
                 (A) (A) (A) (A) (A) (A) (A) (A) (A) (A) (A) (A)
                 (A) (A) (A) (A) (A) (A) (A) (A) (A) (A) (A) (A)
                 (A) (A) (A) (A) (A) (A) (A) (A) (A) (A) (A) (A)
                 (A) (A) (A) (A) (A) (A) (A) (A) (A) (A) (A) (A)
                 (A) (A) (A) (A) (A) (A) (A) (A) (A) (A) (A) (A)
                 (A) (A) (A) (A) (A) (A) (A) (A) (A) (A) (A) (A)
                 (A) (A) (A) (A) (A) (A) (A) (A) (A) (A) (A) (A)
                 (A) (A) (A) (A) (A) (A) (A) (A) (A) (A) (A) (A)
                 (A) (A) (A) (A) (A) (A) (A) (A) (A) (A) (A) (A)
                 (A) (A) (A) (A) (A) (A) (A) (A) (A) (A) (A) (A)
                 (A) (A) (A) (A) (A) (A) (A) (A) (A) (A) (A) (A)
                 (A) (A) (A) (A) (A) (A) (A) (A) (A) (A) (A) (A)
                 (A) (A) (A) (A) (A) (A) (A) (A) (A) (A) (A) (A)
                 (A) (A) (A) (A) (A) (A) (A) (A) (A) (A) (A) (A)
                 (A) (A) (A) (A) (A) (A) (A) (A) (A) (A) (A) (A)
                 (A) (A) (A) (A) (A) (A) (A) (A) (A) (A) (A) (A)
                 (A) (A) (A) (A) (A) (A) (A) (A) (A) (A) (A) (A)
                 (A) (A) (A) (A) (A) (A) (A) (A) (A) (A) (A) (A)
                 (A) (A) (A) (A) (A) (A) (A) (A) (A) (A) (A) (A)
                 (A) (A) (A) (A) (A) (A) (A) (A) (A) (A) (A) (A)
                 (A) (A) (A) (A) (A) (A) (A) (A) (A) (A) (A) (A)
                 (A) (A) (A) (A) (A) (A) (A) (A) (A) (A) (A) (A)
                 (A) (A) (A) (A) (A) (A) (A) (A) (A) (A) (A) (A)
                 (A) (A) (A) (A) (A) (A) (A) (A) (A) (A) (A) (A)
                 (A) (A) (A) (A) (A) (A) (A) (A) (A) (A) (A) (A)
                 (A) (A) (A) (A) (A) (A) (A) (A) (A) (A) (A) (A)
                 (A) (A) (A) (A) (A) (A) (A) (A) (A) (A) (A) (A)
                 (A) (A) (A) (A) (A) (A) (A) (A) (A) (A) (A) (A)
                 (A) (A) (A) (A) (A) (A) (A) (A) (A) (A) (A) (A)
                 (A) (A) (A) (A) (A) (A) (A) (A) (A) (A) (A) (A)
                 (A) (A) (A) (A) (A) (A) (A) (A) (A) (A) (A) (A)
                 (A) (A) (A) (A) (A) (A) (A) (A) (A) (A) (A) (A)
                 (A) (A) (A) (A) (A) (A) (A) (A) (A) (A) (A) (A)
                 (A) (A) (A) (A) (A) (A) (A) (A) (A) (A) (A) (A)
                 (A) (A) (A) (A) (A) (A) (A) (A) (A) (A) (A) (A)
                 (A) (A) (A) (A) (A) (A) (A) (A) (A) (A) (A) (A)
                 (A) (A) (A) (A) (A) (A) (A) (A) (A) (A) (A) (A)
                 (A) (A) (A) (A) (A) (A) (A) (A) (A) (A) (A) (A)
                 (A) (A) (A) (A) (A) (A) (A) (A) (A) (A) (A) (A)
                 (A) (A) (A) (A) (A) (A) (A) (A) (A) (A) (A) (A)
                 (A) (A) (A) (A) (A) (A) (A) (A) (A) (A) (A) (A)
                 (A) (A) (A) (A) (A) (A) (A) (A) (A) (A) (A) (A)
                 (A) (A) (A) (A) (A) (A) (A) (A) (A) (A) (A) (A)
                 (A) (A) (A) (A) (A) (A) (A) (A) (A) (A) (A) (A)
                 (A) (A) (A) (A) (A) (A) (A) (A) (A) (A) (A) (A)
                 (A) (A) (A) (A) (A) (A) (A) (A) (A) (A) (A) (A)
                 (A) (A) (A) (A) (A) (A) (A) (A) (A) (A) (A) (A)
                 (A) (A) (A) (A) (A) (A) (A) (A) (A) (A) (A) (A)
                 (A) (A) (A) (A) (A) (A) (A) (A) (A) (A) (A) (A)
                 (A) (A) (A) (A) (A) (A) (A) (A) (A) (A) (A) (A)
                 (A) (A) (A) (A) (A) (A) (A) (A) (A) (A) (A) (A)
                 (A) (A) (A) (A) (A) (A) (A) (A) (A) (A) (A) (A)
                 (A)
    40 initial guesses have been made.
 Convergence on wavefunction:    0.000001000000000
 Iteration     1 Dimension    40 NMult     0 NNew     40
 CISAX will form     1 AO SS matrices at one time.
 New state      2 was old state      8
 New state      3 was old state      4
 New state      4 was old state      3
 New state      5 was old state      6
 New state      6 was old state      7
 New state      7 was old state      9
 New state      8 was old state      5
 New state      9 was old state     16
 New state     10 was old state     12
 Iteration     2 Dimension    60 NMult    40 NNew     20
 Iteration     3 Dimension    80 NMult    60 NNew     20
 Iteration     4 Dimension   100 NMult    80 NNew     20
 Iteration     5 Dimension   120 NMult   100 NNew     20
