### Starting Gaussian ###
 Entering Gaussian System, Link 0=g16
 Initial command:
 /cluster/software/gaussian/gaussian-16-A.03/avx2/g16/l1.exe "/local/scratch/ks29c/Gau-18876.inp" -scrdir="/local/scratch/ks29c/"
 Entering Link 1 = /cluster/software/gaussian/gaussian-16-A.03/avx2/g16/l1.exe PID=     18883.
  
 Copyright (c) 1988,1990,1992,1993,1995,1998,2003,2009,2016,
            Gaussian, Inc.  All Rights Reserved.
  
 This is part of the Gaussian(R) 16 program.  It is based on
 the Gaussian(R) 09 system (copyright 2009, Gaussian, Inc.),
 the Gaussian(R) 03 system (copyright 2003, Gaussian, Inc.),
 the Gaussian(R) 98 system (copyright 1998, Gaussian, Inc.),
 the Gaussian(R) 94 system (copyright 1995, Gaussian, Inc.),
 the Gaussian 92(TM) system (copyright 1992, Gaussian, Inc.),
 the Gaussian 90(TM) system (copyright 1990, Gaussian, Inc.),
 the Gaussian 88(TM) system (copyright 1988, Gaussian, Inc.),
 the Gaussian 86(TM) system (copyright 1986, Carnegie Mellon
 University), and the Gaussian 82(TM) system (copyright 1983,
 Carnegie Mellon University). Gaussian is a federally registered
 trademark of Gaussian, Inc.
  
 This software contains proprietary and confidential information,
 including trade secrets, belonging to Gaussian, Inc.
  
 This software is provided under written license and may be
 used, copied, transmitted, or stored only in accord with that
 written license.
  
 The following legend is applicable only to US Government
 contracts under FAR:
  
                    RESTRICTED RIGHTS LEGEND
  
 Use, reproduction and disclosure by the US Government is
 subject to restrictions as set forth in subparagraphs (a)
 and (c) of the Commercial Computer Software - Restricted
 Rights clause in FAR 52.227-19.
  
 Gaussian, Inc.
 340 Quinnipiac St., Bldg. 40, Wallingford CT 06492
  
  
 ---------------------------------------------------------------
 Warning -- This program may not be used in any manner that
 competes with the business of Gaussian, Inc. or will provide
 assistance to any competitor of Gaussian, Inc.  The licensee
 of this program is prohibited from giving any competitor of
 Gaussian, Inc. access to this program.  By using this program,
 the user acknowledges that Gaussian, Inc. is engaged in the
 business of creating and licensing software in the field of
 computational chemistry and represents and warrants to the
 licensee that it is not a competitor of Gaussian, Inc. and that
 it will not use this program in any manner prohibited above.
 ---------------------------------------------------------------
  

 Cite this work as:
 Gaussian 16, Revision A.03,
 M. J. Frisch, G. W. Trucks, H. B. Schlegel, G. E. Scuseria, 
 M. A. Robb, J. R. Cheeseman, G. Scalmani, V. Barone, 
 G. A. Petersson, H. Nakatsuji, X. Li, M. Caricato, A. V. Marenich, 
 J. Bloino, B. G. Janesko, R. Gomperts, B. Mennucci, H. P. Hratchian, 
 J. V. Ortiz, A. F. Izmaylov, J. L. Sonnenberg, D. Williams-Young, 
 F. Ding, F. Lipparini, F. Egidi, J. Goings, B. Peng, A. Petrone, 
 T. Henderson, D. Ranasinghe, V. G. Zakrzewski, J. Gao, N. Rega, 
 G. Zheng, W. Liang, M. Hada, M. Ehara, K. Toyota, R. Fukuda, 
 J. Hasegawa, M. Ishida, T. Nakajima, Y. Honda, O. Kitao, H. Nakai, 
 T. Vreven, K. Throssell, J. A. Montgomery, Jr., J. E. Peralta, 
 F. Ogliaro, M. J. Bearpark, J. J. Heyd, E. N. Brothers, K. N. Kudin, 
 V. N. Staroverov, T. A. Keith, R. Kobayashi, J. Normand, 
 K. Raghavachari, A. P. Rendell, J. C. Burant, S. S. Iyengar, 
 J. Tomasi, M. Cossi, J. M. Millam, M. Klene, C. Adamo, R. Cammi, 
 J. W. Ochterski, R. L. Martin, K. Morokuma, O. Farkas, 
 J. B. Foresman, and D. J. Fox, Gaussian, Inc., Wallingford CT, 2016.
 
 ******************************************
 Gaussian 16:  ES64L-G16RevA.03 25-Dec-2016
                24-May-2023 
 ******************************************
 %chk=CCCCCCCCCCqOrCCCqCrC.chk
 %NProcShared=20
 Will use up to   20 processors via shared memory.
 -----------------------------------------------------------------
 # opt freq b3lyp/6-31+g(3df,2p) Geom=AllCheckpoint TD(NStates=10)
 -----------------------------------------------------------------
 1/18=20,19=15,26=3,29=7,38=1/1,3;
 2/9=110,12=2,40=1/2;
 3/5=1,6=6,7=216,11=9,14=-4,25=1,30=1,71=1,74=-5/1,2,3,8;
 4//1;
 5/5=2,38=5/2;
 8/6=1,10=2,108=10/1;
 9/15=2,41=10,42=1,70=2/14;
 10/5=4/2;
 6/7=2,8=2,9=2,10=2/1;
 7/12=6,13=5/1,2,3,16;
 1/18=20,19=15,26=3/3(2);
 2/9=110/2;
 99//99;
 2/9=110/2;
 3/5=1,6=6,7=216,11=9,14=-2,25=1,30=1,71=1,74=-5/1,2,3,8;
 4/5=5,16=3,69=1/1;
 5/5=2,38=5/2;
 8/6=1,10=2,108=10/1;
 9/15=2,41=10,42=1,49=4,70=2/14;
 10/5=4/2;
 7/12=6,13=5/1,2,3,16;
 1/18=20,19=15,26=3/3(-8);
 2/9=110/2;
 6/7=2,8=2,9=2,10=2/1;
 99//99;
 Structure from the checkpoint file:  "CCCCCCCCCCqOrCCCqCrC.chk"
 -------------------
 Title Card Required
 -------------------
 Charge =  0 Multiplicity = 1
 Redundant internal coordinates found in file.  (old form).
 C,0,0.827468276,-0.1173619479,-0.0192828136
 C,0,2.3577549276,-0.073275659,0.0037943757
 C,0,2.9182122332,1.3212886731,0.3032964389
 C,0,4.4493403978,1.374649515,0.3278131572
 C,0,5.009403647,2.7691743585,0.628155171
 C,0,6.5407610852,2.8222469643,0.6516133491
 C,0,7.1013908839,4.2161557539,0.9542526326
 C,0,8.6325683197,4.2662715367,0.9705486878
 C,0,9.1942096046,5.657442433,1.280838365
 C,0,10.725922243,5.7282704472,1.2305312301
 O,0,11.2232324937,5.3218351623,-0.0467127559
 C,0,11.2604478577,7.1118846068,1.6263539922
 C,0,12.7912731278,7.1782720724,1.6695064132
 C,0,13.3798885185,8.5849960821,1.8777415444
 C,0,12.9862049866,9.1955718988,3.2304671939
 C,0,14.9068889399,8.5540493183,1.7256018567
 H,0,0.458145862,-1.1249171854,-0.2352798892
 H,0,0.4234876958,0.5559657004,-0.7836957348
 H,0,0.40790273,0.19109517,0.944933871
 H,0,2.7490757313,-0.4202388375,-0.9618935528
 H,0,2.7336602207,-0.7823978337,0.7534016701
 H,0,2.5264849448,1.6690375877,1.2697408196
 H,0,2.5413477014,2.0316042347,-0.4462528062
 H,0,4.8401811657,1.0271154083,-0.6388952819
 H,0,4.8253524593,0.6636266158,1.076905297
 H,0,4.6191431258,3.1163756655,1.5952652587
 H,0,4.6328627599,3.4804300851,-0.1205160258
 H,0,6.9316591542,2.4769605892,-0.3157132081
 H,0,6.9174195976,2.1099770762,1.3990742809
 H,0,6.7127147036,4.5609026924,1.9230788464
 H,0,6.721844875,4.9291431566,0.2084255613
 H,0,9.0279652977,3.932875015,0.0041635979
 H,0,9.0122662527,3.5518341587,1.7144387909
 H,0,8.8567943188,5.9834937885,2.2737022342
 H,0,8.7855343518,6.3903259912,0.5674697426
 H,0,11.1361812029,4.9806385578,1.9232404554
 H,0,10.8865900253,5.9484263429,-0.6978240196
 H,0,10.8329860555,7.383830303,2.5988378415
 H,0,10.8769899756,7.8528229555,0.9069914398
 H,0,13.1750729703,6.763259608,0.7308060706
 H,0,13.1588956129,6.5154912163,2.466778398
 H,0,12.9772432409,9.2343752178,1.0857468387
 H,0,13.3408946106,8.5687053971,4.0580004854
 H,0,11.9024915979,9.3032201921,3.3351060128
 H,0,13.429185059,10.1892827628,3.3559341644
 H,0,15.3633243046,7.9180200266,2.4937708848
 H,0,15.3380173125,9.5557132658,1.8270807273
 H,0,15.2024975418,8.1569738601,0.7488183909
 Recover connectivity data from disk.

 GradGradGradGradGradGradGradGradGradGradGradGradGradGradGradGradGradGrad
 Berny optimization.
 Initialization pass.
                           ----------------------------
                           !    Initial Parameters    !
                           ! (Angstroms and Degrees)  !
 --------------------------                            --------------------------
 ! Name  Definition              Value          Derivative Info.                !
 --------------------------------------------------------------------------------
 ! R1    R(1,2)                  1.5311         estimate D2E/DX2                !
 ! R2    R(1,17)                 1.0946         estimate D2E/DX2                !
 ! R3    R(1,18)                 1.0959         estimate D2E/DX2                !
 ! R4    R(1,19)                 1.0959         estimate D2E/DX2                !
 ! R5    R(2,3)                  1.5325         estimate D2E/DX2                !
 ! R6    R(2,20)                 1.0982         estimate D2E/DX2                !
 ! R7    R(2,21)                 1.0982         estimate D2E/DX2                !
 ! R8    R(3,4)                  1.5323         estimate D2E/DX2                !
 ! R9    R(3,22)                 1.0993         estimate D2E/DX2                !
 ! R10   R(3,23)                 1.0993         estimate D2E/DX2                !
 ! R11   R(4,5)                  1.5325         estimate D2E/DX2                !
 ! R12   R(4,24)                 1.0991         estimate D2E/DX2                !
 ! R13   R(4,25)                 1.0991         estimate D2E/DX2                !
 ! R14   R(5,6)                  1.5325         estimate D2E/DX2                !
 ! R15   R(5,26)                 1.0992         estimate D2E/DX2                !
 ! R16   R(5,27)                 1.0992         estimate D2E/DX2                !
 ! R17   R(6,7)                  1.5326         estimate D2E/DX2                !
 ! R18   R(6,28)                 1.099          estimate D2E/DX2                !
 ! R19   R(6,29)                 1.099          estimate D2E/DX2                !
 ! R20   R(7,8)                  1.5321         estimate D2E/DX2                !
 ! R21   R(7,30)                 1.0993         estimate D2E/DX2                !
 ! R22   R(7,31)                 1.0994         estimate D2E/DX2                !
 ! R23   R(8,9)                  1.532          estimate D2E/DX2                !
 ! R24   R(8,32)                 1.0961         estimate D2E/DX2                !
 ! R25   R(8,33)                 1.0991         estimate D2E/DX2                !
 ! R26   R(9,10)                 1.5342         estimate D2E/DX2                !
 ! R27   R(9,34)                 1.0982         estimate D2E/DX2                !
 ! R28   R(9,35)                 1.1014         estimate D2E/DX2                !
 ! R29   R(10,11)                1.4296         estimate D2E/DX2                !
 ! R30   R(10,12)                1.5352         estimate D2E/DX2                !
 ! R31   R(10,36)                1.0987         estimate D2E/DX2                !
 ! R32   R(11,37)                0.9643         estimate D2E/DX2                !
 ! R33   R(12,13)                1.5329         estimate D2E/DX2                !
 ! R34   R(12,38)                1.0965         estimate D2E/DX2                !
 ! R35   R(12,39)                1.1016         estimate D2E/DX2                !
 ! R36   R(13,14)                1.5391         estimate D2E/DX2                !
 ! R37   R(13,40)                1.0958         estimate D2E/DX2                !
 ! R38   R(13,41)                1.1            estimate D2E/DX2                !
 ! R39   R(14,15)                1.5355         estimate D2E/DX2                !
 ! R40   R(14,16)                1.5349         estimate D2E/DX2                !
 ! R41   R(14,42)                1.1005         estimate D2E/DX2                !
 ! R42   R(15,43)                1.0971         estimate D2E/DX2                !
 ! R43   R(15,44)                1.0941         estimate D2E/DX2                !
 ! R44   R(15,45)                1.0952         estimate D2E/DX2                !
 ! R45   R(16,46)                1.0968         estimate D2E/DX2                !
 ! R46   R(16,47)                1.0952         estimate D2E/DX2                !
 ! R47   R(16,48)                1.0951         estimate D2E/DX2                !
 ! A1    A(2,1,17)             111.5118         estimate D2E/DX2                !
 ! A2    A(2,1,18)             111.1783         estimate D2E/DX2                !
 ! A3    A(2,1,19)             111.1799         estimate D2E/DX2                !
 ! A4    A(17,1,18)            107.6699         estimate D2E/DX2                !
 ! A5    A(17,1,19)            107.6697         estimate D2E/DX2                !
 ! A6    A(18,1,19)            107.4377         estimate D2E/DX2                !
 ! A7    A(1,2,3)              113.245          estimate D2E/DX2                !
 ! A8    A(1,2,20)             109.4988         estimate D2E/DX2                !
 ! A9    A(1,2,21)             109.4998         estimate D2E/DX2                !
 ! A10   A(3,2,20)             109.2099         estimate D2E/DX2                !
 ! A11   A(3,2,21)             109.2085         estimate D2E/DX2                !
 ! A12   A(20,2,21)            105.9165         estimate D2E/DX2                !
 ! A13   A(2,3,4)              113.5943         estimate D2E/DX2                !
 ! A14   A(2,3,22)             109.2301         estimate D2E/DX2                !
 ! A15   A(2,3,23)             109.2304         estimate D2E/DX2                !
 ! A16   A(4,3,22)             109.3299         estimate D2E/DX2                !
 ! A17   A(4,3,23)             109.3286         estimate D2E/DX2                !
 ! A18   A(22,3,23)            105.8362         estimate D2E/DX2                !
 ! A19   A(3,4,5)              113.579          estimate D2E/DX2                !
 ! A20   A(3,4,24)             109.2839         estimate D2E/DX2                !
 ! A21   A(3,4,25)             109.2825         estimate D2E/DX2                !
 ! A22   A(5,4,24)             109.2774         estimate D2E/DX2                !
 ! A23   A(5,4,25)             109.2726         estimate D2E/DX2                !
 ! A24   A(24,4,25)            105.8569         estimate D2E/DX2                !
 ! A25   A(4,5,6)              113.5599         estimate D2E/DX2                !
 ! A26   A(4,5,26)             109.2759         estimate D2E/DX2                !
 ! A27   A(4,5,27)             109.2774         estimate D2E/DX2                !
 ! A28   A(6,5,26)             109.2925         estimate D2E/DX2                !
 ! A29   A(6,5,27)             109.2893         estimate D2E/DX2                !
 ! A30   A(26,5,27)            105.8587         estimate D2E/DX2                !
 ! A31   A(5,6,7)              113.582          estimate D2E/DX2                !
 ! A32   A(5,6,28)             109.3346         estimate D2E/DX2                !
 ! A33   A(5,6,29)             109.2952         estimate D2E/DX2                !
 ! A34   A(7,6,28)             109.2357         estimate D2E/DX2                !
 ! A35   A(7,6,29)             109.2547         estimate D2E/DX2                !
 ! A36   A(28,6,29)            105.8493         estimate D2E/DX2                !
 ! A37   A(6,7,8)              113.418          estimate D2E/DX2                !
 ! A38   A(6,7,30)             109.2632         estimate D2E/DX2                !
 ! A39   A(6,7,31)             109.2439         estimate D2E/DX2                !
 ! A40   A(8,7,30)             109.4943         estimate D2E/DX2                !
 ! A41   A(8,7,31)             109.3313         estimate D2E/DX2                !
 ! A42   A(30,7,31)            105.8087         estimate D2E/DX2                !
 ! A43   A(7,8,9)              113.4684         estimate D2E/DX2                !
 ! A44   A(7,8,32)             109.9498         estimate D2E/DX2                !
 ! A45   A(7,8,33)             109.3418         estimate D2E/DX2                !
 ! A46   A(9,8,32)             108.8161         estimate D2E/DX2                !
 ! A47   A(9,8,33)             109.0589         estimate D2E/DX2                !
 ! A48   A(32,8,33)            105.9262         estimate D2E/DX2                !
 ! A49   A(8,9,10)             113.6592         estimate D2E/DX2                !
 ! A50   A(8,9,34)             109.8823         estimate D2E/DX2                !
 ! A51   A(8,9,35)             109.6963         estimate D2E/DX2                !
 ! A52   A(10,9,34)            108.8265         estimate D2E/DX2                !
 ! A53   A(10,9,35)            108.5725         estimate D2E/DX2                !
 ! A54   A(34,9,35)            105.9039         estimate D2E/DX2                !
 ! A55   A(9,10,11)            111.3135         estimate D2E/DX2                !
 ! A56   A(9,10,12)            112.382          estimate D2E/DX2                !
 ! A57   A(9,10,36)            108.7064         estimate D2E/DX2                !
 ! A58   A(11,10,12)           111.4357         estimate D2E/DX2                !
 ! A59   A(11,10,36)           103.8826         estimate D2E/DX2                !
 ! A60   A(12,10,36)           108.7064         estimate D2E/DX2                !
 ! A61   A(10,11,37)           107.2817         estimate D2E/DX2                !
 ! A62   A(10,12,13)           113.2043         estimate D2E/DX2                !
 ! A63   A(10,12,38)           108.4484         estimate D2E/DX2                !
 ! A64   A(10,12,39)           108.4591         estimate D2E/DX2                !
 ! A65   A(13,12,38)           110.7076         estimate D2E/DX2                !
 ! A66   A(13,12,39)           109.687          estimate D2E/DX2                !
 ! A67   A(38,12,39)           106.0595         estimate D2E/DX2                !
 ! A68   A(12,13,14)           115.1719         estimate D2E/DX2                !
 ! A69   A(12,13,40)           108.0153         estimate D2E/DX2                !
 ! A70   A(12,13,41)           109.1508         estimate D2E/DX2                !
 ! A71   A(14,13,40)           109.1551         estimate D2E/DX2                !
 ! A72   A(14,13,41)           108.9553         estimate D2E/DX2                !
 ! A73   A(40,13,41)           105.9999         estimate D2E/DX2                !
 ! A74   A(13,14,15)           112.6187         estimate D2E/DX2                !
 ! A75   A(13,14,16)           110.4048         estimate D2E/DX2                !
 ! A76   A(13,14,42)           107.5803         estimate D2E/DX2                !
 ! A77   A(15,14,16)           110.5131         estimate D2E/DX2                !
 ! A78   A(15,14,42)           107.7925         estimate D2E/DX2                !
 ! A79   A(16,14,42)           107.7319         estimate D2E/DX2                !
 ! A80   A(14,15,43)           110.7583         estimate D2E/DX2                !
 ! A81   A(14,15,44)           112.1699         estimate D2E/DX2                !
 ! A82   A(14,15,45)           110.979          estimate D2E/DX2                !
 ! A83   A(43,15,44)           107.7175         estimate D2E/DX2                !
 ! A84   A(43,15,45)           107.5338         estimate D2E/DX2                !
 ! A85   A(44,15,45)           107.4828         estimate D2E/DX2                !
 ! A86   A(14,16,46)           110.8725         estimate D2E/DX2                !
 ! A87   A(14,16,47)           111.3462         estimate D2E/DX2                !
 ! A88   A(14,16,48)           111.3639         estimate D2E/DX2                !
 ! A89   A(46,16,47)           107.5569         estimate D2E/DX2                !
 ! A90   A(46,16,48)           107.5847         estimate D2E/DX2                !
 ! A91   A(47,16,48)           107.9398         estimate D2E/DX2                !
 ! D1    D(17,1,2,3)          -179.9962         estimate D2E/DX2                !
 ! D2    D(17,1,2,20)           57.8644         estimate D2E/DX2                !
 ! D3    D(17,1,2,21)          -57.858          estimate D2E/DX2                !
 ! D4    D(18,1,2,3)            59.8317         estimate D2E/DX2                !
 ! D5    D(18,1,2,20)          -62.3076         estimate D2E/DX2                !
 ! D6    D(18,1,2,21)         -178.0301         estimate D2E/DX2                !
 ! D7    D(19,1,2,3)           -59.8233         estimate D2E/DX2                !
 ! D8    D(19,1,2,20)          178.0374         estimate D2E/DX2                !
 ! D9    D(19,1,2,21)           62.3149         estimate D2E/DX2                !
 ! D10   D(1,2,3,4)           -179.979          estimate D2E/DX2                !
 ! D11   D(1,2,3,22)            57.6836         estimate D2E/DX2                !
 ! D12   D(1,2,3,23)           -57.643          estimate D2E/DX2                !
 ! D13   D(20,2,3,4)           -57.6786         estimate D2E/DX2                !
 ! D14   D(20,2,3,22)          179.9839         estimate D2E/DX2                !
 ! D15   D(20,2,3,23)           64.6574         estimate D2E/DX2                !
 ! D16   D(21,2,3,4)            57.7205         estimate D2E/DX2                !
 ! D17   D(21,2,3,22)          -64.6169         estimate D2E/DX2                !
 ! D18   D(21,2,3,23)         -179.9435         estimate D2E/DX2                !
 ! D19   D(2,3,4,5)           -179.966          estimate D2E/DX2                !
 ! D20   D(2,3,4,24)            57.7353         estimate D2E/DX2                !
 ! D21   D(2,3,4,25)           -57.6744         estimate D2E/DX2                !
 ! D22   D(22,3,4,5)           -57.6838         estimate D2E/DX2                !
 ! D23   D(22,3,4,24)         -179.9825         estimate D2E/DX2                !
 ! D24   D(22,3,4,25)           64.6078         estimate D2E/DX2                !
 ! D25   D(23,3,4,5)            57.7523         estimate D2E/DX2                !
 ! D26   D(23,3,4,24)          -64.5464         estimate D2E/DX2                !
 ! D27   D(23,3,4,25)         -179.9561         estimate D2E/DX2                !
 ! D28   D(3,4,5,6)           -179.9601         estimate D2E/DX2                !
 ! D29   D(3,4,5,26)            57.7407         estimate D2E/DX2                !
 ! D30   D(3,4,5,27)           -57.6639         estimate D2E/DX2                !
 ! D31   D(24,4,5,6)           -57.6578         estimate D2E/DX2                !
 ! D32   D(24,4,5,26)         -179.957          estimate D2E/DX2                !
 ! D33   D(24,4,5,27)           64.6385         estimate D2E/DX2                !
 ! D34   D(25,4,5,6)            57.7428         estimate D2E/DX2                !
 ! D35   D(25,4,5,26)          -64.5564         estimate D2E/DX2                !
 ! D36   D(25,4,5,27)         -179.9609         estimate D2E/DX2                !
 ! D37   D(4,5,6,7)           -179.9033         estimate D2E/DX2                !
 ! D38   D(4,5,6,28)            57.8123         estimate D2E/DX2                !
 ! D39   D(4,5,6,29)           -57.6234         estimate D2E/DX2                !
 ! D40   D(26,5,6,7)           -57.6132         estimate D2E/DX2                !
 ! D41   D(26,5,6,28)         -179.8976         estimate D2E/DX2                !
 ! D42   D(26,5,6,29)           64.6666         estimate D2E/DX2                !
 ! D43   D(27,5,6,7)            57.8071         estimate D2E/DX2                !
 ! D44   D(27,5,6,28)          -64.4773         estimate D2E/DX2                !
 ! D45   D(27,5,6,29)         -179.913          estimate D2E/DX2                !
 ! D46   D(5,6,7,8)           -179.7398         estimate D2E/DX2                !
 ! D47   D(5,6,7,30)            57.8077         estimate D2E/DX2                !
 ! D48   D(5,6,7,31)           -57.5117         estimate D2E/DX2                !
 ! D49   D(28,6,7,8)           -57.4008         estimate D2E/DX2                !
 ! D50   D(28,6,7,30)         -179.8532         estimate D2E/DX2                !
 ! D51   D(28,6,7,31)           64.8274         estimate D2E/DX2                !
 ! D52   D(29,6,7,8)            57.9579         estimate D2E/DX2                !
 ! D53   D(29,6,7,30)          -64.4946         estimate D2E/DX2                !
 ! D54   D(29,6,7,31)         -179.8139         estimate D2E/DX2                !
 ! D55   D(6,7,8,9)           -179.6717         estimate D2E/DX2                !
 ! D56   D(6,7,8,32)            58.2111         estimate D2E/DX2                !
 ! D57   D(6,7,8,33)           -57.6881         estimate D2E/DX2                !
 ! D58   D(30,7,8,9)           -57.3474         estimate D2E/DX2                !
 ! D59   D(30,7,8,32)         -179.4646         estimate D2E/DX2                !
 ! D60   D(30,7,8,33)           64.6362         estimate D2E/DX2                !
 ! D61   D(31,7,8,9)            58.1487         estimate D2E/DX2                !
 ! D62   D(31,7,8,32)          -63.9686         estimate D2E/DX2                !
 ! D63   D(31,7,8,33)         -179.8677         estimate D2E/DX2                !
 ! D64   D(7,8,9,10)          -177.1647         estimate D2E/DX2                !
 ! D65   D(7,8,9,34)            60.6206         estimate D2E/DX2                !
 ! D66   D(7,8,9,35)           -55.4172         estimate D2E/DX2                !
 ! D67   D(32,8,9,10)          -54.4198         estimate D2E/DX2                !
 ! D68   D(32,8,9,34)         -176.6344         estimate D2E/DX2                !
 ! D69   D(32,8,9,35)           67.3278         estimate D2E/DX2                !
 ! D70   D(33,8,9,10)           60.6944         estimate D2E/DX2                !
 ! D71   D(33,8,9,34)          -61.5203         estimate D2E/DX2                !
 ! D72   D(33,8,9,35)         -177.558          estimate D2E/DX2                !
 ! D73   D(8,9,10,11)           57.583          estimate D2E/DX2                !
 ! D74   D(8,9,10,12)         -176.6201         estimate D2E/DX2                !
 ! D75   D(8,9,10,36)          -56.2469         estimate D2E/DX2                !
 ! D76   D(34,9,10,11)        -179.6204         estimate D2E/DX2                !
 ! D77   D(34,9,10,12)         -53.8235         estimate D2E/DX2                !
 ! D78   D(34,9,10,36)          66.5498         estimate D2E/DX2                !
 ! D79   D(35,9,10,11)         -64.7872         estimate D2E/DX2                !
 ! D80   D(35,9,10,12)          61.0097         estimate D2E/DX2                !
 ! D81   D(35,9,10,36)        -178.617          estimate D2E/DX2                !
 ! D82   D(9,10,11,37)          62.9615         estimate D2E/DX2                !
 ! D83   D(12,10,11,37)        -63.3581         estimate D2E/DX2                !
 ! D84   D(36,10,11,37)        179.7727         estimate D2E/DX2                !
 ! D85   D(9,10,12,13)         176.314          estimate D2E/DX2                !
 ! D86   D(9,10,12,38)          53.0448         estimate D2E/DX2                !
 ! D87   D(9,10,12,39)         -61.7136         estimate D2E/DX2                !
 ! D88   D(11,10,12,13)        -57.9555         estimate D2E/DX2                !
 ! D89   D(11,10,12,38)        178.7753         estimate D2E/DX2                !
 ! D90   D(11,10,12,39)         64.0169         estimate D2E/DX2                !
 ! D91   D(36,10,12,13)         55.9406         estimate D2E/DX2                !
 ! D92   D(36,10,12,38)        -67.3285         estimate D2E/DX2                !
 ! D93   D(36,10,12,39)        177.9131         estimate D2E/DX2                !
 ! D94   D(10,12,13,14)        172.2561         estimate D2E/DX2                !
 ! D95   D(10,12,13,40)         49.974          estimate D2E/DX2                !
 ! D96   D(10,12,13,41)        -64.8458         estimate D2E/DX2                !
 ! D97   D(38,12,13,14)        -65.7293         estimate D2E/DX2                !
 ! D98   D(38,12,13,40)        171.9886         estimate D2E/DX2                !
 ! D99   D(38,12,13,41)         57.1689         estimate D2E/DX2                !
 ! D100  D(39,12,13,14)         50.973          estimate D2E/DX2                !
 ! D101  D(39,12,13,40)        -71.309          estimate D2E/DX2                !
 ! D102  D(39,12,13,41)        173.8712         estimate D2E/DX2                !
 ! D103  D(12,13,14,15)         63.128          estimate D2E/DX2                !
 ! D104  D(12,13,14,16)       -172.8147         estimate D2E/DX2                !
 ! D105  D(12,13,14,42)        -55.5091         estimate D2E/DX2                !
 ! D106  D(40,13,14,15)       -175.2039         estimate D2E/DX2                !
 ! D107  D(40,13,14,16)        -51.1466         estimate D2E/DX2                !
 ! D108  D(40,13,14,42)         66.1591         estimate D2E/DX2                !
 ! D109  D(41,13,14,15)        -59.8743         estimate D2E/DX2                !
 ! D110  D(41,13,14,16)         64.183          estimate D2E/DX2                !
 ! D111  D(41,13,14,42)       -178.5114         estimate D2E/DX2                !
 ! D112  D(13,14,15,43)         59.9011         estimate D2E/DX2                !
 ! D113  D(13,14,15,44)        -60.4888         estimate D2E/DX2                !
 ! D114  D(13,14,15,45)        179.2676         estimate D2E/DX2                !
 ! D115  D(16,14,15,43)        -64.0964         estimate D2E/DX2                !
 ! D116  D(16,14,15,44)        175.5138         estimate D2E/DX2                !
 ! D117  D(16,14,15,45)         55.2701         estimate D2E/DX2                !
 ! D118  D(42,14,15,43)        178.4139         estimate D2E/DX2                !
 ! D119  D(42,14,15,44)         58.0241         estimate D2E/DX2                !
 ! D120  D(42,14,15,45)        -62.2196         estimate D2E/DX2                !
 ! D121  D(13,14,16,46)        -62.7974         estimate D2E/DX2                !
 ! D122  D(13,14,16,47)        177.4907         estimate D2E/DX2                !
 ! D123  D(13,14,16,48)         56.9614         estimate D2E/DX2                !
 ! D124  D(15,14,16,46)         62.4638         estimate D2E/DX2                !
 ! D125  D(15,14,16,47)        -57.2482         estimate D2E/DX2                !
 ! D126  D(15,14,16,48)       -177.7775         estimate D2E/DX2                !
 ! D127  D(42,14,16,46)        179.9907         estimate D2E/DX2                !
 ! D128  D(42,14,16,47)         60.2788         estimate D2E/DX2                !
 ! D129  D(42,14,16,48)        -60.2505         estimate D2E/DX2                !
 --------------------------------------------------------------------------------
 Trust Radius=3.00D-01 FncErr=1.00D-07 GrdErr=1.00D-06 EigMax=2.50D+02 EigMin=1.00D-04
 Number of steps in this run=    277 maximum allowed number of steps=    288.
 GradGradGradGradGradGradGradGradGradGradGradGradGradGradGradGradGradGrad

                          Input orientation:                          
 ---------------------------------------------------------------------
 Center     Atomic      Atomic             Coordinates (Angstroms)
 Number     Number       Type             X           Y           Z
 ---------------------------------------------------------------------
      1          6           0        0.827468   -0.117362   -0.019283
      2          6           0        2.357755   -0.073276    0.003794
      3          6           0        2.918212    1.321289    0.303296
      4          6           0        4.449340    1.374650    0.327813
      5          6           0        5.009404    2.769174    0.628155
      6          6           0        6.540761    2.822247    0.651613
      7          6           0        7.101391    4.216156    0.954253
      8          6           0        8.632568    4.266272    0.970549
      9          6           0        9.194210    5.657442    1.280838
     10          6           0       10.725922    5.728270    1.230531
     11          8           0       11.223232    5.321835   -0.046713
     12          6           0       11.260448    7.111885    1.626354
     13          6           0       12.791273    7.178272    1.669506
     14          6           0       13.379889    8.584996    1.877742
     15          6           0       12.986205    9.195572    3.230467
     16          6           0       14.906889    8.554049    1.725602
     17          1           0        0.458146   -1.124917   -0.235280
     18          1           0        0.423488    0.555966   -0.783696
     19          1           0        0.407903    0.191095    0.944934
     20          1           0        2.749076   -0.420239   -0.961894
     21          1           0        2.733660   -0.782398    0.753402
     22          1           0        2.526485    1.669038    1.269741
     23          1           0        2.541348    2.031604   -0.446253
     24          1           0        4.840181    1.027115   -0.638895
     25          1           0        4.825352    0.663627    1.076905
     26          1           0        4.619143    3.116376    1.595265
     27          1           0        4.632863    3.480430   -0.120516
     28          1           0        6.931659    2.476961   -0.315713
     29          1           0        6.917420    2.109977    1.399074
     30          1           0        6.712715    4.560903    1.923079
     31          1           0        6.721845    4.929143    0.208426
     32          1           0        9.027965    3.932875    0.004164
     33          1           0        9.012266    3.551834    1.714439
     34          1           0        8.856794    5.983494    2.273702
     35          1           0        8.785534    6.390326    0.567470
     36          1           0       11.136181    4.980639    1.923240
     37          1           0       10.886590    5.948426   -0.697824
     38          1           0       10.832986    7.383830    2.598838
     39          1           0       10.876990    7.852823    0.906991
     40          1           0       13.175073    6.763260    0.730806
     41          1           0       13.158896    6.515491    2.466778
     42          1           0       12.977243    9.234375    1.085747
     43          1           0       13.340895    8.568705    4.058000
     44          1           0       11.902492    9.303220    3.335106
     45          1           0       13.429185   10.189283    3.355934
     46          1           0       15.363324    7.918020    2.493771
     47          1           0       15.338017    9.555713    1.827081
     48          1           0       15.202498    8.156974    0.748818
 ---------------------------------------------------------------------
                    Distance matrix (angstroms):
                    1          2          3          4          5
     1  C    0.000000
     2  C    1.531095   0.000000
     3  C    2.558316   1.532522   0.000000
     4  C    3.932497   2.564411   1.532254   0.000000
     5  C    5.122485   3.937079   2.564174   1.532506   0.000000
     6  C    6.460117   5.128476   3.936631   2.564064   1.532456
     7  C    7.686953   6.465653   5.128643   3.936998   2.564470
     8  C    9.006420   7.690225   6.463127   5.125815   3.935207
     9  C   10.248953   9.011608   7.690641   6.462535   5.126469
    10  C   11.563427  10.256171   9.013412   7.691839   6.465113
    11  O   11.732755  10.378172   9.224979   7.848959   6.751533
    12  C   12.799109  11.554963  10.240819   8.999626   7.676659
    13  C   14.114210  12.814751  11.560628  10.250367   9.004557
    14  C   15.391328  14.140890  12.833043  11.582144  10.268898
    15  C   15.656516  14.466752  13.112480  11.936092  10.568821
    16  C   16.627329  15.325669  14.073527  12.761580  11.516483
    17  H    1.094633   2.184404   3.510828   4.742841   6.051728
    18  H    1.095855   2.181164   2.826822   4.255959   5.284150
    19  H    1.095853   2.181183   2.826781   4.256155   5.284000
    20  H    2.161672   1.098212   2.159220   2.788524   4.220153
    21  H    2.161685   1.098212   2.159201   2.788824   4.219995
    22  H    2.781989   2.160265   1.099270   2.161311   2.790487
    23  H    2.781680   2.160270   1.099272   2.161297   2.790997
    24  H    4.218485   2.790403   2.160608   1.099119   2.160746
    25  H    4.218370   2.789916   2.160596   1.099126   2.160690
    26  H    5.238380   4.221437   2.790105   2.160759   1.099161
    27  H    5.237880   4.221421   2.789540   2.160785   1.099171
    28  H    6.639241   5.246560   4.222145   2.791258   2.161329
    29  H    6.637792   5.244420   4.220950   2.789215   2.160875
    30  H    7.764989   6.642660   5.245669   4.221368   2.790768
    31  H    7.762908   6.641638   5.243399   4.220540   2.788206
    32  H    9.146208   7.780806   6.651236   5.254814   4.229941
    33  H    9.135629   7.768542   6.641096   5.242438   4.220838
    34  H   10.341581   9.169212   7.802911   6.667352   5.276560
    35  H   10.296849   9.133029   7.758247   6.634533   5.232168
    36  H   11.663300  10.309563   9.140573   7.762885   6.641176
    37  H   11.766059  10.463947   9.268640   7.963011   6.812282
    38  H   12.776260  11.583273  10.230717   9.056420   7.687181
    39  H   12.859810  11.671168  10.313464   9.144225   7.768514
    40  H   14.155173  12.817220  11.618993  10.263427   9.090732
    41  H   14.221088  12.889638  11.684690  10.337300   9.155853
    42  H   15.371828  14.162504  12.822374  11.622172  10.271060
    43  H   15.768888  14.551625  13.238397  12.030315  10.715043
    44  H   14.921643  13.788340  12.394369  11.289619   9.876032
    45  H   16.625952  15.463942  14.086890  12.942368  11.549524
    46  H   16.798033  15.466274  14.254678  12.908219  11.713019
    47  H   17.536632  16.264348  14.979293  13.701857  12.416714
    48  H   16.604098  15.273489  14.065161  12.720360  11.530052
                    6          7          8          9         10
     6  C    0.000000
     7  C    1.532605   0.000000
     8  C    2.561754   1.532084   0.000000
     9  C    3.933834   2.562002   1.532017   0.000000
    10  C    5.127933   3.937010   2.566547   1.534174   0.000000
    11  O    5.353610   4.383382   2.976672   2.447848   1.429636
    12  C    6.451864   5.112213   3.928530   2.550318   1.535181
    13  C    7.686349   6.454493   5.124755   3.924647   2.561421
    14  C    9.026978   7.704488   6.481622   5.142642   3.952632
    15  C    9.424092   8.037834   6.954091   5.540635   4.596825
    16  C   10.197995   8.963152   7.636900   6.420502   5.070562
    17  H    7.305128   8.606669   9.866110  11.163235  12.431493
    18  H    6.679609   7.811008   9.177840  10.354368  11.702564
    19  H    6.679891   7.810505   9.178935  10.353404  11.713386
    20  H    5.243472   6.641567   7.766157   9.138261  10.307326
    21  H    5.243838   6.641005   7.767453   9.137200  10.319530
    22  H    4.222131   5.245675   6.642243   7.769559   9.149299
    23  H    4.222053   5.246682   6.641087   7.771108   9.135875
    24  H    2.789244   4.221513   5.240672   6.639493   7.761286
    25  H    2.789828   4.220884   5.242638   6.638275   7.777592
    26  H    2.160927   2.789618   4.221388   5.242816   6.651900
    27  H    2.160894   2.791066   4.219670   5.244908   6.633513
    28  H    1.098974   2.160190   2.783738   4.217058   5.230518
    29  H    1.099044   2.160486   2.788364   4.216902   5.255963
    30  H    2.160814   1.099338   2.163321   2.787954   4.236532
    31  H    2.160606   1.099393   2.161272   2.791608   4.209031
    32  H    2.799798   2.166704   1.096080   2.152131   2.758710
    33  H    2.787514   2.161169   1.099074   2.157475   2.812056
    34  H    4.241304   2.818842   2.167334   1.098152   2.155686
    35  H    4.216311   2.777221   2.167367   1.101376   2.154779
    36  H    5.233887   4.219349   2.772367   2.154530   1.098686
    37  H    5.520888   4.478599   3.270126   2.619910   1.947521
    38  H    6.559186   5.163683   4.148775   2.720869   2.150489
    39  H    6.646412   5.242397   4.231409   2.791273   2.154350
    40  H    7.716991   6.589938   5.189102   4.168050   2.705414
    41  H    7.793239   6.653423   5.271179   4.226279   2.840314
    42  H    9.095722   7.728225   6.600873   5.209976   4.169194
    43  H    9.532422   8.216407   7.086017   5.777809   4.785471
    44  H    8.829060   7.388996   6.454021   4.984627   4.312055
    45  H   10.442076   9.027032   7.986217   6.540536   5.632548
    46  H   10.353650   9.183325   7.807596   6.681272   5.281692
    47  H   11.140602   9.854680   8.583408   7.296662   6.023007
    48  H   10.173222   9.011114   7.638763   6.529183   5.115699
                   11         12         13         14         15
    11  O    0.000000
    12  C    2.450472   0.000000
    13  C    2.974982   1.532872   0.000000
    14  C    4.359233   2.593315   1.539059   0.000000
    15  C    5.371575   3.145341   2.558143   1.535466   0.000000
    16  C    5.211299   3.922527   2.524231   1.534873   2.522934
    17  H   12.549234  13.711321  14.989236  16.300881  16.597475
    18  H   11.827559  12.892948  14.242024  15.473102  15.766362
    19  H   12.011628  12.889507  14.237047  15.479022  15.637070
    20  H   10.277174  11.656559  12.864966  14.218719  14.657371
    21  H   10.486881  11.652804  12.859514  14.225132  14.519312
    22  H    9.524148  10.297275  11.656644  12.883964  13.034528
    23  H    9.293028  10.301828  11.663001  12.877184  13.188470
    24  H    7.716129   9.131024  10.314325  11.678254  12.167718
    25  H    7.993391   9.126466  10.307651  11.686296  12.001310
    26  H    7.153610   7.750612   9.126238  10.331324  10.470828
    27  H    6.843186   7.756539   9.134434  10.322795  10.661626
    28  H    5.155897   6.632689   7.770361   9.148716   9.714559
    29  H    5.562945   6.628169   7.762918   9.160704   9.507356
    30  H    4.980348   5.222780   6.622975   7.787592   7.908609
    31  H    4.525682   5.231998   6.635608   7.776980   8.159495
    32  H    2.598268   4.209701   5.241036   6.640163   7.332985
    33  H    3.335106   4.211418   5.237744   6.665997   7.066987
    34  H    3.379667   2.733107   4.156040   5.232875   5.318353
    35  H    2.731532   2.786948   4.228627   5.257516   5.710218
    36  H    2.001177   2.155410   2.762843   4.245902   4.785091
    37  H    0.964308   2.625873   3.277894   4.449896   5.512151
    38  H    3.376841   1.096541   2.177338   2.906801   2.884045
    39  H    2.726781   1.101595   2.168162   2.782613   3.413254
    40  H    2.547925   2.142273   1.095763   2.162437   3.492867
    41  H    3.389579   2.160116   1.100031   2.163019   2.792109
    42  H    4.434748   2.782914   2.145442   1.100487   2.145090
    43  H    5.645824   3.516176   2.817852   2.180668   1.097077
    44  H    5.267781   2.852018   2.842457   2.196010   1.094062
    45  H    6.335320   4.143096   3.509581   2.182022   1.095187
    46  H    5.507685   4.270347   2.800373   2.181368   2.797420
    47  H    6.194213   4.758063   3.487544   2.186121   2.762285
    48  H    4.950296   4.171575   2.760349   2.186224   3.485573
                   16         17         18         19         20
    16  C    0.000000
    17  H   17.501246   0.000000
    18  H   16.734241   1.768425   0.000000
    19  H   16.756164   1.768422   1.766786   0.000000
    20  H   15.348384   2.504576   2.528456   3.080716   0.000000
    21  H   15.372115   2.504551   3.080711   2.528541   1.753178
    22  H   14.173412   3.788047   3.142949   2.603498   3.065096
    23  H   14.147998   3.787858   2.603211   3.142366   2.514075
    24  H   12.790003   4.898610   4.444112   4.780433   2.563569
    25  H   12.818618   4.898287   4.780151   4.444611   3.105220
    26  H   11.637139   6.217183   5.460648   5.168631   4.748037
    27  H   11.606265   6.216965   5.168282   5.459413   4.412685
    28  H   10.232412   7.408533   6.801877   7.026650   5.128871
    29  H   10.269582   7.406610   7.024997   6.801629   5.417680
    30  H    9.117495   8.723915   7.932246   7.733217   6.988939
    31  H    9.079467   8.722525   7.731642   7.928266   6.765237
    32  H    7.673353   9.953914   9.276922   9.444122   7.701125
    33  H    7.731032   9.942152   9.433081   9.269400   7.884648
    34  H    6.596349  11.285468  10.484579  10.329631   9.422372
    35  H    6.594994  11.245830  10.285389  10.428694   9.228303
    36  H    5.198708  12.488293  11.902396  11.789519  10.384460
    37  H    5.368898  12.609464  11.771258  12.068488  10.336768
    38  H    4.327660  13.713800  12.900346  12.773144  11.786938
    39  H    4.171562  13.800613  12.859948  12.973253  11.747309
    40  H    2.682486  14.995896  14.262789  14.361053  12.773774
    41  H    2.785775  15.066055  14.431637  14.314392  12.970138
    42  H    2.143779  16.303001  15.375513  15.485124  14.213367
    43  H    2.809384  16.684238  15.953226  15.720618  14.771157
    44  H    3.489723  15.889202  15.008215  14.861673  14.028360
    45  H    2.741456  17.582827  16.705852  16.593085  15.661109
    46  H    1.096791  17.646155  16.974697  16.904700  15.510881
    47  H    1.095217  18.432031  17.614051  17.646036  16.302744
    48  H    1.095061  17.450440  16.689609  16.803979  15.217846
                   21         22         23         24         25
    21  H    0.000000
    22  H    2.513775   0.000000
    23  H    3.065088   1.753941   0.000000
    24  H    3.106487   3.067270   2.516097   0.000000
    25  H    2.563361   2.516511   3.067255   1.753943   0.000000
    26  H    4.411827   2.565146   3.108337   3.066813   2.515392
    27  H    4.747884   3.106571   2.565080   2.516039   3.066798
    28  H    5.421219   4.750996   4.414773   2.565303   3.108713
    29  H    5.127043   4.414914   4.749882   3.104968   2.563682
    30  H    6.764014   5.129742   5.423227   4.749500   4.412132
    31  H    6.987440   5.418092   5.128440   4.414117   4.748218
    32  H    7.900217   6.999707   6.774505   5.137558   5.431456
    33  H    7.689607   6.768164   6.989454   5.414673   5.126250
    34  H    9.251020   7.726273   7.930981   7.012995   6.781286
    35  H    9.386571   7.871432   7.682184   6.766473   6.981236
    36  H   10.255899   9.247737   9.390552   7.863492   7.692817
    37  H   10.671472   9.595615   9.222139   7.796271   8.235130
    38  H   11.648691  10.169725  10.328125   9.316891   9.141612
    39  H   11.870318  10.397198  10.256744   9.242462   9.398709
    40  H   12.882568  11.816682  11.698297  10.210282  10.346165
    41  H   12.840575  11.746028  11.887948  10.438797  10.277354
    42  H   14.330987  12.902966  12.772425  11.685259  11.828404
    43  H   14.521602  13.127500  13.403440  12.296281  11.995485
    44  H   13.872720  12.266050  12.442109  11.582868  11.394207
    45  H   15.541725  13.993415  14.126194  13.178580  13.036795
    46  H   15.434849  14.329427  14.411687  12.962820  12.871775
    47  H   16.337048  15.054755  15.017823  13.748548  13.789420
    48  H   15.342239  14.249420  14.115703  12.654574  12.804024
                   26         27         28         29         30
    26  H    0.000000
    27  H    1.754032   0.000000
    28  H    3.067315   2.515853   0.000000
    29  H    2.516625   3.067001   1.753675   0.000000
    30  H    2.564598   3.109580   3.066422   2.514661   0.000000
    31  H    3.103354   2.563361   2.516335   3.066528   1.753773
    32  H    4.757729   4.420088   2.572257   3.118194   3.071977
    33  H    4.416261   4.748824   3.099322   2.562575   2.519859
    34  H    5.161233   5.462528   4.765185   4.419308   2.596879
    35  H    5.397586   5.117177   4.419422   4.743712   3.079131
    36  H    6.786371   6.980023   5.381387   5.129659   4.443336
    37  H    7.249804   6.747844   5.276226   5.906352   5.120116
    38  H    7.604615   7.814918   6.913200   6.677172   5.040060
    39  H    7.878344   7.691730   6.779420   6.992898   5.404661
    40  H    9.340824   9.190815   7.645115   7.826739   6.930654
    41  H    9.232600   9.412700   7.926567   7.713921   6.757905
    42  H   10.370505  10.207431   9.174739   9.358242   7.860457
    43  H   10.576479  10.916976   9.864939   9.489262   8.034497
    44  H    9.713457   9.934471   9.199754   8.963365   7.170577
    45  H   11.434282  11.596107  10.732136  10.559715   8.879342
    46  H   11.802565  11.902500  10.420715  10.308493   9.296718
    47  H   12.506521  12.462044  11.196748  11.248495   9.967607
    48  H   11.752936  11.590642  10.089725  10.277720   9.294462
                   31         32         33         34         35
    31  H    0.000000
    32  H    2.520410   0.000000
    33  H    3.067749   1.752278   0.000000
    34  H    3.151989   3.063518   2.499983   0.000000
    35  H    2.553974   2.532815   3.069850   1.755511   0.000000
    36  H    4.735991   3.037308   2.568286   2.514786   3.057920
    37  H    4.382388   2.830145   3.882751   3.598787   2.492123
    38  H    5.351733   4.679693   4.333749   2.443765   3.050503
    39  H    5.128463   4.427187   4.756855   3.073025   2.574560
    40  H    6.729117   5.073223   5.348808   4.651461   4.408379
    41  H    7.003733   5.458843   5.152069   4.339168   4.769626
    42  H    7.644261   6.698696   6.957555   5.381224   5.091920
    43  H    8.478058   7.518369   7.028393   5.474869   6.138440
    44  H    7.466444   6.942527   6.637651   4.628545   5.085291
    45  H    9.086489   8.351511   8.139988   6.306080   6.615973
    46  H    9.425039   7.887731   7.746411   6.791594   7.022237
    47  H    9.912801   8.646161   8.722063   7.413938   7.385210
    48  H    9.090236   7.518136   7.775519   6.878752   6.658179
                   36         37         38         39         40
    36  H    0.000000
    37  H    2.805154   0.000000
    38  H    2.514695   3.596003   0.000000
    39  H    3.057676   2.490432   1.756199   0.000000
    40  H    2.959175   2.818172   3.059415   2.549387   0.000000
    41  H    2.596648   3.936959   2.486224   3.070584   1.753639
    42  H    4.710115   4.283622   3.211199   2.520259   2.504303
    43  H    4.721460   5.958804   3.134117   4.063517   3.789110
    44  H    4.611432   5.343334   2.317324   3.008496   3.853990
    45  H    5.868599   6.393951   3.896666   4.239111   4.323599
    46  H    5.179040   5.840096   4.562934   4.759130   3.038085
    47  H    6.212566   6.261219   5.060434   4.862835   3.698370
    48  H    5.291815   5.059399   4.807593   4.339072   2.460328
                   41         42         43         44         45
    41  H    0.000000
    42  H    3.054927   0.000000
    43  H    2.603997   3.067515   0.000000
    44  H    3.178675   2.493882   1.769489   0.000000
    45  H    3.789512   2.503967   1.768322   1.765314   0.000000
    46  H    2.612914   3.067361   2.638262   3.821516   3.105295
    47  H    3.794830   2.495213   3.152727   3.760416   2.526350
    48  H    3.134033   2.495210   3.819133   4.346585   3.751262
                   46         47         48
    46  H    0.000000
    47  H    1.768376   0.000000
    48  H    1.768565   1.771295   0.000000
 Stoichiometry    C15H32O
 Framework group  C1[X(C15H32O)]
 Deg. of freedom   138
 Full point group                 C1      NOp   1
 Largest Abelian subgroup         C1      NOp   1
 Largest concise Abelian subgroup C1      NOp   1
                         Standard orientation:                         
 ---------------------------------------------------------------------
 Center     Atomic      Atomic             Coordinates (Angstroms)
 Number     Number       Type             X           Y           Z
 ---------------------------------------------------------------------
      1          6           0       -8.967500    0.419452   -0.165221
      2          6           0       -7.694488   -0.304422    0.281659
      3          6           0       -6.409294    0.396553   -0.171702
      4          6           0       -5.130157   -0.321583    0.270894
      5          6           0       -3.845193    0.380120   -0.181939
      6          6           0       -2.566174   -0.338990    0.260116
      7          6           0       -1.280791    0.363601   -0.190478
      8          6           0       -0.004550   -0.361807    0.248014
      9          6           0        1.281131    0.343790   -0.194970
     10          6           0        2.560611   -0.414209    0.181938
     11          8           0        2.564222   -1.733585   -0.368600
     12          6           0        3.831406    0.357128   -0.201337
     13          6           0        5.120164   -0.341243    0.247080
     14          6           0        6.422928    0.292272   -0.272695
     15          6           0        6.629244    1.724365    0.241308
     16          6           0        7.627351   -0.587728    0.088969
     17          1           0       -9.867021   -0.104507    0.173233
     18          1           0       -9.017486    0.494716   -1.257344
     19          1           0       -9.005210    1.438422    0.236242
     20          1           0       -7.701742   -1.331886   -0.106069
     21          1           0       -7.689579   -0.395542    1.376073
     22          1           0       -6.401824    1.425161    0.215990
     23          1           0       -6.414300    0.488860   -1.267080
     24          1           0       -5.138261   -1.349802   -0.117387
     25          1           0       -5.126306   -0.414163    1.366107
     26          1           0       -3.836751    1.408128    0.207012
     27          1           0       -3.849286    0.473374   -1.277140
     28          1           0       -2.573043   -1.366383   -0.129962
     29          1           0       -2.562721   -0.433670    1.355068
     30          1           0       -1.272219    1.390572    0.201697
     31          1           0       -1.285968    0.461203   -1.285517
     32          1           0       -0.000905   -1.384148   -0.147204
     33          1           0       -0.000329   -0.461578    1.342542
     34          1           0        1.324046    1.350540    0.241552
     35          1           0        1.267859    0.488526   -1.286713
     36          1           0        2.564059   -0.581651    1.267785
     37          1           0        2.557741   -1.643404   -1.328660
     38          1           0        3.767718    1.364993    0.225925
     39          1           0        3.842406    0.489843   -1.294853
     40          1           0        5.071897   -1.385354   -0.081856
     41          1           0        5.150938   -0.370751    1.346284
     42          1           0        6.356784    0.335219   -1.370353
     43          1           0        6.673870    1.741451    1.337343
     44          1           0        5.822504    2.394815   -0.069562
     45          1           0        7.568736    2.144038   -0.133745
     46          1           0        7.741620   -0.665752    1.176997
     47          1           0        8.558489   -0.173505   -0.312155
     48          1           0        7.512386   -1.602878   -0.305255
 ---------------------------------------------------------------------
 Rotational constants (GHZ):           2.6581821           0.0809307           0.0795052
 Standard basis: 6-31+G(3df,2p) (6D, 7F)
 There are   912 symmetry adapted cartesian basis functions of A   symmetry.
 There are   864 symmetry adapted basis functions of A   symmetry.
   864 basis functions,  1184 primitive gaussians,   912 cartesian basis functions
    65 alpha electrons       65 beta electrons
       nuclear repulsion energy      1056.7212874701 Hartrees.
 NAtoms=   48 NActive=   48 NUniq=   48 SFac= 1.00D+00 NAtFMM=   60 NAOKFM=F Big=F
 Integral buffers will be    131072 words long.
 Regular integral format.
 Two-electron integral symmetry is turned on.
 One-electron integrals computed using PRISM.
 PrsmSu:  requested number of processors reduced to:  11 ShMem   1 Linda.
 NBasis=   864 RedAO= T EigKep=  4.03D-06  NBF=   864
 NBsUse=   863 1.00D-06 EigRej=  8.29D-07 NBFU=   863
 ExpMin= 4.38D-02 ExpMax= 5.48D+03 ExpMxC= 8.25D+02 IAcc=3 IRadAn=         5 AccDes= 0.00D+00
 Harris functional with IExCor=  402 and IRadAn=       5 diagonalized for initial guess.
 HarFok:  IExCor=  402 AccDes= 0.00D+00 IRadAn=         5 IDoV= 1 UseB2=F ITyADJ=14
 ICtDFT=  3500011 ScaDFX=  1.000000  1.000000  1.000000  1.000000
 FoFCou: FMM=F IPFlag=           0 FMFlag=      100000 FMFlg1=           0
         NFxFlg=           0 DoJE=T BraDBF=F KetDBF=T FulRan=T
         wScrn=  0.000000 ICntrl=       500 IOpCl=  0 I1Cent=   200000004 NGrid=           0
         NMat0=    1 NMatS0=      1 NMatT0=    0 NMatD0=    1 NMtDS0=    0 NMtDT0=    0
 Petite list used in FoFCou.
 Requested convergence on RMS density matrix=1.00D-08 within 128 cycles.
 Requested convergence on MAX density matrix=1.00D-06.
 Requested convergence on             energy=1.00D-06.
 No special actions if energy rises.
 SCF Done:  E(RB3LYP) =  -666.220004199     A.U. after   12 cycles
            NFock= 12  Conv=0.29D-08     -V/T= 2.0085
 DoSCS=F DFT=T ScalE2(SS,OS)=  1.000000  1.000000
 ExpMin= 4.38D-02 ExpMax= 5.48D+03 ExpMxC= 8.25D+02 IAcc=3 IRadAn=         5 AccDes= 0.00D+00
 HarFok:  IExCor=  205 AccDes= 0.00D+00 IRadAn=         5 IDoV=-2 UseB2=F ITyADJ=14
 ICtDFT= 12500011 ScaDFX=  1.000000  1.000000  1.000000  1.000000
 Range of M.O.s used for correlation:    17   863
 NBasis=   864 NAE=    65 NBE=    65 NFC=    16 NFV=     0
 NROrb=    847 NOA=    49 NOB=    49 NVA=   798 NVB=   798

 **** Warning!!: The largest alpha MO coefficient is  0.11066953D+03

 Orbital symmetries:
       Occupied  (A) (A) (A) (A) (A) (A) (A) (A) (A) (A) (A) (A)
                 (A) (A) (A) (A) (A) (A) (A) (A) (A) (A) (A) (A)
                 (A) (A) (A) (A) (A) (A) (A) (A) (A) (A) (A) (A)
                 (A) (A) (A) (A) (A) (A) (A) (A) (A) (A) (A) (A)
                 (A) (A) (A) (A) (A) (A) (A) (A) (A) (A) (A) (A)
                 (A) (A) (A) (A) (A)
       Virtual   (A) (A) (A) (A) (A) (A) (A) (A) (A) (A) (A) (A)
                 (A) (A) (A) (A) (A) (A) (A) (A) (A) (A) (A) (A)
                 (A) (A) (A) (A) (A) (A) (A) (A) (A) (A) (A) (A)
                 (A) (A) (A) (A) (A) (A) (A) (A) (A) (A) (A) (A)
                 (A) (A) (A) (A) (A) (A) (A) (A) (A) (A) (A) (A)
                 (A) (A) (A) (A) (A) (A) (A) (A) (A) (A) (A) (A)
                 (A) (A) (A) (A) (A) (A) (A) (A) (A) (A) (A) (A)
                 (A) (A) (A) (A) (A) (A) (A) (A) (A) (A) (A) (A)
                 (A) (A) (A) (A) (A) (A) (A) (A) (A) (A) (A) (A)
                 (A) (A) (A) (A) (A) (A) (A) (A) (A) (A) (A) (A)
                 (A) (A) (A) (A) (A) (A) (A) (A) (A) (A) (A) (A)
                 (A) (A) (A) (A) (A) (A) (A) (A) (A) (A) (A) (A)
                 (A) (A) (A) (A) (A) (A) (A) (A) (A) (A) (A) (A)
                 (A) (A) (A) (A) (A) (A) (A) (A) (A) (A) (A) (A)
                 (A) (A) (A) (A) (A) (A) (A) (A) (A) (A) (A) (A)
                 (A) (A) (A) (A) (A) (A) (A) (A) (A) (A) (A) (A)
                 (A) (A) (A) (A) (A) (A) (A) (A) (A) (A) (A) (A)
                 (A) (A) (A) (A) (A) (A) (A) (A) (A) (A) (A) (A)
                 (A) (A) (A) (A) (A) (A) (A) (A) (A) (A) (A) (A)
                 (A) (A) (A) (A) (A) (A) (A) (A) (A) (A) (A) (A)
                 (A) (A) (A) (A) (A) (A) (A) (A) (A) (A) (A) (A)
                 (A) (A) (A) (A) (A) (A) (A) (A) (A) (A) (A) (A)
                 (A) (A) (A) (A) (A) (A) (A) (A) (A) (A) (A) (A)
                 (A) (A) (A) (A) (A) (A) (A) (A) (A) (A) (A) (A)
                 (A) (A) (A) (A) (A) (A) (A) (A) (A) (A) (A) (A)
                 (A) (A) (A) (A) (A) (A) (A) (A) (A) (A) (A) (A)
                 (A) (A) (A) (A) (A) (A) (A) (A) (A) (A) (A) (A)
                 (A) (A) (A) (A) (A) (A) (A) (A) (A) (A) (A) (A)
                 (A) (A) (A) (A) (A) (A) (A) (A) (A) (A) (A) (A)
                 (A) (A) (A) (A) (A) (A) (A) (A) (A) (A) (A) (A)
                 (A) (A) (A) (A) (A) (A) (A) (A) (A) (A) (A) (A)
                 (A) (A) (A) (A) (A) (A) (A) (A) (A) (A) (A) (A)
                 (A) (A) (A) (A) (A) (A) (A) (A) (A) (A) (A) (A)
                 (A) (A) (A) (A) (A) (A) (A) (A) (A) (A) (A) (A)
                 (A) (A) (A) (A) (A) (A) (A) (A) (A) (A) (A) (A)
                 (A) (A) (A) (A) (A) (A) (A) (A) (A) (A) (A) (A)
                 (A) (A) (A) (A) (A) (A) (A) (A) (A) (A) (A) (A)
                 (A) (A) (A) (A) (A) (A) (A) (A) (A) (A) (A) (A)
                 (A) (A) (A) (A) (A) (A) (A) (A) (A) (A) (A) (A)
                 (A) (A) (A) (A) (A) (A) (A) (A) (A) (A) (A) (A)
                 (A) (A) (A) (A) (A) (A) (A) (A) (A) (A) (A) (A)
                 (A) (A) (A) (A) (A) (A) (A) (A) (A) (A) (A) (A)
                 (A) (A) (A) (A) (A) (A) (A) (A) (A) (A) (A) (A)
                 (A) (A) (A) (A) (A) (A) (A) (A) (A) (A) (A) (A)
                 (A) (A) (A) (A) (A) (A) (A) (A) (A) (A) (A) (A)
                 (A) (A) (A) (A) (A) (A) (A) (A) (A) (A) (A) (A)
                 (A) (A) (A) (A) (A) (A) (A) (A) (A) (A) (A) (A)
                 (A) (A) (A) (A) (A) (A) (A) (A) (A) (A) (A) (A)
                 (A) (A) (A) (A) (A) (A) (A) (A) (A) (A) (A) (A)
                 (A) (A) (A) (A) (A) (A) (A) (A) (A) (A) (A) (A)
                 (A) (A) (A) (A) (A) (A) (A) (A) (A) (A) (A) (A)
                 (A) (A) (A) (A) (A) (A) (A) (A) (A) (A) (A) (A)
                 (A) (A) (A) (A) (A) (A) (A) (A) (A) (A) (A) (A)
                 (A) (A) (A) (A) (A) (A) (A) (A) (A) (A) (A) (A)
                 (A) (A) (A) (A) (A) (A) (A) (A) (A) (A) (A) (A)
                 (A) (A) (A) (A) (A) (A) (A) (A) (A) (A) (A) (A)
                 (A) (A) (A) (A) (A) (A) (A) (A) (A) (A) (A) (A)
                 (A) (A) (A) (A) (A) (A) (A) (A) (A) (A) (A) (A)
                 (A) (A) (A) (A) (A) (A) (A) (A) (A) (A) (A) (A)
                 (A) (A) (A) (A) (A) (A) (A) (A) (A) (A) (A) (A)
                 (A) (A) (A) (A) (A) (A) (A) (A) (A) (A) (A) (A)
                 (A) (A) (A) (A) (A) (A) (A) (A) (A) (A) (A) (A)
                 (A) (A) (A) (A) (A) (A) (A) (A) (A) (A) (A) (A)
                 (A) (A) (A) (A) (A) (A) (A) (A) (A) (A) (A) (A)
                 (A) (A) (A) (A) (A) (A) (A) (A) (A) (A) (A) (A)
                 (A) (A) (A) (A) (A) (A) (A) (A) (A) (A) (A) (A)
                 (A) (A) (A) (A) (A) (A)
    40 initial guesses have been made.
 Convergence on wavefunction:    0.000001000000000
 Iteration     1 Dimension    40 NMult     0 NNew     40
 CISAX will form     1 AO SS matrices at one time.
 New state      3 was old state      4
 New state      4 was old state      5
 New state      5 was old state      3
 New state     10 was old state     13
 Iteration     2 Dimension    60 NMult    40 NNew     20
 Iteration     3 Dimension    80 NMult    60 NNew     20
 Iteration     4 Dimension   100 NMult    80 NNew     20
 Iteration     5 Dimension   120 NMult   100 NNew     20
 Iteration     6 Dimension   140 NMult   120 NNew     20
 Iteration     7 Dimension   160 NMult   140 NNew     20
slurmstepd: error: *** JOB 27484589 ON lewis4-r630-hpc4-node227 CANCELLED AT 2023-05-25T01:49:02 DUE TO TIME LIMIT ***
