### Starting Gaussian ###
 Entering Gaussian System, Link 0=g16
 Initial command:
 /cluster/software/gaussian/gaussian-16-A.03/avx2/g16/l1.exe "/local/scratch/ks29c/Gau-28202.inp" -scrdir="/local/scratch/ks29c/"
 Entering Link 1 = /cluster/software/gaussian/gaussian-16-A.03/avx2/g16/l1.exe PID=     28203.
  
 Copyright (c) 1988,1990,1992,1993,1995,1998,2003,2009,2016,
            Gaussian, Inc.  All Rights Reserved.
  
 This is part of the Gaussian(R) 16 program.  It is based on
 the Gaussian(R) 09 system (copyright 2009, Gaussian, Inc.),
 the Gaussian(R) 03 system (copyright 2003, Gaussian, Inc.),
 the Gaussian(R) 98 system (copyright 1998, Gaussian, Inc.),
 the Gaussian(R) 94 system (copyright 1995, Gaussian, Inc.),
 the Gaussian 92(TM) system (copyright 1992, Gaussian, Inc.),
 the Gaussian 90(TM) system (copyright 1990, Gaussian, Inc.),
 the Gaussian 88(TM) system (copyright 1988, Gaussian, Inc.),
 the Gaussian 86(TM) system (copyright 1986, Carnegie Mellon
 University), and the Gaussian 82(TM) system (copyright 1983,
 Carnegie Mellon University). Gaussian is a federally registered
 trademark of Gaussian, Inc.
  
 This software contains proprietary and confidential information,
 including trade secrets, belonging to Gaussian, Inc.
  
 This software is provided under written license and may be
 used, copied, transmitted, or stored only in accord with that
 written license.
  
 The following legend is applicable only to US Government
 contracts under FAR:
  
                    RESTRICTED RIGHTS LEGEND
  
 Use, reproduction and disclosure by the US Government is
 subject to restrictions as set forth in subparagraphs (a)
 and (c) of the Commercial Computer Software - Restricted
 Rights clause in FAR 52.227-19.
  
 Gaussian, Inc.
 340 Quinnipiac St., Bldg. 40, Wallingford CT 06492
  
  
 ---------------------------------------------------------------
 Warning -- This program may not be used in any manner that
 competes with the business of Gaussian, Inc. or will provide
 assistance to any competitor of Gaussian, Inc.  The licensee
 of this program is prohibited from giving any competitor of
 Gaussian, Inc. access to this program.  By using this program,
 the user acknowledges that Gaussian, Inc. is engaged in the
 business of creating and licensing software in the field of
 computational chemistry and represents and warrants to the
 licensee that it is not a competitor of Gaussian, Inc. and that
 it will not use this program in any manner prohibited above.
 ---------------------------------------------------------------
  

 Cite this work as:
 Gaussian 16, Revision A.03,
 M. J. Frisch, G. W. Trucks, H. B. Schlegel, G. E. Scuseria, 
 M. A. Robb, J. R. Cheeseman, G. Scalmani, V. Barone, 
 G. A. Petersson, H. Nakatsuji, X. Li, M. Caricato, A. V. Marenich, 
 J. Bloino, B. G. Janesko, R. Gomperts, B. Mennucci, H. P. Hratchian, 
 J. V. Ortiz, A. F. Izmaylov, J. L. Sonnenberg, D. Williams-Young, 
 F. Ding, F. Lipparini, F. Egidi, J. Goings, B. Peng, A. Petrone, 
 T. Henderson, D. Ranasinghe, V. G. Zakrzewski, J. Gao, N. Rega, 
 G. Zheng, W. Liang, M. Hada, M. Ehara, K. Toyota, R. Fukuda, 
 J. Hasegawa, M. Ishida, T. Nakajima, Y. Honda, O. Kitao, H. Nakai, 
 T. Vreven, K. Throssell, J. A. Montgomery, Jr., J. E. Peralta, 
 F. Ogliaro, M. J. Bearpark, J. J. Heyd, E. N. Brothers, K. N. Kudin, 
 V. N. Staroverov, T. A. Keith, R. Kobayashi, J. Normand, 
 K. Raghavachari, A. P. Rendell, J. C. Burant, S. S. Iyengar, 
 J. Tomasi, M. Cossi, J. M. Millam, M. Klene, C. Adamo, R. Cammi, 
 J. W. Ochterski, R. L. Martin, K. Morokuma, O. Farkas, 
 J. B. Foresman, and D. J. Fox, Gaussian, Inc., Wallingford CT, 2016.
 
 ******************************************
 Gaussian 16:  ES64L-G16RevA.03 25-Dec-2016
                24-May-2023 
 ******************************************
 %chk=CCCCCqCCrCqCrqCrF.chk
 %NProcShared=20
 Will use up to   20 processors via shared memory.
 -----------------------------------------------------------------
 # opt freq b3lyp/6-31+g(3df,2p) Geom=AllCheckpoint TD(NStates=10)
 -----------------------------------------------------------------
 1/18=20,19=15,26=3,29=7,38=1/1,3;
 2/9=110,12=2,40=1/2;
 3/5=1,6=6,7=216,11=9,14=-4,25=1,30=1,71=1,74=-5/1,2,3,8;
 4//1;
 5/5=2,38=5/2;
 8/6=1,10=2,108=10/1;
 9/15=2,41=10,42=1,70=2/14;
 10/5=4/2;
 6/7=2,8=2,9=2,10=2/1;
 7/12=6,13=5/1,2,3,16;
 1/18=20,19=15,26=3/3(2);
 2/9=110/2;
 99//99;
 2/9=110/2;
 3/5=1,6=6,7=216,11=9,14=-2,25=1,30=1,71=1,74=-5/1,2,3,8;
 4/5=5,16=3,69=1/1;
 5/5=2,38=5/2;
 8/6=1,10=2,108=10/1;
 9/15=2,41=10,42=1,49=4,70=2/14;
 10/5=4/2;
 7/12=6,13=5/1,2,3,16;
 1/18=20,19=15,26=3/3(-8);
 2/9=110/2;
 6/7=2,8=2,9=2,10=2/1;
 99//99;
 Structure from the checkpoint file:  "CCCCCqCCrCqCrqCrF.chk"
 -------------------
 Title Card Required
 -------------------
 Charge =  0 Multiplicity = 1
 Redundant internal coordinates found in file.  (old form).
 C,0,0.9939955715,0.0389165585,-0.5048967308
 C,0,2.5165332343,-0.0006075861,-0.3487924577
 C,0,2.9870684162,0.356185756,1.0662064103
 C,0,4.51321371,0.3111095019,1.2162653139
 C,0,5.0414841344,0.7348226037,2.6020173191
 C,0,4.5583065113,-0.2038695912,3.7410657968
 C,0,3.3845016577,0.359749591,4.551523401
 C,0,6.5829439422,0.8995470749,2.6194586742
 C,0,7.3526978162,-0.3884378099,2.328182614
 C,0,7.0712687067,2.0524707422,1.7424329286
 F,0,6.9121954753,1.2701175164,3.9387041477
 H,0,0.6890188081,-0.2189581534,-1.5239501648
 H,0,0.5988914898,1.0362961428,-0.2816417189
 H,0,0.5074989699,-0.6676290346,0.1768666715
 H,0,2.9771808371,0.6894146625,-1.0683590887
 H,0,2.886150359,-1.0009520305,-0.6111575424
 H,0,2.5181542285,-0.3320904975,1.7802532783
 H,0,2.6236477349,1.3602368248,1.3261097127
 H,0,4.9482565688,0.9563076471,0.4433032019
 H,0,4.8588385472,-0.7073755665,0.9933538932
 H,0,4.6505576559,1.7400535296,2.8134993611
 H,0,5.3850834214,-0.3830077881,4.4326303222
 H,0,4.2833659151,-1.1808442826,3.3240904219
 H,0,3.6714355266,1.2974194959,5.03951706
 H,0,3.0749976104,-0.3407951841,5.334123006
 H,0,2.5111212271,0.5665280655,3.9255987028
 H,0,7.224140301,-0.6954286595,1.2867666634
 H,0,7.0179287186,-1.2052834793,2.972333408
 H,0,8.4193357976,-0.2269438601,2.5073814327
 H,0,6.9501875062,1.8340885111,0.6787215994
 H,0,8.1334447801,2.230125737,1.9330003567
 H,0,6.5232248209,2.9703335626,1.974412006
 Recover connectivity data from disk.

 GradGradGradGradGradGradGradGradGradGradGradGradGradGradGradGradGradGrad
 Berny optimization.
 Initialization pass.
                           ----------------------------
                           !    Initial Parameters    !
                           ! (Angstroms and Degrees)  !
 --------------------------                            --------------------------
 ! Name  Definition              Value          Derivative Info.                !
 --------------------------------------------------------------------------------
 ! R1    R(1,2)                  1.531          estimate D2E/DX2                !
 ! R2    R(1,12)                 1.0945         estimate D2E/DX2                !
 ! R3    R(1,13)                 1.0958         estimate D2E/DX2                !
 ! R4    R(1,14)                 1.0958         estimate D2E/DX2                !
 ! R5    R(2,3)                  1.5333         estimate D2E/DX2                !
 ! R6    R(2,15)                 1.0982         estimate D2E/DX2                !
 ! R7    R(2,16)                 1.0982         estimate D2E/DX2                !
 ! R8    R(3,4)                  1.5342         estimate D2E/DX2                !
 ! R9    R(3,17)                 1.097          estimate D2E/DX2                !
 ! R10   R(3,18)                 1.099          estimate D2E/DX2                !
 ! R11   R(4,5)                  1.5424         estimate D2E/DX2                !
 ! R12   R(4,19)                 1.0968         estimate D2E/DX2                !
 ! R13   R(4,20)                 1.0984         estimate D2E/DX2                !
 ! R14   R(5,6)                  1.5531         estimate D2E/DX2                !
 ! R15   R(5,8)                  1.5503         estimate D2E/DX2                !
 ! R16   R(5,21)                 1.0991         estimate D2E/DX2                !
 ! R17   R(6,7)                  1.5337         estimate D2E/DX2                !
 ! R18   R(6,22)                 1.0927         estimate D2E/DX2                !
 ! R19   R(6,23)                 1.0972         estimate D2E/DX2                !
 ! R20   R(7,24)                 1.0953         estimate D2E/DX2                !
 ! R21   R(7,25)                 1.095          estimate D2E/DX2                !
 ! R22   R(7,26)                 1.0942         estimate D2E/DX2                !
 ! R23   R(8,9)                  1.5285         estimate D2E/DX2                !
 ! R24   R(8,10)                 1.5287         estimate D2E/DX2                !
 ! R25   R(8,11)                 1.4093         estimate D2E/DX2                !
 ! R26   R(9,27)                 1.0933         estimate D2E/DX2                !
 ! R27   R(9,28)                 1.0928         estimate D2E/DX2                !
 ! R28   R(9,29)                 1.0936         estimate D2E/DX2                !
 ! R29   R(10,30)                1.0926         estimate D2E/DX2                !
 ! R30   R(10,31)                1.0937         estimate D2E/DX2                !
 ! R31   R(10,32)                1.0939         estimate D2E/DX2                !
 ! A1    A(2,1,12)             111.4655         estimate D2E/DX2                !
 ! A2    A(2,1,13)             111.1798         estimate D2E/DX2                !
 ! A3    A(2,1,14)             111.1884         estimate D2E/DX2                !
 ! A4    A(12,1,13)            107.6784         estimate D2E/DX2                !
 ! A5    A(12,1,14)            107.6772         estimate D2E/DX2                !
 ! A6    A(13,1,14)            107.4606         estimate D2E/DX2                !
 ! A7    A(1,2,3)              113.158          estimate D2E/DX2                !
 ! A8    A(1,2,15)             109.5175         estimate D2E/DX2                !
 ! A9    A(1,2,16)             109.5022         estimate D2E/DX2                !
 ! A10   A(3,2,15)             109.2529         estimate D2E/DX2                !
 ! A11   A(3,2,16)             109.2167         estimate D2E/DX2                !
 ! A12   A(15,2,16)            105.9385         estimate D2E/DX2                !
 ! A13   A(2,3,4)              112.8741         estimate D2E/DX2                !
 ! A14   A(2,3,17)             108.8755         estimate D2E/DX2                !
 ! A15   A(2,3,18)             109.2306         estimate D2E/DX2                !
 ! A16   A(4,3,17)             110.0663         estimate D2E/DX2                !
 ! A17   A(4,3,18)             109.4311         estimate D2E/DX2                !
 ! A18   A(17,3,18)            106.1364         estimate D2E/DX2                !
 ! A19   A(3,4,5)              114.8675         estimate D2E/DX2                !
 ! A20   A(3,4,19)             107.96           estimate D2E/DX2                !
 ! A21   A(3,4,20)             108.688          estimate D2E/DX2                !
 ! A22   A(5,4,19)             109.6162         estimate D2E/DX2                !
 ! A23   A(5,4,20)             109.2258         estimate D2E/DX2                !
 ! A24   A(19,4,20)            106.1183         estimate D2E/DX2                !
 ! A25   A(4,5,6)              112.7272         estimate D2E/DX2                !
 ! A26   A(4,5,8)              112.3238         estimate D2E/DX2                !
 ! A27   A(4,5,21)             107.5961         estimate D2E/DX2                !
 ! A28   A(6,5,8)              111.4259         estimate D2E/DX2                !
 ! A29   A(6,5,21)             107.5184         estimate D2E/DX2                !
 ! A30   A(8,5,21)             104.7321         estimate D2E/DX2                !
 ! A31   A(5,6,7)              113.8            estimate D2E/DX2                !
 ! A32   A(5,6,22)             109.1399         estimate D2E/DX2                !
 ! A33   A(5,6,23)             109.7188         estimate D2E/DX2                !
 ! A34   A(7,6,22)             107.7518         estimate D2E/DX2                !
 ! A35   A(7,6,23)             109.6482         estimate D2E/DX2                !
 ! A36   A(22,6,23)            106.5078         estimate D2E/DX2                !
 ! A37   A(6,7,24)             110.4588         estimate D2E/DX2                !
 ! A38   A(6,7,25)             111.0317         estimate D2E/DX2                !
 ! A39   A(6,7,26)             112.212          estimate D2E/DX2                !
 ! A40   A(24,7,25)            107.6569         estimate D2E/DX2                !
 ! A41   A(24,7,26)            107.5882         estimate D2E/DX2                !
 ! A42   A(25,7,26)            107.7053         estimate D2E/DX2                !
 ! A43   A(5,8,9)              114.1449         estimate D2E/DX2                !
 ! A44   A(5,8,10)             113.035          estimate D2E/DX2                !
 ! A45   A(5,8,11)             105.7094         estimate D2E/DX2                !
 ! A46   A(9,8,10)             111.4275         estimate D2E/DX2                !
 ! A47   A(9,8,11)             106.3978         estimate D2E/DX2                !
 ! A48   A(10,8,11)            105.314          estimate D2E/DX2                !
 ! A49   A(8,9,27)             111.0335         estimate D2E/DX2                !
 ! A50   A(8,9,28)             111.3005         estimate D2E/DX2                !
 ! A51   A(8,9,29)             109.605          estimate D2E/DX2                !
 ! A52   A(27,9,28)            108.3948         estimate D2E/DX2                !
 ! A53   A(27,9,29)            108.1945         estimate D2E/DX2                !
 ! A54   A(28,9,29)            108.2151         estimate D2E/DX2                !
 ! A55   A(8,10,30)            111.8632         estimate D2E/DX2                !
 ! A56   A(8,10,31)            109.4382         estimate D2E/DX2                !
 ! A57   A(8,10,32)            110.5556         estimate D2E/DX2                !
 ! A58   A(30,10,31)           108.0429         estimate D2E/DX2                !
 ! A59   A(30,10,32)           108.5805         estimate D2E/DX2                !
 ! A60   A(31,10,32)           108.2596         estimate D2E/DX2                !
 ! D1    D(12,1,2,3)           179.9513         estimate D2E/DX2                !
 ! D2    D(12,1,2,15)           57.8028         estimate D2E/DX2                !
 ! D3    D(12,1,2,16)          -57.958          estimate D2E/DX2                !
 ! D4    D(13,1,2,3)            59.7987         estimate D2E/DX2                !
 ! D5    D(13,1,2,15)          -62.3497         estimate D2E/DX2                !
 ! D6    D(13,1,2,16)         -178.1105         estimate D2E/DX2                !
 ! D7    D(14,1,2,3)           -59.8918         estimate D2E/DX2                !
 ! D8    D(14,1,2,15)          177.9597         estimate D2E/DX2                !
 ! D9    D(14,1,2,16)           62.1989         estimate D2E/DX2                !
 ! D10   D(1,2,3,4)            179.8544         estimate D2E/DX2                !
 ! D11   D(1,2,3,17)            57.3206         estimate D2E/DX2                !
 ! D12   D(1,2,3,18)           -58.169          estimate D2E/DX2                !
 ! D13   D(15,2,3,4)           -57.8494         estimate D2E/DX2                !
 ! D14   D(15,2,3,17)          179.6167         estimate D2E/DX2                !
 ! D15   D(15,2,3,18)           64.1272         estimate D2E/DX2                !
 ! D16   D(16,2,3,4)            57.6042         estimate D2E/DX2                !
 ! D17   D(16,2,3,17)          -64.9296         estimate D2E/DX2                !
 ! D18   D(16,2,3,18)          179.5808         estimate D2E/DX2                !
 ! D19   D(2,3,4,5)            176.9172         estimate D2E/DX2                !
 ! D20   D(2,3,4,19)            54.2866         estimate D2E/DX2                !
 ! D21   D(2,3,4,20)           -60.4046         estimate D2E/DX2                !
 ! D22   D(17,3,4,5)           -61.2176         estimate D2E/DX2                !
 ! D23   D(17,3,4,19)          176.1518         estimate D2E/DX2                !
 ! D24   D(17,3,4,20)           61.4606         estimate D2E/DX2                !
 ! D25   D(18,3,4,5)            55.0534         estimate D2E/DX2                !
 ! D26   D(18,3,4,19)          -67.5772         estimate D2E/DX2                !
 ! D27   D(18,3,4,20)          177.7316         estimate D2E/DX2                !
 ! D28   D(3,4,5,6)             62.8047         estimate D2E/DX2                !
 ! D29   D(3,4,5,8)           -170.316          estimate D2E/DX2                !
 ! D30   D(3,4,5,21)           -55.5685         estimate D2E/DX2                !
 ! D31   D(19,4,5,6)          -175.4601         estimate D2E/DX2                !
 ! D32   D(19,4,5,8)           -48.5808         estimate D2E/DX2                !
 ! D33   D(19,4,5,21)           66.1667         estimate D2E/DX2                !
 ! D34   D(20,4,5,6)           -59.5839         estimate D2E/DX2                !
 ! D35   D(20,4,5,8)            67.2954         estimate D2E/DX2                !
 ! D36   D(20,4,5,21)         -177.957          estimate D2E/DX2                !
 ! D37   D(4,5,6,7)           -100.7687         estimate D2E/DX2                !
 ! D38   D(4,5,6,22)           138.8466         estimate D2E/DX2                !
 ! D39   D(4,5,6,23)            22.4935         estimate D2E/DX2                !
 ! D40   D(8,5,6,7)            131.8756         estimate D2E/DX2                !
 ! D41   D(8,5,6,22)            11.4909         estimate D2E/DX2                !
 ! D42   D(8,5,6,23)          -104.8622         estimate D2E/DX2                !
 ! D43   D(21,5,6,7)            17.6499         estimate D2E/DX2                !
 ! D44   D(21,5,6,22)         -102.7348         estimate D2E/DX2                !
 ! D45   D(21,5,6,23)          140.9121         estimate D2E/DX2                !
 ! D46   D(4,5,8,9)            -62.8196         estimate D2E/DX2                !
 ! D47   D(4,5,8,10)            65.9091         estimate D2E/DX2                !
 ! D48   D(4,5,8,11)          -179.4001         estimate D2E/DX2                !
 ! D49   D(6,5,8,9)             64.7543         estimate D2E/DX2                !
 ! D50   D(6,5,8,10)          -166.517          estimate D2E/DX2                !
 ! D51   D(6,5,8,11)           -51.8262         estimate D2E/DX2                !
 ! D52   D(21,5,8,9)          -179.299          estimate D2E/DX2                !
 ! D53   D(21,5,8,10)          -50.5702         estimate D2E/DX2                !
 ! D54   D(21,5,8,11)           64.1206         estimate D2E/DX2                !
 ! D55   D(5,6,7,24)           -61.1821         estimate D2E/DX2                !
 ! D56   D(5,6,7,25)           179.4586         estimate D2E/DX2                !
 ! D57   D(5,6,7,26)            58.8646         estimate D2E/DX2                !
 ! D58   D(22,6,7,24)           59.9801         estimate D2E/DX2                !
 ! D59   D(22,6,7,25)          -59.3792         estimate D2E/DX2                !
 ! D60   D(22,6,7,26)         -179.9731         estimate D2E/DX2                !
 ! D61   D(23,6,7,24)          175.5173         estimate D2E/DX2                !
 ! D62   D(23,6,7,25)           56.158          estimate D2E/DX2                !
 ! D63   D(23,6,7,26)          -64.436          estimate D2E/DX2                !
 ! D64   D(5,8,9,27)            69.0685         estimate D2E/DX2                !
 ! D65   D(5,8,9,28)           -51.7824         estimate D2E/DX2                !
 ! D66   D(5,8,9,29)          -171.4538         estimate D2E/DX2                !
 ! D67   D(10,8,9,27)          -60.4678         estimate D2E/DX2                !
 ! D68   D(10,8,9,28)          178.6812         estimate D2E/DX2                !
 ! D69   D(10,8,9,29)           59.0099         estimate D2E/DX2                !
 ! D70   D(11,8,9,27)         -174.7503         estimate D2E/DX2                !
 ! D71   D(11,8,9,28)           64.3987         estimate D2E/DX2                !
 ! D72   D(11,8,9,29)          -55.2727         estimate D2E/DX2                !
 ! D73   D(5,8,10,30)          -70.2872         estimate D2E/DX2                !
 ! D74   D(5,8,10,31)          170.0096         estimate D2E/DX2                !
 ! D75   D(5,8,10,32)           50.8535         estimate D2E/DX2                !
 ! D76   D(9,8,10,30)           59.8303         estimate D2E/DX2                !
 ! D77   D(9,8,10,31)          -59.8729         estimate D2E/DX2                !
 ! D78   D(9,8,10,32)         -179.0289         estimate D2E/DX2                !
 ! D79   D(11,8,10,30)         174.7846         estimate D2E/DX2                !
 ! D80   D(11,8,10,31)          55.0814         estimate D2E/DX2                !
 ! D81   D(11,8,10,32)         -64.0747         estimate D2E/DX2                !
 --------------------------------------------------------------------------------
 Trust Radius=3.00D-01 FncErr=1.00D-07 GrdErr=1.00D-06 EigMax=2.50D+02 EigMin=1.00D-04
 Number of steps in this run=    182 maximum allowed number of steps=    192.
 GradGradGradGradGradGradGradGradGradGradGradGradGradGradGradGradGradGrad

                          Input orientation:                          
 ---------------------------------------------------------------------
 Center     Atomic      Atomic             Coordinates (Angstroms)
 Number     Number       Type             X           Y           Z
 ---------------------------------------------------------------------
      1          6           0        0.993996    0.038917   -0.504897
      2          6           0        2.516533   -0.000608   -0.348792
      3          6           0        2.987068    0.356186    1.066206
      4          6           0        4.513214    0.311110    1.216265
      5          6           0        5.041484    0.734823    2.602017
      6          6           0        4.558307   -0.203870    3.741066
      7          6           0        3.384502    0.359750    4.551523
      8          6           0        6.582944    0.899547    2.619459
      9          6           0        7.352698   -0.388438    2.328183
     10          6           0        7.071269    2.052471    1.742433
     11          9           0        6.912195    1.270118    3.938704
     12          1           0        0.689019   -0.218958   -1.523950
     13          1           0        0.598891    1.036296   -0.281642
     14          1           0        0.507499   -0.667629    0.176867
     15          1           0        2.977181    0.689415   -1.068359
     16          1           0        2.886150   -1.000952   -0.611158
     17          1           0        2.518154   -0.332090    1.780253
     18          1           0        2.623648    1.360237    1.326110
     19          1           0        4.948257    0.956308    0.443303
     20          1           0        4.858839   -0.707376    0.993354
     21          1           0        4.650558    1.740054    2.813499
     22          1           0        5.385083   -0.383008    4.432630
     23          1           0        4.283366   -1.180844    3.324090
     24          1           0        3.671436    1.297419    5.039517
     25          1           0        3.074998   -0.340795    5.334123
     26          1           0        2.511121    0.566528    3.925599
     27          1           0        7.224140   -0.695429    1.286767
     28          1           0        7.017929   -1.205283    2.972333
     29          1           0        8.419336   -0.226944    2.507381
     30          1           0        6.950188    1.834089    0.678722
     31          1           0        8.133445    2.230126    1.933000
     32          1           0        6.523225    2.970334    1.974412
 ---------------------------------------------------------------------
                    Distance matrix (angstroms):
                    1          2          3          4          5
     1  C    0.000000
     2  C    1.531030   0.000000
     3  C    2.557609   1.533273   0.000000
     4  C    3.927007   2.556033   1.534167   0.000000
     5  C    5.149696   3.952659   2.592818   1.542372   0.000000
     6  C    5.549005   4.575707   3.152352   2.577180   1.553073
     7  C    5.602217   4.989621   3.507905   3.521406   2.585893
     8  C    6.460544   5.114342   3.954511   2.568851   1.550334
     9  C    6.974386   5.541218   4.604972   3.128641   2.584262
    10  C    6.785141   5.416084   4.473853   3.138923   2.568094
    11  F    7.502435   6.270504   4.949054   3.753196   2.360685
    12  H    1.094523   2.183685   3.510090   4.734366   6.072665
    13  H    1.095772   2.181061   2.825356   4.253415   5.304998
    14  H    1.095759   2.181159   2.826196   4.252532   5.329657
    15  H    2.161865   1.098227   2.160442   2.778852   4.211303
    16  H    2.161682   1.098245   2.159990   2.776385   4.240621
    17  H    2.771753   2.154697   1.097027   2.170726   2.860209
    18  H    2.784643   2.160710   1.098974   2.164069   2.804464
    19  H    4.168557   2.730637   2.143458   1.096820   2.172048
    20  H    4.211736   2.790568   2.154064   1.098389   2.168200
    21  H    5.222649   4.193334   2.781244   2.147534   1.099108
    22  H    6.621091   5.588990   4.198773   3.403962   2.172268
    23  H    5.193161   4.243198   3.023390   2.592621   2.183097
    24  H    6.284349   5.661497   4.140227   4.037159   2.852184
    25  H    6.210387   5.720414   4.325347   4.410238   3.533896
    26  H    4.712678   4.311855   2.906354   3.378476   2.860582
    27  H    6.524111   5.031838   4.371192   2.892613   2.922241
    28  H    7.065899   5.722210   4.724335   3.414209   2.794187
    29  H    8.017492   6.561405   5.650359   4.149009   3.513379
    30  H    6.332442   4.907055   4.247429   2.923570   2.924141
    31  H    7.855983   6.460065   5.545103   4.159616   3.499105
    32  H    6.731460   5.502486   4.490324   3.418538   2.754442
                    6          7          8          9         10
     6  C    0.000000
     7  C    1.533729   0.000000
     8  C    2.564115   3.775485   0.000000
     9  C    3.136706   4.609730   1.528485   0.000000
    10  C    3.924358   4.934425   1.528682   2.525933   0.000000
    11  F    2.784330   3.694447   1.409304   2.353429   2.336876
    12  H    6.533912   6.671725   7.290901   7.698848   7.520755
    13  H    5.779027   5.619326   6.651614   7.379360   6.857197
    14  H    5.415499   5.335754   6.733003   7.180728   7.275508
    15  H    5.140864   5.644260   5.161946   5.642997   5.149760
    16  H    4.730042   5.362195   5.264510   5.381909   5.690166
    17  H    2.832569   2.984818   4.329401   4.865821   5.139885
    18  H    3.467181   3.461671   4.190586   5.140616   4.520381
    19  H    3.517572   4.436066   2.722329   3.338031   2.719649
    20  H    2.809583   3.996623   2.863382   2.846546   3.615621
    21  H    2.155859   2.555164   2.116180   3.473841   2.665451
    22  H    1.092663   2.137323   2.523372   2.881013   4.001492
    23  H    1.097242   2.165174   3.180030   3.322731   4.552842
    24  H    2.174025   1.095305   3.806818   4.872899   4.795804
    25  H    2.181006   1.094997   4.605816   5.228448   5.882019
    26  H    2.195116   1.094227   4.289131   5.186961   5.269647
    27  H    3.656759   5.149258   2.175120   1.093306   2.789615
    28  H    2.764692   4.259690   2.178083   1.092812   3.482594
    29  H    4.053401   5.465554   2.157285   1.093576   2.756476
    30  H    4.387747   5.466844   2.185108   2.796848   1.092627
    31  H    4.687755   5.736500   2.155393   2.760907   1.093661
    32  H    4.130077   4.827860   2.169748   3.477718   1.093910
                   11         12         13         14         15
    11  F    0.000000
    12  H    8.413434   0.000000
    13  H    7.597618   1.768366   0.000000
    14  H    7.676355   1.768342   1.766902   0.000000
    15  H    6.394704   2.503675   2.528935   3.080825   0.000000
    16  H    6.485988   2.504414   3.080668   2.527859   1.753471
    17  H    5.151076   3.778399   3.131687   2.593486   3.060845
    18  H    5.022491   3.789391   2.605655   3.148188   2.511667
    19  H    4.021612   4.836573   4.410093   4.735872   2.498298
    20  H    4.099005   4.895178   4.776312   4.427458   3.121269
    21  H    2.569422   6.192333   5.146957   5.469342   4.355784
    22  H    2.304096   7.586883   6.866325   6.479457   6.099916
    23  H    3.646328   6.111305   5.611806   4.942224   4.949505
    24  H    3.422727   7.367042   6.150077   6.125135   6.177201
    25  H    4.389342   7.262293   6.290016   5.770283   6.485575
    26  H    4.456979   5.799537   4.645232   4.426131   5.017163
    27  H    3.315638   7.129864   7.025148   6.807784   5.049859
    28  H    2.659448   7.825887   7.537710   7.105589   6.020359
    29  H    2.561513   8.718343   8.398439   8.259701   6.575917
    30  H    3.308624   6.947589   6.472846   6.929552   4.488580
    31  H    2.536910   8.565512   7.943511   8.344821   6.161900
    32  H    2.626876   7.513194   6.627820   7.256370   5.199565
                   16         17         18         19         20
    16  H    0.000000
    17  H    2.510307   0.000000
    18  H    3.065473   1.755377   0.000000
    19  H    3.032332   3.058235   2.519189   0.000000
    20  H    2.559715   2.497770   3.062977   1.754535   0.000000
    21  H    4.728057   3.147781   2.542627   2.514103   3.057159
    22  H    5.662713   3.906018   4.507205   4.230758   3.494391
    23  H    4.179803   2.493950   3.633687   3.648072   2.446972
    24  H    6.150553   3.822062   3.858912   4.782448   4.669108
    25  H    5.984800   3.597241   4.377373   5.395525   4.707308
    26  H    4.814540   2.325956   2.720290   4.268248   3.966443
    27  H    4.744852   4.745719   5.039032   2.935866   2.383461
    28  H    5.473093   4.736190   5.348051   3.918164   2.970849
    29  H    6.398478   5.946740   6.124095   4.208194   3.898748
    30  H    5.120316   5.054565   4.400295   2.198556   3.306323
    31  H    6.666836   6.174121   5.610961   3.739951   4.498321
    32  H    5.973658   5.194641   4.268420   2.980121   4.154299
                   21         22         23         24         25
    21  H    0.000000
    22  H    2.769206   0.000000
    23  H    2.987838   1.754761   0.000000
    24  H    2.471793   2.475629   3.075539   0.000000
    25  H    3.628480   2.480114   2.491198   1.768128   0.000000
    26  H    2.681625   3.068934   2.560464   1.766733   1.767805
    27  H    3.858214   3.657348   3.610328   5.538618   5.807086
    28  H    3.782153   2.339827   2.757202   4.662165   4.676761
    29  H    4.262215   3.596891   4.322405   5.592669   6.046932
    30  H    3.139174   4.632159   4.816610   5.482223   6.435835
    31  H    3.625735   4.542038   5.328504   5.516332   6.615524
    32  H    2.392601   4.310812   4.906208   4.508460   5.843073
                   26         27         28         29         30
    26  H    0.000000
    27  H    5.546938   0.000000
    28  H    4.935519   1.773023   0.000000
    29  H    6.127637   1.771404   1.771234   0.000000
    30  H    5.643955   2.615956   3.808284   3.122539   0.000000
    31  H    6.192619   3.131026   3.758540   2.539456   1.769225
    32  H    5.067779   3.794990   4.321615   3.755246   1.775433
                   31         32
    31  H    0.000000
    32  H    1.772690   0.000000
 Stoichiometry    C10H21F
 Framework group  C1[X(C10H21F)]
 Deg. of freedom    90
 Full point group                 C1      NOp   1
 Largest Abelian subgroup         C1      NOp   1
 Largest concise Abelian subgroup C1      NOp   1
                         Standard orientation:                         
 ---------------------------------------------------------------------
 Center     Atomic      Atomic             Coordinates (Angstroms)
 Number     Number       Type             X           Y           Z
 ---------------------------------------------------------------------
      1          6           0       -4.526373   -0.277810   -0.124215
      2          6           0       -3.166622   -0.900743    0.203020
      3          6           0       -1.985569    0.014402   -0.141289
      4          6           0       -0.626674   -0.614633    0.192459
      5          6           0        0.596961    0.236405   -0.204232
      6          6           0        0.654098    1.593068    0.549582
      7          6           0        0.162269    2.784317   -0.281897
      8          6           0        1.928346   -0.545557   -0.064636
      9          6           0        2.250883   -0.980822    1.364623
     10          6           0        2.040921   -1.714519   -1.043270
     11          9           0        2.942340    0.356601   -0.444193
     12          1           0       -5.348486   -0.953701    0.131287
     13          1           0       -4.607853   -0.043296   -1.191492
     14          1           0       -4.678232    0.655210    0.429951
     15          1           0       -3.058463   -1.850491   -0.337706
     16          1           0       -3.127373   -1.155365    1.270619
     17          1           0       -2.103331    0.963316    0.396450
     18          1           0       -2.020368    0.263255   -1.211151
     19          1           0       -0.573966   -1.590161   -0.306119
     20          1           0       -0.589610   -0.820843    1.270681
     21          1           0        0.513949    0.457589   -1.277649
     22          1           0        1.686540    1.796025    0.844171
     23          1           0        0.072578    1.525721    1.477612
     24          1           0        0.785483    2.912213   -1.173490
     25          1           0        0.212913    3.713739    0.294841
     26          1           0       -0.871586    2.656354   -0.616713
     27          1           0        1.559238   -1.756505    1.704124
     28          1           0        2.192420   -0.138817    2.058774
     29          1           0        3.265517   -1.386833    1.404413
     30          1           0        1.356038   -2.526570   -0.787650
     31          1           0        3.059900   -2.111097   -1.020871
     32          1           0        1.824189   -1.383796   -2.063215
 ---------------------------------------------------------------------
 Rotational constants (GHZ):           1.5331061           0.5270977           0.4430582
 Standard basis: 6-31+G(3df,2p) (6D, 7F)
 There are   619 symmetry adapted cartesian basis functions of A   symmetry.
 There are   586 symmetry adapted basis functions of A   symmetry.
   586 basis functions,   804 primitive gaussians,   619 cartesian basis functions
    45 alpha electrons       45 beta electrons
       nuclear repulsion energy       681.6779092573 Hartrees.
 NAtoms=   32 NActive=   32 NUniq=   32 SFac= 1.00D+00 NAtFMM=   60 NAOKFM=F Big=F
 Integral buffers will be    131072 words long.
 Regular integral format.
 Two-electron integral symmetry is turned on.
 One-electron integrals computed using PRISM.
 PrsmSu:  requested number of processors reduced to:  12 ShMem   1 Linda.
 NBasis=   586 RedAO= T EigKep=  3.15D-06  NBF=   586
 NBsUse=   586 1.00D-06 EigRej= -1.00D+00 NBFU=   586
 ExpMin= 4.38D-02 ExpMax= 7.00D+03 ExpMxC= 1.05D+03 IAcc=3 IRadAn=         5 AccDes= 0.00D+00
 Harris functional with IExCor=  402 and IRadAn=       5 diagonalized for initial guess.
 HarFok:  IExCor=  402 AccDes= 0.00D+00 IRadAn=         5 IDoV= 1 UseB2=F ITyADJ=14
 ICtDFT=  3500011 ScaDFX=  1.000000  1.000000  1.000000  1.000000
 FoFCou: FMM=F IPFlag=           0 FMFlag=      100000 FMFlg1=           0
         NFxFlg=           0 DoJE=T BraDBF=F KetDBF=T FulRan=T
         wScrn=  0.000000 ICntrl=       500 IOpCl=  0 I1Cent=   200000004 NGrid=           0
         NMat0=    1 NMatS0=      1 NMatT0=    0 NMatD0=    1 NMtDS0=    0 NMtDT0=    0
 Petite list used in FoFCou.
 Requested convergence on RMS density matrix=1.00D-08 within 128 cycles.
 Requested convergence on MAX density matrix=1.00D-06.
 Requested convergence on             energy=1.00D-06.
 No special actions if energy rises.
 SCF Done:  E(RB3LYP) =  -493.641950687     A.U. after   12 cycles
            NFock= 12  Conv=0.34D-08     -V/T= 2.0080
 DoSCS=F DFT=T ScalE2(SS,OS)=  1.000000  1.000000
 ExpMin= 4.38D-02 ExpMax= 7.00D+03 ExpMxC= 1.05D+03 IAcc=3 IRadAn=         5 AccDes= 0.00D+00
 HarFok:  IExCor=  205 AccDes= 0.00D+00 IRadAn=         5 IDoV=-2 UseB2=F ITyADJ=14
 ICtDFT= 12500011 ScaDFX=  1.000000  1.000000  1.000000  1.000000
 Range of M.O.s used for correlation:    12   586
 NBasis=   586 NAE=    45 NBE=    45 NFC=    11 NFV=     0
 NROrb=    575 NOA=    34 NOB=    34 NVA=   541 NVB=   541

 **** Warning!!: The largest alpha MO coefficient is  0.11019472D+03

 Orbital symmetries:
       Occupied  (A) (A) (A) (A) (A) (A) (A) (A) (A) (A) (A) (A)
                 (A) (A) (A) (A) (A) (A) (A) (A) (A) (A) (A) (A)
                 (A) (A) (A) (A) (A) (A) (A) (A) (A) (A) (A) (A)
                 (A) (A) (A) (A) (A) (A) (A) (A) (A)
       Virtual   (A) (A) (A) (A) (A) (A) (A) (A) (A) (A) (A) (A)
                 (A) (A) (A) (A) (A) (A) (A) (A) (A) (A) (A) (A)
                 (A) (A) (A) (A) (A) (A) (A) (A) (A) (A) (A) (A)
                 (A) (A) (A) (A) (A) (A) (A) (A) (A) (A) (A) (A)
                 (A) (A) (A) (A) (A) (A) (A) (A) (A) (A) (A) (A)
                 (A) (A) (A) (A) (A) (A) (A) (A) (A) (A) (A) (A)
                 (A) (A) (A) (A) (A) (A) (A) (A) (A) (A) (A) (A)
                 (A) (A) (A) (A) (A) (A) (A) (A) (A) (A) (A) (A)
                 (A) (A) (A) (A) (A) (A) (A) (A) (A) (A) (A) (A)
                 (A) (A) (A) (A) (A) (A) (A) (A) (A) (A) (A) (A)
                 (A) (A) (A) (A) (A) (A) (A) (A) (A) (A) (A) (A)
                 (A) (A) (A) (A) (A) (A) (A) (A) (A) (A) (A) (A)
                 (A) (A) (A) (A) (A) (A) (A) (A) (A) (A) (A) (A)
                 (A) (A) (A) (A) (A) (A) (A) (A) (A) (A) (A) (A)
                 (A) (A) (A) (A) (A) (A) (A) (A) (A) (A) (A) (A)
                 (A) (A) (A) (A) (A) (A) (A) (A) (A) (A) (A) (A)
                 (A) (A) (A) (A) (A) (A) (A) (A) (A) (A) (A) (A)
                 (A) (A) (A) (A) (A) (A) (A) (A) (A) (A) (A) (A)
                 (A) (A) (A) (A) (A) (A) (A) (A) (A) (A) (A) (A)
                 (A) (A) (A) (A) (A) (A) (A) (A) (A) (A) (A) (A)
                 (A) (A) (A) (A) (A) (A) (A) (A) (A) (A) (A) (A)
                 (A) (A) (A) (A) (A) (A) (A) (A) (A) (A) (A) (A)
                 (A) (A) (A) (A) (A) (A) (A) (A) (A) (A) (A) (A)
                 (A) (A) (A) (A) (A) (A) (A) (A) (A) (A) (A) (A)
                 (A) (A) (A) (A) (A) (A) (A) (A) (A) (A) (A) (A)
                 (A) (A) (A) (A) (A) (A) (A) (A) (A) (A) (A) (A)
                 (A) (A) (A) (A) (A) (A) (A) (A) (A) (A) (A) (A)
                 (A) (A) (A) (A) (A) (A) (A) (A) (A) (A) (A) (A)
                 (A) (A) (A) (A) (A) (A) (A) (A) (A) (A) (A) (A)
                 (A) (A) (A) (A) (A) (A) (A) (A) (A) (A) (A) (A)
                 (A) (A) (A) (A) (A) (A) (A) (A) (A) (A) (A) (A)
                 (A) (A) (A) (A) (A) (A) (A) (A) (A) (A) (A) (A)
                 (A) (A) (A) (A) (A) (A) (A) (A) (A) (A) (A) (A)
                 (A) (A) (A) (A) (A) (A) (A) (A) (A) (A) (A) (A)
                 (A) (A) (A) (A) (A) (A) (A) (A) (A) (A) (A) (A)
                 (A) (A) (A) (A) (A) (A) (A) (A) (A) (A) (A) (A)
                 (A) (A) (A) (A) (A) (A) (A) (A) (A) (A) (A) (A)
                 (A) (A) (A) (A) (A) (A) (A) (A) (A) (A) (A) (A)
                 (A) (A) (A) (A) (A) (A) (A) (A) (A) (A) (A) (A)
                 (A) (A) (A) (A) (A) (A) (A) (A) (A) (A) (A) (A)
                 (A) (A) (A) (A) (A) (A) (A) (A) (A) (A) (A) (A)
                 (A) (A) (A) (A) (A) (A) (A) (A) (A) (A) (A) (A)
                 (A) (A) (A) (A) (A) (A) (A) (A) (A) (A) (A) (A)
                 (A) (A) (A) (A) (A) (A) (A) (A) (A) (A) (A) (A)
                 (A) (A) (A) (A) (A) (A) (A) (A) (A) (A) (A) (A)
                 (A)
    40 initial guesses have been made.
 Convergence on wavefunction:    0.000001000000000
 Iteration     1 Dimension    40 NMult     0 NNew     40
 CISAX will form     3 AO SS matrices at one time.
 New state      4 was old state      6
 New state      6 was old state      4
 New state      8 was old state      9
 New state      9 was old state      8
 Iteration     2 Dimension    60 NMult    40 NNew     20
 Iteration     3 Dimension    80 NMult    60 NNew     20
 Iteration     4 Dimension   100 NMult    80 NNew     20
 Iteration     5 Dimension   120 NMult   100 NNew     20
 Iteration     6 Dimension   140 NMult   120 NNew     20
 Iteration     7 Dimension   160 NMult   140 NNew     20
 Iteration     8 Dimension   180 NMult   160 NNew     20
 Iteration     9 Dimension   200 NMult   180 NNew     20
 Iteration    10 Dimension   220 NMult   200 NNew     20
 Iteration    11 Dimension   240 NMult   220 NNew     20
 Iteration    12 Dimension   258 NMult   240 NNew     18
 Iteration    13 Dimension   266 NMult   258 NNew      8
 ***********************************************************************
 Excited states from <AA,BB:AA,BB> singles matrix:
 ***********************************************************************
 
 Ground to excited state transition densities written to RWF  633
 Ground to excited state transition electric dipole moments (Au):
       state          X           Y           Z        Dip. S.      Osc.
         1        -0.2325      0.1885     -0.0765      0.0955      0.0175
         2        -0.0052      0.0039     -0.1443      0.0209      0.0039
         3        -0.1082      0.0831      0.0143      0.0188      0.0036
         4        -0.1148     -0.0175      0.0086      0.0136      0.0026
         5         0.0002     -0.2137      0.0671      0.0502      0.0098
         6        -0.0524      0.0569     -0.0612      0.0097      0.0019
         7         0.1646      0.3312      0.1285      0.1533      0.0302
         8        -0.0797      0.0724     -0.0762      0.0174      0.0035
         9        -0.0380      0.1700      0.1863      0.0650      0.0130
        10         0.0064     -0.0637      0.0731      0.0094      0.0019
 Ground to excited state transition velocity dipole moments (Au):
       state          X           Y           Z        Dip. S.      Osc.
         1         0.0655     -0.0535      0.0218      0.0076      0.0185
         2         0.0015     -0.0009      0.0420      0.0018      0.0042
         3         0.0318     -0.0244     -0.0040      0.0016      0.0038
         4         0.0338      0.0046     -0.0020      0.0012      0.0027
         5        -0.0011      0.0628     -0.0218      0.0044      0.0101
         6         0.0167     -0.0164      0.0181      0.0009      0.0020
         7        -0.0492     -0.0987     -0.0382      0.0136      0.0307
         8         0.0236     -0.0196      0.0208      0.0014      0.0031
         9         0.0107     -0.0516     -0.0555      0.0059      0.0130
        10        -0.0013      0.0205     -0.0222      0.0009      0.0020
 Ground to excited state transition magnetic dipole moments (Au):
       state          X           Y           Z
         1        -0.1937     -0.3646     -0.5252
         2         0.2803     -0.5941      0.1615
         3        -0.1849     -0.2316     -0.0931
         4        -0.0825     -0.0450     -0.3463
         5         0.4718      0.1974     -0.6138
         6         0.0826     -0.1740     -0.4048
         7        -0.0693      0.3010      0.3749
         8         0.3462     -0.1609     -0.0663
         9         0.5071      0.2780     -0.1609
        10         0.6007      0.1043      0.0432
 Ground to excited state transition velocity quadrupole moments (Au):
       state          XX          YY          ZZ          XY          XZ          YZ
         1         0.3648      0.0998      0.0181     -0.4812      0.0802     -0.1083
         2        -0.1742      0.1739     -0.0623      0.0657      0.1765     -0.1116
         3        -0.7919     -0.5370      0.1369      0.2259     -0.0706      0.0014
         4        -0.1065      0.2995     -0.1264     -0.1069     -0.1675      0.1767
         5        -0.8174      0.4894      0.1708     -0.0395     -0.2578      0.2188
         6         0.8183      0.1004     -0.1039     -0.1856     -0.0018      0.0302
         7         0.3136     -0.1174      0.2992      0.0945     -0.3266      0.0328
         8         0.1287      0.0414     -0.2468      0.1288      0.1119      0.0914
         9        -0.0312      0.1197     -0.2820     -0.1531     -0.0952      0.2808
        10         0.0389      0.3966     -0.4269      0.0822     -0.1467      0.3476
 <0|del|b> * <b|rxdel|0> + <0|del|b> * <b|delr+rdel|0>
 Rotatory Strengths (R) in cgs (10**-40 erg-esu-cm/Gauss)
       state          XX          YY          ZZ    R(velocity)    E-M Angle
         1         2.3523    -26.6338     12.3531     -3.9761       94.57
         2        12.8007      5.3577      1.1704      6.4429       74.28
         3         4.1732     -5.6000      1.7768      0.1167       89.35
         4         1.7779      4.4486    -11.8345     -1.8693      100.84
         5        51.8906     14.2846     -4.9214     20.4179       61.58
         6        -9.4253     -2.4980      4.5237     -2.4665      103.42
         7       -95.5354    -10.6629      9.0330    -32.3884      135.76
         8         7.8746      7.4386      8.2658      7.8597       46.15
         9        -2.1356     10.4230     -8.2536      0.0113       90.00
        10         2.7494     -0.3714     -1.3842      0.3313       88.68
 1/2[<0|r|b>*<b|rxdel|0> + (<0|rxdel|b>*<b|r|0>)*]
 Rotatory Strengths (R) in cgs (10**-40 erg-esu-cm/Gauss)
       state          XX          YY          ZZ     R(length)
         1       -31.8495     48.5951    -28.4194     -3.8913
         2         1.0221      1.6486     16.4875      6.3861
         3       -14.1514     13.6174      0.9433      0.1364
         4        -6.6977     -0.5560      2.1094     -1.7148
         5        -0.0771     29.8336     29.1211     19.6259
         6         3.0604      6.9992    -17.5241     -2.4881
         7         8.0697    -70.4975    -34.0686    -32.1655
         8        19.5130      8.2313     -3.5725      8.0573
         9        13.6226    -33.4181     21.1926      0.4657
        10        -2.7349      4.6945     -2.2305     -0.0903
  1/2[<0|del|b>*<b|r|0> + (<0|r|b>*<b|del|0>)*] (Au)
       state          X           Y           Z        Dip. S.   Osc.(frdel)
         1        -0.0152     -0.0101     -0.0017      0.0270      0.0180
         2        -0.0000     -0.0000     -0.0061      0.0061      0.0041
         3        -0.0034     -0.0020     -0.0001      0.0055      0.0037
         4        -0.0039     -0.0001     -0.0000      0.0040      0.0027
         5        -0.0000     -0.0134     -0.0015      0.0149      0.0099
         6        -0.0009     -0.0009     -0.0011      0.0029      0.0019
         7        -0.0081     -0.0327     -0.0049      0.0457      0.0305
         8        -0.0019     -0.0014     -0.0016      0.0049      0.0033
         9        -0.0004     -0.0088     -0.0103      0.0195      0.0130
        10        -0.0000     -0.0013     -0.0016      0.0029      0.0020

 Excitation energies and oscillator strengths:
 
 Excited State   1:      Singlet-A      7.4893 eV  165.55 nm  f=0.0175  <S**2>=0.000
      45 -> 46         0.70118
 This state for optimization and/or second-order correction.
 Total Energy, E(TD-HF/TD-DFT) =  -493.366722863    
 Copying the excited state density for this state as the 1-particle RhoCI density.
 
 Excited State   2:      Singlet-A      7.6757 eV  161.53 nm  f=0.0039  <S**2>=0.000
      44 -> 46         0.69407
 
 Excited State   3:      Singlet-A      7.8252 eV  158.44 nm  f=0.0036  <S**2>=0.000
      45 -> 47         0.68071
      45 -> 48         0.11572
 
 Excited State   4:      Singlet-A      7.9194 eV  156.56 nm  f=0.0026  <S**2>=0.000
      43 -> 46         0.10378
      44 -> 47         0.12785
      45 -> 48        -0.33352
      45 -> 49         0.59121
 
 Excited State   5:      Singlet-A      7.9453 eV  156.05 nm  f=0.0098  <S**2>=0.000
      43 -> 46         0.36969
      44 -> 47         0.47193
      45 -> 48        -0.18278
      45 -> 49        -0.27674
 
 Excited State   6:      Singlet-A      8.0026 eV  154.93 nm  f=0.0019  <S**2>=0.000
      43 -> 46        -0.13377
      44 -> 47         0.36686
      44 -> 48         0.21869
      45 -> 48         0.47122
      45 -> 49         0.20969
 
 Excited State   7:      Singlet-A      8.0420 eV  154.17 nm  f=0.0302  <S**2>=0.000
      43 -> 46         0.54488
      44 -> 47        -0.22739
      44 -> 49        -0.12841
      45 -> 47        -0.11157
      45 -> 48         0.28730
      45 -> 49         0.11495
 
 Excited State   8:      Singlet-A      8.1095 eV  152.89 nm  f=0.0035  <S**2>=0.000
      44 -> 48        -0.33516
      44 -> 49         0.59285
 
 Excited State   9:      Singlet-A      8.1703 eV  151.75 nm  f=0.0130  <S**2>=0.000
      42 -> 46         0.42672
      42 -> 47         0.13885
      42 -> 48        -0.11028
      44 -> 47         0.13230
      44 -> 48        -0.38808
      44 -> 49        -0.26489
 
 Excited State  10:      Singlet-A      8.2391 eV  150.48 nm  f=0.0019  <S**2>=0.000
      42 -> 46         0.45660
      42 -> 47         0.13791
      42 -> 48        -0.13007
      44 -> 47        -0.15367
      44 -> 48         0.35836
      44 -> 49         0.19896
 SavETr:  write IOETrn=   770 NScale= 10 NData=  16 NLR=1 NState=   10 LETran=     190.
          IDoAtm=11111111111111111111111111111111
          Differentiating once with respect to electric field.
                with respect to dipole field.
          Differentiating once with respect to nuclear coordinates.
          There are     1 degrees of freedom in the 1st order CPHF.  IDoFFX=0 NUNeed=     1.
 LinEq1:  Iter=  0 NonCon=     1 RMS=5.79D-03 Max=9.83D-02 NDo=     1
 AX will form     1 AO Fock derivatives at one time.
 LinEq1:  Iter=  1 NonCon=     1 RMS=1.28D-03 Max=1.61D-02 NDo=     1
 LinEq1:  Iter=  2 NonCon=     1 RMS=6.15D-04 Max=1.26D-02 NDo=     1
 LinEq1:  Iter=  3 NonCon=     1 RMS=2.71D-04 Max=4.68D-03 NDo=     1
 LinEq1:  Iter=  4 NonCon=     1 RMS=1.14D-04 Max=2.25D-03 NDo=     1
 LinEq1:  Iter=  5 NonCon=     1 RMS=6.79D-05 Max=1.09D-03 NDo=     1
 LinEq1:  Iter=  6 NonCon=     1 RMS=2.62D-05 Max=3.87D-04 NDo=     1
 LinEq1:  Iter=  7 NonCon=     1 RMS=1.00D-05 Max=1.13D-04 NDo=     1
 LinEq1:  Iter=  8 NonCon=     1 RMS=4.41D-06 Max=6.02D-05 NDo=     1
 LinEq1:  Iter=  9 NonCon=     1 RMS=1.43D-06 Max=2.00D-05 NDo=     1
 LinEq1:  Iter= 10 NonCon=     1 RMS=5.65D-07 Max=7.19D-06 NDo=     1
 LinEq1:  Iter= 11 NonCon=     1 RMS=2.49D-07 Max=2.51D-06 NDo=     1
 LinEq1:  Iter= 12 NonCon=     1 RMS=8.37D-08 Max=1.41D-06 NDo=     1
 LinEq1:  Iter= 13 NonCon=     1 RMS=3.60D-08 Max=6.20D-07 NDo=     1
 LinEq1:  Iter= 14 NonCon=     1 RMS=1.42D-08 Max=2.16D-07 NDo=     1
 LinEq1:  Iter= 15 NonCon=     1 RMS=5.50D-09 Max=6.26D-08 NDo=     1
 LinEq1:  Iter= 16 NonCon=     1 RMS=1.60D-09 Max=1.82D-08 NDo=     1
 LinEq1:  Iter= 17 NonCon=     1 RMS=7.21D-10 Max=1.14D-08 NDo=     1
 LinEq1:  Iter= 18 NonCon=     1 RMS=2.77D-10 Max=3.37D-09 NDo=     1
 LinEq1:  Iter= 19 NonCon=     1 RMS=9.73D-11 Max=1.40D-09 NDo=     1
 LinEq1:  Iter= 20 NonCon=     0 RMS=4.22D-11 Max=4.87D-10 NDo=     1
 Linear equations converged to 1.000D-10 1.000D-09 after    20 iterations.
 End of Minotr F.D. properties file   721 does not exist.
 End of Minotr F.D. properties file   722 does not exist.
 End of Minotr F.D. properties file   788 does not exist.

 **********************************************************************

            Population analysis using the SCF density.

 **********************************************************************

 Orbital symmetries:
       Occupied  (A) (A) (A) (A) (A) (A) (A) (A) (A) (A) (A) (A)
                 (A) (A) (A) (A) (A) (A) (A) (A) (A) (A) (A) (A)
                 (A) (A) (A) (A) (A) (A) (A) (A) (A) (A) (A) (A)
                 (A) (A) (A) (A) (A) (A) (A) (A) (A)
       Virtual   (A) (A) (A) (A) (A) (A) (A) (A) (A) (A) (A) (A)
                 (A) (A) (A) (A) (A) (A) (A) (A) (A) (A) (A) (A)
                 (A) (A) (A) (A) (A) (A) (A) (A) (A) (A) (A) (A)
                 (A) (A) (A) (A) (A) (A) (A) (A) (A) (A) (A) (A)
                 (A) (A) (A) (A) (A) (A) (A) (A) (A) (A) (A) (A)
                 (A) (A) (A) (A) (A) (A) (A) (A) (A) (A) (A) (A)
                 (A) (A) (A) (A) (A) (A) (A) (A) (A) (A) (A) (A)
                 (A) (A) (A) (A) (A) (A) (A) (A) (A) (A) (A) (A)
                 (A) (A) (A) (A) (A) (A) (A) (A) (A) (A) (A) (A)
                 (A) (A) (A) (A) (A) (A) (A) (A) (A) (A) (A) (A)
                 (A) (A) (A) (A) (A) (A) (A) (A) (A) (A) (A) (A)
                 (A) (A) (A) (A) (A) (A) (A) (A) (A) (A) (A) (A)
                 (A) (A) (A) (A) (A) (A) (A) (A) (A) (A) (A) (A)
                 (A) (A) (A) (A) (A) (A) (A) (A) (A) (A) (A) (A)
                 (A) (A) (A) (A) (A) (A) (A) (A) (A) (A) (A) (A)
                 (A) (A) (A) (A) (A) (A) (A) (A) (A) (A) (A) (A)
                 (A) (A) (A) (A) (A) (A) (A) (A) (A) (A) (A) (A)
                 (A) (A) (A) (A) (A) (A) (A) (A) (A) (A) (A) (A)
                 (A) (A) (A) (A) (A) (A) (A) (A) (A) (A) (A) (A)
                 (A) (A) (A) (A) (A) (A) (A) (A) (A) (A) (A) (A)
                 (A) (A) (A) (A) (A) (A) (A) (A) (A) (A) (A) (A)
                 (A) (A) (A) (A) (A) (A) (A) (A) (A) (A) (A) (A)
                 (A) (A) (A) (A) (A) (A) (A) (A) (A) (A) (A) (A)
                 (A) (A) (A) (A) (A) (A) (A) (A) (A) (A) (A) (A)
                 (A) (A) (A) (A) (A) (A) (A) (A) (A) (A) (A) (A)
                 (A) (A) (A) (A) (A) (A) (A) (A) (A) (A) (A) (A)
                 (A) (A) (A) (A) (A) (A) (A) (A) (A) (A) (A) (A)
                 (A) (A) (A) (A) (A) (A) (A) (A) (A) (A) (A) (A)
                 (A) (A) (A) (A) (A) (A) (A) (A) (A) (A) (A) (A)
                 (A) (A) (A) (A) (A) (A) (A) (A) (A) (A) (A) (A)
                 (A) (A) (A) (A) (A) (A) (A) (A) (A) (A) (A) (A)
                 (A) (A) (A) (A) (A) (A) (A) (A) (A) (A) (A) (A)
                 (A) (A) (A) (A) (A) (A) (A) (A) (A) (A) (A) (A)
                 (A) (A) (A) (A) (A) (A) (A) (A) (A) (A) (A) (A)
                 (A) (A) (A) (A) (A) (A) (A) (A) (A) (A) (A) (A)
                 (A) (A) (A) (A) (A) (A) (A) (A) (A) (A) (A) (A)
                 (A) (A) (A) (A) (A) (A) (A) (A) (A) (A) (A) (A)
                 (A) (A) (A) (A) (A) (A) (A) (A) (A) (A) (A) (A)
                 (A) (A) (A) (A) (A) (A) (A) (A) (A) (A) (A) (A)
                 (A) (A) (A) (A) (A) (A) (A) (A) (A) (A) (A) (A)
                 (A) (A) (A) (A) (A) (A) (A) (A) (A) (A) (A) (A)
                 (A) (A) (A) (A) (A) (A) (A) (A) (A) (A) (A) (A)
                 (A) (A) (A) (A) (A) (A) (A) (A) (A) (A) (A) (A)
                 (A) (A) (A) (A) (A) (A) (A) (A) (A) (A) (A) (A)
                 (A) (A) (A) (A) (A) (A) (A) (A) (A) (A) (A) (A)
                 (A)
 The electronic state is 1-A.
 Alpha  occ. eigenvalues --  -24.68029 -10.26301 -10.18771 -10.18307 -10.18202
 Alpha  occ. eigenvalues --  -10.18073 -10.17824 -10.17824 -10.17573 -10.17469
 Alpha  occ. eigenvalues --  -10.16989  -1.18349  -0.83150  -0.79417  -0.76774
 Alpha  occ. eigenvalues --   -0.73298  -0.70149  -0.68267  -0.62577  -0.60169
 Alpha  occ. eigenvalues --   -0.58445  -0.55316  -0.49209  -0.48340  -0.47507
 Alpha  occ. eigenvalues --   -0.46416  -0.44639  -0.43069  -0.42589  -0.41587
 Alpha  occ. eigenvalues --   -0.40314  -0.39919  -0.39498  -0.38387  -0.37744
 Alpha  occ. eigenvalues --   -0.37433  -0.36097  -0.35459  -0.34275  -0.34207
 Alpha  occ. eigenvalues --   -0.33921  -0.32926  -0.32025  -0.30875  -0.30175
 Alpha virt. eigenvalues --    0.00045   0.01006   0.01565   0.01716   0.03085
 Alpha virt. eigenvalues --    0.03435   0.03856   0.04135   0.04669   0.05274
 Alpha virt. eigenvalues --    0.05743   0.06726   0.06796   0.07239   0.07476
 Alpha virt. eigenvalues --    0.07678   0.08386   0.09071   0.09513   0.09997
 Alpha virt. eigenvalues --    0.10534   0.10630   0.11799   0.11922   0.12268
 Alpha virt. eigenvalues --    0.13284   0.13547   0.14208   0.14892   0.15298
 Alpha virt. eigenvalues --    0.15772   0.16096   0.16804   0.17363   0.18118
 Alpha virt. eigenvalues --    0.19039   0.19141   0.19891   0.20467   0.20783
 Alpha virt. eigenvalues --    0.20841   0.21026   0.21807   0.22131   0.23102
 Alpha virt. eigenvalues --    0.23892   0.24054   0.24570   0.25230   0.25428
 Alpha virt. eigenvalues --    0.26001   0.26140   0.26660   0.27108   0.27788
 Alpha virt. eigenvalues --    0.28506   0.28751   0.29651   0.30216   0.30487
 Alpha virt. eigenvalues --    0.31371   0.31637   0.32781   0.33645   0.34280
 Alpha virt. eigenvalues --    0.35253   0.35303   0.36190   0.37662   0.37946
 Alpha virt. eigenvalues --    0.39623   0.40879   0.41478   0.42453   0.43491
 Alpha virt. eigenvalues --    0.44976   0.45371   0.45523   0.46204   0.47041
 Alpha virt. eigenvalues --    0.47077   0.47692   0.47879   0.48230   0.49207
 Alpha virt. eigenvalues --    0.49721   0.50108   0.50589   0.51357   0.51928
 Alpha virt. eigenvalues --    0.52174   0.52709   0.54094   0.54527   0.55564
 Alpha virt. eigenvalues --    0.56351   0.58027   0.59616   0.60292   0.60637
 Alpha virt. eigenvalues --    0.61562   0.62253   0.62421   0.63472   0.64707
 Alpha virt. eigenvalues --    0.64985   0.66035   0.67610   0.68145   0.69452
 Alpha virt. eigenvalues --    0.69782   0.70231   0.70862   0.71658   0.72230
 Alpha virt. eigenvalues --    0.72738   0.73509   0.74201   0.74688   0.74839
 Alpha virt. eigenvalues --    0.75549   0.76455   0.76986   0.77857   0.78909
 Alpha virt. eigenvalues --    0.79386   0.79742   0.81111   0.81341   0.82484
 Alpha virt. eigenvalues --    0.83710   0.84190   0.85359   0.85830   0.87260
 Alpha virt. eigenvalues --    0.87823   0.89769   0.90382   0.90967   0.92185
 Alpha virt. eigenvalues --    0.93304   0.93771   0.95576   0.96237   0.97058
 Alpha virt. eigenvalues --    0.98230   0.99442   1.00258   1.00702   1.00962
 Alpha virt. eigenvalues --    1.02347   1.03166   1.03869   1.04686   1.04758
 Alpha virt. eigenvalues --    1.05807   1.07570   1.09673   1.10976   1.11331
 Alpha virt. eigenvalues --    1.12140   1.13893   1.14508   1.15899   1.16524
 Alpha virt. eigenvalues --    1.18504   1.19410   1.19552   1.20673   1.21188
 Alpha virt. eigenvalues --    1.24218   1.25829   1.27990   1.28970   1.33130
 Alpha virt. eigenvalues --    1.33877   1.36075   1.39429   1.40474   1.41206
 Alpha virt. eigenvalues --    1.42997   1.44137   1.45176   1.45759   1.48538
 Alpha virt. eigenvalues --    1.48819   1.49338   1.51288   1.52101   1.52987
 Alpha virt. eigenvalues --    1.54020   1.54785   1.56366   1.57516   1.58190
 Alpha virt. eigenvalues --    1.58748   1.59395   1.59871   1.61554   1.62107
 Alpha virt. eigenvalues --    1.63850   1.64969   1.65413   1.66862   1.67940
 Alpha virt. eigenvalues --    1.69550   1.70442   1.71024   1.72400   1.73026
 Alpha virt. eigenvalues --    1.73825   1.75141   1.75797   1.76465   1.77208
 Alpha virt. eigenvalues --    1.77655   1.77842   1.79281   1.80371   1.80509
 Alpha virt. eigenvalues --    1.81722   1.82127   1.83654   1.84238   1.84955
 Alpha virt. eigenvalues --    1.85993   1.87218   1.88022   1.88291   1.88829
 Alpha virt. eigenvalues --    1.89897   1.90299   1.91755   1.92240   1.93178
 Alpha virt. eigenvalues --    1.94177   1.94673   1.96449   1.97422   1.99235
 Alpha virt. eigenvalues --    2.00545   2.01211   2.02494   2.03539   2.03888
 Alpha virt. eigenvalues --    2.05807   2.06408   2.07127   2.08933   2.09890
 Alpha virt. eigenvalues --    2.10708   2.11263   2.12003   2.13224   2.14560
 Alpha virt. eigenvalues --    2.14956   2.17045   2.17676   2.19776   2.20578
 Alpha virt. eigenvalues --    2.21014   2.23337   2.23613   2.24942   2.25773
 Alpha virt. eigenvalues --    2.26660   2.28564   2.29722   2.30758   2.31186
 Alpha virt. eigenvalues --    2.31697   2.33240   2.34027   2.35385   2.36814
 Alpha virt. eigenvalues --    2.37672   2.40494   2.42011   2.43766   2.45158
 Alpha virt. eigenvalues --    2.45828   2.47125   2.49442   2.50265   2.51741
 Alpha virt. eigenvalues --    2.52585   2.55416   2.56091   2.57196   2.60559
 Alpha virt. eigenvalues --    2.62571   2.65303   2.66276   2.66988   2.68919
 Alpha virt. eigenvalues --    2.69808   2.70671   2.73779   2.75119   2.75687
 Alpha virt. eigenvalues --    2.76846   2.77764   2.81354   2.83276   2.84347
 Alpha virt. eigenvalues --    2.86625   2.87900   2.91998   2.94765   2.95104
 Alpha virt. eigenvalues --    2.97715   2.98723   3.01447   3.05438   3.06408
 Alpha virt. eigenvalues --    3.07481   3.09923   3.11153   3.13060   3.13675
 Alpha virt. eigenvalues --    3.15584   3.16380   3.18364   3.20217   3.21229
 Alpha virt. eigenvalues --    3.22481   3.23005   3.23908   3.24971   3.26454
 Alpha virt. eigenvalues --    3.26809   3.27658   3.28821   3.30204   3.30723
 Alpha virt. eigenvalues --    3.31473   3.34411   3.35496   3.35806   3.40090
 Alpha virt. eigenvalues --    3.40506   3.42616   3.42923   3.43837   3.45583
 Alpha virt. eigenvalues --    3.46425   3.47996   3.49016   3.52059   3.54160
 Alpha virt. eigenvalues --    3.56551   3.58800   3.59597   3.60335   3.61608
 Alpha virt. eigenvalues --    3.63711   3.65898   3.67810   3.69352   3.71960
 Alpha virt. eigenvalues --    3.74699   3.77338   3.79694   3.81914   3.82529
 Alpha virt. eigenvalues --    3.87449   3.91381   3.94309   3.98174   4.00579
 Alpha virt. eigenvalues --    4.04788   4.08568   4.12390   4.15922   4.18015
 Alpha virt. eigenvalues --    4.22250   4.23950   4.26569   4.31895   4.39053
 Alpha virt. eigenvalues --    4.40194   4.43080   4.45457   4.49012   4.52604
 Alpha virt. eigenvalues --    4.54309   4.60165   4.64691   4.66546   4.68378
 Alpha virt. eigenvalues --    4.80609   4.91110   4.95928   5.19615   5.87956
 Alpha virt. eigenvalues --    5.96391   5.98326   5.98916   5.99390   6.00526
 Alpha virt. eigenvalues --    6.00896   6.01594   6.04777   6.05503   6.06830
 Alpha virt. eigenvalues --    6.07939   6.09375   6.10368   6.10765   6.11359
 Alpha virt. eigenvalues --    6.12406   6.13888   6.14933   6.15331   6.16328
 Alpha virt. eigenvalues --    6.17544   6.18663   6.19344   6.20897   6.21792
 Alpha virt. eigenvalues --    6.22918   6.23747   6.25514   6.26596   6.26961
 Alpha virt. eigenvalues --    6.28117   6.28756   6.30777   6.33115   6.35845
 Alpha virt. eigenvalues --    6.36805   6.46196   6.47154   6.52230   6.54194
 Alpha virt. eigenvalues --    6.58843   6.61117   6.67500   6.68360   6.69814
 Alpha virt. eigenvalues --    6.71028   6.72147   6.72913   6.74046   6.74156
 Alpha virt. eigenvalues --    6.74861   6.75349   6.76659   6.77647   6.78380
 Alpha virt. eigenvalues --    6.80115   6.80933   6.82164   6.84184   6.84413
 Alpha virt. eigenvalues --    6.86200   6.86390   6.92300   6.94861   6.99637
 Alpha virt. eigenvalues --    6.99706   7.06710   7.08395   7.08558   7.12493
 Alpha virt. eigenvalues --    7.18652   7.21161   7.22258   7.46585   7.60949
 Alpha virt. eigenvalues --    7.71867   8.01187   8.12001   8.59327   8.61536
 Alpha virt. eigenvalues --    8.69566   8.77221   8.81931   8.88007   9.13393
 Alpha virt. eigenvalues --    9.13860   9.17733   9.17921   9.20230   9.21561
 Alpha virt. eigenvalues --    9.22906   9.24486   9.26451   9.27183   9.30597
 Alpha virt. eigenvalues --    9.32872   9.33952   9.34767   9.37085   9.40330
 Alpha virt. eigenvalues --    9.40887   9.42509   9.44283   9.45173   9.47256
 Alpha virt. eigenvalues --    9.47548   9.48901   9.50456   9.54168   9.56189
 Alpha virt. eigenvalues --    9.60226   9.63886   9.69379   9.70528   9.73499
 Alpha virt. eigenvalues --    9.77181   9.80722   9.83835   9.85573   9.91768
 Alpha virt. eigenvalues --    9.96822  10.01217  10.02917  10.06923  10.10244
 Alpha virt. eigenvalues --   10.11851  10.14072  10.15289  10.18398  10.22074
 Alpha virt. eigenvalues --   10.23086  10.27979  10.32584  10.35783  11.41311
 Alpha virt. eigenvalues --   12.88874  13.17735  13.27061  13.50474  13.72521
 Alpha virt. eigenvalues --   13.93974  14.23425  14.61577  16.25222  16.73717
 Alpha virt. eigenvalues --   24.38604
          Condensed to atoms (all electrons):
               1          2          3          4          5          6
     1  C    5.290630  -0.129953   0.212054  -0.152448  -0.011430  -0.017080
     2  C   -0.129953   5.749572  -0.498911   0.447128  -0.161232   0.062533
     3  C    0.212054  -0.498911   6.861998  -1.265797   0.737271  -0.342282
     4  C   -0.152448   0.447128  -1.265797   7.875493  -1.707989   0.577240
     5  C   -0.011430  -0.161232   0.737271  -1.707989   8.268920  -0.893175
     6  C   -0.017080   0.062533  -0.342282   0.577240  -0.893175   6.269385
     7  C    0.006614  -0.023685   0.093802  -0.129126   0.041208  -0.265510
     8  C   -0.007164   0.020108  -0.150609   0.006214  -0.763282   0.036139
     9  C   -0.001448   0.001956  -0.033729   0.125864  -0.138968   0.093072
    10  C    0.001443  -0.002998   0.041648  -0.008628   0.170413  -0.087987
    11  F    0.000007   0.001502  -0.009418   0.033193  -0.028946   0.018814
    12  H    0.448392  -0.051780  -0.002587  -0.009395  -0.000456  -0.000295
    13  H    0.444292  -0.095528   0.036805  -0.005810  -0.000860   0.000632
    14  H    0.444713  -0.082922   0.026169  -0.007748   0.000197  -0.000547
    15  H    0.015000   0.382851  -0.031953  -0.003165  -0.010384   0.000523
    16  H    0.014375   0.368302  -0.026582   0.006849  -0.016078   0.002673
    17  H   -0.011660   0.040176   0.261140   0.084300  -0.034313   0.026569
    18  H   -0.007764   0.014594   0.291460   0.061352  -0.023744   0.007903
    19  H   -0.000913   0.024462  -0.073547   0.499439  -0.132720   0.018130
    20  H    0.000218   0.004117  -0.020403   0.402614  -0.030498  -0.005505
    21  H    0.001221  -0.000205   0.035288  -0.043972   0.444055  -0.101418
    22  H   -0.000006  -0.000952   0.019998  -0.065269   0.031891   0.348963
    23  H    0.000588  -0.002042   0.005125   0.026659   0.010099   0.364276
    24  H    0.000212  -0.000162   0.005097   0.019168   0.036333  -0.059689
    25  H   -0.000009   0.000245  -0.000727   0.002067  -0.027464  -0.068243
    26  H   -0.000443   0.001992  -0.006014  -0.016038   0.022016  -0.098061
    27  H    0.000168   0.000709   0.007212   0.030284  -0.045651   0.000424
    28  H    0.000005   0.000449   0.003576  -0.011841   0.071777  -0.026872
    29  H   -0.000005   0.000052  -0.003160   0.010415  -0.027384   0.010573
    30  H   -0.000052   0.001303  -0.008412   0.031579  -0.069242   0.002893
    31  H   -0.000006   0.000039  -0.002360   0.011197   0.000579  -0.000414
    32  H    0.000060  -0.000201   0.005339  -0.008793   0.031983   0.000176
               7          8          9         10         11         12
     1  C    0.006614  -0.007164  -0.001448   0.001443   0.000007   0.448392
     2  C   -0.023685   0.020108   0.001956  -0.002998   0.001502  -0.051780
     3  C    0.093802  -0.150609  -0.033729   0.041648  -0.009418  -0.002587
     4  C   -0.129126   0.006214   0.125864  -0.008628   0.033193  -0.009395
     5  C    0.041208  -0.763282  -0.138968   0.170413  -0.028946  -0.000456
     6  C   -0.265510   0.036139   0.093072  -0.087987   0.018814  -0.000295
     7  C    5.668652   0.013658  -0.023297  -0.006119  -0.002651   0.000129
     8  C    0.013658   6.905631  -0.751114  -0.604356   0.284117  -0.000207
     9  C   -0.023297  -0.751114   6.154726   0.068967  -0.145509  -0.000019
    10  C   -0.006119  -0.604356   0.068967   5.932370  -0.110866   0.000010
    11  F   -0.002651   0.284117  -0.145509  -0.110866   9.567112  -0.000000
    12  H    0.000129  -0.000207  -0.000019   0.000010  -0.000000   0.527880
    13  H   -0.000117   0.000373  -0.000028  -0.000008  -0.000000  -0.019450
    14  H   -0.000097  -0.000027   0.000037  -0.000000   0.000000  -0.019435
    15  H   -0.000520  -0.000457   0.000085  -0.000153   0.000001  -0.002502
    16  H   -0.000585   0.003647  -0.000682  -0.000212  -0.000001  -0.002482
    17  H   -0.021154   0.007123  -0.000798  -0.000368   0.000002  -0.000079
    18  H   -0.001289   0.006956  -0.001222   0.001149  -0.000026  -0.000093
    19  H   -0.003103   0.052677  -0.011078  -0.020132  -0.000124   0.000001
    20  H    0.000304   0.002204  -0.010178   0.006536  -0.000733   0.000001
    21  H    0.018611  -0.005399  -0.013425   0.003085  -0.013001   0.000000
    22  H    0.022975   0.015217  -0.005312  -0.005939  -0.006195  -0.000000
    23  H   -0.042910  -0.011423  -0.010286   0.008593  -0.001274   0.000000
    24  H    0.395070  -0.015050  -0.002698   0.004311  -0.001039   0.000000
    25  H    0.474577   0.001237   0.000952  -0.000587   0.000264   0.000000
    26  H    0.460103   0.018995  -0.000967  -0.001462   0.000036  -0.000000
    27  H    0.000582   0.019893   0.388574  -0.012428  -0.000798   0.000000
    28  H   -0.000109  -0.127704   0.452311   0.027433  -0.000177  -0.000000
    29  H    0.000308  -0.024124   0.420471  -0.005349  -0.000879  -0.000000
    30  H   -0.000387   0.045815   0.007097   0.377244  -0.001652  -0.000000
    31  H   -0.000633  -0.071674   0.030042   0.414126  -0.000984  -0.000000
    32  H    0.001887  -0.094053   0.012808   0.434574   0.001705  -0.000000
              13         14         15         16         17         18
     1  C    0.444292   0.444713   0.015000   0.014375  -0.011660  -0.007764
     2  C   -0.095528  -0.082922   0.382851   0.368302   0.040176   0.014594
     3  C    0.036805   0.026169  -0.031953  -0.026582   0.261140   0.291460
     4  C   -0.005810  -0.007748  -0.003165   0.006849   0.084300   0.061352
     5  C   -0.000860   0.000197  -0.010384  -0.016078  -0.034313  -0.023744
     6  C    0.000632  -0.000547   0.000523   0.002673   0.026569   0.007903
     7  C   -0.000117  -0.000097  -0.000520  -0.000585  -0.021154  -0.001289
     8  C    0.000373  -0.000027  -0.000457   0.003647   0.007123   0.006956
     9  C   -0.000028   0.000037   0.000085  -0.000682  -0.000798  -0.001222
    10  C   -0.000008  -0.000000  -0.000153  -0.000212  -0.000368   0.001149
    11  F   -0.000000   0.000000   0.000001  -0.000001   0.000002  -0.000026
    12  H   -0.019450  -0.019435  -0.002502  -0.002482  -0.000079  -0.000093
    13  H    0.536078  -0.020701  -0.002766   0.003055  -0.000128   0.001283
    14  H   -0.020701   0.536879   0.003028  -0.002880   0.001170  -0.000172
    15  H   -0.002766   0.003028   0.562536  -0.019243   0.003020  -0.003216
    16  H    0.003055  -0.002880  -0.019243   0.562329  -0.002998   0.003048
    17  H   -0.000128   0.001170   0.003020  -0.002998   0.562281  -0.019448
    18  H    0.001283  -0.000172  -0.003216   0.003048  -0.019448   0.566616
    19  H    0.000011   0.000004   0.002127   0.000021   0.003381  -0.002294
    20  H    0.000003   0.000007  -0.000019   0.001566  -0.003553   0.002970
    21  H    0.000000   0.000000   0.000009   0.000005  -0.000121   0.001168
    22  H   -0.000000   0.000000   0.000000  -0.000000  -0.000074  -0.000019
    23  H   -0.000000  -0.000000  -0.000002  -0.000009  -0.000056   0.000012
    24  H    0.000000  -0.000000   0.000000   0.000000  -0.000017   0.000008
    25  H    0.000000   0.000000   0.000000   0.000000   0.000211   0.000021
    26  H    0.000003  -0.000003  -0.000001   0.000000   0.000653  -0.000044
    27  H    0.000000  -0.000000   0.000000  -0.000000   0.000003  -0.000001
    28  H    0.000000  -0.000000  -0.000000   0.000000   0.000000  -0.000001
    29  H   -0.000000   0.000000  -0.000000  -0.000000   0.000000   0.000000
    30  H   -0.000000   0.000000  -0.000002   0.000000  -0.000001   0.000014
    31  H   -0.000000   0.000000  -0.000000  -0.000000   0.000000  -0.000000
    32  H   -0.000000   0.000000   0.000001   0.000000   0.000000   0.000004
              19         20         21         22         23         24
     1  C   -0.000913   0.000218   0.001221  -0.000006   0.000588   0.000212
     2  C    0.024462   0.004117  -0.000205  -0.000952  -0.002042  -0.000162
     3  C   -0.073547  -0.020403   0.035288   0.019998   0.005125   0.005097
     4  C    0.499439   0.402614  -0.043972  -0.065269   0.026659   0.019168
     5  C   -0.132720  -0.030498   0.444055   0.031891   0.010099   0.036333
     6  C    0.018130  -0.005505  -0.101418   0.348963   0.364276  -0.059689
     7  C   -0.003103   0.000304   0.018611   0.022975  -0.042910   0.395070
     8  C    0.052677   0.002204  -0.005399   0.015217  -0.011423  -0.015050
     9  C   -0.011078  -0.010178  -0.013425  -0.005312  -0.010286  -0.002698
    10  C   -0.020132   0.006536   0.003085  -0.005939   0.008593   0.004311
    11  F   -0.000124  -0.000733  -0.013001  -0.006195  -0.001274  -0.001039
    12  H    0.000001   0.000001   0.000000  -0.000000   0.000000   0.000000
    13  H    0.000011   0.000003   0.000000  -0.000000  -0.000000   0.000000
    14  H    0.000004   0.000007   0.000000   0.000000  -0.000000  -0.000000
    15  H    0.002127  -0.000019   0.000009   0.000000  -0.000002   0.000000
    16  H    0.000021   0.001566   0.000005  -0.000000  -0.000009   0.000000
    17  H    0.003381  -0.003553  -0.000121  -0.000074  -0.000056  -0.000017
    18  H   -0.002294   0.002970   0.001168  -0.000019   0.000012   0.000008
    19  H    0.562931  -0.018758  -0.001926  -0.000075  -0.000032   0.000003
    20  H   -0.018758   0.560749   0.002814   0.000235   0.001281  -0.000003
    21  H   -0.001926   0.002814   0.562130   0.002769   0.003377   0.001446
    22  H   -0.000075   0.000235   0.002769   0.532290  -0.019086  -0.003548
    23  H   -0.000032   0.001281   0.003377  -0.019086   0.563006   0.002905
    24  H    0.000003  -0.000003   0.001446  -0.003548   0.002905   0.531302
    25  H    0.000002   0.000004   0.000118  -0.000856  -0.001521  -0.018272
    26  H   -0.000031   0.000015   0.000398   0.002969  -0.003025  -0.019079
    27  H   -0.000097  -0.000579   0.000103   0.000104   0.000071   0.000000
    28  H    0.000024   0.000125   0.000020   0.001042  -0.001035  -0.000002
    29  H   -0.000021   0.000032   0.000013  -0.000054   0.000043   0.000000
    30  H   -0.000168   0.000202   0.000247   0.000015   0.000001   0.000000
    31  H   -0.000055  -0.000006   0.000061  -0.000009   0.000002   0.000000
    32  H    0.000214   0.000006   0.001226  -0.000004   0.000001   0.000005
              25         26         27         28         29         30
     1  C   -0.000009  -0.000443   0.000168   0.000005  -0.000005  -0.000052
     2  C    0.000245   0.001992   0.000709   0.000449   0.000052   0.001303
     3  C   -0.000727  -0.006014   0.007212   0.003576  -0.003160  -0.008412
     4  C    0.002067  -0.016038   0.030284  -0.011841   0.010415   0.031579
     5  C   -0.027464   0.022016  -0.045651   0.071777  -0.027384  -0.069242
     6  C   -0.068243  -0.098061   0.000424  -0.026872   0.010573   0.002893
     7  C    0.474577   0.460103   0.000582  -0.000109   0.000308  -0.000387
     8  C    0.001237   0.018995   0.019893  -0.127704  -0.024124   0.045815
     9  C    0.000952  -0.000967   0.388574   0.452311   0.420471   0.007097
    10  C   -0.000587  -0.001462  -0.012428   0.027433  -0.005349   0.377244
    11  F    0.000264   0.000036  -0.000798  -0.000177  -0.000879  -0.001652
    12  H    0.000000  -0.000000   0.000000  -0.000000  -0.000000  -0.000000
    13  H    0.000000   0.000003   0.000000   0.000000  -0.000000  -0.000000
    14  H    0.000000  -0.000003  -0.000000  -0.000000   0.000000   0.000000
    15  H    0.000000  -0.000001   0.000000  -0.000000  -0.000000  -0.000002
    16  H    0.000000   0.000000  -0.000000   0.000000  -0.000000   0.000000
    17  H    0.000211   0.000653   0.000003   0.000000   0.000000  -0.000001
    18  H    0.000021  -0.000044  -0.000001  -0.000001   0.000000   0.000014
    19  H    0.000002  -0.000031  -0.000097   0.000024  -0.000021  -0.000168
    20  H    0.000004   0.000015  -0.000579   0.000125   0.000032   0.000202
    21  H    0.000118   0.000398   0.000103   0.000020   0.000013   0.000247
    22  H   -0.000856   0.002969   0.000104   0.001042  -0.000054   0.000015
    23  H   -0.001521  -0.003025   0.000071  -0.001035   0.000043   0.000001
    24  H   -0.018272  -0.019079   0.000000  -0.000002   0.000000   0.000000
    25  H    0.530997  -0.019368  -0.000000   0.000005  -0.000000   0.000000
    26  H   -0.019368   0.538750   0.000000  -0.000001   0.000000   0.000000
    27  H   -0.000000   0.000000   0.509503  -0.017304  -0.016822  -0.000471
    28  H    0.000005  -0.000001  -0.017304   0.505267  -0.014635   0.000141
    29  H   -0.000000   0.000000  -0.016822  -0.014635   0.512767   0.000095
    30  H    0.000000   0.000000  -0.000471   0.000141   0.000095   0.518646
    31  H   -0.000000  -0.000000   0.000061   0.000050   0.000380  -0.016114
    32  H   -0.000000  -0.000001   0.000123  -0.000023   0.000066  -0.018389
              31         32
     1  C   -0.000006   0.000060
     2  C    0.000039  -0.000201
     3  C   -0.002360   0.005339
     4  C    0.011197  -0.008793
     5  C    0.000579   0.031983
     6  C   -0.000414   0.000176
     7  C   -0.000633   0.001887
     8  C   -0.071674  -0.094053
     9  C    0.030042   0.012808
    10  C    0.414126   0.434574
    11  F   -0.000984   0.001705
    12  H   -0.000000  -0.000000
    13  H   -0.000000  -0.000000
    14  H    0.000000   0.000000
    15  H   -0.000000   0.000001
    16  H   -0.000000   0.000000
    17  H    0.000000   0.000000
    18  H   -0.000000   0.000004
    19  H   -0.000055   0.000214
    20  H   -0.000006   0.000006
    21  H    0.000061   0.001226
    22  H   -0.000009  -0.000004
    23  H    0.000002   0.000001
    24  H    0.000000   0.000005
    25  H   -0.000000  -0.000000
    26  H   -0.000000  -0.000001
    27  H    0.000061   0.000123
    28  H    0.000050  -0.000023
    29  H    0.000380   0.000066
    30  H   -0.016114  -0.018389
    31  H    0.515353  -0.014957
    32  H   -0.014957   0.513802
 Mulliken charges:
               1
     1  C   -0.539613
     2  C   -0.071520
     3  C   -0.167492
     4  C   -0.815036
     5  C    0.257075
     6  C    0.126159
     7  C   -0.677188
     8  C    1.186638
     9  C   -0.606207
    10  C   -0.624309
    11  F   -0.582480
    12  H    0.132365
    13  H    0.122860
    14  H    0.122329
    15  H    0.105201
    16  H    0.105881
    17  H    0.104737
    18  H    0.100775
    19  H    0.101645
    20  H    0.104236
    21  H    0.101303
    22  H    0.128928
    23  H    0.106662
    24  H    0.123699
    25  H    0.126348
    26  H    0.118610
    27  H    0.136338
    28  H    0.137477
    29  H    0.137218
    30  H    0.129598
    31  H    0.135322
    32  H    0.132441
 Sum of Mulliken charges =  -0.00000
 Mulliken charges with hydrogens summed into heavy atoms:
               1
     1  C   -0.162060
     2  C    0.139562
     3  C    0.038020
     4  C   -0.609154
     5  C    0.358378
     6  C    0.361749
     7  C   -0.308531
     8  C    1.186638
     9  C   -0.195174
    10  C   -0.226947
    11  F   -0.582480
 Electronic spatial extent (au):  <R**2>=           2726.3490
 Charge=             -0.0000 electrons
 Dipole moment (field-independent basis, Debye):
    X=             -1.3619    Y=             -1.1640    Z=              0.5364  Tot=              1.8702
 Quadrupole moment (field-independent basis, Debye-Ang):
   XX=            -79.6566   YY=            -72.8638   ZZ=            -72.5318
[...]
 RMS     Displacement     0.054494     0.001200     NO 
 Predicted change in Energy=-1.474378D-02
 GradGradGradGradGradGradGradGradGradGradGradGradGradGradGradGradGradGrad

                          Input orientation:                          
 ---------------------------------------------------------------------
 Center     Atomic      Atomic             Coordinates (Angstroms)
 Number     Number       Type             X           Y           Z
 ---------------------------------------------------------------------
      1          6           0        1.061807    0.071808   -0.488657
      2          6           0        2.586016    0.025690   -0.342274
      3          6           0        2.990958    0.365509    1.096812
      4          6           0        4.536180    0.288858    1.216914
      5          6           0        4.979266    0.709317    2.611063
      6          6           0        4.542034   -0.228096    3.762176
      7          6           0        3.387230    0.375690    4.569379
      8          6           0        6.601312    0.889686    2.601042
      9          6           0        7.335045   -0.418283    2.323530
     10          6           0        6.977753    2.050779    1.687827
     11          9           0        6.896824    1.298727    3.898599
     12          1           0        0.793351   -0.176031   -1.520646
     13          1           0        0.660807    1.065116   -0.263204
     14          1           0        0.567524   -0.646920    0.172769
     15          1           0        3.056928    0.726018   -1.040951
     16          1           0        2.967518   -0.967190   -0.605373
     17          1           0        2.529937   -0.331978    1.804516
     18          1           0        2.625558    1.365365    1.360545
     19          1           0        4.960222    0.944180    0.445931
     20          1           0        4.881974   -0.724207    0.988586
     21          1           0        4.614992    1.722129    2.815678
     22          1           0        5.360977   -0.417693    4.459128
     23          1           0        4.285442   -1.203140    3.336054
     24          1           0        3.677286    1.310582    5.060972
     25          1           0        3.097794   -0.332920    5.352153
     26          1           0        2.512572    0.583315    3.949158
     27          1           0        7.175321   -0.734212    1.286372
     28          1           0        7.031153   -1.233438    2.986898
     29          1           0        8.401320   -0.225880    2.477801
     30          1           0        6.820678    1.788046    0.636479
     31          1           0        8.039958    2.249354    1.856594
     32          1           0        6.410933    2.961320    1.913148
 ---------------------------------------------------------------------
                    Distance matrix (angstroms):
                    1          2          3          4          5
     1  C    0.000000
     2  C    1.531917   0.000000
     3  C    2.514279   1.533109   0.000000
     4  C    3.876513   2.510670   1.551776   0.000000
     5  C    5.035988   3.862278   2.522802   1.522092   0.000000
     6  C    5.501954   4.553781   3.140440   2.597235   1.547570
     7  C    5.575273   4.988866   3.495119   3.544947   2.545759
     8  C    6.395411   5.052940   3.946153   2.557650   1.632074
     9  C    6.892177   5.464146   4.581512   3.091649   2.627518
    10  C    6.606954   5.244965   4.368520   3.047525   2.577952
    11  F    7.402754   6.179700   4.896600   3.712669   2.383732
    12  H    1.094758   2.154739   3.460322   4.660378   5.947836
    13  H    1.094664   2.189312   2.787238   4.220408   5.199721
    14  H    1.094700   2.189059   2.784223   4.209055   5.219974
    15  H    2.171067   1.095613   2.168952   2.734456   4.127090
    16  H    2.173677   1.095707   2.161960   2.712763   4.147682
    17  H    2.752651   2.177103   1.095387   2.180762   2.781012
    18  H    2.745571   2.166999   1.096715   2.197720   2.744838
    19  H    4.102698   2.664910   2.153255   1.097121   2.177916
    20  H    4.172477   2.757709   2.185209   1.094535   2.167231
    21  H    5.125164   4.119139   2.726243   2.148609   1.095605
    22  H    6.572903   5.563313   4.187549   3.419277   2.197999
    23  H    5.161950   4.234167   3.024988   2.603782   2.159745
    24  H    6.258887   5.660113   4.132647   4.069201   2.838790
    25  H    6.198718   5.728614   4.313600   4.422190   3.484217
    26  H    4.696867   4.328132   2.900374   3.412748   2.809085
    27  H    6.416810   4.928657   4.330614   2.831354   2.942998
    28  H    7.029669   5.694562   4.738379   3.416887   2.850577
    29  H    7.921928   6.467911   5.615059   4.098060   3.550042
    30  H    6.113591   4.690012   4.111237   2.793456   2.907479
    31  H    7.677012   6.286907   5.442292   4.065612   3.508386
    32  H    6.536903   5.323048   4.370454   3.337888   2.758310
                    6          7          8          9         10
     6  C    0.000000
     7  C    1.532876   0.000000
     8  C    2.615013   3.803797   0.000000
     9  C    3.147504   4.610800   1.525175   0.000000
    10  C    3.927966   4.899094   1.524404   2.574498   0.000000
    11  F    2.809774   3.690419   1.392227   2.370866   2.336588
    12  H    6.477927   6.642365   7.201144   7.591451   7.314357
    13  H    5.739338   5.591293   6.597294   7.310069   6.684450
    14  H    5.371777   5.322279   6.683133   7.104743   7.117866
    15  H    5.117216   5.630954   5.084639   5.561604   4.957226
    16  H    4.701153   5.362606   5.189753   5.287254   5.518051
    17  H    2.809227   2.979969   4.324698   4.833827   5.047199
    18  H    3.461189   3.443286   4.191864   5.127183   4.417976
    19  H    3.542116   4.449754   2.709363   3.319859   2.614823
    20  H    2.838043   4.033128   2.856709   2.809488   3.547080
    21  H    2.168999   2.528985   2.164370   3.496035   2.638693
    22  H    1.091951   2.130091   2.588466   2.908217   4.048139
    23  H    1.094592   2.195582   3.206777   3.307762   4.533562
    24  H    2.191390   1.095363   3.844260   4.884851   4.776932
    25  H    2.150545   1.094822   4.619309   5.209044   5.844945
    26  H    2.193642   1.092158   4.316141   5.186725   5.215833
    27  H    3.649652   5.134166   2.166769   1.095910   2.820704
    28  H    2.794187   4.286224   2.200296   1.094023   3.532212
    29  H    4.067396   5.466049   2.121250   1.094423   2.798888
    30  H    4.361997   5.408421   2.171331   2.824641   1.095004
    31  H    4.690893   5.702430   2.114853   2.798432   1.093707
    32  H    4.133287   4.783705   2.191144   3.527621   1.095965
                   11         12         13         14         15
    11  F    0.000000
    12  H    8.294306   0.000000
    13  H    7.500872   1.771772   0.000000
    14  H    7.597854   1.772114   1.769135   0.000000
    15  H    6.282670   2.483462   2.541903   3.091150   0.000000
    16  H    6.392150   2.488103   3.093260   2.543235   1.750621
    17  H    5.110194   3.754564   3.117849   2.571546   3.081194
    18  H    4.968890   3.746218   2.566507   3.113777   2.522306
    19  H    3.974549   4.741847   4.359182   4.679958   2.425065
    20  H    4.076770   4.828414   4.752568   4.391584   3.090787
    21  H    2.561004   6.083720   5.054380   5.383247   4.277076
    22  H    2.370467   7.528566   6.825741   6.434486   6.071869
    23  H    3.659933   6.069365   5.589063   4.913112   4.938530
    24  H    3.422963   7.337902   6.124235   6.115306   6.161171
    25  H    4.382661   7.250548   6.278985   5.772944   6.480340
    26  H    4.442526   5.783691   4.626571   4.422420   5.021740
    27  H    3.321766   6.994316   6.933806   6.701546   4.950744
    28  H    2.694643   7.768284   7.511846   7.074025   5.988113
    29  H    2.570331   8.594839   8.312359   8.176723   6.469177
    30  H    3.299493   6.696227   6.267062   6.726515   4.255289
    31  H    2.525912   8.354733   7.768387   8.189075   5.962123
    32  H    2.634828   7.293226   6.433976   7.084754   4.997262
                   16         17         18         19         20
    16  H    0.000000
    17  H    2.530323   0.000000
    18  H    3.069622   1.757051   0.000000
    19  H    2.954563   3.062779   2.542552   0.000000
    20  H    2.502976   2.520251   3.097754   1.756164   0.000000
    21  H    4.652976   3.096653   2.490489   2.517953   3.064980
    22  H    5.628478   3.881894   4.501447   4.256883   3.516825
    23  H    4.162625   2.487233   3.640752   3.663212   2.468975
    24  H    6.148128   3.823470   3.847375   4.804038   4.709137
    25  H    5.992611   3.592798   4.363498   5.400985   4.730447
    26  H    4.832679   2.331856   2.706527   4.288801   4.011068
    27  H    4.619371   4.691467   5.011394   2.903447   2.312621
    28  H    5.430325   4.740422   5.367315   3.935389   2.978513
    29  H    6.291399   5.910813   6.094239   4.163975   3.853814
    30  H    4.896974   4.926385   4.278079   2.051758   3.192798
    31  H    6.491309   6.084926   5.508469   3.630182   4.423615
    32  H    5.799417   5.091144   4.145058   2.885505   4.095808
                   21         22         23         24         25
    21  H    0.000000
    22  H    2.799332   0.000000
    23  H    2.989414   1.742125   0.000000
    24  H    2.467794   2.486758   3.108697   0.000000
    25  H    3.599836   2.434476   2.496486   1.766832   0.000000
    26  H    2.646100   3.061943   2.590441   1.766807   1.774927
    27  H    3.863634   3.668571   3.573863   5.537602   5.772161
    28  H    3.821325   2.371158   2.767988   4.692787   4.677251
    29  H    4.271437   3.634025   4.316491   5.599106   6.033303
    30  H    3.101338   4.648511   4.760496   5.448396   6.371494
    31  H    3.595581   4.589473   5.310830   5.493837   6.581190
    32  H    2.361262   4.359145   4.887239   4.484033   5.801350
                   26         27         28         29         30
    26  H    0.000000
    27  H    5.528792   0.000000
    28  H    4.964283   1.778145   0.000000
    29  H    6.123483   1.783529   1.775306   0.000000
    30  H    5.566416   2.628672   3.833814   3.153536   0.000000
    31  H    6.140563   3.158230   3.798042   2.577453   1.785534
    32  H    4.999747   3.825453   4.374198   3.799831   1.781670
                   31         32
    31  H    0.000000
    32  H    1.778712   0.000000
 Stoichiometry    C10H21F
 Framework group  C1[X(C10H21F)]
 Deg. of freedom    90
 Full point group                 C1      NOp   1
 Largest Abelian subgroup         C1      NOp   1
 Largest concise Abelian subgroup C1      NOp   1
                         Standard orientation:                         
 ---------------------------------------------------------------------
 Center     Atomic      Atomic             Coordinates (Angstroms)
 Number     Number       Type             X           Y           Z
 ---------------------------------------------------------------------
      1          6           0       -4.456723   -0.266821   -0.122716
      2          6           0       -3.104960   -0.908711    0.205129
      3          6           0       -1.963038    0.053780   -0.141353
      4          6           0       -0.611429   -0.616348    0.222089
      5          6           0        0.549399    0.276267   -0.193219
      6          6           0        0.665735    1.618532    0.568204
      7          6           0        0.198891    2.795705   -0.295525
      8          6           0        1.930557   -0.582763   -0.058549
      9          6           0        2.230640   -0.988723    1.380654
     10          6           0        1.917486   -1.726935   -1.065775
     11          9           0        2.915059    0.304562   -0.484819
     12          1           0       -5.257722   -0.967523    0.134016
     13          1           0       -4.545615   -0.025295   -1.186697
     14          1           0       -4.617562    0.655468    0.444629
     15          1           0       -2.985761   -1.847898   -0.346311
     16          1           0       -3.052210   -1.172335    1.267341
     17          1           0       -2.068806    0.995166    0.408628
     18          1           0       -2.001016    0.308699   -1.207354
     19          1           0       -0.575530   -1.586139   -0.289665
     20          1           0       -0.573011   -0.829268    1.295028
     21          1           0        0.482939    0.478491   -1.267946
     22          1           0        1.695969    1.823321    0.866590
     23          1           0        0.098845    1.537587    1.501057
     24          1           0        0.823126    2.921378   -1.186792
     25          1           0        0.275360    3.715426    0.293457
     26          1           0       -0.835427    2.681461   -0.627105
     27          1           0        1.509414   -1.738469    1.725231
     28          1           0        2.218240   -0.146500    2.078790
     29          1           0        3.232843   -1.428398    1.386669
     30          1           0        1.197946   -2.498252   -0.771893
     31          1           0        2.924702   -2.153205   -1.067504
     32          1           0        1.678411   -1.388661   -2.080444
 ---------------------------------------------------------------------
 Rotational constants (GHZ):           1.5056958           0.5418935           0.4531983
 Standard basis: 6-31+G(3df,2p) (6D, 7F)
 There are   619 symmetry adapted cartesian basis functions of A   symmetry.
 There are   586 symmetry adapted basis functions of A   symmetry.
   586 basis functions,   804 primitive gaussians,   619 cartesian basis functions
    45 alpha electrons       45 beta electrons
       nuclear repulsion energy       683.5249416707 Hartrees.
 NAtoms=   32 NActive=   32 NUniq=   32 SFac= 1.00D+00 NAtFMM=   60 NAOKFM=F Big=F
 Integral buffers will be    131072 words long.
 Regular integral format.
 Two-electron integral symmetry is turned on.
 One-electron integrals computed using PRISM.
 PrsmSu:  requested number of processors reduced to:  12 ShMem   1 Linda.
 NBasis=   586 RedAO= T EigKep=  3.41D-06  NBF=   586
 NBsUse=   586 1.00D-06 EigRej= -1.00D+00 NBFU=   586
 Initial guess from the checkpoint file:  "CCCCCqCCrCqCrqCrF.chk"
 B after Tr=     0.000000   -0.000000    0.000000
         Rot=    0.999988    0.000412   -0.002471    0.004120 Ang=   0.55 deg.
 ExpMin= 4.38D-02 ExpMax= 7.00D+03 ExpMxC= 1.05D+03 IAcc=2 IRadAn=         4 AccDes= 0.00D+00
 Harris functional with IExCor=  402 and IRadAn=       4 diagonalized for initial guess.
 HarFok:  IExCor=  402 AccDes= 0.00D+00 IRadAn=         4 IDoV= 1 UseB2=F ITyADJ=14
 ICtDFT=  3500011 ScaDFX=  1.000000  1.000000  1.000000  1.000000
 FoFCou: FMM=F IPFlag=           0 FMFlag=      100000 FMFlg1=           0
         NFxFlg=           0 DoJE=T BraDBF=F KetDBF=T FulRan=T
         wScrn=  0.000000 ICntrl=       500 IOpCl=  0 I1Cent=   200000004 NGrid=           0
         NMat0=    1 NMatS0=      1 NMatT0=    0 NMatD0=    1 NMtDS0=    0 NMtDT0=    0
 Petite list used in FoFCou.
 Requested convergence on RMS density matrix=1.00D-08 within 128 cycles.
 Requested convergence on MAX density matrix=1.00D-06.
 Requested convergence on             energy=1.00D-06.
 No special actions if energy rises.
 SCF Done:  E(RB3LYP) =  -493.632853230     A.U. after   11 cycles
            NFock= 11  Conv=0.21D-08     -V/T= 2.0080
 DoSCS=F DFT=T ScalE2(SS,OS)=  1.000000  1.000000
 ExpMin= 4.38D-02 ExpMax= 7.00D+03 ExpMxC= 1.05D+03 IAcc=3 IRadAn=         5 AccDes= 0.00D+00
 HarFok:  IExCor=  205 AccDes= 0.00D+00 IRadAn=         5 IDoV=-2 UseB2=F ITyADJ=14
 ICtDFT= 12500011 ScaDFX=  1.000000  1.000000  1.000000  1.000000
 Range of M.O.s used for correlation:    12   586
 NBasis=   586 NAE=    45 NBE=    45 NFC=    11 NFV=     0
 NROrb=    575 NOA=    34 NOB=    34 NVA=   541 NVB=   541

 **** Warning!!: The largest alpha MO coefficient is  0.11285461D+03

 Orbital symmetries:
       Occupied  (A) (A) (A) (A) (A) (A) (A) (A) (A) (A) (A) (A)
                 (A) (A) (A) (A) (A) (A) (A) (A) (A) (A) (A) (A)
                 (A) (A) (A) (A) (A) (A) (A) (A) (A) (A) (A) (A)
                 (A) (A) (A) (A) (A) (A) (A) (A) (A)
       Virtual   (A) (A) (A) (A) (A) (A) (A) (A) (A) (A) (A) (A)
                 (A) (A) (A) (A) (A) (A) (A) (A) (A) (A) (A) (A)
                 (A) (A) (A) (A) (A) (A) (A) (A) (A) (A) (A) (A)
                 (A) (A) (A) (A) (A) (A) (A) (A) (A) (A) (A) (A)
                 (A) (A) (A) (A) (A) (A) (A) (A) (A) (A) (A) (A)
                 (A) (A) (A) (A) (A) (A) (A) (A) (A) (A) (A) (A)
                 (A) (A) (A) (A) (A) (A) (A) (A) (A) (A) (A) (A)
                 (A) (A) (A) (A) (A) (A) (A) (A) (A) (A) (A) (A)
                 (A) (A) (A) (A) (A) (A) (A) (A) (A) (A) (A) (A)
                 (A) (A) (A) (A) (A) (A) (A) (A) (A) (A) (A) (A)
                 (A) (A) (A) (A) (A) (A) (A) (A) (A) (A) (A) (A)
                 (A) (A) (A) (A) (A) (A) (A) (A) (A) (A) (A) (A)
                 (A) (A) (A) (A) (A) (A) (A) (A) (A) (A) (A) (A)
                 (A) (A) (A) (A) (A) (A) (A) (A) (A) (A) (A) (A)
                 (A) (A) (A) (A) (A) (A) (A) (A) (A) (A) (A) (A)
                 (A) (A) (A) (A) (A) (A) (A) (A) (A) (A) (A) (A)
                 (A) (A) (A) (A) (A) (A) (A) (A) (A) (A) (A) (A)
                 (A) (A) (A) (A) (A) (A) (A) (A) (A) (A) (A) (A)
                 (A) (A) (A) (A) (A) (A) (A) (A) (A) (A) (A) (A)
                 (A) (A) (A) (A) (A) (A) (A) (A) (A) (A) (A) (A)
                 (A) (A) (A) (A) (A) (A) (A) (A) (A) (A) (A) (A)
                 (A) (A) (A) (A) (A) (A) (A) (A) (A) (A) (A) (A)
                 (A) (A) (A) (A) (A) (A) (A) (A) (A) (A) (A) (A)
                 (A) (A) (A) (A) (A) (A) (A) (A) (A) (A) (A) (A)
                 (A) (A) (A) (A) (A) (A) (A) (A) (A) (A) (A) (A)
                 (A) (A) (A) (A) (A) (A) (A) (A) (A) (A) (A) (A)
                 (A) (A) (A) (A) (A) (A) (A) (A) (A) (A) (A) (A)
                 (A) (A) (A) (A) (A) (A) (A) (A) (A) (A) (A) (A)
                 (A) (A) (A) (A) (A) (A) (A) (A) (A) (A) (A) (A)
                 (A) (A) (A) (A) (A) (A) (A) (A) (A) (A) (A) (A)
                 (A) (A) (A) (A) (A) (A) (A) (A) (A) (A) (A) (A)
                 (A) (A) (A) (A) (A) (A) (A) (A) (A) (A) (A) (A)
                 (A) (A) (A) (A) (A) (A) (A) (A) (A) (A) (A) (A)
                 (A) (A) (A) (A) (A) (A) (A) (A) (A) (A) (A) (A)
                 (A) (A) (A) (A) (A) (A) (A) (A) (A) (A) (A) (A)
                 (A) (A) (A) (A) (A) (A) (A) (A) (A) (A) (A) (A)
                 (A) (A) (A) (A) (A) (A) (A) (A) (A) (A) (A) (A)
                 (A) (A) (A) (A) (A) (A) (A) (A) (A) (A) (A) (A)
                 (A) (A) (A) (A) (A) (A) (A) (A) (A) (A) (A) (A)
                 (A) (A) (A) (A) (A) (A) (A) (A) (A) (A) (A) (A)
                 (A) (A) (A) (A) (A) (A) (A) (A) (A) (A) (A) (A)
                 (A) (A) (A) (A) (A) (A) (A) (A) (A) (A) (A) (A)
                 (A) (A) (A) (A) (A) (A) (A) (A) (A) (A) (A) (A)
                 (A) (A) (A) (A) (A) (A) (A) (A) (A) (A) (A) (A)
                 (A) (A) (A) (A) (A) (A) (A) (A) (A) (A) (A) (A)
                 (A)
 Generating guess from densities on rwf.
 Convergence on wavefunction:    0.000001000000000
 Iteration     1 Dimension    20 NMult     0 NNew     20
 CISAX will form     3 AO SS matrices at one time.
 New state      2 was old state      4
 New state      3 was old state      6
 New state      4 was old state      3
 New state      5 was old state      2
 New state      6 was old state      8
 New state      7 was old state      9
 New state      8 was old state      7
 New state      9 was old state     10
 New state     10 was old state      5
 Iteration     2 Dimension    40 NMult    20 NNew     20
slurmstepd: error: *** JOB 27484571 ON lewis4-r630-hpc4rc-node367 CANCELLED AT 2023-05-24T17:48:44 DUE TO TIME LIMIT ***
