### Starting Gaussian ###
 Entering Gaussian System, Link 0=g16
 Initial command:
 /cluster/software/gaussian/gaussian-16-A.03/avx2/g16/l1.exe "/local/scratch/ks29c/Gau-31977.inp" -scrdir="/local/scratch/ks29c/"
 Entering Link 1 = /cluster/software/gaussian/gaussian-16-A.03/avx2/g16/l1.exe PID=     31978.
  
 Copyright (c) 1988,1990,1992,1993,1995,1998,2003,2009,2016,
            Gaussian, Inc.  All Rights Reserved.
  
 This is part of the Gaussian(R) 16 program.  It is based on
 the Gaussian(R) 09 system (copyright 2009, Gaussian, Inc.),
 the Gaussian(R) 03 system (copyright 2003, Gaussian, Inc.),
 the Gaussian(R) 98 system (copyright 1998, Gaussian, Inc.),
 the Gaussian(R) 94 system (copyright 1995, Gaussian, Inc.),
 the Gaussian 92(TM) system (copyright 1992, Gaussian, Inc.),
 the Gaussian 90(TM) system (copyright 1990, Gaussian, Inc.),
 the Gaussian 88(TM) system (copyright 1988, Gaussian, Inc.),
 the Gaussian 86(TM) system (copyright 1986, Carnegie Mellon
 University), and the Gaussian 82(TM) system (copyright 1983,
 Carnegie Mellon University). Gaussian is a federally registered
 trademark of Gaussian, Inc.
  
 This software contains proprietary and confidential information,
 including trade secrets, belonging to Gaussian, Inc.
  
 This software is provided under written license and may be
 used, copied, transmitted, or stored only in accord with that
 written license.
  
 The following legend is applicable only to US Government
 contracts under FAR:
  
                    RESTRICTED RIGHTS LEGEND
  
 Use, reproduction and disclosure by the US Government is
 subject to restrictions as set forth in subparagraphs (a)
 and (c) of the Commercial Computer Software - Restricted
 Rights clause in FAR 52.227-19.
  
 Gaussian, Inc.
 340 Quinnipiac St., Bldg. 40, Wallingford CT 06492
  
  
 ---------------------------------------------------------------
 Warning -- This program may not be used in any manner that
 competes with the business of Gaussian, Inc. or will provide
 assistance to any competitor of Gaussian, Inc.  The licensee
 of this program is prohibited from giving any competitor of
 Gaussian, Inc. access to this program.  By using this program,
 the user acknowledges that Gaussian, Inc. is engaged in the
 business of creating and licensing software in the field of
 computational chemistry and represents and warrants to the
 licensee that it is not a competitor of Gaussian, Inc. and that
 it will not use this program in any manner prohibited above.
 ---------------------------------------------------------------
  

 Cite this work as:
 Gaussian 16, Revision A.03,
 M. J. Frisch, G. W. Trucks, H. B. Schlegel, G. E. Scuseria, 
 M. A. Robb, J. R. Cheeseman, G. Scalmani, V. Barone, 
 G. A. Petersson, H. Nakatsuji, X. Li, M. Caricato, A. V. Marenich, 
 J. Bloino, B. G. Janesko, R. Gomperts, B. Mennucci, H. P. Hratchian, 
 J. V. Ortiz, A. F. Izmaylov, J. L. Sonnenberg, D. Williams-Young, 
 F. Ding, F. Lipparini, F. Egidi, J. Goings, B. Peng, A. Petrone, 
 T. Henderson, D. Ranasinghe, V. G. Zakrzewski, J. Gao, N. Rega, 
 G. Zheng, W. Liang, M. Hada, M. Ehara, K. Toyota, R. Fukuda, 
 J. Hasegawa, M. Ishida, T. Nakajima, Y. Honda, O. Kitao, H. Nakai, 
 T. Vreven, K. Throssell, J. A. Montgomery, Jr., J. E. Peralta, 
 F. Ogliaro, M. J. Bearpark, J. J. Heyd, E. N. Brothers, K. N. Kudin, 
 V. N. Staroverov, T. A. Keith, R. Kobayashi, J. Normand, 
 K. Raghavachari, A. P. Rendell, J. C. Burant, S. S. Iyengar, 
 J. Tomasi, M. Cossi, J. M. Millam, M. Klene, C. Adamo, R. Cammi, 
 J. W. Ochterski, R. L. Martin, K. Morokuma, O. Farkas, 
 J. B. Foresman, and D. J. Fox, Gaussian, Inc., Wallingford CT, 2016.
 
 ******************************************
 Gaussian 16:  ES64L-G16RevA.03 25-Dec-2016
                24-May-2023 
 ******************************************
 %chk=CCCC1dCCqOCrdCqCrCdCCqCrC1.chk
 %NProcShared=20
 Will use up to   20 processors via shared memory.
 -----------------------------------------------------------------
 # opt freq b3lyp/6-31+g(3df,2p) Geom=AllCheckpoint TD(NStates=10)
 -----------------------------------------------------------------
 1/18=20,19=15,26=3,29=7,38=1/1,3;
 2/9=110,12=2,40=1/2;
 3/5=1,6=6,7=216,11=9,14=-4,25=1,30=1,71=1,74=-5/1,2,3,8;
 4//1;
 5/5=2,38=5/2;
 8/6=1,10=2,108=10/1;
 9/15=2,41=10,42=1,70=2/14;
 10/5=4/2;
 6/7=2,8=2,9=2,10=2/1;
 7/12=6,13=5/1,2,3,16;
 1/18=20,19=15,26=3/3(2);
 2/9=110/2;
 99//99;
 2/9=110/2;
 3/5=1,6=6,7=216,11=9,14=-2,25=1,30=1,71=1,74=-5/1,2,3,8;
 4/5=5,16=3,69=1/1;
 5/5=2,38=5/2;
 8/6=1,10=2,108=10/1;
 9/15=2,41=10,42=1,49=4,70=2/14;
 10/5=4/2;
 7/12=6,13=5/1,2,3,16;
 1/18=20,19=15,26=3/3(-8);
 2/9=110/2;
 6/7=2,8=2,9=2,10=2/1;
 99//99;
 Structure from the checkpoint file:  "CCCC1dCCqOCrdCqCrCdCCqCrC1.chk"
 -------------------
 Title Card Required
 -------------------
 Charge =  0 Multiplicity = 1
 Redundant internal coordinates found in file.  (old form).
 C,0,5.7701899856,-1.3428109805,-0.2073041312
 C,0,4.6352063433,-0.2858617727,-0.0961487661
 C,0,3.1725100525,-0.8922159178,0.1689169845
 C,0,1.5853618705,0.0540607182,0.417122222
 C,0,0.6938221563,-0.8818588395,-0.0722667864
 C,0,-0.5724379242,-0.3965335508,-0.7602894932
 O,0,0.2427763123,2.5229710553,-0.5190412181
 C,0,1.8070915073,3.0033003132,-0.1276257344
 C,0,-1.7521875042,-1.0008347358,-0.3051326822
 C,0,-1.8865572952,-2.4023182026,0.2633647328
 C,0,-2.827179997,0.0010980193,-0.5890778251
 C,0,-4.0166849293,-0.5676561572,-0.0826985914
 C,0,-3.2736199393,0.4577995295,0.814336748
 C,0,-5.3472439461,0.2253330209,-0.0512444659
 C,0,0.1625656131,1.3755344737,1.2574989247
 H,0,6.7450432928,-0.8473961901,-0.3316450966
 H,0,5.6352542243,-2.0058634728,-1.0696136446
 H,0,5.8368478089,-1.9628958329,0.6931426979
 H,0,4.6628421673,0.2996517437,-1.0197362263
 H,0,4.8918037343,0.3573421034,0.7463502145
 H,0,3.335584694,-1.6196392497,0.9803290298
 H,0,3.1095980038,-1.606172151,-0.7165755136
 H,0,1.0633185981,-1.8279540113,0.3172307401
 H,0,2.1758933979,4.0327850786,-0.123172165
 H,0,2.2508461158,2.4732794801,-0.9729561449
 H,0,2.1268427312,2.7508561442,0.993473222
 H,0,-0.9130726482,-2.8170647625,0.4671636461
 H,0,-2.3109808539,-2.8864542443,-0.6174929197
 H,0,-2.4851965368,-2.4920822638,1.1757024694
 H,0,-2.725802736,1.3797303844,-0.5391542043
 H,0,-4.4521181816,-1.5657250876,0.0438067769
 H,0,-4.023355939,1.3950099356,0.1395656434
 H,0,-6.08324618,-0.857459561,-0.2323986066
 H,0,-5.9773573123,0.2999686599,-1.2472357759
 H,0,-6.4324872748,0.5299510749,0.284821678
 H,0,1.5485733501,1.3747497062,1.2632389464
 H,0,1.1739430842,1.3293985659,0.1407781613
 Recover connectivity data from disk.

 GradGradGradGradGradGradGradGradGradGradGradGradGradGradGradGradGradGrad
 Berny optimization.
 Initialization pass.
                           ----------------------------
                           !    Initial Parameters    !
                           ! (Angstroms and Degrees)  !
 --------------------------                            --------------------------
 ! Name  Definition              Value          Derivative Info.                !
 --------------------------------------------------------------------------------
 ! R1    R(1,2)                  1.5549         estimate D2E/DX2                !
 ! R2    R(1,16)                 1.1006         estimate D2E/DX2                !
 ! R3    R(1,17)                 1.0961         estimate D2E/DX2                !
 ! R4    R(1,18)                 1.0953         estimate D2E/DX2                !
 ! R5    R(2,3)                  1.6054         estimate D2E/DX2                !
 ! R6    R(2,19)                 1.0939         estimate D2E/DX2                !
 ! R7    R(2,20)                 1.0906         estimate D2E/DX2                !
 ! R8    R(3,4)                  1.8644         estimate D2E/DX2                !
 ! R9    R(3,21)                 1.1019         estimate D2E/DX2                !
 ! R10   R(3,22)                 1.1392         estimate D2E/DX2                !
 ! R11   R(4,5)                  1.3821         estimate D2E/DX2                !
 ! R12   R(4,37)                 1.3683         estimate D2E/DX2                !
 ! R13   R(5,6)                  1.5206         estimate D2E/DX2                !
 ! R14   R(5,23)                 1.0878         estimate D2E/DX2                !
 ! R15   R(6,9)                  1.4015         estimate D2E/DX2                !
 ! R16   R(7,8)                  1.6826         estimate D2E/DX2                !
 ! R17   R(7,37)                 1.6514         estimate D2E/DX2                !
 ! R18   R(8,24)                 1.0936         estimate D2E/DX2                !
 ! R19   R(8,25)                 1.092          estimate D2E/DX2                !
 ! R20   R(8,26)                 1.1928         estimate D2E/DX2                !
 ! R21   R(9,10)                 1.5184         estimate D2E/DX2                !
 ! R22   R(9,11)                 1.4967         estimate D2E/DX2                !
 ! R23   R(10,27)                1.0776         estimate D2E/DX2                !
 ! R24   R(10,28)                1.0911         estimate D2E/DX2                !
 ! R25   R(10,29)                1.0949         estimate D2E/DX2                !
 ! R26   R(11,12)                1.4124         estimate D2E/DX2                !
 ! R27   R(11,13)                1.5419         estimate D2E/DX2                !
 ! R28   R(11,30)                1.3833         estimate D2E/DX2                !
 ! R29   R(12,13)                1.5519         estimate D2E/DX2                !
 ! R30   R(12,14)                1.5493         estimate D2E/DX2                !
 ! R31   R(12,31)                1.0962         estimate D2E/DX2                !
 ! R32   R(13,32)                1.3769         estimate D2E/DX2                !
 ! R33   R(14,33)                1.3217         estimate D2E/DX2                !
 ! R34   R(14,34)                1.3539         estimate D2E/DX2                !
 ! R35   R(14,35)                1.1762         estimate D2E/DX2                !
 ! R36   R(15,36)                1.386          estimate D2E/DX2                !
 ! R37   R(15,37)                1.5073         estimate D2E/DX2                !
 ! R38   R(26,36)                1.5169         estimate D2E/DX2                !
 ! R39   R(30,32)                1.4644         estimate D2E/DX2                !
 ! R40   R(36,37)                1.1842         estimate D2E/DX2                !
 ! A1    A(2,1,16)             110.405          estimate D2E/DX2                !
 ! A2    A(2,1,17)             112.1839         estimate D2E/DX2                !
 ! A3    A(2,1,18)             111.7449         estimate D2E/DX2                !
 ! A4    A(16,1,17)            107.0057         estimate D2E/DX2                !
 ! A5    A(16,1,18)            107.0861         estimate D2E/DX2                !
 ! A6    A(17,1,18)            108.166          estimate D2E/DX2                !
 ! A7    A(1,2,3)              114.8417         estimate D2E/DX2                !
 ! A8    A(1,2,19)             106.5616         estimate D2E/DX2                !
 ! A9    A(1,2,20)             106.5224         estimate D2E/DX2                !
 ! A10   A(3,2,19)             111.3817         estimate D2E/DX2                !
 ! A11   A(3,2,20)             108.0335         estimate D2E/DX2                !
 ! A12   A(19,2,20)            109.3066         estimate D2E/DX2                !
 ! A13   A(2,3,4)              127.2923         estimate D2E/DX2                !
 ! A14   A(2,3,21)             103.6554         estimate D2E/DX2                !
 ! A15   A(2,3,22)              99.1305         estimate D2E/DX2                !
 ! A16   A(4,3,21)             111.2856         estimate D2E/DX2                !
 ! A17   A(4,3,22)             111.9966         estimate D2E/DX2                !
 ! A18   A(21,3,22)             99.6033         estimate D2E/DX2                !
 ! A19   A(3,4,5)               99.1077         estimate D2E/DX2                !
 ! A20   A(3,4,37)             134.6005         estimate D2E/DX2                !
 ! A21   A(5,4,37)             111.4507         estimate D2E/DX2                !
 ! A22   A(4,5,6)              118.7657         estimate D2E/DX2                !
 ! A23   A(4,5,23)             104.0669         estimate D2E/DX2                !
 ! A24   A(6,5,23)             136.2559         estimate D2E/DX2                !
 ! A25   A(5,6,9)              114.6081         estimate D2E/DX2                !
 ! A26   A(8,7,37)              65.7411         estimate D2E/DX2                !
 ! A27   A(7,8,24)             125.6791         estimate D2E/DX2                !
 ! A28   A(7,8,25)              93.3921         estimate D2E/DX2                !
 ! A29   A(7,8,26)             114.0447         estimate D2E/DX2                !
 ! A30   A(24,8,25)            108.8468         estimate D2E/DX2                !
 ! A31   A(24,8,26)             96.0274         estimate D2E/DX2                !
 ! A32   A(25,8,26)            121.0589         estimate D2E/DX2                !
 ! A33   A(6,9,10)             126.4479         estimate D2E/DX2                !
 ! A34   A(6,9,11)             104.7348         estimate D2E/DX2                !
 ! A35   A(10,9,11)            128.7095         estimate D2E/DX2                !
 ! A36   A(9,10,27)            110.2501         estimate D2E/DX2                !
 ! A37   A(9,10,28)             98.1472         estimate D2E/DX2                !
 ! A38   A(9,10,29)            115.8521         estimate D2E/DX2                !
 ! A39   A(27,10,28)           109.4703         estimate D2E/DX2                !
 ! A40   A(27,10,29)           107.7453         estimate D2E/DX2                !
 ! A41   A(28,10,29)           115.0659         estimate D2E/DX2                !
 ! A42   A(9,11,12)            105.5043         estimate D2E/DX2                !
 ! A43   A(9,11,13)            103.507          estimate D2E/DX2                !
 ! A44   A(9,11,30)            127.4238         estimate D2E/DX2                !
 ! A45   A(12,11,30)           116.752          estimate D2E/DX2                !
 ! A46   A(13,11,30)            72.1315         estimate D2E/DX2                !
 ! A47   A(11,12,14)           121.6326         estimate D2E/DX2                !
 ! A48   A(11,12,31)           137.9472         estimate D2E/DX2                !
 ! A49   A(13,12,14)            93.5125         estimate D2E/DX2                !
 ! A50   A(13,12,31)           136.4758         estimate D2E/DX2                !
 ! A51   A(14,12,31)            97.0384         estimate D2E/DX2                !
 ! A52   A(11,13,32)            85.0213         estimate D2E/DX2                !
 ! A53   A(12,13,32)            84.5935         estimate D2E/DX2                !
 ! A54   A(12,14,33)            93.2182         estimate D2E/DX2                !
 ! A55   A(12,14,34)           114.2044         estimate D2E/DX2                !
 ! A56   A(12,14,35)           158.5551         estimate D2E/DX2                !
 ! A57   A(33,14,34)            70.4228         estimate D2E/DX2                !
 ! A58   A(33,14,35)            74.7841         estimate D2E/DX2                !
 ! A59   A(34,14,35)            78.9717         estimate D2E/DX2                !
 ! A60   A(8,26,36)            104.8896         estimate D2E/DX2                !
 ! A61   A(11,30,32)            87.8331         estimate D2E/DX2                !
 ! A62   A(13,32,30)            74.7852         estimate D2E/DX2                !
 ! A63   A(15,36,26)           112.3322         estimate D2E/DX2                !
 ! A64   A(26,36,37)            89.2422         estimate D2E/DX2                !
 ! A65   A(4,37,7)             157.509          estimate D2E/DX2                !
 ! A66   A(4,37,15)             94.6261         estimate D2E/DX2                !
 ! A67   A(4,37,36)             75.4711         estimate D2E/DX2                !
 ! A68   A(7,37,15)             84.0046         estimate D2E/DX2                !
 ! A69   A(7,37,36)            121.9671         estimate D2E/DX2                !
 ! D1    D(16,1,2,3)          -176.8226         estimate D2E/DX2                !
 ! D2    D(16,1,2,19)           59.3416         estimate D2E/DX2                !
 ! D3    D(16,1,2,20)          -57.2741         estimate D2E/DX2                !
 ! D4    D(17,1,2,3)            63.9235         estimate D2E/DX2                !
 ! D5    D(17,1,2,19)          -59.9122         estimate D2E/DX2                !
 ! D6    D(17,1,2,20)         -176.528          estimate D2E/DX2                !
 ! D7    D(18,1,2,3)           -57.7533         estimate D2E/DX2                !
 ! D8    D(18,1,2,19)          178.4109         estimate D2E/DX2                !
 ! D9    D(18,1,2,20)           61.7951         estimate D2E/DX2                !
 ! D10   D(1,2,3,4)            177.7188         estimate D2E/DX2                !
 ! D11   D(1,2,3,21)            46.8289         estimate D2E/DX2                !
 ! D12   D(1,2,3,22)           -55.4651         estimate D2E/DX2                !
 ! D13   D(19,2,3,4)           -61.0439         estimate D2E/DX2                !
 ! D14   D(19,2,3,21)          168.0662         estimate D2E/DX2                !
 ! D15   D(19,2,3,22)           65.7722         estimate D2E/DX2                !
 ! D16   D(20,2,3,4)            59.0139         estimate D2E/DX2                !
 ! D17   D(20,2,3,21)          -71.876          estimate D2E/DX2                !
 ! D18   D(20,2,3,22)         -174.17           estimate D2E/DX2                !
 ! D19   D(2,3,4,5)            151.3099         estimate D2E/DX2                !
 ! D20   D(2,3,4,37)            18.6021         estimate D2E/DX2                !
 ! D21   D(21,3,4,5)           -80.7246         estimate D2E/DX2                !
 ! D22   D(21,3,4,37)          146.5676         estimate D2E/DX2                !
 ! D23   D(22,3,4,5)            29.7918         estimate D2E/DX2                !
 ! D24   D(22,3,4,37)         -102.916          estimate D2E/DX2                !
 ! D25   D(3,4,5,6)           -148.054          estimate D2E/DX2                !
 ! D26   D(3,4,5,23)            41.1334         estimate D2E/DX2                !
 ! D27   D(37,4,5,6)            -2.2584         estimate D2E/DX2                !
 ! D28   D(37,4,5,23)         -173.0709         estimate D2E/DX2                !
 ! D29   D(3,4,37,7)           122.1417         estimate D2E/DX2                !
 ! D30   D(3,4,37,15)         -152.3607         estimate D2E/DX2                !
 ! D31   D(3,4,37,36)          -94.3655         estimate D2E/DX2                !
 ! D32   D(5,4,37,7)            -6.6384         estimate D2E/DX2                !
 ! D33   D(5,4,37,15)           78.8592         estimate D2E/DX2                !
 ! D34   D(5,4,37,36)          136.8545         estimate D2E/DX2                !
 ! D35   D(4,5,6,9)           -130.6886         estimate D2E/DX2                !
 ! D36   D(23,5,6,9)            36.3678         estimate D2E/DX2                !
 ! D37   D(5,6,9,10)           -29.3138         estimate D2E/DX2                !
 ! D38   D(5,6,9,11)           154.2067         estimate D2E/DX2                !
 ! D39   D(37,7,8,24)         -169.5406         estimate D2E/DX2                !
 ! D40   D(37,7,8,25)           74.2954         estimate D2E/DX2                !
 ! D41   D(37,7,8,26)          -52.0305         estimate D2E/DX2                !
 ! D42   D(8,7,37,4)          -156.2234         estimate D2E/DX2                !
 ! D43   D(8,7,37,15)          116.1647         estimate D2E/DX2                !
 ! D44   D(8,7,37,36)           66.5299         estimate D2E/DX2                !
 ! D45   D(7,8,26,36)           39.9326         estimate D2E/DX2                !
 ! D46   D(24,8,26,36)         173.5091         estimate D2E/DX2                !
 ! D47   D(25,8,26,36)         -70.209          estimate D2E/DX2                !
 ! D48   D(6,9,10,27)           11.8092         estimate D2E/DX2                !
 ! D49   D(6,9,10,28)         -102.5034         estimate D2E/DX2                !
 ! D50   D(6,9,10,29)          134.4759         estimate D2E/DX2                !
 ! D51   D(11,9,10,27)        -172.5554         estimate D2E/DX2                !
 ! D52   D(11,9,10,28)          73.132          estimate D2E/DX2                !
 ! D53   D(11,9,10,29)         -49.8887         estimate D2E/DX2                !
 ! D54   D(6,9,11,12)         -177.5017         estimate D2E/DX2                !
 ! D55   D(6,9,11,13)         -111.9961         estimate D2E/DX2                !
 ! D56   D(6,9,11,30)          -34.326          estimate D2E/DX2                !
 ! D57   D(10,9,11,12)           6.1275         estimate D2E/DX2                !
 ! D58   D(10,9,11,13)          71.6331         estimate D2E/DX2                !
 ! D59   D(10,9,11,30)         149.3032         estimate D2E/DX2                !
 ! D60   D(9,11,12,14)         173.6747         estimate D2E/DX2                !
 ! D61   D(9,11,12,31)         -32.4655         estimate D2E/DX2                !
 ! D62   D(30,11,12,14)         25.8863         estimate D2E/DX2                !
 ! D63   D(30,11,12,31)        179.746          estimate D2E/DX2                !
 ! D64   D(9,11,13,32)         172.3312         estimate D2E/DX2                !
 ! D65   D(30,11,13,32)         46.935          estimate D2E/DX2                !
 ! D66   D(9,11,30,32)        -136.7925         estimate D2E/DX2                !
 ! D67   D(12,11,30,32)          2.9081         estimate D2E/DX2                !
 ! D68   D(13,11,30,32)        -43.2199         estimate D2E/DX2                !
 ! D69   D(14,12,13,32)        -36.3486         estimate D2E/DX2                !
 ! D70   D(31,12,13,32)       -140.4061         estimate D2E/DX2                !
 ! D71   D(11,12,14,33)        147.9209         estimate D2E/DX2                !
 ! D72   D(11,12,14,34)         77.9611         estimate D2E/DX2                !
 ! D73   D(11,12,14,35)       -157.2387         estimate D2E/DX2                !
 ! D74   D(13,12,14,33)       -152.4736         estimate D2E/DX2                !
 ! D75   D(13,12,14,34)        137.5666         estimate D2E/DX2                !
 ! D76   D(13,12,14,35)        -97.6332         estimate D2E/DX2                !
 ! D77   D(31,12,14,33)        -14.7811         estimate D2E/DX2                !
 ! D78   D(31,12,14,34)        -84.7409         estimate D2E/DX2                !
 ! D79   D(31,12,14,35)         40.0593         estimate D2E/DX2                !
 ! D80   D(11,13,32,30)        -42.8949         estimate D2E/DX2                !
 ! D81   D(12,13,32,30)        -97.4603         estimate D2E/DX2                !
 ! D82   D(8,26,36,15)         -65.5704         estimate D2E/DX2                !
 ! D83   D(8,26,36,37)           3.8388         estimate D2E/DX2                !
 ! D84   D(11,30,32,13)         49.1477         estimate D2E/DX2                !
 ! D85   D(26,36,37,4)         142.0799         estimate D2E/DX2                !
 ! D86   D(26,36,37,7)         -53.481          estimate D2E/DX2                !
 --------------------------------------------------------------------------------
 Trust Radius=3.00D-01 FncErr=1.00D-07 GrdErr=1.00D-06 EigMax=2.50D+02 EigMin=1.00D-04
 Number of steps in this run=    205 maximum allowed number of steps=    222.
 GradGradGradGradGradGradGradGradGradGradGradGradGradGradGradGradGradGrad

                          Input orientation:                          
 ---------------------------------------------------------------------
 Center     Atomic      Atomic             Coordinates (Angstroms)
 Number     Number       Type             X           Y           Z
 ---------------------------------------------------------------------
      1          6           0        5.770190   -1.342811   -0.207304
      2          6           0        4.635206   -0.285862   -0.096149
      3          6           0        3.172510   -0.892216    0.168917
      4          6           0        1.585362    0.054061    0.417122
      5          6           0        0.693822   -0.881859   -0.072267
      6          6           0       -0.572438   -0.396534   -0.760289
      7          8           0        0.242776    2.522971   -0.519041
      8          6           0        1.807092    3.003300   -0.127626
      9          6           0       -1.752188   -1.000835   -0.305133
     10          6           0       -1.886557   -2.402318    0.263365
     11          6           0       -2.827180    0.001098   -0.589078
     12          6           0       -4.016685   -0.567656   -0.082699
     13          6           0       -3.273620    0.457800    0.814337
     14          6           0       -5.347244    0.225333   -0.051244
     15          6           0        0.162566    1.375534    1.257499
     16          1           0        6.745043   -0.847396   -0.331645
     17          1           0        5.635254   -2.005863   -1.069614
     18          1           0        5.836848   -1.962896    0.693143
     19          1           0        4.662842    0.299652   -1.019736
     20          1           0        4.891804    0.357342    0.746350
     21          1           0        3.335585   -1.619639    0.980329
     22          1           0        3.109598   -1.606172   -0.716576
     23          1           0        1.063319   -1.827954    0.317231
     24          1           0        2.175893    4.032785   -0.123172
     25          1           0        2.250846    2.473279   -0.972956
     26          1           0        2.126843    2.750856    0.993473
     27          1           0       -0.913073   -2.817065    0.467164
     28          1           0       -2.310981   -2.886454   -0.617493
     29          1           0       -2.485197   -2.492082    1.175702
     30          1           0       -2.725803    1.379730   -0.539154
     31          1           0       -4.452118   -1.565725    0.043807
     32          1           0       -4.023356    1.395010    0.139566
     33          1           0       -6.083246   -0.857460   -0.232399
     34          1           0       -5.977357    0.299969   -1.247236
     35          1           0       -6.432487    0.529951    0.284822
     36          1           0        1.548573    1.374750    1.263239
     37          1           0        1.173943    1.329399    0.140778
 ---------------------------------------------------------------------
                    Distance matrix (angstroms):
                    1          2          3          4          5
     1  C    0.000000
     2  C    1.554891   0.000000
     3  C    2.663178   1.605430   0.000000
     4  C    4.455777   3.111358   1.864426   0.000000
     5  C    5.099041   3.986263   2.490416   1.382132   0.000000
     6  C    6.436627   5.250989   3.890213   2.499087   1.520635
     7  O    6.752315   5.230853   4.551937   2.962171   3.463512
     8  C    5.882277   4.337950   4.138521   3.007313   4.041892
     9  C    7.530782   6.430681   4.948653   3.574030   2.459948
    10  C    7.744021   6.866006   5.280482   4.255780   3.013769
    11  C    8.710144   7.484152   6.113006   4.526121   3.666628
    12  C    9.818315   8.656490   7.200915   5.658558   4.720986
    13  C    9.277739   7.995721   6.617530   4.891880   4.280344
    14  C   11.228569   9.995632   8.595557   6.950520   6.141726
    15  C    6.401601   4.959548   3.922686   2.115863   2.673263
    16  H    1.100561   2.195949   3.607709   5.291086   6.056876
    17  H    1.096095   2.214980   2.973092   4.780722   5.164866
    18  H    1.095332   2.208929   2.918881   4.713749   5.310857
    19  H    2.141016   1.093894   2.248229   3.405255   4.248151
    20  H    2.138116   1.090577   2.202452   3.336604   4.452954
    21  H    2.722941   2.150996   1.101875   2.486313   2.937888
    22  H    2.721666   2.110836   1.139205   2.522883   2.603024
    23  H    4.760792   3.912456   2.312205   1.955630   1.087811
    24  H    6.467077   4.969875   5.033309   4.058435   5.133503
    25  H    5.247337   3.750577   3.671498   2.868415   3.806904
    26  H    5.610165   4.086664   3.878825   2.810354   4.047958
    27  H    6.877087   6.124354   4.526144   3.806316   2.572570
    28  H    8.237500   7.435348   5.887623   4.989844   3.653015
    29  H    8.448961   7.562086   5.965135   4.860837   3.775766
    30  H    8.927724   7.560086   6.360283   4.610640   4.126331
    31  H   10.227821   9.178077   7.655340   6.262127   5.192480
    32  H   10.174946   8.823355   7.550679   5.773465   5.242211
    33  H   11.863395  10.734548   9.264518   7.749858   6.779004
    34  H   11.907353  10.690870   9.335249   7.747598   6.876184
    35  H   12.355353  11.104257   9.710405   8.033049   7.273583
    36  H    5.231604   3.759371   2.995638   1.568912   2.757981
    37  H    5.327978   3.826950   2.988416   1.368254   2.272788
                    6          7          8          9         10
     6  C    0.000000
     7  O    3.040770   0.000000
     8  C    4.197773   1.682559   0.000000
     9  C    1.401484   4.054978   5.360324   0.000000
    10  C    2.607288   5.422610   6.558706   1.518355   0.000000
    11  C    2.295928   3.973585   5.540995   1.496697   2.718058
    12  C    3.514434   5.280661   6.831553   2.316262   2.832523
    13  C    3.241252   4.290440   5.760251   2.386542   3.226110
    14  C    4.867056   6.061873   7.675119   3.806886   4.356591
    15  C    2.784228   2.116398   2.696786   3.428590   4.411279
    16  H    7.343878   7.326252   6.265210   8.498657   8.790697
    17  H    6.420363   7.063447   6.374472   7.494585   7.649291
    18  H    6.756101   7.272278   6.447922   7.714634   7.747825
    19  H    5.287735   4.973010   4.032479   6.584416   7.200113
    20  H    5.718062   5.282482   4.156967   6.862425   7.334520
    21  H    4.449537   5.382824   4.993538   5.284010   5.328920
    22  H    3.875890   5.030657   4.826036   4.916572   5.153222
    23  H    2.426049   4.505906   4.908372   2.999756   3.005755
    24  H    5.251486   2.484591   1.093560   6.387508   7.619939
    25  H    4.031375   2.059333   1.091982   5.342259   6.512914
    26  H    4.501984   2.426796   1.192825   5.550535   6.572339
    27  H    2.735260   5.551988   6.452110   2.144585   1.077600
    28  H    3.040169   5.982746   7.203312   1.991326   1.091070
    29  H    3.434827   5.955229   7.093774   2.225757   1.094891
    30  H    2.800178   3.181174   4.832439   2.582592   3.956294
    31  H    4.131041   6.251101   7.751328   2.780375   2.707434
    32  H    3.991015   4.461608   6.054098   3.331071   4.359006
    33  H    5.555189   7.178303   8.784866   4.334042   4.499396
    34  H    5.471324   6.645455   8.316199   4.520145   5.130196
    35  H    6.024185   7.012665   8.612678   4.959492   5.409634
    36  H    3.425026   2.489988   2.157200   4.358694   5.202510
    37  H    2.615456   1.651378   1.809659   3.767103   4.827774
                   11         12         13         14         15
    11  C    0.000000
    12  C    1.412382   0.000000
    13  C    1.541901   1.551895   0.000000
    14  C    2.586555   1.549261   2.259024   0.000000
    15  C    3.773261   4.799818   3.584132   5.778735   0.000000
    16  H    9.613203  10.768241  10.168108  12.143014   7.127118
    17  H    8.710431   9.808281   9.433289  11.253025   6.841025
    18  H    8.975898   9.982020   9.427358  11.420436   6.607654
    19  H    7.508331   8.772939   8.147163  10.057103   5.157113
    20  H    7.841746   8.994671   8.166325  10.270914   4.864533
    21  H    6.562735   7.502837   6.929999   8.936419   4.372178
    22  H    6.151821   7.229400   6.881071   8.678436   4.633848
    23  H    4.393496   5.249260   4.927557   6.741444   3.458005
    24  H    6.442229   7.714514   6.584576   8.432050   3.608424
    25  H    5.660865   7.022948   6.146243   7.977079   3.246674
    26  H    5.882855   7.064956   5.869855   7.958120   2.412386
    27  H    3.566720   3.872286   4.051845   5.402481   4.399945
    28  H    2.933467   2.927842   3.763090   4.384376   5.272435
    29  H    3.073654   2.762688   3.074736   4.132924   4.687835
    30  H    1.383256   2.380555   1.726846   2.905623   3.401566
    31  H    2.344334   1.096242   2.465203   2.004538   5.605298
    32  H    1.976044   1.975223   1.376875   1.776860   4.332677
    33  H    3.386194   2.092145   3.274074   1.321725   6.798251
    34  H    3.232045   2.439909   3.403702   1.353886   6.717826
    35  H    3.747216   2.678790   3.203753   1.176217   6.719809
    36  H    4.946232   6.046204   4.929083   7.113461   1.386020
    37  H    4.278558   5.530947   4.581941   6.616775   1.507341
                   16         17         18         19         20
    16  H    0.000000
    17  H    1.765864   0.000000
    18  H    1.766168   1.774766   0.000000
    19  H    2.474823   2.502693   3.071053   0.000000
    20  H    2.459261   3.071674   2.505882   1.781800   0.000000
    21  H    3.733905   3.104821   2.540988   3.073362   2.526860
    22  H    3.733681   2.581342   3.090704   2.477224   3.028498
    23  H    5.802114   4.780961   4.790209   4.389847   4.429104
    24  H    6.688554   7.023404   7.072280   4.574388   4.652002
    25  H    5.624587   5.614827   5.942638   3.247241   3.795769
    26  H    6.002594   6.260324   6.006146   4.061122   3.665377
    27  H    7.947605   6.774977   6.807503   6.558629   6.622039
    28  H    9.287144   8.007653   8.304086   7.677713   8.016383
    29  H    9.496021   8.439169   8.352803   7.981741   7.919829
    30  H    9.731396   9.036089   9.274195   7.482620   7.792671
    31  H   11.226459  10.158174  10.317083   9.364468   9.565596
    32  H   11.009489  10.311004  10.430992   8.831411   8.995833
    33  H   12.828677  11.804364  12.006967  10.836846  11.085369
    34  H   12.806804  11.840657  12.184460  10.642631  11.050626
    35  H   13.263651  12.405452  12.526675  11.174133  11.335006
    36  H    5.872383   5.794110   5.463898   4.008302   3.532631
    37  H    5.999898   5.700203   5.734718   3.818323   3.890257
                   21         22         23         24         25
    21  H    0.000000
    22  H    1.711939   0.000000
    23  H    2.376192   2.303302   0.000000
    24  H    5.874734   5.746457   5.981642   0.000000
    25  H    4.663042   4.176735   4.644934   1.777585   0.000000
    26  H    4.534585   4.782653   4.749094   1.700778   1.989791
    27  H    4.443901   4.364559   2.215162   7.537284   6.330250
    28  H    6.003462   5.570603   3.657872   8.261493   7.047224
    29  H    5.889043   5.972209   3.710795   8.123222   7.190386
    30  H    6.931484   6.557362   5.037864   5.589129   5.113811
    31  H    7.843997   7.599958   5.528433   8.677657   7.891584
    32  H    7.996812   7.785827   6.024394   6.742224   6.462661
    33  H    9.527119   9.235983   7.233073   9.598948   9.005517
    34  H    9.766157   9.299878   7.519756   9.037308   8.514801
    35  H   10.025951   9.829405   7.857981   9.302716   8.986591
    36  H    3.498544   3.904146   3.374569   3.062812   2.588537
    37  H    3.751582   3.619308   3.164214   2.895146   1.925769
                   26         27         28         29         30
    26  H    0.000000
    27  H    6.365519   0.000000
    28  H    7.353146   1.770718   0.000000
    29  H    6.985164   1.754769   1.844297   0.000000
    30  H    5.270399   4.680999   4.287021   4.241410   0.000000
    31  H    7.925747   3.777555   2.601175   2.451144   3.463483
    32  H    6.355503   5.246213   4.672933   4.306855   1.464424
    33  H    9.051423   5.573162   4.300593   4.195319   4.046177
    34  H    8.758178   6.188864   4.898182   5.085407   3.498553
    35  H    8.871118   6.457531   5.428887   5.050491   3.891089
    36  H    1.516851   4.925926   6.049064   5.588502   4.638851
    37  H    1.911975   4.653528   5.522054   5.391112   3.958896
                   31         32         33         34         35
    31  H    0.000000
    32  H    2.993152   0.000000
    33  H    1.799586   3.074919   0.000000
    34  H    2.733854   2.634474   1.542967   0.000000
    35  H    2.893408   2.563853   1.521313   1.614694   0.000000
    36  H    6.792769   5.684140   8.091005   8.006077   8.085067
    37  H    6.328010   5.197713   7.588702   7.357133   7.649683
                   36         37
    36  H    0.000000
    37  H    1.184197   0.000000
 Stoichiometry    C14H22O
 Framework group  C1[X(C14H22O)]
 Deg. of freedom   105
 Full point group                 C1      NOp   1
 Largest Abelian subgroup         C1      NOp   1
 Largest concise Abelian subgroup C1      NOp   1
                         Standard orientation:                         
 ---------------------------------------------------------------------
 Center     Atomic      Atomic             Coordinates (Angstroms)
 Number     Number       Type             X           Y           Z
 ---------------------------------------------------------------------
      1          6           0       -5.770190    1.342811   -0.207304
      2          6           0       -4.635206    0.285862   -0.096149
      3          6           0       -3.172510    0.892216    0.168917
      4          6           0       -1.585362   -0.054061    0.417122
      5          6           0       -0.693822    0.881859   -0.072267
      6          6           0        0.572438    0.396534   -0.760289
      7          8           0       -0.242776   -2.522971   -0.519041
      8          6           0       -1.807092   -3.003300   -0.127626
      9          6           0        1.752188    1.000835   -0.305133
     10          6           0        1.886557    2.402318    0.263365
     11          6           0        2.827180   -0.001098   -0.589078
     12          6           0        4.016685    0.567656   -0.082699
     13          6           0        3.273620   -0.457800    0.814337
     14          6           0        5.347244   -0.225333   -0.051244
     15          6           0       -0.162566   -1.375534    1.257499
     16          1           0       -6.745043    0.847396   -0.331645
     17          1           0       -5.635254    2.005863   -1.069614
     18          1           0       -5.836848    1.962896    0.693143
     19          1           0       -4.662842   -0.299652   -1.019736
     20          1           0       -4.891804   -0.357342    0.746350
     21          1           0       -3.335585    1.619639    0.980329
     22          1           0       -3.109598    1.606172   -0.716576
     23          1           0       -1.063319    1.827954    0.317231
     24          1           0       -2.175893   -4.032785   -0.123172
     25          1           0       -2.250846   -2.473279   -0.972956
     26          1           0       -2.126843   -2.750856    0.993473
     27          1           0        0.913073    2.817065    0.467164
     28          1           0        2.310981    2.886454   -0.617493
     29          1           0        2.485197    2.492082    1.175702
     30          1           0        2.725803   -1.379730   -0.539154
     31          1           0        4.452118    1.565725    0.043807
     32          1           0        4.023356   -1.395010    0.139566
     33          1           0        6.083246    0.857460   -0.232399
     34          1           0        5.977357   -0.299969   -1.247236
     35          1           0        6.432487   -0.529951    0.284822
     36          1           0       -1.548573   -1.374750    1.263239
     37          1           0       -1.173943   -1.329399    0.140778
 ---------------------------------------------------------------------
 Rotational constants (GHZ):           0.9985641           0.2373893           0.2009871
 Standard basis: 6-31+G(3df,2p) (6D, 7F)
 There are   791 symmetry adapted cartesian basis functions of A   symmetry.
 There are   746 symmetry adapted basis functions of A   symmetry.
   746 basis functions,  1030 primitive gaussians,   791 cartesian basis functions
    57 alpha electrons       57 beta electrons
       nuclear repulsion energy       928.3604767266 Hartrees.
 NAtoms=   37 NActive=   37 NUniq=   37 SFac= 1.00D+00 NAtFMM=   60 NAOKFM=F Big=F
 Integral buffers will be    131072 words long.
 Regular integral format.
 Two-electron integral symmetry is turned on.
 One-electron integrals computed using PRISM.
 PrsmSu:  requested number of processors reduced to:  12 ShMem   1 Linda.
 NBasis=   746 RedAO= T EigKep=  1.58D-06  NBF=   746
 NBsUse=   746 1.00D-06 EigRej= -1.00D+00 NBFU=   746
 ExpMin= 4.38D-02 ExpMax= 5.48D+03 ExpMxC= 8.25D+02 IAcc=3 IRadAn=         5 AccDes= 0.00D+00
 Harris functional with IExCor=  402 and IRadAn=       5 diagonalized for initial guess.
 HarFok:  IExCor=  402 AccDes= 0.00D+00 IRadAn=         5 IDoV= 1 UseB2=F ITyADJ=14
 ICtDFT=  3500011 ScaDFX=  1.000000  1.000000  1.000000  1.000000
 FoFCou: FMM=F IPFlag=           0 FMFlag=      100000 FMFlg1=           0
         NFxFlg=           0 DoJE=T BraDBF=F KetDBF=T FulRan=T
         wScrn=  0.000000 ICntrl=       500 IOpCl=  0 I1Cent=   200000004 NGrid=           0
         NMat0=    1 NMatS0=      1 NMatT0=    0 NMatD0=    1 NMtDS0=    0 NMtDT0=    0
 Petite list used in FoFCou.
 Requested convergence on RMS density matrix=1.00D-08 within 128 cycles.
 Requested convergence on MAX density matrix=1.00D-06.
 Requested convergence on             energy=1.00D-06.
 No special actions if energy rises.
 EnCoef did     6 forward-backward iterations
 EnCoef did   100 forward-backward iterations
 EnCoef did     4 forward-backward iterations
 EnCoef did     3 forward-backward iterations
 EnCoef did     3 forward-backward iterations
 Restarting incremental Fock formation.
 SCF Done:  E(RB3LYP) =  -620.832300748     A.U. after   27 cycles
            NFock= 27  Conv=0.39D-08     -V/T= 2.0099
 DoSCS=F DFT=T ScalE2(SS,OS)=  1.000000  1.000000
 ExpMin= 4.38D-02 ExpMax= 5.48D+03 ExpMxC= 8.25D+02 IAcc=3 IRadAn=         5 AccDes= 0.00D+00
 HarFok:  IExCor=  205 AccDes= 0.00D+00 IRadAn=         5 IDoV=-2 UseB2=F ITyADJ=14
 ICtDFT= 12500011 ScaDFX=  1.000000  1.000000  1.000000  1.000000
 Range of M.O.s used for correlation:    16   746
 NBasis=   746 NAE=    57 NBE=    57 NFC=    15 NFV=     0
 NROrb=    731 NOA=    42 NOB=    42 NVA=   689 NVB=   689

 **** Warning!!: The largest alpha MO coefficient is  0.14493477D+03


 **** Warning!!: The smallest alpha delta epsilon is  0.42272470D-01

 Orbital symmetries:
       Occupied  (A) (A) (A) (A) (A) (A) (A) (A) (A) (A) (A) (A)
                 (A) (A) (A) (A) (A) (A) (A) (A) (A) (A) (A) (A)
                 (A) (A) (A) (A) (A) (A) (A) (A) (A) (A) (A) (A)
                 (A) (A) (A) (A) (A) (A) (A) (A) (A) (A) (A) (A)
                 (A) (A) (A) (A) (A) (A) (A) (A) (A)
       Virtual   (A) (A) (A) (A) (A) (A) (A) (A) (A) (A) (A) (A)
                 (A) (A) (A) (A) (A) (A) (A) (A) (A) (A) (A) (A)
                 (A) (A) (A) (A) (A) (A) (A) (A) (A) (A) (A) (A)
                 (A) (A) (A) (A) (A) (A) (A) (A) (A) (A) (A) (A)
                 (A) (A) (A) (A) (A) (A) (A) (A) (A) (A) (A) (A)
                 (A) (A) (A) (A) (A) (A) (A) (A) (A) (A) (A) (A)
                 (A) (A) (A) (A) (A) (A) (A) (A) (A) (A) (A) (A)
                 (A) (A) (A) (A) (A) (A) (A) (A) (A) (A) (A) (A)
                 (A) (A) (A) (A) (A) (A) (A) (A) (A) (A) (A) (A)
                 (A) (A) (A) (A) (A) (A) (A) (A) (A) (A) (A) (A)
                 (A) (A) (A) (A) (A) (A) (A) (A) (A) (A) (A) (A)
                 (A) (A) (A) (A) (A) (A) (A) (A) (A) (A) (A) (A)
                 (A) (A) (A) (A) (A) (A) (A) (A) (A) (A) (A) (A)
                 (A) (A) (A) (A) (A) (A) (A) (A) (A) (A) (A) (A)
                 (A) (A) (A) (A) (A) (A) (A) (A) (A) (A) (A) (A)
                 (A) (A) (A) (A) (A) (A) (A) (A) (A) (A) (A) (A)
                 (A) (A) (A) (A) (A) (A) (A) (A) (A) (A) (A) (A)
                 (A) (A) (A) (A) (A) (A) (A) (A) (A) (A) (A) (A)
                 (A) (A) (A) (A) (A) (A) (A) (A) (A) (A) (A) (A)
                 (A) (A) (A) (A) (A) (A) (A) (A) (A) (A) (A) (A)
                 (A) (A) (A) (A) (A) (A) (A) (A) (A) (A) (A) (A)
                 (A) (A) (A) (A) (A) (A) (A) (A) (A) (A) (A) (A)
                 (A) (A) (A) (A) (A) (A) (A) (A) (A) (A) (A) (A)
                 (A) (A) (A) (A) (A) (A) (A) (A) (A) (A) (A) (A)
                 (A) (A) (A) (A) (A) (A) (A) (A) (A) (A) (A) (A)
                 (A) (A) (A) (A) (A) (A) (A) (A) (A) (A) (A) (A)
                 (A) (A) (A) (A) (A) (A) (A) (A) (A) (A) (A) (A)
                 (A) (A) (A) (A) (A) (A) (A) (A) (A) (A) (A) (A)
                 (A) (A) (A) (A) (A) (A) (A) (A) (A) (A) (A) (A)
                 (A) (A) (A) (A) (A) (A) (A) (A) (A) (A) (A) (A)
                 (A) (A) (A) (A) (A) (A) (A) (A) (A) (A) (A) (A)
                 (A) (A) (A) (A) (A) (A) (A) (A) (A) (A) (A) (A)
                 (A) (A) (A) (A) (A) (A) (A) (A) (A) (A) (A) (A)
                 (A) (A) (A) (A) (A) (A) (A) (A) (A) (A) (A) (A)
                 (A) (A) (A) (A) (A) (A) (A) (A) (A) (A) (A) (A)
                 (A) (A) (A) (A) (A) (A) (A) (A) (A) (A) (A) (A)
                 (A) (A) (A) (A) (A) (A) (A) (A) (A) (A) (A) (A)
                 (A) (A) (A) (A) (A) (A) (A) (A) (A) (A) (A) (A)
                 (A) (A) (A) (A) (A) (A) (A) (A) (A) (A) (A) (A)
                 (A) (A) (A) (A) (A) (A) (A) (A) (A) (A) (A) (A)
                 (A) (A) (A) (A) (A) (A) (A) (A) (A) (A) (A) (A)
                 (A) (A) (A) (A) (A) (A) (A) (A) (A) (A) (A) (A)
                 (A) (A) (A) (A) (A) (A) (A) (A) (A) (A) (A) (A)
                 (A) (A) (A) (A) (A) (A) (A) (A) (A) (A) (A) (A)
                 (A) (A) (A) (A) (A) (A) (A) (A) (A) (A) (A) (A)
                 (A) (A) (A) (A) (A) (A) (A) (A) (A) (A) (A) (A)
                 (A) (A) (A) (A) (A) (A) (A) (A) (A) (A) (A) (A)
                 (A) (A) (A) (A) (A) (A) (A) (A) (A) (A) (A) (A)
                 (A) (A) (A) (A) (A) (A) (A) (A) (A) (A) (A) (A)
                 (A) (A) (A) (A) (A) (A) (A) (A) (A) (A) (A) (A)
                 (A) (A) (A) (A) (A) (A) (A) (A) (A) (A) (A) (A)
                 (A) (A) (A) (A) (A) (A) (A) (A) (A) (A) (A) (A)
                 (A) (A) (A) (A) (A) (A) (A) (A) (A) (A) (A) (A)
                 (A) (A) (A) (A) (A) (A) (A) (A) (A) (A) (A) (A)
                 (A) (A) (A) (A) (A) (A) (A) (A) (A) (A) (A) (A)
                 (A) (A) (A) (A) (A) (A) (A) (A) (A) (A) (A) (A)
                 (A) (A) (A) (A) (A) (A) (A) (A) (A) (A) (A) (A)
                 (A) (A) (A) (A) (A)
    40 initial guesses have been made.
 Convergence on wavefunction:    0.000001000000000
 Iteration     1 Dimension    40 NMult     0 NNew     40
 CISAX will form     2 AO SS matrices at one time.
 New state      5 was old state      6
 New state      6 was old state      5
 New state      7 was old state      8
 New state      8 was old state      9
 New state      9 was old state     10
 New state     10 was old state     11
 Iteration     2 Dimension    60 NMult    40 NNew     20
 New state      7 was old state      8
 New state      8 was old state      7
 Iteration     3 Dimension    80 NMult    60 NNew     20
 Iteration     4 Dimension   100 NMult    80 NNew     20
 Iteration     5 Dimension   120 NMult   100 NNew     20
 Iteration     6 Dimension   140 NMult   120 NNew     20
 Iteration     7 Dimension   160 NMult   140 NNew     20
 Iteration     8 Dimension   180 NMult   160 NNew     20
slurmstepd: error: *** JOB 27484596 ON lewis4-r630-hpc4rc-node351 CANCELLED AT 2023-05-25T01:49:02 DUE TO TIME LIMIT ***
