### Starting Gaussian ###
 Entering Gaussian System, Link 0=g16
 Initial command:
 /cluster/software/gaussian/gaussian-16-A.03/avx2/g16/l1.exe "/local/scratch/ks29c/Gau-5214.inp" -scrdir="/local/scratch/ks29c/"
 Entering Link 1 = /cluster/software/gaussian/gaussian-16-A.03/avx2/g16/l1.exe PID=      5219.
  
 Copyright (c) 1988,1990,1992,1993,1995,1998,2003,2009,2016,
            Gaussian, Inc.  All Rights Reserved.
  
 This is part of the Gaussian(R) 16 program.  It is based on
 the Gaussian(R) 09 system (copyright 2009, Gaussian, Inc.),
 the Gaussian(R) 03 system (copyright 2003, Gaussian, Inc.),
 the Gaussian(R) 98 system (copyright 1998, Gaussian, Inc.),
 the Gaussian(R) 94 system (copyright 1995, Gaussian, Inc.),
 the Gaussian 92(TM) system (copyright 1992, Gaussian, Inc.),
 the Gaussian 90(TM) system (copyright 1990, Gaussian, Inc.),
 the Gaussian 88(TM) system (copyright 1988, Gaussian, Inc.),
 the Gaussian 86(TM) system (copyright 1986, Carnegie Mellon
 University), and the Gaussian 82(TM) system (copyright 1983,
 Carnegie Mellon University). Gaussian is a federally registered
 trademark of Gaussian, Inc.
  
 This software contains proprietary and confidential information,
 including trade secrets, belonging to Gaussian, Inc.
  
 This software is provided under written license and may be
 used, copied, transmitted, or stored only in accord with that
 written license.
  
 The following legend is applicable only to US Government
 contracts under FAR:
  
                    RESTRICTED RIGHTS LEGEND
  
 Use, reproduction and disclosure by the US Government is
 subject to restrictions as set forth in subparagraphs (a)
 and (c) of the Commercial Computer Software - Restricted
 Rights clause in FAR 52.227-19.
  
 Gaussian, Inc.
 340 Quinnipiac St., Bldg. 40, Wallingford CT 06492
  
  
 ---------------------------------------------------------------
 Warning -- This program may not be used in any manner that
 competes with the business of Gaussian, Inc. or will provide
 assistance to any competitor of Gaussian, Inc.  The licensee
 of this program is prohibited from giving any competitor of
 Gaussian, Inc. access to this program.  By using this program,
 the user acknowledges that Gaussian, Inc. is engaged in the
 business of creating and licensing software in the field of
 computational chemistry and represents and warrants to the
 licensee that it is not a competitor of Gaussian, Inc. and that
 it will not use this program in any manner prohibited above.
 ---------------------------------------------------------------
  

 Cite this work as:
 Gaussian 16, Revision A.03,
 M. J. Frisch, G. W. Trucks, H. B. Schlegel, G. E. Scuseria, 
 M. A. Robb, J. R. Cheeseman, G. Scalmani, V. Barone, 
 G. A. Petersson, H. Nakatsuji, X. Li, M. Caricato, A. V. Marenich, 
 J. Bloino, B. G. Janesko, R. Gomperts, B. Mennucci, H. P. Hratchian, 
 J. V. Ortiz, A. F. Izmaylov, J. L. Sonnenberg, D. Williams-Young, 
 F. Ding, F. Lipparini, F. Egidi, J. Goings, B. Peng, A. Petrone, 
 T. Henderson, D. Ranasinghe, V. G. Zakrzewski, J. Gao, N. Rega, 
 G. Zheng, W. Liang, M. Hada, M. Ehara, K. Toyota, R. Fukuda, 
 J. Hasegawa, M. Ishida, T. Nakajima, Y. Honda, O. Kitao, H. Nakai, 
 T. Vreven, K. Throssell, J. A. Montgomery, Jr., J. E. Peralta, 
 F. Ogliaro, M. J. Bearpark, J. J. Heyd, E. N. Brothers, K. N. Kudin, 
 V. N. Staroverov, T. A. Keith, R. Kobayashi, J. Normand, 
 K. Raghavachari, A. P. Rendell, J. C. Burant, S. S. Iyengar, 
 J. Tomasi, M. Cossi, J. M. Millam, M. Klene, C. Adamo, R. Cammi, 
 J. W. Ochterski, R. L. Martin, K. Morokuma, O. Farkas, 
 J. B. Foresman, and D. J. Fox, Gaussian, Inc., Wallingford CT, 2016.
 
 ******************************************
 Gaussian 16:  ES64L-G16RevA.03 25-Dec-2016
                25-May-2023 
 ******************************************
 %chk=CCCN1CCqCrOCCqNCrN1C.chk
 %NProcShared=20
 Will use up to   20 processors via shared memory.
 -----------------------------------------------------------------
 # opt freq b3lyp/6-31+g(3df,2p) Geom=AllCheckpoint TD(NStates=10)
 -----------------------------------------------------------------
 1/18=20,19=15,26=3,29=7,38=1/1,3;
 2/9=110,12=2,40=1/2;
 3/5=1,6=6,7=216,11=9,14=-4,25=1,30=1,71=1,74=-5/1,2,3,8;
 4//1;
 5/5=2,38=5/2;
 8/6=1,10=2,108=10/1;
 9/15=2,41=10,42=1,70=2/14;
 10/5=4/2;
 6/7=2,8=2,9=2,10=2/1;
 7/12=6,13=5/1,2,3,16;
 1/18=20,19=15,26=3/3(2);
 2/9=110/2;
 99//99;
 2/9=110/2;
 3/5=1,6=6,7=216,11=9,14=-2,25=1,30=1,71=1,74=-5/1,2,3,8;
 4/5=5,16=3,69=1/1;
 5/5=2,38=5/2;
 8/6=1,10=2,108=10/1;
 9/15=2,41=10,42=1,49=4,70=2/14;
 10/5=4/2;
 7/12=6,13=5/1,2,3,16;
 1/18=20,19=15,26=3/3(-8);
 2/9=110/2;
 6/7=2,8=2,9=2,10=2/1;
 99//99;
 Structure from the checkpoint file:  "CCCN1CCqCrOCCqNCrN1C.chk"
 -------------------
 Title Card Required
 -------------------
 Charge =  0 Multiplicity = 1
 Redundant internal coordinates found in file.  (old form).
 C,0,0.853980716,-0.6137121161,1.1436799959
 C,0,2.1978465166,-0.3285277699,0.4658135403
 C,0,3.3821261611,-0.7029037033,1.3744503469
 N,0,4.7360818344,-0.5760325185,0.8344898366
 C,0,5.0806197222,-1.4972621232,-0.2478403929
 C,0,6.5789089536,-1.8536834047,-0.2456999338
 C,0,6.9208861048,-2.8917225346,0.8282434068
 O,0,7.4029115896,-0.6871996518,-0.2024448499
 C,0,7.5079276965,-0.0122067393,1.0383587105
 C,0,6.417131136,1.0612504909,1.2884088911
 N,0,6.3326187046,1.2366127129,2.7251416177
 C,0,5.5314088817,2.3781098815,3.1534158733
 N,0,5.1264769962,0.7797698992,0.6410698421
 C,0,5.0035344431,1.3328321008,-0.7096225648
 H,0,0.0139092309,-0.3305826713,0.5023723415
 H,0,0.7580094848,-0.0554342172,2.081815991
 H,0,0.7464966437,-1.6780547512,1.3820406556
 H,0,2.2597664316,0.7350431737,0.2118372401
 H,0,2.2595432875,-0.8861646289,-0.4772761359
 H,0,3.2653895768,-1.7467702221,1.6962338006
 H,0,3.3395401383,-0.0870168812,2.2791389868
 H,0,4.8025910749,-1.1072761453,-1.2375225849
 H,0,4.5035243406,-2.4171339135,-0.1035705785
 H,0,6.8150946146,-2.2893111632,-1.2242017956
 H,0,6.5053139398,-2.6254386546,1.8036917268
 H,0,8.0042187123,-3.0088863279,0.9225304197
 H,0,6.4977767744,-3.8600343186,0.5423593457
 H,0,8.4862734841,0.4787639504,1.0389523104
 H,0,7.5085928245,-0.7159856716,1.8766700243
 H,0,6.7484352097,2.0169729961,0.8650994903
 H,0,5.9575681747,0.3803576149,3.1235259239
 H,0,4.5173412921,2.3951852231,2.7263519969
 H,0,6.0354284751,3.3064591017,2.8595241976
 H,0,5.4535326532,2.3773243162,4.2446761715
 H,0,5.1182865159,2.4190690725,-0.6407951555
 H,0,4.0061387467,1.1341302994,-1.1075826054
 H,0,5.7502889177,0.9568692946,-1.4234860867
 Recover connectivity data from disk.

 GradGradGradGradGradGradGradGradGradGradGradGradGradGradGradGradGradGrad
 Berny optimization.
 Initialization pass.
                           ----------------------------
                           !    Initial Parameters    !
                           ! (Angstroms and Degrees)  !
 --------------------------                            --------------------------
 ! Name  Definition              Value          Derivative Info.                !
 --------------------------------------------------------------------------------
 ! R1    R(1,2)                  1.5319         estimate D2E/DX2                !
 ! R2    R(1,15)                 1.0941         estimate D2E/DX2                !
 ! R3    R(1,16)                 1.0959         estimate D2E/DX2                !
 ! R4    R(1,17)                 1.096          estimate D2E/DX2                !
 ! R5    R(2,3)                  1.5389         estimate D2E/DX2                !
 ! R6    R(2,18)                 1.0952         estimate D2E/DX2                !
 ! R7    R(2,19)                 1.0974         estimate D2E/DX2                !
 ! R8    R(3,4)                  1.4632         estimate D2E/DX2                !
 ! R9    R(3,20)                 1.0986         estimate D2E/DX2                !
 ! R10   R(3,21)                 1.0953         estimate D2E/DX2                !
 ! R11   R(4,5)                  1.4625         estimate D2E/DX2                !
 ! R12   R(4,13)                 1.4241         estimate D2E/DX2                !
 ! R13   R(5,6)                  1.5401         estimate D2E/DX2                !
 ! R14   R(5,22)                 1.0995         estimate D2E/DX2                !
 ! R15   R(5,23)                 1.0955         estimate D2E/DX2                !
 ! R16   R(6,7)                  1.5323         estimate D2E/DX2                !
 ! R17   R(6,8)                  1.4288         estimate D2E/DX2                !
 ! R18   R(6,24)                 1.0968         estimate D2E/DX2                !
 ! R19   R(7,25)                 1.0932         estimate D2E/DX2                !
 ! R20   R(7,26)                 1.0937         estimate D2E/DX2                !
 ! R21   R(7,27)                 1.0947         estimate D2E/DX2                !
 ! R22   R(8,9)                  1.4164         estimate D2E/DX2                !
 ! R23   R(9,10)                 1.5507         estimate D2E/DX2                !
 ! R24   R(9,28)                 1.0946         estimate D2E/DX2                !
 ! R25   R(9,29)                 1.0946         estimate D2E/DX2                !
 ! R26   R(10,11)                1.4499         estimate D2E/DX2                !
 ! R27   R(10,13)                1.4711         estimate D2E/DX2                !
 ! R28   R(10,30)                1.0965         estimate D2E/DX2                !
 ! R29   R(11,12)                1.4589         estimate D2E/DX2                !
 ! R30   R(11,31)                1.0161         estimate D2E/DX2                !
 ! R31   R(12,32)                1.1005         estimate D2E/DX2                !
 ! R32   R(12,33)                1.0965         estimate D2E/DX2                !
 ! R33   R(12,34)                1.094          estimate D2E/DX2                !
 ! R34   R(13,14)                1.4647         estimate D2E/DX2                !
 ! R35   R(14,35)                1.0944         estimate D2E/DX2                !
 ! R36   R(14,36)                1.0921         estimate D2E/DX2                !
 ! R37   R(14,37)                1.0994         estimate D2E/DX2                !
 ! A1    A(2,1,15)             111.4693         estimate D2E/DX2                !
 ! A2    A(2,1,16)             111.1482         estimate D2E/DX2                !
 ! A3    A(2,1,17)             111.2877         estimate D2E/DX2                !
 ! A4    A(15,1,16)            107.6192         estimate D2E/DX2                !
 ! A5    A(15,1,17)            107.6662         estimate D2E/DX2                !
 ! A6    A(16,1,17)            107.4547         estimate D2E/DX2                !
 ! A7    A(1,2,3)              111.6248         estimate D2E/DX2                !
 ! A8    A(1,2,18)             109.4501         estimate D2E/DX2                !
 ! A9    A(1,2,19)             109.573          estimate D2E/DX2                !
 ! A10   A(3,2,18)             109.2476         estimate D2E/DX2                !
 ! A11   A(3,2,19)             109.9101         estimate D2E/DX2                !
 ! A12   A(18,2,19)            106.9181         estimate D2E/DX2                !
 ! A13   A(2,3,4)              118.2373         estimate D2E/DX2                !
 ! A14   A(2,3,20)             108.804          estimate D2E/DX2                !
 ! A15   A(2,3,21)             108.7225         estimate D2E/DX2                !
 ! A16   A(4,3,20)             106.7874         estimate D2E/DX2                !
 ! A17   A(4,3,21)             106.9805         estimate D2E/DX2                !
 ! A18   A(20,3,21)            106.7529         estimate D2E/DX2                !
 ! A19   A(3,4,5)              115.8805         estimate D2E/DX2                !
 ! A20   A(3,4,13)             112.7277         estimate D2E/DX2                !
 ! A21   A(5,4,13)             115.7606         estimate D2E/DX2                !
 ! A22   A(4,5,6)              111.9589         estimate D2E/DX2                !
 ! A23   A(4,5,22)             112.5296         estimate D2E/DX2                !
 ! A24   A(4,5,23)             107.9011         estimate D2E/DX2                !
 ! A25   A(6,5,22)             109.2291         estimate D2E/DX2                !
 ! A26   A(6,5,23)             108.5415         estimate D2E/DX2                !
 ! A27   A(22,5,23)            106.45           estimate D2E/DX2                !
 ! A28   A(5,6,7)              112.017          estimate D2E/DX2                !
 ! A29   A(5,6,8)              111.8483         estimate D2E/DX2                !
 ! A30   A(5,6,24)             107.4676         estimate D2E/DX2                !
 ! A31   A(7,6,8)              113.7748         estimate D2E/DX2                !
 ! A32   A(7,6,24)             107.9479         estimate D2E/DX2                !
 ! A33   A(8,6,24)             103.1248         estimate D2E/DX2                !
 ! A34   A(6,7,25)             112.0572         estimate D2E/DX2                !
 ! A35   A(6,7,26)             110.7357         estimate D2E/DX2                !
 ! A36   A(6,7,27)             109.265          estimate D2E/DX2                !
 ! A37   A(25,7,26)            109.008          estimate D2E/DX2                !
 ! A38   A(25,7,27)            107.5508         estimate D2E/DX2                !
 ! A39   A(26,7,27)            108.0949         estimate D2E/DX2                !
 ! A40   A(6,8,9)              117.2794         estimate D2E/DX2                !
 ! A41   A(8,9,10)             114.7709         estimate D2E/DX2                !
 ! A42   A(8,9,28)             106.2892         estimate D2E/DX2                !
 ! A43   A(8,9,29)             111.3807         estimate D2E/DX2                !
 ! A44   A(10,9,28)            108.5493         estimate D2E/DX2                !
 ! A45   A(10,9,29)            108.7853         estimate D2E/DX2                !
 ! A46   A(28,9,29)            106.7044         estimate D2E/DX2                !
 ! A47   A(9,10,11)            106.5301         estimate D2E/DX2                !
 ! A48   A(9,10,13)            114.4398         estimate D2E/DX2                !
 ! A49   A(9,10,30)            109.182          estimate D2E/DX2                !
 ! A50   A(11,10,13)           114.0832         estimate D2E/DX2                !
 ! A51   A(11,10,30)           107.1422         estimate D2E/DX2                !
 ! A52   A(13,10,30)           105.1876         estimate D2E/DX2                !
 ! A53   A(10,11,12)           114.6801         estimate D2E/DX2                !
 ! A54   A(10,11,31)           107.9448         estimate D2E/DX2                !
 ! A55   A(12,11,31)           109.9702         estimate D2E/DX2                !
 ! A56   A(11,12,32)           113.8468         estimate D2E/DX2                !
 ! A57   A(11,12,33)           109.3499         estimate D2E/DX2                !
 ! A58   A(11,12,34)           109.3506         estimate D2E/DX2                !
 ! A59   A(32,12,33)           107.8444         estimate D2E/DX2                !
 ! A60   A(32,12,34)           108.7543         estimate D2E/DX2                !
 ! A61   A(33,12,34)           107.4987         estimate D2E/DX2                !
 ! A62   A(4,13,10)            111.2794         estimate D2E/DX2                !
 ! A63   A(4,13,14)            117.4985         estimate D2E/DX2                !
 ! A64   A(10,13,14)           114.028          estimate D2E/DX2                !
 ! A65   A(13,14,35)           107.9367         estimate D2E/DX2                !
 ! A66   A(13,14,36)           110.1205         estimate D2E/DX2                !
 ! A67   A(13,14,37)           114.3717         estimate D2E/DX2                !
 ! A68   A(35,14,36)           107.413          estimate D2E/DX2                !
 ! A69   A(35,14,37)           108.001          estimate D2E/DX2                !
 ! A70   A(36,14,37)           108.7549         estimate D2E/DX2                !
 ! D1    D(15,1,2,3)           179.0173         estimate D2E/DX2                !
 ! D2    D(15,1,2,18)           57.9487         estimate D2E/DX2                !
 ! D3    D(15,1,2,19)          -58.9943         estimate D2E/DX2                !
 ! D4    D(16,1,2,3)            58.9588         estimate D2E/DX2                !
 ! D5    D(16,1,2,18)          -62.1099         estimate D2E/DX2                !
 ! D6    D(16,1,2,19)         -179.0529         estimate D2E/DX2                !
 ! D7    D(17,1,2,3)           -60.7695         estimate D2E/DX2                !
 ! D8    D(17,1,2,18)          178.1618         estimate D2E/DX2                !
 ! D9    D(17,1,2,19)           61.2188         estimate D2E/DX2                !
 ! D10   D(1,2,3,4)            175.8488         estimate D2E/DX2                !
 ! D11   D(1,2,3,20)            53.8986         estimate D2E/DX2                !
 ! D12   D(1,2,3,21)           -62.0086         estimate D2E/DX2                !
 ! D13   D(18,2,3,4)           -62.9647         estimate D2E/DX2                !
 ! D14   D(18,2,3,20)          175.085          estimate D2E/DX2                !
 ! D15   D(18,2,3,21)           59.1779         estimate D2E/DX2                !
 ! D16   D(19,2,3,4)            54.0549         estimate D2E/DX2                !
 ! D17   D(19,2,3,20)          -67.8954         estimate D2E/DX2                !
 ! D18   D(19,2,3,21)          176.1975         estimate D2E/DX2                !
 ! D19   D(2,3,4,5)            -67.0598         estimate D2E/DX2                !
 ! D20   D(2,3,4,13)            69.5711         estimate D2E/DX2                !
 ! D21   D(20,3,4,5)            55.9082         estimate D2E/DX2                !
 ! D22   D(20,3,4,13)         -167.4609         estimate D2E/DX2                !
 ! D23   D(21,3,4,5)           169.9197         estimate D2E/DX2                !
 ! D24   D(21,3,4,13)          -53.4494         estimate D2E/DX2                !
 ! D25   D(3,4,5,6)           -149.1583         estimate D2E/DX2                !
 ! D26   D(3,4,5,22)            87.3579         estimate D2E/DX2                !
 ! D27   D(3,4,5,23)           -29.782          estimate D2E/DX2                !
 ! D28   D(13,4,5,6)            75.5314         estimate D2E/DX2                !
 ! D29   D(13,4,5,22)          -47.9524         estimate D2E/DX2                !
 ! D30   D(13,4,5,23)         -165.0923         estimate D2E/DX2                !
 ! D31   D(3,4,13,10)          127.7225         estimate D2E/DX2                !
 ! D32   D(3,4,13,14)          -98.2212         estimate D2E/DX2                !
 ! D33   D(5,4,13,10)          -95.5918         estimate D2E/DX2                !
 ! D34   D(5,4,13,14)           38.4645         estimate D2E/DX2                !
 ! D35   D(4,5,6,7)             77.9451         estimate D2E/DX2                !
 ! D36   D(4,5,6,8)            -51.1522         estimate D2E/DX2                !
 ! D37   D(4,5,6,24)          -163.6495         estimate D2E/DX2                !
 ! D38   D(22,5,6,7)          -156.7324         estimate D2E/DX2                !
 ! D39   D(22,5,6,8)            74.1704         estimate D2E/DX2                !
 ! D40   D(22,5,6,24)          -38.327          estimate D2E/DX2                !
 ! D41   D(23,5,6,7)           -41.0539         estimate D2E/DX2                !
 ! D42   D(23,5,6,8)          -170.1512         estimate D2E/DX2                !
 ! D43   D(23,5,6,24)           77.3515         estimate D2E/DX2                !
 ! D44   D(5,6,7,25)           -48.8203         estimate D2E/DX2                !
 ! D45   D(5,6,7,26)          -170.7689         estimate D2E/DX2                !
 ! D46   D(5,6,7,27)            70.2761         estimate D2E/DX2                !
 ! D47   D(8,6,7,25)            79.2614         estimate D2E/DX2                !
 ! D48   D(8,6,7,26)           -42.6872         estimate D2E/DX2                !
 ! D49   D(8,6,7,27)          -161.6421         estimate D2E/DX2                !
 ! D50   D(24,6,7,25)         -166.9405         estimate D2E/DX2                !
 ! D51   D(24,6,7,26)           71.1109         estimate D2E/DX2                !
 ! D52   D(24,6,7,27)          -47.844          estimate D2E/DX2                !
 ! D53   D(5,6,8,9)             75.4313         estimate D2E/DX2                !
 ! D54   D(7,6,8,9)            -52.737          estimate D2E/DX2                !
 ! D55   D(24,6,8,9)          -169.3829         estimate D2E/DX2                !
 ! D56   D(6,8,9,10)           -88.0346         estimate D2E/DX2                !
 ! D57   D(6,8,9,28)           151.9752         estimate D2E/DX2                !
 ! D58   D(6,8,9,29)            36.1268         estimate D2E/DX2                !
 ! D59   D(8,9,10,11)          157.1562         estimate D2E/DX2                !
 ! D60   D(8,9,10,13)           30.1125         estimate D2E/DX2                !
 ! D61   D(8,9,10,30)          -87.4542         estimate D2E/DX2                !
 ! D62   D(28,9,10,11)         -84.1142         estimate D2E/DX2                !
 ! D63   D(28,9,10,13)         148.8421         estimate D2E/DX2                !
 ! D64   D(28,9,10,30)          31.2754         estimate D2E/DX2                !
 ! D65   D(29,9,10,11)          31.6315         estimate D2E/DX2                !
 ! D66   D(29,9,10,13)         -95.4122         estimate D2E/DX2                !
 ! D67   D(29,9,10,30)         147.0211         estimate D2E/DX2                !
 ! D68   D(9,10,11,12)         169.4897         estimate D2E/DX2                !
 ! D69   D(9,10,11,31)         -67.5604         estimate D2E/DX2                !
 ! D70   D(13,10,11,12)        -63.2544         estimate D2E/DX2                !
 ! D71   D(13,10,11,31)         59.6955         estimate D2E/DX2                !
 ! D72   D(30,10,11,12)         52.7325         estimate D2E/DX2                !
 ! D73   D(30,10,11,31)        175.6824         estimate D2E/DX2                !
 ! D74   D(9,10,13,4)           45.5128         estimate D2E/DX2                !
 ! D75   D(9,10,13,14)         -90.2248         estimate D2E/DX2                !
 ! D76   D(11,10,13,4)         -77.5425         estimate D2E/DX2                !
 ! D77   D(11,10,13,14)        146.7198         estimate D2E/DX2                !
 ! D78   D(30,10,13,4)         165.3369         estimate D2E/DX2                !
 ! D79   D(30,10,13,14)         29.5992         estimate D2E/DX2                !
 ! D80   D(10,11,12,32)         53.2043         estimate D2E/DX2                !
 ! D81   D(10,11,12,33)        -67.481          estimate D2E/DX2                !
 ! D82   D(10,11,12,34)        175.0613         estimate D2E/DX2                !
 ! D83   D(31,11,12,32)        -68.6493         estimate D2E/DX2                !
 ! D84   D(31,11,12,33)        170.6654         estimate D2E/DX2                !
 ! D85   D(31,11,12,34)         53.2077         estimate D2E/DX2                !
 ! D86   D(4,13,14,35)         167.1923         estimate D2E/DX2                !
 ! D87   D(4,13,14,36)          50.219          estimate D2E/DX2                !
 ! D88   D(4,13,14,37)         -72.593          estimate D2E/DX2                !
 ! D89   D(10,13,14,35)        -59.9625         estimate D2E/DX2                !
 ! D90   D(10,13,14,36)       -176.9359         estimate D2E/DX2                !
 ! D91   D(10,13,14,37)         60.2522         estimate D2E/DX2                !
 --------------------------------------------------------------------------------
 Trust Radius=3.00D-01 FncErr=1.00D-07 GrdErr=1.00D-06 EigMax=2.50D+02 EigMin=1.00D-04
 Number of steps in this run=    208 maximum allowed number of steps=    222.
 GradGradGradGradGradGradGradGradGradGradGradGradGradGradGradGradGradGrad

                          Input orientation:                          
 ---------------------------------------------------------------------
 Center     Atomic      Atomic             Coordinates (Angstroms)
 Number     Number       Type             X           Y           Z
 ---------------------------------------------------------------------
      1          6           0        0.853981   -0.613712    1.143680
      2          6           0        2.197847   -0.328528    0.465814
      3          6           0        3.382126   -0.702904    1.374450
      4          7           0        4.736082   -0.576033    0.834490
      5          6           0        5.080620   -1.497262   -0.247840
      6          6           0        6.578909   -1.853683   -0.245700
      7          6           0        6.920886   -2.891723    0.828243
      8          8           0        7.402912   -0.687200   -0.202445
      9          6           0        7.507928   -0.012207    1.038359
     10          6           0        6.417131    1.061250    1.288409
     11          7           0        6.332619    1.236613    2.725142
     12          6           0        5.531409    2.378110    3.153416
     13          7           0        5.126477    0.779770    0.641070
     14          6           0        5.003534    1.332832   -0.709623
     15          1           0        0.013909   -0.330583    0.502372
     16          1           0        0.758009   -0.055434    2.081816
     17          1           0        0.746497   -1.678055    1.382041
     18          1           0        2.259766    0.735043    0.211837
     19          1           0        2.259543   -0.886165   -0.477276
     20          1           0        3.265390   -1.746770    1.696234
     21          1           0        3.339540   -0.087017    2.279139
     22          1           0        4.802591   -1.107276   -1.237523
     23          1           0        4.503524   -2.417134   -0.103571
     24          1           0        6.815095   -2.289311   -1.224202
     25          1           0        6.505314   -2.625439    1.803692
     26          1           0        8.004219   -3.008886    0.922530
     27          1           0        6.497777   -3.860034    0.542359
     28          1           0        8.486273    0.478764    1.038952
     29          1           0        7.508593   -0.715986    1.876670
     30          1           0        6.748435    2.016973    0.865099
     31          1           0        5.957568    0.380358    3.123526
     32          1           0        4.517341    2.395185    2.726352
     33          1           0        6.035428    3.306459    2.859524
     34          1           0        5.453533    2.377324    4.244676
     35          1           0        5.118287    2.419069   -0.640795
     36          1           0        4.006139    1.134130   -1.107583
     37          1           0        5.750289    0.956869   -1.423486
 ---------------------------------------------------------------------
                    Distance matrix (angstroms):
                    1          2          3          4          5
     1  C    0.000000
     2  C    1.531930   0.000000
     3  C    2.540222   1.538927   0.000000
     4  N    3.894577   2.576785   1.463164   0.000000
     5  C    4.536680   3.191492   2.479458   1.462467   0.000000
     6  C    6.020192   4.693193   3.764120   2.489019   1.540101
     7  C    6.488156   5.385947   4.196676   3.183682   2.547363
     8  O    6.686251   5.260030   4.318977   2.863490   2.459939
     9  C    6.681909   5.350218   4.196696   2.835946   3.122743
    10  C    5.811634   4.517799   3.511538   2.390118   3.269910
    11  N    5.995014   4.964934   3.780410   3.067438   4.228498
    12  C    5.904945   5.065741   4.156535   3.838870   5.175931
    13  N    4.522017   3.136226   2.403940   1.424086   2.444819
    14  C    4.943942   3.466071   3.334148   2.469732   2.868557
    15  H    1.094147   2.184244   3.499147   4.740196   5.253143
    16  H    1.095894   2.181553   2.793845   4.201417   5.117727
    17  H    1.095990   2.183372   2.810253   4.175051   4.633985
    18  H    2.159561   1.095227   2.163112   2.870323   3.626528
    19  H    2.162715   1.097353   2.173170   2.819602   2.895609
    20  H    2.721035   2.159860   1.098558   2.067889   2.671468
    21  H    2.782927   2.156372   1.095259   2.067964   3.377244
    22  H    4.637376   3.208192   3.000607   2.140065   1.099482
    23  H    4.257597   3.162693   2.525998   2.079350   1.095453
    24  H    6.629432   5.293374   4.588568   3.390550   2.142201
    25  H    6.034917   5.061620   3.692518   2.875691   2.740679
    26  H    7.543982   6.411464   5.185126   4.075199   3.493166
    27  H    6.538549   5.564782   4.512995   3.738125   2.866259
    28  H    7.710795   6.365887   5.249878   3.901069   4.142341
    29  H    6.695640   5.508599   4.156937   2.965222   3.319487
    30  H    6.460859   5.135042   4.357660   3.282405   4.045997
    31  H    5.563683   4.658483   3.296304   2.765212   3.957348
    32  H    4.997852   4.231868   3.565741   3.529182   4.930948
    33  H    6.720064   5.802587   5.031943   4.567582   5.800268
    34  H    6.302250   5.674586   4.692198   4.567978   5.944257
    35  H    5.528690   4.159668   4.101485   3.360533   3.936176
    36  H    4.249616   2.808000   3.150329   2.688702   2.969494
    37  H    5.747252   4.223925   4.023865   2.911505   2.802385
                    6          7          8          9         10
     6  C    0.000000
     7  C    1.532262   0.000000
     8  O    1.428823   2.480844   0.000000
     9  C    2.429592   2.946248   1.416417   0.000000
    10  C    3.297954   4.011423   2.500297   1.550701   0.000000
    11  N    4.293773   4.581204   3.662969   2.405439   1.449860
    12  C    5.528048   5.925218   4.915328   3.754159   2.448851
    13  N    3.135442   4.090818   2.836489   2.540939   1.471077
    14  C    3.584817   4.887549   3.177226   3.337148   2.462548
    15  H    6.780757   7.373734   7.431103   7.519904   6.599720
    16  H    6.521802   6.899060   7.054906   6.830232   5.822554
    17  H    6.057839   6.316864   6.913772   6.972096   6.298306
    18  H    5.056267   5.937965   5.352228   5.365139   4.306866
    19  H    4.432453   5.239729   5.154547   5.532313   4.918903
    20  H    3.842128   3.927719   4.674052   4.630404   4.240846
    21  H    4.470954   4.774674   4.798903   4.349780   3.430981
    22  H    2.167058   3.455259   2.830109   3.701035   3.699943
    23  H    2.155203   2.633847   3.377706   4.014239   4.206977
    24  H    1.096823   2.141640   1.989039   3.283961   4.206881
    25  H    2.191125   1.093209   2.930364   2.901715   3.723569
    26  H    2.175032   1.093722   2.649032   3.039705   4.383917
    27  H    2.157096   1.094705   3.382437   4.009015   4.978166
    28  H    3.275467   3.722233   2.018467   1.094629   2.163994
    29  H    2.581302   2.485644   2.081998   1.094564   2.167004
    30  H    4.030458   4.911862   2.980023   2.173573   1.096521
    31  H    4.090072   4.111303   3.780314   2.627859   2.010589
    32  H    5.579968   6.109929   5.138625   4.193860   2.730616
    33  H    6.046888   6.582370   5.214880   4.061827   2.766778
    34  H    6.271473   6.448875   5.741800   4.495650   3.376402
    35  H    4.532762   5.797581   3.880795   3.800137   2.693046
    36  H    4.035966   5.333917   3.959114   4.263998   3.399849
    37  H    3.158005   4.610015   2.631552   3.176332   2.794628
                   11         12         13         14         15
    11  N    0.000000
    12  C    1.458894   0.000000
    13  N    2.450885   3.005086   0.000000
    14  C    3.684200   4.036623   1.464706   0.000000
    15  H    6.879164   6.693867   5.233590   5.397429   0.000000
    16  H    5.758430   5.464047   4.675128   5.267247   1.767494
    17  H    6.442357   6.518100   5.076827   5.618084   1.768101
    18  H    4.812109   4.696403   2.899012   2.955453   2.502767
    19  H    5.599251   5.877288   3.499335   3.536583   2.512221
    20  H    4.400809   4.926749   3.310653   4.277060   3.742061
    21  H    3.302943   3.412550   2.574438   3.703720   3.778365
    22  H    4.851547   5.653267   2.682341   2.504633   5.153830
    23  H    4.969614   5.887178   3.341071   3.831391   4.987736
    24  H    5.316224   6.526577   3.968618   4.082458   7.285177
    25  H    3.974209   5.273115   3.853353   4.923413   7.007006
    26  H    4.905906   6.333353   4.765977   5.524360   8.437706
    27  H    5.546857   6.831246   4.839214   5.546718   7.382355
    28  H    2.838274   4.099963   3.396638   3.989539   8.527832
    29  H    2.432172   3.887514   3.072209   4.142690   7.629385
    30  H    2.059520   2.616862   2.052221   2.447954   7.141178
    31  H    1.016143   2.042919   2.648175   4.063301   6.534750
    32  H    2.153491   1.100458   2.707215   3.629173   5.714613
    33  H    2.095387   1.096467   3.483086   4.206996   7.419092
    34  H    2.093562   1.094036   3.955392   5.083162   7.136323
    35  H    3.768599   3.816855   2.080997   1.094448   5.909491
    36  H    4.484728   4.693617   2.106778   1.092086   4.547003
    37  H    4.198628   4.797485   2.164000   1.099360   6.186478
                   16         17         18         19         20
    16  H    0.000000
    17  H    1.767121   0.000000
    18  H    2.525262   3.079351   0.000000
    19  H    3.081180   2.524571   1.761588   0.000000
    20  H    3.048975   2.539343   3.061717   2.544900   0.000000
    21  H    2.589254   3.171760   2.472940   3.066407   1.760698
    22  H    5.336949   4.862078   3.458431   2.663448   3.373258
    23  H    4.937856   4.107132   3.882029   2.742075   2.285095
    24  H    7.253154   6.632798   5.653312   4.824911   4.628574
    25  H    6.301887   5.851436   5.643714   5.123910   3.358678
    26  H    7.910396   7.393023   6.893535   6.282253   4.964681
    27  H    7.056191   6.208327   6.259769   5.276948   4.030588
    28  H    7.816585   8.041997   6.286429   6.552415   5.713375
    29  H    6.785926   6.848079   5.694500   5.755219   4.370337
    30  H    6.454492   7.067087   4.713623   5.511836   5.195012
    31  H    5.320760   5.867291   4.719902   5.314625   3.716135
    32  H    4.533601   5.711193   3.765037   5.111569   4.447957
    33  H    6.305419   7.416275   5.279967   6.555123   5.878902
    34  H    5.713512   6.840831   5.400094   6.568772   5.318899
    35  H    5.705067   6.323831   3.425502   4.373068   5.123392
    36  H    4.705069   4.973115   2.224850   2.743989   4.087748
    37  H    6.183426   6.312824   3.860989   4.059235   4.818407
                   21         22         23         24         25
    21  H    0.000000
    22  H    3.943140   0.000000
    23  H    3.530100   1.758128   0.000000
    24  H    5.403978   2.334000   2.572063   0.000000
    25  H    4.085555   3.801719   2.772761   3.062203   0.000000
    26  H    5.668945   4.304924   3.695662   2.557394   1.780504
    27  H    5.217904   3.690435   2.544844   2.385079   1.765005
    28  H    5.324193   4.611657   5.055084   3.946764   3.760997
    29  H    4.235396   4.144122   3.980665   3.545659   2.158218
    30  H    4.248158   4.238899   5.063522   4.786826   4.742578
    31  H    2.790251   4.750344   4.511580   5.173511   3.328183
    32  H    2.783620   5.297254   5.582747   6.544544   5.478138
    33  H    4.372681   6.147092   6.624664   6.971179   6.043425
    34  H    3.795429   6.528451   6.541911   7.317101   5.665005
    35  H    4.239153   3.590384   4.904631   5.038687   5.774636
    36  H    3.661344   2.382252   3.723830   4.429874   5.371755
    37  H    4.539916   2.278905   3.831514   3.422165   4.880335
                   26         27         28         29         30
    26  H    0.000000
    27  H    1.771539   0.000000
    28  H    3.522731   4.798530   0.000000
    29  H    2.532473   3.561906   1.756433   0.000000
    30  H    5.180690   5.891197   2.327315   3.011674   0.000000
    31  H    4.529915   4.993513   3.278640   2.272069   2.899046
    32  H    6.679527   6.915180   4.719366   4.398742   2.930032
    33  H    6.892871   7.545969   4.161368   4.395029   2.479694
    34  H    6.823043   7.328181   4.804031   4.404463   3.637054
    35  H    6.343129   6.536818   4.234344   4.677581   2.255390
    36  H    6.104964   5.819987   5.010861   4.959423   3.491572
    37  H    5.129445   5.256030   3.711846   4.096475   2.712515
                   31         32         33         34         35
    31  H    0.000000
    32  H    2.508292   0.000000
    33  H    2.939018   1.775597   0.000000
    34  H    2.344975   1.783839   1.766505   0.000000
    35  H    4.362436   3.420436   3.725701   4.897138   0.000000
    36  H    4.720014   4.068248   4.957314   5.682179   1.762337
    37  H    4.588099   4.561805   4.893471   5.850967   1.774841
                   36         37
    36  H    0.000000
    37  H    1.781369   0.000000
 Stoichiometry    C10H23N3O
 Framework group  C1[X(C10H23N3O)]
 Deg. of freedom   105
 Full point group                 C1      NOp   1
 Largest Abelian subgroup         C1      NOp   1
 Largest concise Abelian subgroup C1      NOp   1
                         Standard orientation:                         
 ---------------------------------------------------------------------
 Center     Atomic      Atomic             Coordinates (Angstroms)
 Number     Number       Type             X           Y           Z
 ---------------------------------------------------------------------
      1          6           0       -4.295199   -0.479014    0.447524
      2          6           0       -2.946846   -0.503698   -0.279211
      3          6           0       -1.773148   -0.305351    0.696180
      4          7           0       -0.411513   -0.396415    0.168442
      5          6           0        0.004569   -1.717925   -0.299847
      6          6           0        1.516694   -1.944537   -0.115365
      7          6           0        1.874411   -2.279565    1.336400
      8          8           0        2.285909   -0.873572   -0.665708
      9          6           0        2.325322    0.339469    0.064507
     10          6           0        1.180762    1.332907   -0.263729
     11          7           0        1.047810    2.204042    0.887593
     12          6           0        0.184326    3.361363    0.679326
     13          7           0       -0.077097    0.695373   -0.682548
     14          6           0       -0.186465    0.484461   -2.127857
     15          1           0       -5.128645   -0.602941   -0.250450
     16          1           0       -4.442677    0.470141    0.975102
     17          1           0       -4.361469   -1.281909    1.190599
     18          1           0       -2.925600    0.288240   -1.035455
     19          1           0       -2.833483   -1.456618   -0.811449
     20          1           0       -1.851939   -1.049023    1.500899
     21          1           0       -1.868957    0.679426    1.165888
     22          1           0       -0.262564   -1.895588   -1.351482
     23          1           0       -0.534475   -2.468666    0.288231
     24          1           0        1.799822   -2.800890   -0.739480
     25          1           0        1.419843   -1.580235    2.043091
     26          1           0        2.958808   -2.275513    1.478851
     27          1           0        1.503491   -3.280790    1.577950
     28          1           0        3.280215    0.814872   -0.181225
     29          1           0        2.333864    0.155617    1.143486
     30          1           0        1.480652    1.960798   -1.111182
     31          1           0        0.700473    1.646994    1.663222
     32          1           0       -0.816986    3.106915    0.300328
     33          1           0        0.654253    4.040086   -0.042300
     34          1           0        0.075696    3.906820    1.621446
     35          1           0       -0.122620    1.461513   -2.616845
     36          1           0       -1.162260    0.059590   -2.372730
     37          1           0        0.596338   -0.159924   -2.552802
 ---------------------------------------------------------------------
 Rotational constants (GHZ):           0.7682977           0.5563146           0.4081597
 Standard basis: 6-31+G(3df,2p) (6D, 7F)
 There are   758 symmetry adapted cartesian basis functions of A   symmetry.
 There are   716 symmetry adapted basis functions of A   symmetry.
   716 basis functions,   986 primitive gaussians,   758 cartesian basis functions
    56 alpha electrons       56 beta electrons
       nuclear repulsion energy      1056.8817585091 Hartrees.
 NAtoms=   37 NActive=   37 NUniq=   37 SFac= 1.00D+00 NAtFMM=   60 NAOKFM=F Big=F
 Integral buffers will be    131072 words long.
 Regular integral format.
 Two-electron integral symmetry is turned on.
 One-electron integrals computed using PRISM.
 PrsmSu:  requested number of processors reduced to:  12 ShMem   1 Linda.
 NBasis=   716 RedAO= T EigKep=  8.29D-06  NBF=   716
 NBsUse=   716 1.00D-06 EigRej= -1.00D+00 NBFU=   716
 ExpMin= 4.38D-02 ExpMax= 5.48D+03 ExpMxC= 8.25D+02 IAcc=3 IRadAn=         5 AccDes= 0.00D+00
 Harris functional with IExCor=  402 and IRadAn=       5 diagonalized for initial guess.
 HarFok:  IExCor=  402 AccDes= 0.00D+00 IRadAn=         5 IDoV= 1 UseB2=F ITyADJ=14
 ICtDFT=  3500011 ScaDFX=  1.000000  1.000000  1.000000  1.000000
 FoFCou: FMM=F IPFlag=           0 FMFlag=      100000 FMFlg1=           0
         NFxFlg=           0 DoJE=T BraDBF=F KetDBF=T FulRan=T
         wScrn=  0.000000 ICntrl=       500 IOpCl=  0 I1Cent=   200000004 NGrid=           0
         NMat0=    1 NMatS0=      1 NMatT0=    0 NMatD0=    1 NMtDS0=    0 NMtDT0=    0
 Petite list used in FoFCou.
 Requested convergence on RMS density matrix=1.00D-08 within 128 cycles.
 Requested convergence on MAX density matrix=1.00D-06.
 Requested convergence on             energy=1.00D-06.
 No special actions if energy rises.
 SCF Done:  E(RB3LYP) =  -634.413290856     A.U. after   13 cycles
            NFock= 13  Conv=0.21D-08     -V/T= 2.0083
 DoSCS=F DFT=T ScalE2(SS,OS)=  1.000000  1.000000
 ExpMin= 4.38D-02 ExpMax= 5.48D+03 ExpMxC= 8.25D+02 IAcc=3 IRadAn=         5 AccDes= 0.00D+00
 HarFok:  IExCor=  205 AccDes= 0.00D+00 IRadAn=         5 IDoV=-2 UseB2=F ITyADJ=14
 ICtDFT= 12500011 ScaDFX=  1.000000  1.000000  1.000000  1.000000
 Range of M.O.s used for correlation:    15   716
 NBasis=   716 NAE=    56 NBE=    56 NFC=    14 NFV=     0
 NROrb=    702 NOA=    42 NOB=    42 NVA=   660 NVB=   660

 **** Warning!!: The largest alpha MO coefficient is  0.55166649D+02

 Orbital symmetries:
       Occupied  (A) (A) (A) (A) (A) (A) (A) (A) (A) (A) (A) (A)
                 (A) (A) (A) (A) (A) (A) (A) (A) (A) (A) (A) (A)
                 (A) (A) (A) (A) (A) (A) (A) (A) (A) (A) (A) (A)
                 (A) (A) (A) (A) (A) (A) (A) (A) (A) (A) (A) (A)
                 (A) (A) (A) (A) (A) (A) (A) (A)
       Virtual   (A) (A) (A) (A) (A) (A) (A) (A) (A) (A) (A) (A)
                 (A) (A) (A) (A) (A) (A) (A) (A) (A) (A) (A) (A)
                 (A) (A) (A) (A) (A) (A) (A) (A) (A) (A) (A) (A)
                 (A) (A) (A) (A) (A) (A) (A) (A) (A) (A) (A) (A)
                 (A) (A) (A) (A) (A) (A) (A) (A) (A) (A) (A) (A)
                 (A) (A) (A) (A) (A) (A) (A) (A) (A) (A) (A) (A)
                 (A) (A) (A) (A) (A) (A) (A) (A) (A) (A) (A) (A)
                 (A) (A) (A) (A) (A) (A) (A) (A) (A) (A) (A) (A)
                 (A) (A) (A) (A) (A) (A) (A) (A) (A) (A) (A) (A)
                 (A) (A) (A) (A) (A) (A) (A) (A) (A) (A) (A) (A)
                 (A) (A) (A) (A) (A) (A) (A) (A) (A) (A) (A) (A)
                 (A) (A) (A) (A) (A) (A) (A) (A) (A) (A) (A) (A)
                 (A) (A) (A) (A) (A) (A) (A) (A) (A) (A) (A) (A)
                 (A) (A) (A) (A) (A) (A) (A) (A) (A) (A) (A) (A)
                 (A) (A) (A) (A) (A) (A) (A) (A) (A) (A) (A) (A)
                 (A) (A) (A) (A) (A) (A) (A) (A) (A) (A) (A) (A)
                 (A) (A) (A) (A) (A) (A) (A) (A) (A) (A) (A) (A)
                 (A) (A) (A) (A) (A) (A) (A) (A) (A) (A) (A) (A)
                 (A) (A) (A) (A) (A) (A) (A) (A) (A) (A) (A) (A)
                 (A) (A) (A) (A) (A) (A) (A) (A) (A) (A) (A) (A)
                 (A) (A) (A) (A) (A) (A) (A) (A) (A) (A) (A) (A)
                 (A) (A) (A) (A) (A) (A) (A) (A) (A) (A) (A) (A)
                 (A) (A) (A) (A) (A) (A) (A) (A) (A) (A) (A) (A)
                 (A) (A) (A) (A) (A) (A) (A) (A) (A) (A) (A) (A)
                 (A) (A) (A) (A) (A) (A) (A) (A) (A) (A) (A) (A)
                 (A) (A) (A) (A) (A) (A) (A) (A) (A) (A) (A) (A)
                 (A) (A) (A) (A) (A) (A) (A) (A) (A) (A) (A) (A)
                 (A) (A) (A) (A) (A) (A) (A) (A) (A) (A) (A) (A)
                 (A) (A) (A) (A) (A) (A) (A) (A) (A) (A) (A) (A)
                 (A) (A) (A) (A) (A) (A) (A) (A) (A) (A) (A) (A)
                 (A) (A) (A) (A) (A) (A) (A) (A) (A) (A) (A) (A)
                 (A) (A) (A) (A) (A) (A) (A) (A) (A) (A) (A) (A)
                 (A) (A) (A) (A) (A) (A) (A) (A) (A) (A) (A) (A)
                 (A) (A) (A) (A) (A) (A) (A) (A) (A) (A) (A) (A)
                 (A) (A) (A) (A) (A) (A) (A) (A) (A) (A) (A) (A)
                 (A) (A) (A) (A) (A) (A) (A) (A) (A) (A) (A) (A)
                 (A) (A) (A) (A) (A) (A) (A) (A) (A) (A) (A) (A)
                 (A) (A) (A) (A) (A) (A) (A) (A) (A) (A) (A) (A)
                 (A) (A) (A) (A) (A) (A) (A) (A) (A) (A) (A) (A)
                 (A) (A) (A) (A) (A) (A) (A) (A) (A) (A) (A) (A)
                 (A) (A) (A) (A) (A) (A) (A) (A) (A) (A) (A) (A)
                 (A) (A) (A) (A) (A) (A) (A) (A) (A) (A) (A) (A)
                 (A) (A) (A) (A) (A) (A) (A) (A) (A) (A) (A) (A)
                 (A) (A) (A) (A) (A) (A) (A) (A) (A) (A) (A) (A)
                 (A) (A) (A) (A) (A) (A) (A) (A) (A) (A) (A) (A)
                 (A) (A) (A) (A) (A) (A) (A) (A) (A) (A) (A) (A)
                 (A) (A) (A) (A) (A) (A) (A) (A) (A) (A) (A) (A)
                 (A) (A) (A) (A) (A) (A) (A) (A) (A) (A) (A) (A)
                 (A) (A) (A) (A) (A) (A) (A) (A) (A) (A) (A) (A)
                 (A) (A) (A) (A) (A) (A) (A) (A) (A) (A) (A) (A)
                 (A) (A) (A) (A) (A) (A) (A) (A) (A) (A) (A) (A)
                 (A) (A) (A) (A) (A) (A) (A) (A) (A) (A) (A) (A)
                 (A) (A) (A) (A) (A) (A) (A) (A) (A) (A) (A) (A)
                 (A) (A) (A) (A) (A) (A) (A) (A) (A) (A) (A) (A)
                 (A) (A) (A) (A) (A) (A) (A) (A) (A) (A) (A) (A)
    40 initial guesses have been made.
 Convergence on wavefunction:    0.000001000000000
 Iteration     1 Dimension    40 NMult     0 NNew     40
 CISAX will form     2 AO SS matrices at one time.
 New state      5 was old state      6
 New state      6 was old state      5
 New state      7 was old state      8
 New state      8 was old state      7
 Iteration     2 Dimension    60 NMult    40 NNew     20
 Iteration     3 Dimension    80 NMult    60 NNew     20
 Iteration     4 Dimension   100 NMult    80 NNew     20
