### Starting Gaussian ###
 Entering Gaussian System, Link 0=g16
 Initial command:
 /cluster/software/gaussian/gaussian-16-A.03/avx2/g16/l1.exe "/local/scratch/ks29c/Gau-25721.inp" -scrdir="/local/scratch/ks29c/"
 Entering Link 1 = /cluster/software/gaussian/gaussian-16-A.03/avx2/g16/l1.exe PID=     25723.
  
 Copyright (c) 1988,1990,1992,1993,1995,1998,2003,2009,2016,
            Gaussian, Inc.  All Rights Reserved.
  
 This is part of the Gaussian(R) 16 program.  It is based on
 the Gaussian(R) 09 system (copyright 2009, Gaussian, Inc.),
 the Gaussian(R) 03 system (copyright 2003, Gaussian, Inc.),
 the Gaussian(R) 98 system (copyright 1998, Gaussian, Inc.),
 the Gaussian(R) 94 system (copyright 1995, Gaussian, Inc.),
 the Gaussian 92(TM) system (copyright 1992, Gaussian, Inc.),
 the Gaussian 90(TM) system (copyright 1990, Gaussian, Inc.),
 the Gaussian 88(TM) system (copyright 1988, Gaussian, Inc.),
 the Gaussian 86(TM) system (copyright 1986, Carnegie Mellon
 University), and the Gaussian 82(TM) system (copyright 1983,
 Carnegie Mellon University). Gaussian is a federally registered
 trademark of Gaussian, Inc.
  
 This software contains proprietary and confidential information,
 including trade secrets, belonging to Gaussian, Inc.
  
 This software is provided under written license and may be
 used, copied, transmitted, or stored only in accord with that
 written license.
  
 The following legend is applicable only to US Government
 contracts under FAR:
  
                    RESTRICTED RIGHTS LEGEND
  
 Use, reproduction and disclosure by the US Government is
 subject to restrictions as set forth in subparagraphs (a)
 and (c) of the Commercial Computer Software - Restricted
 Rights clause in FAR 52.227-19.
  
 Gaussian, Inc.
 340 Quinnipiac St., Bldg. 40, Wallingford CT 06492
  
  
 ---------------------------------------------------------------
 Warning -- This program may not be used in any manner that
 competes with the business of Gaussian, Inc. or will provide
 assistance to any competitor of Gaussian, Inc.  The licensee
 of this program is prohibited from giving any competitor of
 Gaussian, Inc. access to this program.  By using this program,
 the user acknowledges that Gaussian, Inc. is engaged in the
 business of creating and licensing software in the field of
 computational chemistry and represents and warrants to the
 licensee that it is not a competitor of Gaussian, Inc. and that
 it will not use this program in any manner prohibited above.
 ---------------------------------------------------------------
  

 Cite this work as:
 Gaussian 16, Revision A.03,
 M. J. Frisch, G. W. Trucks, H. B. Schlegel, G. E. Scuseria, 
 M. A. Robb, J. R. Cheeseman, G. Scalmani, V. Barone, 
 G. A. Petersson, H. Nakatsuji, X. Li, M. Caricato, A. V. Marenich, 
 J. Bloino, B. G. Janesko, R. Gomperts, B. Mennucci, H. P. Hratchian, 
 J. V. Ortiz, A. F. Izmaylov, J. L. Sonnenberg, D. Williams-Young, 
 F. Ding, F. Lipparini, F. Egidi, J. Goings, B. Peng, A. Petrone, 
 T. Henderson, D. Ranasinghe, V. G. Zakrzewski, J. Gao, N. Rega, 
 G. Zheng, W. Liang, M. Hada, M. Ehara, K. Toyota, R. Fukuda, 
 J. Hasegawa, M. Ishida, T. Nakajima, Y. Honda, O. Kitao, H. Nakai, 
 T. Vreven, K. Throssell, J. A. Montgomery, Jr., J. E. Peralta, 
 F. Ogliaro, M. J. Bearpark, J. J. Heyd, E. N. Brothers, K. N. Kudin, 
 V. N. Staroverov, T. A. Keith, R. Kobayashi, J. Normand, 
 K. Raghavachari, A. P. Rendell, J. C. Burant, S. S. Iyengar, 
 J. Tomasi, M. Cossi, J. M. Millam, M. Klene, C. Adamo, R. Cammi, 
 J. W. Ochterski, R. L. Martin, K. Morokuma, O. Farkas, 
 J. B. Foresman, and D. J. Fox, Gaussian, Inc., Wallingford CT, 2016.
 
 ******************************************
 Gaussian 16:  ES64L-G16RevA.03 25-Dec-2016
                24-May-2023 
 ******************************************
 %chk=CCdCCCCCCOCNNdO.chk
 %NProcShared=20
 Will use up to   20 processors via shared memory.
 -----------------------------------------------------------------
 # opt freq b3lyp/6-31+g(3df,2p) Geom=AllCheckpoint TD(NStates=10)
 -----------------------------------------------------------------
 1/18=20,19=15,26=3,29=7,38=1/1,3;
 2/9=110,12=2,40=1/2;
 3/5=1,6=6,7=216,11=9,14=-4,25=1,30=1,71=1,74=-5/1,2,3,8;
 4//1;
 5/5=2,38=5/2;
 8/6=1,10=2,108=10/1;
 9/15=2,41=10,42=1,70=2/14;
 10/5=4/2;
 6/7=2,8=2,9=2,10=2/1;
 7/12=6,13=5/1,2,3,16;
 1/18=20,19=15,26=3/3(2);
 2/9=110/2;
 99//99;
 2/9=110/2;
 3/5=1,6=6,7=216,11=9,14=-2,25=1,30=1,71=1,74=-5/1,2,3,8;
 4/5=5,16=3,69=1/1;
 5/5=2,38=5/2;
 8/6=1,10=2,108=10/1;
 9/15=2,41=10,42=1,49=4,70=2/14;
 10/5=4/2;
 7/12=6,13=5/1,2,3,16;
 1/18=20,19=15,26=3/3(-8);
 2/9=110/2;
 6/7=2,8=2,9=2,10=2/1;
 99//99;
 Structure from the checkpoint file:  "CCdCCCCCCOCNNdO.chk"
 -------------------
 Title Card Required
 -------------------
 Charge =  0 Multiplicity = 1
 Redundant internal coordinates found in file.  (old form).
 C,0,0.8139459817,0.0629151667,0.0011793199
 C,0,2.3245250255,0.0546574663,-0.0129034538
 C,0,3.1000678366,0.6015542096,0.9198944496
 C,0,4.6135479307,0.5981714547,0.9141229996
 C,0,5.2203744647,1.3103704043,2.1289334703
 C,0,6.7518109202,1.3106755201,2.1294522887
 C,0,7.3512592383,2.0237973712,3.3458358862
 C,0,8.8723525324,2.0178589086,3.3357048344
 O,0,9.3348949264,2.6968267724,4.4938314411
 C,0,10.7269991256,2.7482412135,4.581527927
 N,0,10.9998174238,3.468620224,5.8102902542
 N,0,12.2459201993,3.6938401503,6.1944432084
 O,0,12.3440080868,4.3090216582,7.2437602535
 H,0,0.4047502265,-0.4496827391,-0.8731190676
 H,0,0.4133195676,1.0829559348,-0.0013237111
 H,0,0.4133186824,-0.4374354015,0.8900764217
 H,0,2.7985680074,-0.44170627,-0.8595096402
 H,0,2.6279527154,1.0991628633,1.7686253599
 H,0,4.9855151586,1.0745220453,-0.0035192715
 H,0,4.9855158032,-0.4352298032,0.8815919266
 H,0,4.8555193245,0.8324413947,3.0482761043
 H,0,4.8555185027,2.3460265018,2.1609167049
 H,0,7.1143333825,1.7880177923,1.208405348
 H,0,7.1143343788,0.273818864,2.0961251264
 H,0,7.006120523,1.5468380214,4.2710485732
 H,0,7.0061195216,3.0641020647,3.3815318389
 H,0,9.2572098409,2.5160388592,2.4305968988
 H,0,9.2572108533,0.9847331946,3.3283457753
 H,0,11.168860114,3.2793849706,3.7220558713
 H,0,11.1688614316,1.7388377198,4.6252232285
 H,0,10.2330682739,3.8077134674,6.3886796332
 Recover connectivity data from disk.

 GradGradGradGradGradGradGradGradGradGradGradGradGradGradGradGradGradGrad
 Berny optimization.
 Initialization pass.
                           ----------------------------
                           !    Initial Parameters    !
                           ! (Angstroms and Degrees)  !
 --------------------------                            --------------------------
 ! Name  Definition              Value          Derivative Info.                !
 --------------------------------------------------------------------------------
 ! R1    R(1,2)                  1.5107         estimate D2E/DX2                !
 ! R2    R(1,14)                 1.093          estimate D2E/DX2                !
 ! R3    R(1,15)                 1.0959         estimate D2E/DX2                !
 ! R4    R(1,16)                 1.0959         estimate D2E/DX2                !
 ! R5    R(2,3)                  1.3307         estimate D2E/DX2                !
 ! R6    R(2,17)                 1.0899         estimate D2E/DX2                !
 ! R7    R(3,4)                  1.5135         estimate D2E/DX2                !
 ! R8    R(3,18)                 1.0913         estimate D2E/DX2                !
 ! R9    R(4,5)                  1.5334         estimate D2E/DX2                !
 ! R10   R(4,19)                 1.0988         estimate D2E/DX2                !
 ! R11   R(4,20)                 1.0988         estimate D2E/DX2                !
 ! R12   R(5,6)                  1.5314         estimate D2E/DX2                !
 ! R13   R(5,21)                 1.0985         estimate D2E/DX2                !
 ! R14   R(5,22)                 1.0985         estimate D2E/DX2                !
 ! R15   R(6,7)                  1.5321         estimate D2E/DX2                !
 ! R16   R(6,23)                 1.0989         estimate D2E/DX2                !
 ! R17   R(6,24)                 1.0989         estimate D2E/DX2                !
 ! R18   R(7,8)                  1.5211         estimate D2E/DX2                !
 ! R19   R(7,25)                 1.0966         estimate D2E/DX2                !
 ! R20   R(7,26)                 1.0966         estimate D2E/DX2                !
 ! R21   R(8,9)                  1.4199         estimate D2E/DX2                !
 ! R22   R(8,27)                 1.1025         estimate D2E/DX2                !
 ! R23   R(8,28)                 1.1025         estimate D2E/DX2                !
 ! R24   R(9,10)                 1.3958         estimate D2E/DX2                !
 ! R25   R(10,11)                1.4503         estimate D2E/DX2                !
 ! R26   R(10,29)                1.1027         estimate D2E/DX2                !
 ! R27   R(10,30)                1.1027         estimate D2E/DX2                !
 ! R28   R(11,12)                1.3233         estimate D2E/DX2                !
 ! R29   R(11,31)                1.0185         estimate D2E/DX2                !
 ! R30   R(12,13)                1.2203         estimate D2E/DX2                !
 ! A1    A(2,1,14)             111.3672         estimate D2E/DX2                !
 ! A2    A(2,1,15)             111.7535         estimate D2E/DX2                !
 ! A3    A(2,1,16)             111.7535         estimate D2E/DX2                !
 ! A4    A(14,1,15)            107.3278         estimate D2E/DX2                !
 ! A5    A(14,1,16)            107.3278         estimate D2E/DX2                !
 ! A6    A(15,1,16)            107.0482         estimate D2E/DX2                !
 ! A7    A(1,2,3)              125.0301         estimate D2E/DX2                !
 ! A8    A(1,2,17)             116.4013         estimate D2E/DX2                !
 ! A9    A(3,2,17)             118.5686         estimate D2E/DX2                !
 ! A10   A(2,3,4)              125.3961         estimate D2E/DX2                !
 ! A11   A(2,3,18)             118.7159         estimate D2E/DX2                !
 ! A12   A(4,3,18)             115.888          estimate D2E/DX2                !
 ! A13   A(3,4,5)              113.0593         estimate D2E/DX2                !
 ! A14   A(3,4,19)             109.9218         estimate D2E/DX2                !
 ! A15   A(3,4,20)             109.9218         estimate D2E/DX2                !
 ! A16   A(5,4,19)             109.045          estimate D2E/DX2                !
 ! A17   A(5,4,20)             109.045          estimate D2E/DX2                !
 ! A18   A(19,4,20)            105.5691         estimate D2E/DX2                !
 ! A19   A(4,5,6)              113.3351         estimate D2E/DX2                !
 ! A20   A(4,5,21)             109.2393         estimate D2E/DX2                !
 ! A21   A(4,5,22)             109.2393         estimate D2E/DX2                !
 ! A22   A(6,5,21)             109.3865         estimate D2E/DX2                !
 ! A23   A(6,5,22)             109.3865         estimate D2E/DX2                !
 ! A24   A(21,5,22)            105.9915         estimate D2E/DX2                !
 ! A25   A(5,6,7)              113.0547         estimate D2E/DX2                !
 ! A26   A(5,6,23)             109.2503         estimate D2E/DX2                !
 ! A27   A(5,6,24)             109.2503         estimate D2E/DX2                !
 ! A28   A(7,6,23)             109.5217         estimate D2E/DX2                !
 ! A29   A(7,6,24)             109.5217         estimate D2E/DX2                !
 ! A30   A(23,6,24)            105.9978         estimate D2E/DX2                !
 ! A31   A(6,7,8)              112.5898         estimate D2E/DX2                !
 ! A32   A(6,7,25)             110.1351         estimate D2E/DX2                !
 ! A33   A(6,7,26)             110.1351         estimate D2E/DX2                !
 ! A34   A(8,7,25)             108.5803         estimate D2E/DX2                !
 ! A35   A(8,7,26)             108.5803         estimate D2E/DX2                !
 ! A36   A(25,7,26)            106.6228         estimate D2E/DX2                !
 ! A37   A(7,8,9)              108.5687         estimate D2E/DX2                !
 ! A38   A(7,8,27)             110.6567         estimate D2E/DX2                !
 ! A39   A(7,8,28)             110.6567         estimate D2E/DX2                !
 ! A40   A(9,8,27)             109.8654         estimate D2E/DX2                !
 ! A41   A(9,8,28)             109.8654         estimate D2E/DX2                !
 ! A42   A(27,8,28)            107.2231         estimate D2E/DX2                !
 ! A43   A(8,9,10)             113.1876         estimate D2E/DX2                !
 ! A44   A(9,10,11)            105.0195         estimate D2E/DX2                !
 ! A45   A(9,10,29)            111.6171         estimate D2E/DX2                !
 ! A46   A(9,10,30)            111.6171         estimate D2E/DX2                !
 ! A47   A(11,10,29)           110.2265         estimate D2E/DX2                !
 ! A48   A(11,10,30)           110.2264         estimate D2E/DX2                !
 ! A49   A(29,10,30)           108.1324         estimate D2E/DX2                !
 ! A50   A(10,11,12)           120.5078         estimate D2E/DX2                !
 ! A51   A(10,11,31)           120.3242         estimate D2E/DX2                !
 ! A52   A(12,11,31)           119.1681         estimate D2E/DX2                !
 ! A53   A(11,12,13)           114.2752         estimate D2E/DX2                !
 ! D1    D(14,1,2,3)           180.0            estimate D2E/DX2                !
 ! D2    D(14,1,2,17)           -0.0001         estimate D2E/DX2                !
 ! D3    D(15,1,2,3)            59.9696         estimate D2E/DX2                !
 ! D4    D(15,1,2,17)         -120.0304         estimate D2E/DX2                !
 ! D5    D(16,1,2,3)           -59.9697         estimate D2E/DX2                !
 ! D6    D(16,1,2,17)          120.0303         estimate D2E/DX2                !
 ! D7    D(1,2,3,4)           -179.9999         estimate D2E/DX2                !
 ! D8    D(1,2,3,18)             0.0            estimate D2E/DX2                !
 ! D9    D(17,2,3,4)             0.0001         estimate D2E/DX2                !
 ! D10   D(17,2,3,18)         -180.0            estimate D2E/DX2                !
 ! D11   D(2,3,4,5)           -179.9986         estimate D2E/DX2                !
 ! D12   D(2,3,4,19)            57.8943         estimate D2E/DX2                !
 ! D13   D(2,3,4,20)           -57.8914         estimate D2E/DX2                !
 ! D14   D(18,3,4,5)             0.0015         estimate D2E/DX2                !
 ! D15   D(18,3,4,19)         -122.1056         estimate D2E/DX2                !
 ! D16   D(18,3,4,20)          122.1086         estimate D2E/DX2                !
 ! D17   D(3,4,5,6)           -180.0            estimate D2E/DX2                !
 ! D18   D(3,4,5,21)            57.761          estimate D2E/DX2                !
 ! D19   D(3,4,5,22)           -57.761          estimate D2E/DX2                !
 ! D20   D(19,4,5,6)           -57.4032         estimate D2E/DX2                !
 ! D21   D(19,4,5,21)         -179.6422         estimate D2E/DX2                !
 ! D22   D(19,4,5,22)           64.8358         estimate D2E/DX2                !
 ! D23   D(20,4,5,6)            57.4032         estimate D2E/DX2                !
 ! D24   D(20,4,5,21)          -64.8359         estimate D2E/DX2                !
 ! D25   D(20,4,5,22)          179.6422         estimate D2E/DX2                !
 ! D26   D(4,5,6,7)            180.0            estimate D2E/DX2                !
 ! D27   D(4,5,6,23)            57.7708         estimate D2E/DX2                !
 ! D28   D(4,5,6,24)           -57.7708         estimate D2E/DX2                !
 ! D29   D(21,5,6,7)           -57.8429         estimate D2E/DX2                !
 ! D30   D(21,5,6,23)          179.9279         estimate D2E/DX2                !
 ! D31   D(21,5,6,24)           64.3863         estimate D2E/DX2                !
 ! D32   D(22,5,6,7)            57.8429         estimate D2E/DX2                !
 ! D33   D(22,5,6,23)          -64.3863         estimate D2E/DX2                !
 ! D34   D(22,5,6,24)         -179.9279         estimate D2E/DX2                !
 ! D35   D(5,6,7,8)           -180.0            estimate D2E/DX2                !
 ! D36   D(5,6,7,25)            58.6598         estimate D2E/DX2                !
 ! D37   D(5,6,7,26)           -58.6598         estimate D2E/DX2                !
 ! D38   D(23,6,7,8)           -57.9228         estimate D2E/DX2                !
 ! D39   D(23,6,7,25)         -179.263          estimate D2E/DX2                !
 ! D40   D(23,6,7,26)           63.4175         estimate D2E/DX2                !
 ! D41   D(24,6,7,8)            57.9228         estimate D2E/DX2                !
 ! D42   D(24,6,7,25)          -63.4175         estimate D2E/DX2                !
 ! D43   D(24,6,7,26)          179.263          estimate D2E/DX2                !
 ! D44   D(6,7,8,9)            180.0            estimate D2E/DX2                !
 ! D45   D(6,7,8,27)            59.3528         estimate D2E/DX2                !
 ! D46   D(6,7,8,28)           -59.3529         estimate D2E/DX2                !
 ! D47   D(25,7,8,9)           -57.7781         estimate D2E/DX2                !
 ! D48   D(25,7,8,27)         -178.4252         estimate D2E/DX2                !
 ! D49   D(25,7,8,28)           62.8691         estimate D2E/DX2                !
 ! D50   D(26,7,8,9)            57.7781         estimate D2E/DX2                !
 ! D51   D(26,7,8,27)          -62.8691         estimate D2E/DX2                !
 ! D52   D(26,7,8,28)          178.4252         estimate D2E/DX2                !
 ! D53   D(7,8,9,10)          -180.0            estimate D2E/DX2                !
 ! D54   D(27,8,9,10)          -58.8646         estimate D2E/DX2                !
 ! D55   D(28,8,9,10)           58.8646         estimate D2E/DX2                !
 ! D56   D(8,9,10,11)          180.0            estimate D2E/DX2                !
 ! D57   D(8,9,10,29)           60.5695         estimate D2E/DX2                !
 ! D58   D(8,9,10,30)          -60.5696         estimate D2E/DX2                !
 ! D59   D(9,10,11,12)        -179.9998         estimate D2E/DX2                !
 ! D60   D(9,10,11,31)          -0.0003         estimate D2E/DX2                !
 ! D61   D(29,10,11,12)        -59.6445         estimate D2E/DX2                !
 ! D62   D(29,10,11,31)        120.355          estimate D2E/DX2                !
 ! D63   D(30,10,11,12)         59.6449         estimate D2E/DX2                !
 ! D64   D(30,10,11,31)       -120.3556         estimate D2E/DX2                !
 ! D65   D(10,11,12,13)        179.9998         estimate D2E/DX2                !
 ! D66   D(31,11,12,13)          0.0002         estimate D2E/DX2                !
 --------------------------------------------------------------------------------
 Trust Radius=3.00D-01 FncErr=1.00D-07 GrdErr=1.00D-06 EigMax=2.50D+02 EigMin=1.00D-04
 Number of steps in this run=    159 maximum allowed number of steps=    186.
 GradGradGradGradGradGradGradGradGradGradGradGradGradGradGradGradGradGrad

                          Input orientation:                          
 ---------------------------------------------------------------------
 Center     Atomic      Atomic             Coordinates (Angstroms)
 Number     Number       Type             X           Y           Z
 ---------------------------------------------------------------------
      1          6           0        0.813946    0.062915    0.001179
      2          6           0        2.324525    0.054657   -0.012903
      3          6           0        3.100068    0.601554    0.919894
      4          6           0        4.613548    0.598171    0.914123
      5          6           0        5.220374    1.310370    2.128933
      6          6           0        6.751811    1.310676    2.129452
      7          6           0        7.351259    2.023797    3.345836
      8          6           0        8.872353    2.017859    3.335705
      9          8           0        9.334895    2.696827    4.493831
     10          6           0       10.726999    2.748241    4.581528
     11          7           0       10.999817    3.468620    5.810290
     12          7           0       12.245920    3.693840    6.194443
     13          8           0       12.344008    4.309022    7.243760
     14          1           0        0.404750   -0.449683   -0.873119
     15          1           0        0.413320    1.082956   -0.001324
     16          1           0        0.413319   -0.437435    0.890076
     17          1           0        2.798568   -0.441706   -0.859510
     18          1           0        2.627953    1.099163    1.768625
     19          1           0        4.985515    1.074522   -0.003519
     20          1           0        4.985516   -0.435230    0.881592
     21          1           0        4.855519    0.832441    3.048276
     22          1           0        4.855519    2.346027    2.160917
     23          1           0        7.114333    1.788018    1.208405
     24          1           0        7.114334    0.273819    2.096125
     25          1           0        7.006121    1.546838    4.271049
     26          1           0        7.006120    3.064102    3.381532
     27          1           0        9.257210    2.516039    2.430597
     28          1           0        9.257211    0.984733    3.328346
     29          1           0       11.168860    3.279385    3.722056
     30          1           0       11.168861    1.738838    4.625223
     31          1           0       10.233068    3.807713    6.388680
 ---------------------------------------------------------------------
                    Distance matrix (angstroms):
                    1          2          3          4          5
     1  C    0.000000
     2  C    1.510667   0.000000
     3  C    2.522008   1.330667   0.000000
     4  C    3.944229   2.528717   1.513495   0.000000
     5  C    5.049762   3.814476   2.541633   1.533372   0.000000
     6  C    6.429984   5.076232   3.911663   2.560636   1.531437
     7  C    7.600543   6.358199   5.097116   3.929466   2.555484
     8  C    8.937493   7.611924   6.415710   5.100685   3.910726
     9  O    9.986390   8.742826   7.485737   6.285681   4.944116
    10  C   11.245408   9.948154   8.728454   7.446271   6.197226
    11  N   12.210511  10.992062   9.723275   8.543791   7.184176
    12  N   13.499265  12.255973  11.001350   9.783560   8.459763
    13  O   14.262774  13.082386  11.797755  10.658083   9.268199
    14  H    1.092976   2.163300   3.403635   4.691078   5.941409
    15  H    1.095897   2.170308   2.880800   4.326081   5.262840
    16  H    1.095897   2.170308   2.880800   4.326082   5.262830
    17  H    2.221295   1.089879   2.084604   2.742493   4.226785
    18  H    2.736475   2.087320   1.091261   2.218954   2.625849
    19  H    4.292477   2.849751   2.152046   1.098789   2.158272
    20  H    4.292467   2.849734   2.152046   1.098789   2.158272
    21  H    5.119696   4.047431   2.768561   2.160565   1.098511
    22  H    5.119704   4.047443   2.768560   2.160565   1.098511
    23  H    6.642910   5.238167   4.195863   2.785007   2.159305
    24  H    6.642904   5.238159   4.195863   2.785007   2.159305
    25  H    7.666605   6.518910   5.232690   4.230050   2.798832
    26  H    7.666611   6.518917   5.232690   4.230050   2.798832
    27  H    9.121874   7.751852   6.622528   5.248000   4.223823
    28  H    9.121870   7.751846   6.622528   5.248000   4.223823
    29  H   11.463631  10.127737   8.951441   7.618760   6.465256
    30  H   11.463628  10.127733   8.951442   7.618761   6.465257
    31  H   11.980966  10.844849   9.542891   8.476493   7.036282
                    6          7          8          9         10
     6  C    0.000000
     7  C    1.532146   0.000000
     8  C    2.540049   1.521139   0.000000
     9  O    3.766169   2.388655   1.419930   0.000000
    10  C    4.886859   3.667066   2.350584   1.395811   0.000000
    11  N    6.020868   4.633900   3.571329   2.258472   1.450253
    12  N    7.238015   5.904347   4.728875   3.515705   2.408895
    13  O    8.149779   6.733766   5.707426   4.383611   3.483997
    14  H    7.238748   8.495391   9.772576  10.883573  12.104905
    15  H    6.690929   7.760391   9.141392  10.119561  11.408229
    16  H    6.690921   7.760376   9.141380  10.119544  11.408214
    17  H    5.256697   6.670130   7.780755   9.012892  10.131173
    18  H    4.145014   5.064797   6.503251   7.413660   8.730775
    19  H    2.779413   4.209044   5.210356   6.463369   7.535823
    20  H    2.779413   4.209044   5.210356   6.463370   7.535824
    21  H    2.160756   2.781472   4.197949   5.062644   6.363602
    22  H    2.160756   2.781472   4.197949   5.062644   6.363601
    23  H    1.098911   2.163408   2.769271   4.068274   5.035011
    24  H    1.098911   2.163408   2.769271   4.068274   5.035011
    25  H    2.169535   1.096645   2.139988   2.606779   3.922334
    26  H    2.169535   1.096645   2.139988   2.606779   3.922334
    27  H    2.796536   2.170855   1.102506   2.072596   2.615474
    28  H    2.796536   2.170855   1.102506   2.072596   2.615474
    29  H    5.091417   4.036350   2.648521   2.073268   1.102745
    30  H    5.091417   4.036350   2.648521   2.073268   1.102745
    31  H    6.041140   4.554786   3.791541   2.373022   2.152265
                   11         12         13         14         15
    11  N    0.000000
    12  N    1.323280   0.000000
    13  O    2.137278   1.220302   0.000000
    14  H   13.125415  14.399046  15.201147   0.000000
    15  H   12.310166  13.609360  14.326202   1.763259   0.000000
    16  H   12.310147  13.609343  14.326182   1.763259   1.762437
    17  H   11.271086  12.494537  13.392081   2.393870   2.958122
    18  H    9.593618  10.900712  11.605259   3.784226   2.835063
    19  H    8.700800   9.898942  10.822775   4.905386   4.572204
    20  H    8.700801   9.898943  10.822778   4.905368   4.897898
    21  H    7.233986   8.526664   9.261002   6.068816   5.394067
    22  H    7.233986   8.526663   9.261000   6.068830   5.099388
    23  H    6.252900   7.404452   8.374394   7.372825   6.845739
    24  H    6.252900   7.404453   8.374395   7.372814   7.068069
    25  H    4.691708   5.980348   6.705201   8.603874   7.869776
    26  H    4.691708   5.980347   6.705199   8.603884   7.670310
    27  H    3.920003   4.948348   5.992466   9.903337   9.283445
    28  H    3.920003   4.948349   5.992469   9.903328   9.450437
    29  H    2.103594   2.728467   3.852730  12.283633  11.591786
    30  H    2.103594   2.728469   3.852733  12.283626  11.726756
    31  H    1.018540   2.025406   2.332068  12.940440  12.028463
                   16         17         18         19         20
    16  H    0.000000
    17  H    2.958122   0.000000
    18  H    2.835064   3.051308   0.000000
    19  H    4.897909   2.795426   2.949441   0.000000
    20  H    4.572206   2.795392   2.949456   1.750078   0.000000
    21  H    5.099369   4.596226   2.582770   3.064140   2.513645
    22  H    5.394055   4.596246   2.582753   2.513644   3.064141
    23  H    7.068067   5.279562   4.573399   2.551412   3.095400
    24  H    6.845732   5.279545   4.573409   3.095400   2.551413
    25  H    7.670290   6.926791   5.062696   4.751616   4.415864
    26  H    7.869761   6.926804   5.062687   4.415863   4.751617
    27  H    9.450430   7.828609   6.811226   5.123502   5.418189
    28  H    9.283434   7.828597   6.811232   5.418189   5.123503
    29  H   11.726744  10.242024   9.028641   7.548184   7.752441
    30  H   11.591772  10.242015   9.028646   7.752441   7.548186
    31  H   12.028442  11.218984   9.301555   8.710187   8.710189
                   21         22         23         24         25
    21  H    0.000000
    22  H    1.754522   0.000000
    23  H    3.066022   2.514139   0.000000
    24  H    2.514139   3.066022   1.755234   0.000000
    25  H    2.574999   3.117122   3.074030   2.522416   0.000000
    26  H    3.117122   2.574999   2.522416   3.074030   1.758787
    27  H    4.752989   4.413221   2.572098   3.119509   3.064966
    28  H    4.413221   4.752989   3.119509   2.572098   2.504408
    29  H    6.804394   6.570129   4.998180   5.302477   4.542193
    30  H    6.570130   6.804394   5.302477   4.998180   4.182190
    31  H    6.994896   6.994895   6.375023   6.375024   4.473154
                   26         27         28         29         30
    26  H    0.000000
    27  H    2.504408   0.000000
    28  H    3.064966   1.775063   0.000000
    29  H    4.182190   2.430014   3.012447   0.000000
    30  H    4.542193   3.012447   2.430015   1.785776   0.000000
    31  H    4.473153   4.276347   4.276349   2.875016   2.875019
                   31
    31  H    0.000000
 Stoichiometry    C9H18N2O2
 Framework group  C1[X(C9H18N2O2)]
 Deg. of freedom    87
 Full point group                 C1      NOp   1
 Largest Abelian subgroup         C1      NOp   1
 Largest concise Abelian subgroup C1      NOp   1
                         Standard orientation:                         
 ---------------------------------------------------------------------
 Center     Atomic      Atomic             Coordinates (Angstroms)
 Number     Number       Type             X           Y           Z
 ---------------------------------------------------------------------
      1          6           0        7.363545   -0.759316    0.000009
      2          6           0        6.140848    0.127886    0.000013
      3          6           0        4.882714   -0.305443   -0.000011
      4          6           0        3.652076    0.575577   -0.000009
      5          6           0        2.342452   -0.221991   -0.000006
      6          6           0        1.092949    0.663470   -0.000005
      7          6           0       -0.211712   -0.139854   -0.000002
      8          6           0       -1.445636    0.749693   -0.000000
      9          8           0       -2.599559   -0.077750    0.000001
     10          6           0       -3.793874    0.644678    0.000003
     11          7           0       -4.840412   -0.359310    0.000005
     12          7           0       -6.114441   -0.001651    0.000003
     13          8           0       -6.898122   -0.937055    0.000000
     14          1           0        8.283628   -0.169364    0.000032
     15          1           0        7.393125   -1.410121   -0.881222
     16          1           0        7.393104   -1.410157    0.881215
     17          1           0        6.321925    1.202617    0.000038
     18          1           0        4.698640   -1.381068   -0.000036
     19          1           0        3.667262    1.239966   -0.875049
     20          1           0        3.667266    1.239967    0.875029
     21          1           0        2.321078   -0.882811    0.877255
     22          1           0        2.321075   -0.882811   -0.877267
     23          1           0        1.117248    1.324381   -0.877621
     24          1           0        1.117251    1.324381    0.877612
     25          1           0       -0.252381   -0.793798    0.879391
     26          1           0       -0.252384   -0.793798   -0.879395
     27          1           0       -1.453607    1.403713   -0.887532
     28          1           0       -1.453604    1.403713    0.887531
     29          1           0       -3.880761    1.285964   -0.892885
     30          1           0       -3.880758    1.285964    0.892891
     31          1           0       -4.602863   -1.349760    0.000000
 ---------------------------------------------------------------------
 Rotational constants (GHZ):           6.0994026           0.1298320           0.1278312
 Standard basis: 6-31+G(3df,2p) (6D, 7F)
 There are   677 symmetry adapted cartesian basis functions of A   symmetry.
 There are   638 symmetry adapted basis functions of A   symmetry.
   638 basis functions,   882 primitive gaussians,   677 cartesian basis functions
    51 alpha electrons       51 beta electrons
       nuclear repulsion energy       724.5747658636 Hartrees.
 NAtoms=   31 NActive=   31 NUniq=   31 SFac= 1.00D+00 NAtFMM=   60 NAOKFM=F Big=F
 Integral buffers will be    131072 words long.
 Regular integral format.
 Two-electron integral symmetry is turned on.
 One-electron integrals computed using PRISM.
 PrsmSu:  requested number of processors reduced to:  12 ShMem   1 Linda.
 NBasis=   638 RedAO= T EigKep=  5.05D-06  NBF=   638
 NBsUse=   638 1.00D-06 EigRej= -1.00D+00 NBFU=   638
 ExpMin= 4.38D-02 ExpMax= 5.48D+03 ExpMxC= 8.25D+02 IAcc=3 IRadAn=         5 AccDes= 0.00D+00
 Harris functional with IExCor=  402 and IRadAn=       5 diagonalized for initial guess.
 HarFok:  IExCor=  402 AccDes= 0.00D+00 IRadAn=         5 IDoV= 1 UseB2=F ITyADJ=14
 ICtDFT=  3500011 ScaDFX=  1.000000  1.000000  1.000000  1.000000
 FoFCou: FMM=F IPFlag=           0 FMFlag=      100000 FMFlg1=           0
         NFxFlg=           0 DoJE=T BraDBF=F KetDBF=T FulRan=T
         wScrn=  0.000000 ICntrl=       500 IOpCl=  0 I1Cent=   200000004 NGrid=           0
         NMat0=    1 NMatS0=      1 NMatT0=    0 NMatD0=    1 NMtDS0=    0 NMtDT0=    0
 Petite list used in FoFCou.
 Requested convergence on RMS density matrix=1.00D-08 within 128 cycles.
 Requested convergence on MAX density matrix=1.00D-06.
 Requested convergence on             energy=1.00D-06.
 No special actions if energy rises.
 SCF Done:  E(RB3LYP) =  -613.728218727     A.U. after   14 cycles
            NFock= 14  Conv=0.51D-08     -V/T= 2.0083
 DoSCS=F DFT=T ScalE2(SS,OS)=  1.000000  1.000000
 ExpMin= 4.38D-02 ExpMax= 5.48D+03 ExpMxC= 8.25D+02 IAcc=3 IRadAn=         5 AccDes= 0.00D+00
 HarFok:  IExCor=  205 AccDes= 0.00D+00 IRadAn=         5 IDoV=-2 UseB2=F ITyADJ=14
 ICtDFT= 12500011 ScaDFX=  1.000000  1.000000  1.000000  1.000000
 Range of M.O.s used for correlation:    14   638
 NBasis=   638 NAE=    51 NBE=    51 NFC=    13 NFV=     0
 NROrb=    625 NOA=    38 NOB=    38 NVA=   587 NVB=   587

 **** Warning!!: The largest alpha MO coefficient is  0.10027561D+03

 Orbital symmetries:
       Occupied  (A) (A) (A) (A) (A) (A) (A) (A) (A) (A) (A) (A)
                 (A) (A) (A) (A) (A) (A) (A) (A) (A) (A) (A) (A)
                 (A) (A) (A) (A) (A) (A) (A) (A) (A) (A) (A) (A)
                 (A) (A) (A) (A) (A) (A) (A) (A) (A) (A) (A) (A)
                 (A) (A) (A)
       Virtual   (A) (A) (A) (A) (A) (A) (A) (A) (A) (A) (A) (A)
                 (A) (A) (A) (A) (A) (A) (A) (A) (A) (A) (A) (A)
                 (A) (A) (A) (A) (A) (A) (A) (A) (A) (A) (A) (A)
                 (A) (A) (A) (A) (A) (A) (A) (A) (A) (A) (A) (A)
                 (A) (A) (A) (A) (A) (A) (A) (A) (A) (A) (A) (A)
                 (A) (A) (A) (A) (A) (A) (A) (A) (A) (A) (A) (A)
                 (A) (A) (A) (A) (A) (A) (A) (A) (A) (A) (A) (A)
                 (A) (A) (A) (A) (A) (A) (A) (A) (A) (A) (A) (A)
                 (A) (A) (A) (A) (A) (A) (A) (A) (A) (A) (A) (A)
                 (A) (A) (A) (A) (A) (A) (A) (A) (A) (A) (A) (A)
                 (A) (A) (A) (A) (A) (A) (A) (A) (A) (A) (A) (A)
                 (A) (A) (A) (A) (A) (A) (A) (A) (A) (A) (A) (A)
                 (A) (A) (A) (A) (A) (A) (A) (A) (A) (A) (A) (A)
                 (A) (A) (A) (A) (A) (A) (A) (A) (A) (A) (A) (A)
                 (A) (A) (A) (A) (A) (A) (A) (A) (A) (A) (A) (A)
                 (A) (A) (A) (A) (A) (A) (A) (A) (A) (A) (A) (A)
                 (A) (A) (A) (A) (A) (A) (A) (A) (A) (A) (A) (A)
                 (A) (A) (A) (A) (A) (A) (A) (A) (A) (A) (A) (A)
                 (A) (A) (A) (A) (A) (A) (A) (A) (A) (A) (A) (A)
                 (A) (A) (A) (A) (A) (A) (A) (A) (A) (A) (A) (A)
                 (A) (A) (A) (A) (A) (A) (A) (A) (A) (A) (A) (A)
                 (A) (A) (A) (A) (A) (A) (A) (A) (A) (A) (A) (A)
                 (A) (A) (A) (A) (A) (A) (A) (A) (A) (A) (A) (A)
                 (A) (A) (A) (A) (A) (A) (A) (A) (A) (A) (A) (A)
                 (A) (A) (A) (A) (A) (A) (A) (A) (A) (A) (A) (A)
                 (A) (A) (A) (A) (A) (A) (A) (A) (A) (A) (A) (A)
                 (A) (A) (A) (A) (A) (A) (A) (A) (A) (A) (A) (A)
                 (A) (A) (A) (A) (A) (A) (A) (A) (A) (A) (A) (A)
                 (A) (A) (A) (A) (A) (A) (A) (A) (A) (A) (A) (A)
                 (A) (A) (A) (A) (A) (A) (A) (A) (A) (A) (A) (A)
                 (A) (A) (A) (A) (A) (A) (A) (A) (A) (A) (A) (A)
                 (A) (A) (A) (A) (A) (A) (A) (A) (A) (A) (A) (A)
                 (A) (A) (A) (A) (A) (A) (A) (A) (A) (A) (A) (A)
                 (A) (A) (A) (A) (A) (A) (A) (A) (A) (A) (A) (A)
                 (A) (A) (A) (A) (A) (A) (A) (A) (A) (A) (A) (A)
                 (A) (A) (A) (A) (A) (A) (A) (A) (A) (A) (A) (A)
                 (A) (A) (A) (A) (A) (A) (A) (A) (A) (A) (A) (A)
                 (A) (A) (A) (A) (A) (A) (A) (A) (A) (A) (A) (A)
                 (A) (A) (A) (A) (A) (A) (A) (A) (A) (A) (A) (A)
                 (A) (A) (A) (A) (A) (A) (A) (A) (A) (A) (A) (A)
                 (A) (A) (A) (A) (A) (A) (A) (A) (A) (A) (A) (A)
                 (A) (A) (A) (A) (A) (A) (A) (A) (A) (A) (A) (A)
                 (A) (A) (A) (A) (A) (A) (A) (A) (A) (A) (A) (A)
                 (A) (A) (A) (A) (A) (A) (A) (A) (A) (A) (A) (A)
                 (A) (A) (A) (A) (A) (A) (A) (A) (A) (A) (A) (A)
                 (A) (A) (A) (A) (A) (A) (A) (A) (A) (A) (A) (A)
                 (A) (A) (A) (A) (A) (A) (A) (A) (A) (A) (A) (A)
                 (A) (A) (A) (A) (A) (A) (A) (A) (A) (A) (A) (A)
                 (A) (A) (A) (A) (A) (A) (A) (A) (A) (A) (A)
    40 initial guesses have been made.
 Convergence on wavefunction:    0.000001000000000
 Iteration     1 Dimension    40 NMult     0 NNew     40
 CISAX will form     2 AO SS matrices at one time.
 New state      3 was old state      8
 New state      4 was old state      6
 New state      5 was old state      4
 New state      6 was old state     12
 New state      7 was old state      9
 New state      8 was old state     11
 New state      9 was old state      7
 Iteration     2 Dimension    60 NMult    40 NNew     20
 New state      5 was old state      7
 New state      7 was old state      5
 Iteration     3 Dimension    80 NMult    60 NNew     20
 Iteration     4 Dimension   100 NMult    80 NNew     20
 Iteration     5 Dimension   120 NMult   100 NNew     20
 New state      9 was old state     10
 New state     10 was old state      9
 Iteration     6 Dimension   140 NMult   120 NNew     20
 Iteration     7 Dimension   160 NMult   140 NNew     20
 Iteration     8 Dimension   178 NMult   160 NNew     18
 Iteration     9 Dimension   194 NMult   178 NNew     16
 Iteration    10 Dimension   208 NMult   194 NNew     14
 Iteration    11 Dimension   222 NMult   208 NNew     14
 Iteration    12 Dimension   226 NMult   222 NNew      4
 Iteration    13 Dimension   228 NMult   226 NNew      2
 Iteration    14 Dimension   230 NMult   228 NNew      2
 Iteration    15 Dimension   232 NMult   230 NNew      2
 Iteration    16 Dimension   234 NMult   232 NNew      2
 ***********************************************************************
 Excited states from <AA,BB:AA,BB> singles matrix:
 ***********************************************************************
 
 Ground to excited state transition densities written to RWF  633
 Ground to excited state transition electric dipole moments (Au):
       state          X           Y           Z        Dip. S.      Osc.
         1         0.0000      0.0000     -0.0940      0.0088      0.0007
         2        -0.0012      0.0022     -0.0000      0.0000      0.0000
         3         0.4972      0.3106      0.0000      0.3436      0.0468
         4         0.1123     -0.0085      0.0000      0.0127      0.0018
         5        -0.6139     -0.3900     -0.0000      0.5289      0.0787
         6         0.0000     -0.0000      0.1406      0.0198      0.0030
         7        -0.0000     -0.0000      0.0014      0.0000      0.0000
         8        -0.0001     -0.0000      0.1370      0.0188      0.0029
         9         1.5155     -0.0022      0.0000      2.2968      0.3529
        10        -0.0000     -0.0000     -0.0184      0.0003      0.0001
 Ground to excited state transition velocity dipole moments (Au):
       state          X           Y           Z        Dip. S.      Osc.
         1        -0.0000     -0.0000      0.0166      0.0003      0.0015
         2         0.0003     -0.0004      0.0000      0.0000      0.0000
         3        -0.1022     -0.0637     -0.0000      0.0145      0.0473
         4        -0.0236      0.0008     -0.0000      0.0006      0.0017
         5         0.1363      0.0871      0.0000      0.0262      0.0781
         6        -0.0000      0.0000     -0.0305      0.0009      0.0028
         7         0.0000      0.0000     -0.0003      0.0000      0.0000
         8         0.0000      0.0000     -0.0284      0.0008      0.0024
         9        -0.3499      0.0020     -0.0000      0.1224      0.3541
        10         0.0000      0.0000      0.0027      0.0000      0.0000
 Ground to excited state transition magnetic dipole moments (Au):
       state          X           Y           Z
         1         1.0316      0.9546      0.0000
         2         0.0000     -0.0000      0.0019
         3        -0.0000     -0.0000      0.7569
         4        -0.0000     -0.0000      0.0582
         5         0.0000      0.0000     -1.2259
         6         0.0187      0.2884      0.0000
         7        -0.0006     -0.0056     -0.0000
         8        -0.0270      0.0009      0.0000
         9         0.0000      0.0000     -0.0258
        10        -0.1798     -0.0810      0.0000
 Ground to excited state transition velocity quadrupole moments (Au):
       state          XX          YY          ZZ          XY          XZ          YZ
         1         0.0000     -0.0000      0.0000      0.0000     -0.2218      0.0687
         2         0.0265     -0.0003     -0.0006      0.0028     -0.0000      0.0000
         3         2.1369      0.0178     -0.0608      0.7423      0.0000      0.0000
         4         0.1223      0.1155      0.1027     -0.0604      0.0000     -0.0000
         5        -1.6369     -0.2477     -0.0227     -1.0013     -0.0000     -0.0000
         6        -0.0001      0.0000     -0.0000      0.0000     -0.3397     -0.0111
         7        -0.0000     -0.0000      0.0000     -0.0000      0.0022     -0.0008
         8         0.0002     -0.0000      0.0000      0.0000     -0.1084     -0.0311
         9        -5.8911      0.0272      0.0272      0.0258     -0.0000     -0.0000
        10         0.0000      0.0000     -0.0000      0.0000      0.0167     -0.1251
 <0|del|b> * <b|rxdel|0> + <0|del|b> * <b|delr+rdel|0>
 Rotatory Strengths (R) in cgs (10**-40 erg-esu-cm/Gauss)
       state          XX          YY          ZZ    R(velocity)    E-M Angle
         1        -0.0000     -0.0000     -0.0003     -0.0001       90.00
         2         0.0000      0.0000      0.0000      0.0000       90.00
         3         0.0000     -0.0000      0.0004      0.0002       90.00
         4        -0.0000     -0.0000     -0.0000     -0.0000       90.00
         5        -0.0007     -0.0000      0.0005     -0.0001       90.00
         6         0.0001      0.0001     -0.0002     -0.0000       90.00
         7        -0.0000     -0.0000     -0.0000     -0.0000       90.00
         8         0.0000     -0.0011     -0.0000     -0.0004       90.00
         9         0.0002     -0.0027     -0.0052     -0.0026       90.00
        10        -0.0000     -0.0002     -0.0001     -0.0001       90.00
 1/2[<0|r|b>*<b|rxdel|0> + (<0|rxdel|b>*<b|r|0>)*]
 Rotatory Strengths (R) in cgs (10**-40 erg-esu-cm/Gauss)
       state          XX          YY          ZZ     R(length)
         1        -0.0006     -0.0004      0.0003     -0.0002
         2         0.0000      0.0000      0.0000      0.0000
         3         0.0002      0.0009     -0.0005      0.0002
         4         0.0000     -0.0000     -0.0000     -0.0000
         5         0.0003      0.0011     -0.0016     -0.0001
         6        -0.0002      0.0007     -0.0006     -0.0000
         7        -0.0000     -0.0000      0.0000     -0.0000
         8        -0.0010      0.0000     -0.0001     -0.0004
         9        -0.0082      0.0001      0.0004     -0.0026
        10        -0.0001     -0.0001      0.0000     -0.0001
  1/2[<0|del|b>*<b|r|0> + (<0|r|b>*<b|del|0>)*] (Au)
       state          X           Y           Z        Dip. S.   Osc.(frdel)
         1        -0.0000     -0.0000     -0.0016      0.0016      0.0010
         2        -0.0000     -0.0000     -0.0000      0.0000      0.0000
         3        -0.0508     -0.0198     -0.0000      0.0706      0.0471
         4        -0.0026     -0.0000     -0.0000      0.0027      0.0018
         5        -0.0837     -0.0340     -0.0000      0.1177      0.0784
         6        -0.0000     -0.0000     -0.0043      0.0043      0.0029
         7        -0.0000     -0.0000     -0.0000      0.0000      0.0000
         8        -0.0000     -0.0000     -0.0039      0.0039      0.0026
         9        -0.5302     -0.0000     -0.0000      0.5302      0.3535
        10        -0.0000     -0.0000     -0.0000      0.0000      0.0000

 Excitation energies and oscillator strengths:
 
 Excited State   1:      Singlet-A      3.2888 eV  376.99 nm  f=0.0007  <S**2>=0.000
      51 -> 52         0.70696
 This state for optimization and/or second-order correction.
 Total Energy, E(TD-HF/TD-DFT) =  -613.607357091    
 Copying the excited state density for this state as the 1-particle RhoCI density.
 
 Excited State   2:      Singlet-A      5.0394 eV  246.03 nm  f=0.0000  <S**2>=0.000
      50 -> 52         0.70709
 
 Excited State   3:      Singlet-A      5.5627 eV  222.88 nm  f=0.0468  <S**2>=0.000
      48 -> 52         0.26921
      49 -> 52         0.63170
 
 Excited State   4:      Singlet-A      5.9314 eV  209.03 nm  f=0.0018  <S**2>=0.000
      48 -> 52        -0.16724
      51 -> 54         0.64057
      51 -> 55        -0.13577
      51 -> 56         0.11395
      51 -> 57         0.12730
 
 Excited State   5:      Singlet-A      6.0763 eV  204.05 nm  f=0.0787  <S**2>=0.000
      48 -> 52         0.47444
      49 -> 52        -0.11526
      51 -> 54         0.21587
      51 -> 55         0.35060
      51 -> 59        -0.23780
      51 -> 61        -0.13267
 
 Excited State   6:      Singlet-A      6.1139 eV  202.79 nm  f=0.0030  <S**2>=0.000
      50 -> 54        -0.32693
      50 -> 56         0.61104
 
 Excited State   7:      Singlet-A      6.1320 eV  202.19 nm  f=0.0000  <S**2>=0.000
      51 -> 53         0.70706
 
 Excited State   8:      Singlet-A      6.2139 eV  199.53 nm  f=0.0029  <S**2>=0.000
      50 -> 54         0.29475
      50 -> 55         0.50251
      50 -> 56         0.20775
      50 -> 57        -0.21903
      50 -> 59         0.24669
 
 Excited State   9:      Singlet-A      6.2719 eV  197.68 nm  f=0.3529  <S**2>=0.000
      50 -> 53         0.68904
 
 Excited State  10:      Singlet-A      6.3159 eV  196.31 nm  f=0.0001  <S**2>=0.000
      50 -> 54         0.48537
      50 -> 55        -0.33790
      50 -> 56         0.20161
      50 -> 57        -0.21487
      50 -> 59        -0.24031
 SavETr:  write IOETrn=   770 NScale= 10 NData=  16 NLR=1 NState=   10 LETran=     190.
          IDoAtm=1111111111111111111111111111111
          Differentiating once with respect to electric field.
                with respect to dipole field.
          Differentiating once with respect to nuclear coordinates.
          There are     1 degrees of freedom in the 1st order CPHF.  IDoFFX=0 NUNeed=     1.
 LinEq1:  Iter=  0 NonCon=     1 RMS=7.08D-03 Max=7.04D-01 NDo=     1
 AX will form     1 AO Fock derivatives at one time.
 LinEq1:  Iter=  1 NonCon=     1 RMS=2.25D-03 Max=1.17D-01 NDo=     1
 LinEq1:  Iter=  2 NonCon=     1 RMS=2.27D-03 Max=1.02D-01 NDo=     1
 LinEq1:  Iter=  3 NonCon=     1 RMS=5.98D-04 Max=1.69D-02 NDo=     1
 LinEq1:  Iter=  4 NonCon=     1 RMS=2.72D-04 Max=6.03D-03 NDo=     1
 LinEq1:  Iter=  5 NonCon=     1 RMS=1.51D-04 Max=4.19D-03 NDo=     1
 LinEq1:  Iter=  6 NonCon=     1 RMS=8.03D-05 Max=3.48D-03 NDo=     1
 LinEq1:  Iter=  7 NonCon=     1 RMS=3.80D-05 Max=1.36D-03 NDo=     1
 LinEq1:  Iter=  8 NonCon=     1 RMS=1.16D-05 Max=8.97D-04 NDo=     1
 LinEq1:  Iter=  9 NonCon=     1 RMS=1.01D-05 Max=9.52D-04 NDo=     1
 LinEq1:  Iter= 10 NonCon=     1 RMS=3.80D-06 Max=1.32D-04 NDo=     1
 LinEq1:  Iter= 11 NonCon=     1 RMS=1.72D-06 Max=4.83D-05 NDo=     1
 LinEq1:  Iter= 12 NonCon=     1 RMS=5.29D-07 Max=2.14D-05 NDo=     1
 LinEq1:  Iter= 13 NonCon=     1 RMS=2.39D-07 Max=4.76D-06 NDo=     1
 LinEq1:  Iter= 14 NonCon=     1 RMS=9.12D-08 Max=1.95D-06 NDo=     1
 LinEq1:  Iter= 15 NonCon=     1 RMS=3.55D-08 Max=7.09D-07 NDo=     1
 LinEq1:  Iter= 16 NonCon=     1 RMS=1.54D-08 Max=2.63D-07 NDo=     1
 LinEq1:  Iter= 17 NonCon=     1 RMS=6.30D-09 Max=1.47D-07 NDo=     1
 LinEq1:  Iter= 18 NonCon=     1 RMS=1.76D-09 Max=3.11D-08 NDo=     1
 LinEq1:  Iter= 19 NonCon=     1 RMS=7.49D-10 Max=1.37D-08 NDo=     1
 LinEq1:  Iter= 20 NonCon=     1 RMS=2.53D-10 Max=5.05D-09 NDo=     1
 LinEq1:  Iter= 21 NonCon=     1 RMS=9.12D-11 Max=1.42D-09 NDo=     1
 LinEq1:  Iter= 22 NonCon=     0 RMS=4.47D-11 Max=7.14D-10 NDo=     1
 Linear equations converged to 1.000D-10 1.000D-09 after    22 iterations.
 End of Minotr F.D. properties file   721 does not exist.
 End of Minotr F.D. properties file   722 does not exist.
 End of Minotr F.D. properties file   788 does not exist.

 **********************************************************************

            Population analysis using the SCF density.

 **********************************************************************

 Orbital symmetries:
       Occupied  (A) (A) (A) (A) (A) (A) (A) (A) (A) (A) (A) (A)
                 (A) (A) (A) (A) (A) (A) (A) (A) (A) (A) (A) (A)
                 (A) (A) (A) (A) (A) (A) (A) (A) (A) (A) (A) (A)
                 (A) (A) (A) (A) (A) (A) (A) (A) (A) (A) (A) (A)
                 (A) (A) (A)
       Virtual   (A) (A) (A) (A) (A) (A) (A) (A) (A) (A) (A) (A)
                 (A) (A) (A) (A) (A) (A) (A) (A) (A) (A) (A) (A)
                 (A) (A) (A) (A) (A) (A) (A) (A) (A) (A) (A) (A)
                 (A) (A) (A) (A) (A) (A) (A) (A) (A) (A) (A) (A)
                 (A) (A) (A) (A) (A) (A) (A) (A) (A) (A) (A) (A)
                 (A) (A) (A) (A) (A) (A) (A) (A) (A) (A) (A) (A)
                 (A) (A) (A) (A) (A) (A) (A) (A) (A) (A) (A) (A)
                 (A) (A) (A) (A) (A) (A) (A) (A) (A) (A) (A) (A)
                 (A) (A) (A) (A) (A) (A) (A) (A) (A) (A) (A) (A)
                 (A) (A) (A) (A) (A) (A) (A) (A) (A) (A) (A) (A)
                 (A) (A) (A) (A) (A) (A) (A) (A) (A) (A) (A) (A)
                 (A) (A) (A) (A) (A) (A) (A) (A) (A) (A) (A) (A)
                 (A) (A) (A) (A) (A) (A) (A) (A) (A) (A) (A) (A)
                 (A) (A) (A) (A) (A) (A) (A) (A) (A) (A) (A) (A)
                 (A) (A) (A) (A) (A) (A) (A) (A) (A) (A) (A) (A)
                 (A) (A) (A) (A) (A) (A) (A) (A) (A) (A) (A) (A)
                 (A) (A) (A) (A) (A) (A) (A) (A) (A) (A) (A) (A)
                 (A) (A) (A) (A) (A) (A) (A) (A) (A) (A) (A) (A)
                 (A) (A) (A) (A) (A) (A) (A) (A) (A) (A) (A) (A)
                 (A) (A) (A) (A) (A) (A) (A) (A) (A) (A) (A) (A)
                 (A) (A) (A) (A) (A) (A) (A) (A) (A) (A) (A) (A)
                 (A) (A) (A) (A) (A) (A) (A) (A) (A) (A) (A) (A)
                 (A) (A) (A) (A) (A) (A) (A) (A) (A) (A) (A) (A)
                 (A) (A) (A) (A) (A) (A) (A) (A) (A) (A) (A) (A)
                 (A) (A) (A) (A) (A) (A) (A) (A) (A) (A) (A) (A)
                 (A) (A) (A) (A) (A) (A) (A) (A) (A) (A) (A) (A)
                 (A) (A) (A) (A) (A) (A) (A) (A) (A) (A) (A) (A)
                 (A) (A) (A) (A) (A) (A) (A) (A) (A) (A) (A) (A)
                 (A) (A) (A) (A) (A) (A) (A) (A) (A) (A) (A) (A)
                 (A) (A) (A) (A) (A) (A) (A) (A) (A) (A) (A) (A)
                 (A) (A) (A) (A) (A) (A) (A) (A) (A) (A) (A) (A)
                 (A) (A) (A) (A) (A) (A) (A) (A) (A) (A) (A) (A)
                 (A) (A) (A) (A) (A) (A) (A) (A) (A) (A) (A) (A)
                 (A) (A) (A) (A) (A) (A) (A) (A) (A) (A) (A) (A)
                 (A) (A) (A) (A) (A) (A) (A) (A) (A) (A) (A) (A)
                 (A) (A) (A) (A) (A) (A) (A) (A) (A) (A) (A) (A)
                 (A) (A) (A) (A) (A) (A) (A) (A) (A) (A) (A) (A)
                 (A) (A) (A) (A) (A) (A) (A) (A) (A) (A) (A) (A)
                 (A) (A) (A) (A) (A) (A) (A) (A) (A) (A) (A) (A)
                 (A) (A) (A) (A) (A) (A) (A) (A) (A) (A) (A) (A)
                 (A) (A) (A) (A) (A) (A) (A) (A) (A) (A) (A) (A)
                 (A) (A) (A) (A) (A) (A) (A) (A) (A) (A) (A) (A)
                 (A) (A) (A) (A) (A) (A) (A) (A) (A) (A) (A) (A)
                 (A) (A) (A) (A) (A) (A) (A) (A) (A) (A) (A) (A)
                 (A) (A) (A) (A) (A) (A) (A) (A) (A) (A) (A) (A)
                 (A) (A) (A) (A) (A) (A) (A) (A) (A) (A) (A) (A)
                 (A) (A) (A) (A) (A) (A) (A) (A) (A) (A) (A) (A)
                 (A) (A) (A) (A) (A) (A) (A) (A) (A) (A) (A) (A)
                 (A) (A) (A) (A) (A) (A) (A) (A) (A) (A) (A)
 The electronic state is 1-A.
 Alpha  occ. eigenvalues --  -19.19163 -19.17548 -14.46817 -14.40662 -10.29563
 Alpha  occ. eigenvalues --  -10.25288 -10.19616 -10.19519 -10.19041 -10.19008
 Alpha  occ. eigenvalues --  -10.18632 -10.18420 -10.18237  -1.16153  -1.08405
 Alpha  occ. eigenvalues --   -0.96281  -0.82821  -0.80491  -0.77423  -0.74001
 Alpha  occ. eigenvalues --   -0.70042  -0.66852  -0.65718  -0.61385  -0.59581
 Alpha  occ. eigenvalues --   -0.55364  -0.54119  -0.52971  -0.52577  -0.50024
 Alpha  occ. eigenvalues --   -0.49634  -0.47078  -0.45605  -0.44737  -0.44519
 Alpha  occ. eigenvalues --   -0.42522  -0.41707  -0.40692  -0.40145  -0.39497
 Alpha  occ. eigenvalues --   -0.38311  -0.36545  -0.36326  -0.35143  -0.34245
 Alpha  occ. eigenvalues --   -0.34124  -0.33298  -0.30184  -0.27982  -0.24865
 Alpha  occ. eigenvalues --   -0.24298
 Alpha virt. eigenvalues --   -0.05415  -0.00873  -0.00230   0.00588   0.00996
 Alpha virt. eigenvalues --    0.01563   0.01803   0.01946   0.03181   0.03682
 Alpha virt. eigenvalues --    0.03937   0.04395   0.04430   0.05697   0.05959
 Alpha virt. eigenvalues --    0.06377   0.06613   0.07011   0.07949   0.08072
 Alpha virt. eigenvalues --    0.08681   0.09814   0.10023   0.10100   0.10967
 Alpha virt. eigenvalues --    0.11324   0.12126   0.12725   0.13838   0.14468
 Alpha virt. eigenvalues --    0.14686   0.15109   0.15455   0.15804   0.16509
 Alpha virt. eigenvalues --    0.17192   0.17595   0.17743   0.18344   0.18822
 Alpha virt. eigenvalues --    0.19616   0.19622   0.19859   0.20071   0.20106
 Alpha virt. eigenvalues --    0.20626   0.21285   0.21747   0.22063   0.22141
 Alpha virt. eigenvalues --    0.22973   0.23743   0.23923   0.24473   0.25123
 Alpha virt. eigenvalues --    0.25665   0.26129   0.26285   0.26510   0.27146
 Alpha virt. eigenvalues --    0.27947   0.28036   0.28354   0.28854   0.29025
 Alpha virt. eigenvalues --    0.29405   0.29910   0.31585   0.32130   0.32557
 Alpha virt. eigenvalues --    0.32728   0.33866   0.34426   0.35665   0.35768
 Alpha virt. eigenvalues --    0.36269   0.36423   0.37570   0.38029   0.38335
 Alpha virt. eigenvalues --    0.39518   0.39799   0.40475   0.40841   0.42106
 Alpha virt. eigenvalues --    0.42848   0.43793   0.45247   0.45616   0.46813
 Alpha virt. eigenvalues --    0.47345   0.47782   0.48271   0.48545   0.48824
 Alpha virt. eigenvalues --    0.49507   0.49822   0.50907   0.52398   0.53081
 Alpha virt. eigenvalues --    0.53243   0.54574   0.54877   0.55341   0.55667
 Alpha virt. eigenvalues --    0.57610   0.57808   0.58960   0.59375   0.59950
 Alpha virt. eigenvalues --    0.60888   0.61455   0.61947   0.62731   0.63215
 Alpha virt. eigenvalues --    0.63574   0.64158   0.64806   0.65802   0.65996
 Alpha virt. eigenvalues --    0.67427   0.68123   0.68278   0.69214   0.69421
 Alpha virt. eigenvalues --    0.70562   0.70841   0.71401   0.71491   0.71570
 Alpha virt. eigenvalues --    0.72470   0.72768   0.72886   0.73638   0.74172
 Alpha virt. eigenvalues --    0.74284   0.74567   0.75050   0.75353   0.75467
 Alpha virt. eigenvalues --    0.76118   0.76747   0.77237   0.77268   0.77850
 Alpha virt. eigenvalues --    0.77998   0.78609   0.79183   0.79244   0.80159
 Alpha virt. eigenvalues --    0.80822   0.81723   0.81840   0.84196   0.85167
 Alpha virt. eigenvalues --    0.85611   0.86856   0.86962   0.89760   0.89842
 Alpha virt. eigenvalues --    0.90678   0.91414   0.93505   0.93923   0.95166
 Alpha virt. eigenvalues --    0.95275   0.98955   0.99325   0.99894   1.00316
 Alpha virt. eigenvalues --    1.01235   1.01469   1.02960   1.03642   1.05519
 Alpha virt. eigenvalues --    1.05958   1.06729   1.07835   1.09532   1.10922
 Alpha virt. eigenvalues --    1.12484   1.15078   1.15823   1.18996   1.21394
 Alpha virt. eigenvalues --    1.21928   1.23976   1.24102   1.25488   1.27415
 Alpha virt. eigenvalues --    1.29227   1.30487   1.30906   1.32487   1.36460
 Alpha virt. eigenvalues --    1.37377   1.37431   1.40433   1.40965   1.42296
 Alpha virt. eigenvalues --    1.42855   1.44613   1.45175   1.45880   1.46380
 Alpha virt. eigenvalues --    1.48484   1.49123   1.50806   1.51847   1.51934
 Alpha virt. eigenvalues --    1.52562   1.53667   1.55960   1.56281   1.56770
 Alpha virt. eigenvalues --    1.58438   1.59325   1.59923   1.62166   1.63889
 Alpha virt. eigenvalues --    1.64967   1.65794   1.67368   1.67601   1.68228
 Alpha virt. eigenvalues --    1.68516   1.70069   1.70834   1.70992   1.71578
 Alpha virt. eigenvalues --    1.72129   1.72189   1.73346   1.74055   1.76781
 Alpha virt. eigenvalues --    1.76786   1.77674   1.78373   1.78613   1.79400
 Alpha virt. eigenvalues --    1.80492   1.81859   1.82275   1.82936   1.83616
 Alpha virt. eigenvalues --    1.85218   1.85761   1.85862   1.86322   1.87521
 Alpha virt. eigenvalues --    1.89116   1.89654   1.90437   1.91030   1.91295
 Alpha virt. eigenvalues --    1.91878   1.92909   1.93923   1.94461   1.96878
 Alpha virt. eigenvalues --    1.97095   1.97311   1.98553   1.98629   2.00702
 Alpha virt. eigenvalues --    2.02987   2.03674   2.05174   2.05603   2.06130
 Alpha virt. eigenvalues --    2.07215   2.09583   2.10716   2.11366   2.11743
 Alpha virt. eigenvalues --    2.12476   2.13906   2.13998   2.14068   2.15300
 Alpha virt. eigenvalues --    2.16696   2.17379   2.17941   2.18952   2.19127
 Alpha virt. eigenvalues --    2.19760   2.20872   2.22123   2.23833   2.25381
 Alpha virt. eigenvalues --    2.25759   2.26877   2.28242   2.28823   2.29985
 Alpha virt. eigenvalues --    2.30031   2.31256   2.33159   2.34013   2.35765
 Alpha virt. eigenvalues --    2.36085   2.39455   2.40085   2.41251   2.43436
 Alpha virt. eigenvalues --    2.46194   2.46832   2.47120   2.48860   2.49433
 Alpha virt. eigenvalues --    2.51657   2.52838   2.54310   2.55551   2.56862
 Alpha virt. eigenvalues --    2.57609   2.59175   2.60385   2.62342   2.62675
 Alpha virt. eigenvalues --    2.64047   2.65696   2.67418   2.69406   2.69994
 Alpha virt. eigenvalues --    2.71443   2.71967   2.73609   2.74607   2.77647
 Alpha virt. eigenvalues --    2.78335   2.80712   2.82105   2.88051   2.90158
 Alpha virt. eigenvalues --    2.91423   2.94377   2.96895   2.98927   3.01009
 Alpha virt. eigenvalues --    3.01270   3.05960   3.09065   3.12817   3.13212
 Alpha virt. eigenvalues --    3.13449   3.14293   3.16594   3.16856   3.17191
 Alpha virt. eigenvalues --    3.18151   3.20834   3.22608   3.22780   3.23203
 Alpha virt. eigenvalues --    3.26215   3.27304   3.27461   3.28203   3.28342
 Alpha virt. eigenvalues --    3.31988   3.33400   3.34540   3.36192   3.37656
 Alpha virt. eigenvalues --    3.38990   3.40812   3.41069   3.43143   3.43214
 Alpha virt. eigenvalues --    3.46135   3.46979   3.47758   3.48997   3.50982
 Alpha virt. eigenvalues --    3.52159   3.52293   3.54506   3.56183   3.59530
 Alpha virt. eigenvalues --    3.60551   3.61839   3.63566   3.64378   3.69798
 Alpha virt. eigenvalues --    3.71255   3.71781   3.73119   3.74282   3.74894
 Alpha virt. eigenvalues --    3.79676   3.81163   3.84524   3.88632   3.88925
 Alpha virt. eigenvalues --    3.90733   3.92492   3.99253   4.00520   4.09378
 Alpha virt. eigenvalues --    4.09441   4.13391   4.18148   4.18446   4.18857
 Alpha virt. eigenvalues --    4.26239   4.27873   4.28858   4.29315   4.32263
 Alpha virt. eigenvalues --    4.36488   4.38494   4.41304   4.45073   4.47814
 Alpha virt. eigenvalues --    4.50225   4.51696   4.55219   4.58402   4.63924
 Alpha virt. eigenvalues --    4.69357   4.77574   4.85726   4.90521   4.90895
 Alpha virt. eigenvalues --    4.93331   5.07144   5.08218   5.08925   5.09474
 Alpha virt. eigenvalues --    5.25768   5.37435   5.49147   5.50107   5.52022
 Alpha virt. eigenvalues --    5.57578   5.62294   5.62556   5.81366   5.84566
 Alpha virt. eigenvalues --    5.89349   5.90561   5.91004   5.95206   5.95507
 Alpha virt. eigenvalues --    6.00952   6.03100   6.04102   6.04121   6.07101
 Alpha virt. eigenvalues --    6.07572   6.09009   6.10288   6.10334   6.10550
 Alpha virt. eigenvalues --    6.14206   6.15266   6.15543   6.15843   6.16661
 Alpha virt. eigenvalues --    6.17364   6.18590   6.19141   6.19574   6.20076
 Alpha virt. eigenvalues --    6.22418   6.22653   6.24543   6.25709   6.28280
 Alpha virt. eigenvalues --    6.29334   6.31192   6.33238   6.34777   6.36596
 Alpha virt. eigenvalues --    6.39177   6.42223   6.44409   6.50959   6.52159
 Alpha virt. eigenvalues --    6.55232   6.57643   6.60307   6.63089   6.63305
 Alpha virt. eigenvalues --    6.65040   6.72367   6.74102   6.76756   6.78225
 Alpha virt. eigenvalues --    6.79524   6.83519   6.83894   6.84526   6.86803
 Alpha virt. eigenvalues --    6.93398   6.94721   6.97210   7.01410   7.03246
 Alpha virt. eigenvalues --    7.08512   7.14062   7.30635   7.34516   7.46906
 Alpha virt. eigenvalues --    7.53133   7.71286   7.88792   8.08085   8.59704
 Alpha virt. eigenvalues --    8.65584   8.67760   8.73220   8.74063   8.75639
 Alpha virt. eigenvalues --    8.76134   8.80601   8.83392   8.84767   8.97399
 Alpha virt. eigenvalues --    8.98568   9.05062   9.09509   9.13320   9.13494
 Alpha virt. eigenvalues --    9.13671   9.13970   9.15444   9.17506   9.17925
 Alpha virt. eigenvalues --    9.24446   9.24620   9.27399   9.27528   9.32064
 Alpha virt. eigenvalues --    9.34327   9.35213   9.37128   9.38311   9.39228
 Alpha virt. eigenvalues --    9.40460   9.44701   9.47040   9.48243   9.48513
 Alpha virt. eigenvalues --    9.52624   9.53456   9.54738   9.56419   9.59544
 Alpha virt. eigenvalues --    9.60792   9.63775   9.67519   9.67804   9.75314
 Alpha virt. eigenvalues --    9.76886   9.78440   9.80910   9.89924   9.99273
 Alpha virt. eigenvalues --    9.99910  10.00823  10.03331  10.09178  10.10022
 Alpha virt. eigenvalues --   10.11560  10.16576  10.20741  10.21830  10.22689
 Alpha virt. eigenvalues --   10.23681  10.27356  10.34435  10.61885  12.78576
 Alpha virt. eigenvalues --   13.12040  13.32338  13.66962  13.74519  13.97548
 Alpha virt. eigenvalues --   14.11864  14.28600  14.37580  18.05485  18.97070
 Alpha virt. eigenvalues --   22.87081  23.20064
          Condensed to atoms (all electrons):
               1          2          3          4          5          6
     1  C    5.551892  -0.202539   0.125253  -0.203629  -0.005450  -0.057526
     2  C   -0.202539   6.677555  -0.659672   0.387306  -0.307941  -0.100732
     3  C    0.125253  -0.659672   6.317330  -0.001847   0.238753  -0.140163
     4  C   -0.203629   0.387306  -0.001847   6.060961   0.269623  -0.299281
     5  C   -0.005450  -0.307941   0.238753   0.269623   6.015826   0.060718
     6  C   -0.057526  -0.100732  -0.140163  -0.299281   0.060718   6.842535
     7  C   -0.003354  -0.047833  -0.087859  -0.079192  -0.136001   0.374723
     8  C   -0.003260  -0.018559   0.000209  -0.550081  -0.188430  -0.608034
     9  O   -0.000002  -0.000100  -0.000589  -0.009270  -0.056023  -0.183894
    10  C   -0.000037  -0.000560   0.001921  -0.052170  -0.040036  -0.567820
    11  N    0.000000   0.000010  -0.000010   0.001975   0.009699   0.088977
    12  N   -0.000000  -0.000001   0.000004  -0.000418  -0.000421  -0.034266
    13  O    0.000000   0.000000  -0.000001   0.000017  -0.000087   0.002818
    14  H    0.431056   0.049454  -0.089580  -0.000019  -0.005349   0.000220
    15  H    0.450984  -0.115389   0.045694  -0.011832   0.000455  -0.000572
    16  H    0.450985  -0.115383   0.045688  -0.011831   0.000454  -0.000572
    17  H   -0.045066   0.444257  -0.029144  -0.016695  -0.011151  -0.001465
    18  H   -0.010387  -0.033852   0.445361  -0.090639   0.016824   0.004640
    19  H   -0.003558  -0.005871  -0.011036   0.331162  -0.009496   0.030766
    20  H   -0.003560  -0.005876  -0.011040   0.331156  -0.009495   0.030781
    21  H   -0.000040  -0.003377  -0.007780  -0.009096   0.341318   0.011747
    22  H   -0.000041  -0.003381  -0.007783  -0.009106   0.341317   0.011758
    23  H    0.000074   0.001612   0.001589  -0.001080   0.017683   0.315179
    24  H    0.000074   0.001611   0.001588  -0.001088   0.017680   0.315184
    25  H    0.000016   0.000338   0.002005   0.003491   0.013475  -0.027690
    26  H    0.000016   0.000338   0.002005   0.003490   0.013472  -0.027689
    27  H    0.000001   0.000055   0.000107   0.005208   0.004864   0.050640
    28  H    0.000001   0.000055   0.000107   0.005210   0.004866   0.050650
    29  H   -0.000000  -0.000000  -0.000002  -0.000042  -0.000161  -0.001921
    30  H   -0.000000  -0.000000  -0.000002  -0.000042  -0.000160  -0.001920
    31  H    0.000000   0.000000   0.000000   0.000012   0.000076   0.000872
               7          8          9         10         11         12
     1  C   -0.003354  -0.003260  -0.000002  -0.000037   0.000000  -0.000000
     2  C   -0.047833  -0.018559  -0.000100  -0.000560   0.000010  -0.000001
     3  C   -0.087859   0.000209  -0.000589   0.001921  -0.000010   0.000004
     4  C   -0.079192  -0.550081  -0.009270  -0.052170   0.001975  -0.000418
     5  C   -0.136001  -0.188430  -0.056023  -0.040036   0.009699  -0.000421
     6  C    0.374723  -0.608034  -0.183894  -0.567820   0.088977  -0.034266
     7  C    5.308543   0.165274  -0.071941  -0.091635   0.037229  -0.007396
     8  C    0.165274   6.614803  -0.284084  -0.361304   0.494066  -0.410150
     9  O   -0.071941  -0.284084   9.947473   0.295801  -0.364081   0.034297
    10  C   -0.091635  -0.361304   0.295801   5.725767  -0.548443   0.266114
    11  N    0.037229   0.494066  -0.364081  -0.548443   9.103002  -2.312436
    12  N   -0.007396  -0.410150   0.034297   0.266114  -2.312436  10.534509
    13  O    0.005097   0.064322  -0.019843   0.072116   0.040253  -1.451374
    14  H   -0.000023   0.000002  -0.000000   0.000000  -0.000000  -0.000000
    15  H   -0.000012  -0.000005   0.000000  -0.000000   0.000000  -0.000000
    16  H   -0.000012  -0.000005   0.000000  -0.000000   0.000000  -0.000000
    17  H   -0.000254  -0.000047   0.000000  -0.000000  -0.000000  -0.000000
    18  H    0.000895  -0.000005  -0.000000  -0.000001  -0.000000  -0.000000
    19  H    0.001631   0.004824  -0.000006   0.000051  -0.000000   0.000000
    20  H    0.001632   0.004826  -0.000006   0.000051  -0.000000   0.000000
    21  H    0.006407   0.007965  -0.000139   0.000454  -0.000009  -0.000000
    22  H    0.006411   0.007967  -0.000139   0.000454  -0.000009  -0.000000
    23  H    0.005338   0.007266  -0.001411   0.001552  -0.000063  -0.000001
    24  H    0.005341   0.007272  -0.001411   0.001552  -0.000063  -0.000001
    25  H    0.348992   0.030963  -0.021707   0.004110  -0.001465  -0.000076
    26  H    0.348994   0.030965  -0.021707   0.004110  -0.001465  -0.000076
    27  H   -0.041201   0.405108  -0.071216  -0.018120  -0.001856  -0.000436
    28  H   -0.041203   0.405099  -0.071216  -0.018125  -0.001855  -0.000436
    29  H   -0.003235   0.015736  -0.066125   0.448778  -0.082948   0.021719
    30  H   -0.003234   0.015737  -0.066125   0.448773  -0.082948   0.021719
    31  H    0.002883  -0.004699  -0.010761  -0.021784   0.415343  -0.021995
              13         14         15         16         17         18
     1  C    0.000000   0.431056   0.450984   0.450985  -0.045066  -0.010387
     2  C    0.000000   0.049454  -0.115389  -0.115383   0.444257  -0.033852
     3  C   -0.000001  -0.089580   0.045694   0.045688  -0.029144   0.445361
     4  C    0.000017  -0.000019  -0.011832  -0.011831  -0.016695  -0.090639
     5  C   -0.000087  -0.005349   0.000455   0.000454  -0.011151   0.016824
     6  C    0.002818   0.000220  -0.000572  -0.000572  -0.001465   0.004640
     7  C    0.005097  -0.000023  -0.000012  -0.000012  -0.000254   0.000895
     8  C    0.064322   0.000002  -0.000005  -0.000005  -0.000047  -0.000005
     9  O   -0.019843  -0.000000   0.000000   0.000000   0.000000  -0.000000
    10  C    0.072116   0.000000  -0.000000  -0.000000  -0.000000  -0.000001
    11  N    0.040253  -0.000000   0.000000   0.000000  -0.000000  -0.000000
    12  N   -1.451374  -0.000000  -0.000000  -0.000000  -0.000000  -0.000000
    13  O   10.302956  -0.000000   0.000000   0.000000   0.000000   0.000000
    14  H   -0.000000   0.526921  -0.018948  -0.018948  -0.006278  -0.000006
    15  H    0.000000  -0.018948   0.531049  -0.020632   0.001975   0.000773
    16  H    0.000000  -0.018948  -0.020632   0.531049   0.001975   0.000773
    17  H    0.000000  -0.006278   0.001975   0.001975   0.532090   0.003828
    18  H    0.000000  -0.000006   0.000773   0.000773   0.003828   0.529994
    19  H   -0.000000   0.000003   0.000027  -0.000014   0.000921   0.002308
    20  H   -0.000000   0.000003  -0.000014   0.000027   0.000921   0.002308
    21  H   -0.000000  -0.000000   0.000001  -0.000001   0.000008   0.001002
    22  H   -0.000000  -0.000000  -0.000001   0.000001   0.000008   0.001002
    23  H   -0.000000   0.000000  -0.000000  -0.000000  -0.000000   0.000001
    24  H   -0.000000   0.000000  -0.000000  -0.000000  -0.000000   0.000001
    25  H   -0.000003   0.000000  -0.000000   0.000000  -0.000000  -0.000000
    26  H   -0.000003   0.000000   0.000000  -0.000000  -0.000000  -0.000000
    27  H    0.000006   0.000000   0.000000  -0.000000  -0.000000  -0.000000
    28  H    0.000006   0.000000  -0.000000   0.000000  -0.000000  -0.000000
    29  H   -0.001577  -0.000000   0.000000  -0.000000   0.000000   0.000000
    30  H   -0.001577  -0.000000  -0.000000   0.000000   0.000000   0.000000
    31  H    0.002902   0.000000   0.000000   0.000000   0.000000  -0.000000
              19         20         21         22         23         24
     1  C   -0.003558  -0.003560  -0.000040  -0.000041   0.000074   0.000074
     2  C   -0.005871  -0.005876  -0.003377  -0.003381   0.001612   0.001611
     3  C   -0.011036  -0.011040  -0.007780  -0.007783   0.001589   0.001588
     4  C    0.331162   0.331156  -0.009096  -0.009106  -0.001080  -0.001088
     5  C   -0.009496  -0.009495   0.341318   0.341317   0.017683   0.017680
     6  C    0.030766   0.030781   0.011747   0.011758   0.315179   0.315184
     7  C    0.001631   0.001632   0.006407   0.006411   0.005338   0.005341
     8  C    0.004824   0.004826   0.007965   0.007967   0.007266   0.007272
     9  O   -0.000006  -0.000006  -0.000139  -0.000139  -0.001411  -0.001411
    10  C    0.000051   0.000051   0.000454   0.000454   0.001552   0.001552
    11  N   -0.000000  -0.000000  -0.000009  -0.000009  -0.000063  -0.000063
    12  N    0.000000   0.000000  -0.000000  -0.000000  -0.000001  -0.000001
    13  O   -0.000000  -0.000000  -0.000000  -0.000000  -0.000000  -0.000000
    14  H    0.000003   0.000003  -0.000000  -0.000000   0.000000   0.000000
    15  H    0.000027  -0.000014   0.000001  -0.000001  -0.000000  -0.000000
    16  H   -0.000014   0.000027  -0.000001   0.000001  -0.000000  -0.000000
    17  H    0.000921   0.000921   0.000008   0.000008  -0.000000  -0.000000
    18  H    0.002308   0.002308   0.001002   0.001002   0.000001   0.000001
    19  H    0.563913  -0.017137   0.003221  -0.003015   0.001954  -0.000017
    20  H   -0.017137   0.563912  -0.003015   0.003221  -0.000017   0.001954
    21  H    0.003221  -0.003015   0.558777  -0.018001   0.003120  -0.002876
    22  H   -0.003015   0.003221  -0.018001   0.558778  -0.002876   0.003120
    23  H    0.001954  -0.000017   0.003120  -0.002876   0.563016  -0.017877
    24  H   -0.000017   0.001954  -0.002876   0.003120  -0.017877   0.563016
    25  H    0.000003   0.000012   0.001663  -0.000007   0.003083  -0.002617
    26  H    0.000012   0.000003  -0.000007   0.001663  -0.002617   0.003083
    27  H    0.000000   0.000000   0.000004   0.000012   0.001459   0.000156
    28  H    0.000000   0.000000   0.000012   0.000004   0.000156   0.001459
    29  H    0.000000  -0.000000  -0.000000  -0.000000  -0.000001   0.000001
    30  H   -0.000000   0.000000  -0.000000  -0.000000   0.000001  -0.000001
    31  H   -0.000000  -0.000000   0.000000   0.000000  -0.000000  -0.000000
              25         26         27         28         29         30
     1  C    0.000016   0.000016   0.000001   0.000001  -0.000000  -0.000000
     2  C    0.000338   0.000338   0.000055   0.000055  -0.000000  -0.000000
     3  C    0.002005   0.002005   0.000107   0.000107  -0.000002  -0.000002
     4  C    0.003491   0.003490   0.005208   0.005210  -0.000042  -0.000042
     5  C    0.013475   0.013472   0.004864   0.004866  -0.000161  -0.000160
     6  C   -0.027690  -0.027689   0.050640   0.050650  -0.001921  -0.001920
     7  C    0.348992   0.348994  -0.041201  -0.041203  -0.003235  -0.003234
     8  C    0.030963   0.030965   0.405108   0.405099   0.015736   0.015737
     9  O   -0.021707  -0.021707  -0.071216  -0.071216  -0.066125  -0.066125
    10  C    0.004110   0.004110  -0.018120  -0.018125   0.448778   0.448773
    11  N   -0.001465  -0.001465  -0.001856  -0.001855  -0.082948  -0.082948
    12  N   -0.000076  -0.000076  -0.000436  -0.000436   0.021719   0.021719
    13  O   -0.000003  -0.000003   0.000006   0.000006  -0.001577  -0.001577
    14  H    0.000000   0.000000   0.000000   0.000000  -0.000000  -0.000000
    15  H   -0.000000   0.000000   0.000000  -0.000000   0.000000  -0.000000
    16  H    0.000000  -0.000000  -0.000000   0.000000  -0.000000   0.000000
    17  H   -0.000000  -0.000000  -0.000000  -0.000000   0.000000   0.000000
    18  H   -0.000000  -0.000000  -0.000000  -0.000000   0.000000   0.000000
    19  H    0.000003   0.000012   0.000000   0.000000   0.000000  -0.000000
    20  H    0.000012   0.000003   0.000000   0.000000  -0.000000   0.000000
    21  H    0.001663  -0.000007   0.000004   0.000012  -0.000000  -0.000000
    22  H   -0.000007   0.001663   0.000012   0.000004  -0.000000  -0.000000
    23  H    0.003083  -0.002617   0.001459   0.000156  -0.000001   0.000001
    24  H   -0.002617   0.003083   0.000156   0.001459   0.000001  -0.000001
    25  H    0.544949  -0.016085   0.002864  -0.002012  -0.000004   0.000041
    26  H   -0.016085   0.544949  -0.002012   0.002864   0.000041  -0.000004
    27  H    0.002864  -0.002012   0.572304  -0.024523   0.006479  -0.001050
    28  H   -0.002012   0.002864  -0.024523   0.572304  -0.001050   0.006479
    29  H   -0.000004   0.000041   0.006479  -0.001050   0.576538  -0.031296
    30  H    0.000041  -0.000004  -0.001050   0.006479  -0.031296   0.576538
    31  H   -0.000004  -0.000004   0.000001   0.000001   0.000932   0.000932
              31
     1  C    0.000000
     2  C    0.000000
     3  C    0.000000
     4  C    0.000012
     5  C    0.000076
     6  C    0.000872
     7  C    0.002883
     8  C   -0.004699
     9  O   -0.010761
    10  C   -0.021784
    11  N    0.415343
    12  N   -0.021995
    13  O    0.002902
    14  H    0.000000
    15  H    0.000000
    16  H    0.000000
    17  H    0.000000
    18  H   -0.000000
    19  H   -0.000000
    20  H   -0.000000
    21  H    0.000000
    22  H    0.000000
    23  H   -0.000000
    24  H   -0.000000
    25  H   -0.000004
    26  H   -0.000004
    27  H    0.000001
    28  H    0.000001
    29  H    0.000932
    30  H    0.000932
    31  H    0.424359
 Mulliken charges:
               1
     1  C   -0.471901
     2  C    0.058476
     3  C   -0.181106
     4  C   -0.052253
     5  C   -0.596901
     6  C   -0.138662
     7  C   -0.005008
     8  C    0.146261
     9  O   -0.955772
    10  C    0.448431
    11  N    0.207098
    12  N    0.361120
    13  O   -1.016029
    14  H    0.131493
    15  H    0.136449
    16  H    0.136449
    17  H    0.124117
    18  H    0.125183
    19  H    0.109352
    20  H    0.109352
    21  H    0.108645
    22  H    0.108645
    23  H    0.102862
    24  H    0.102862
    25  H    0.115665
    26  H    0.115665
    27  H    0.111147
    28  H    0.111147
    29  H    0.118139
    30  H    0.118139
    31  H    0.210934
 Sum of Mulliken charges =  -0.00000
 Mulliken charges with hydrogens summed into heavy atoms:
               1
     1  C   -0.067510
     2  C    0.182593
     3  C   -0.055923
     4  C    0.166450
     5  C   -0.379611
     6  C    0.067062
     7  C    0.226323
     8  C    0.368555
     9  O   -0.955772
    10  C    0.684709
    11  N    0.418032
    12  N    0.361120
    13  O   -1.016029
 Electronic spatial extent (au):  <R**2>=           7963.1561
 Charge=             -0.0000 electrons
 Dipole moment (field-independent basis, Debye):
    X=              5.1223    Y=              1.4971    Z=             -0.0000  Tot=              5.3366
 Quadrupole moment (field-independent basis, Debye-Ang):
   XX=           -126.1592   YY=            -80.4508   ZZ=            -81.6882
   XY=             -6.2651   XZ=              0.0000   YZ=              0.0001
 Traceless Quadrupole moment (field-independent basis, Debye-Ang):
   XX=            -30.0598   YY=             15.6486   ZZ=             14.4112
   XY=             -6.2651   XZ=              0.0000   YZ=              0.0001
 Octapole moment (field-independent basis, Debye-Ang**2):
  XXX=            352.2112  YYY=             -5.5092  ZZZ=             -0.0000  XYY=            -12.9905
  XXY=             40.1473  XXZ=              0.0003  XZZ=            -27.6694  YZZ=             -0.2822
  YYZ=              0.0000  XYZ=              0.0003
 Hexadecapole moment (field-independent basis, Debye-Ang**3):
 XXXX=         -12903.5501 YYYY=           -324.9633 ZZZZ=           -137.9369 XXXY=           -229.0647
 XXXZ=              0.0037 YYYX=             29.6608 YYYZ=              0.0000 ZZZX=             -0.0004
 ZZZY=              0.0000 XXYY=          -1767.2554 XXZZ=          -1738.8207 YYZZ=            -72.7690
 XXYZ=              0.0017 YYXZ=              0.0002 ZZXY=              3.0292
 N-N= 7.245747658636D+02 E-N=-2.876442731613D+03  KE= 6.086813903350D+02
 PrsmSu:  requested number of processors reduced to:  12 ShMem   1 Linda.
 Calling FoFJK, ICntrl=  10005127 FMM=F ISym2X=0 I1Cent= 0 IOpClX= 0 NMat=1 NMatS=1 NMatT=0.
 ***** Axes restored to original set *****
 -------------------------------------------------------------------
 Center     Atomic                   Forces (Hartrees/Bohr)
 Number     Number              X              Y              Z
[...]
 RMS     Force            0.006770     0.000300     NO 
 Maximum Displacement     0.338369     0.001800     NO 
 RMS     Displacement     0.030561     0.001200     NO 
 Predicted change in Energy=-5.105043D-03
 GradGradGradGradGradGradGradGradGradGradGradGradGradGradGradGradGradGrad

                          Input orientation:                          
 ---------------------------------------------------------------------
 Center     Atomic      Atomic             Coordinates (Angstroms)
 Number     Number       Type             X           Y           Z
 ---------------------------------------------------------------------
      1          6           0        0.810830    0.052225   -0.017030
      2          6           0        2.322180    0.047826   -0.024539
      3          6           0        3.094307    0.598160    0.914102
      4          6           0        4.608791    0.598400    0.914503
      5          6           0        5.211926    1.311315    2.130526
      6          6           0        6.743058    1.313900    2.134933
      7          6           0        7.339061    2.027713    3.352489
      8          6           0        8.859898    2.023030    3.344508
      9          8           0        9.327726    2.702683    4.503805
     10          6           0       10.721902    2.754170    4.591648
     11          7           0       10.990376    3.470612    5.813702
     12          7           0       12.273252    3.688353    6.185129
     13          8           0       12.523065    4.312031    7.248948
     14          1           0        0.408328   -0.461373   -0.893018
     15          1           0        0.408673    1.070661   -0.022337
     16          1           0        0.408676   -0.449776    0.869106
     17          1           0        2.801483   -0.447135   -0.868739
     18          1           0        2.616467    1.094252    1.760234
     19          1           0        4.980881    1.076000   -0.000886
     20          1           0        4.980885   -0.433646    0.884169
     21          1           0        4.846690    0.832558    3.048072
     22          1           0        4.846688    2.345808    2.160903
     23          1           0        7.105753    1.792018    1.215603
     24          1           0        7.105753    0.278162    2.103126
     25          1           0        6.992238    1.549539    4.275242
     26          1           0        6.992240    3.066466    3.385919
     27          1           0        9.244649    2.523262    2.442434
     28          1           0        9.244644    0.991546    3.340426
     29          1           0       11.161807    3.287352    3.731069
     30          1           0       11.161793    1.742800    4.636585
     31          1           0       10.231600    3.808177    6.389468
 ---------------------------------------------------------------------
                    Distance matrix (angstroms):
                    1          2          3          4          5
     1  C    0.000000
     2  C    1.511375   0.000000
     3  C    2.525731   1.334202   0.000000
     4  C    3.948489   2.532493   1.514484   0.000000
     5  C    5.056378   3.819862   2.544128   1.533210   0.000000
     6  C    6.435378   5.080396   3.913578   2.560564   1.531140
     7  C    7.607497   6.363440   5.099734   3.929515   2.555606
     8  C    8.942679   7.615357   6.417100   5.099648   3.909986
     9  O   10.000020   8.753962   7.494698   6.291220   4.950572
    10  C   11.259208   9.959358   8.738016   7.452441   6.204739
    11  N   12.219082  10.997188   9.726509   8.542622   7.184625
    12  N   13.530534  12.281582  11.026607   9.801596   8.482479
    13  O   14.426255  13.234240  11.950924  10.795925   9.415694
    14  H    1.092312   2.162491   3.406285   4.694053   5.946327
    15  H    1.094975   2.169725   2.883193   4.329167   5.269153
    16  H    1.094975   2.169725   2.883194   4.329168   5.269140
    17  H    2.222042   1.089675   2.087321   2.745807   4.230600
    18  H    2.739491   2.089743   1.091044   2.220469   2.630711
    19  H    4.293915   2.850683   2.150511   1.097493   2.156774
    20  H    4.293901   2.850663   2.150511   1.097493   2.156774
    21  H    5.127566   4.053380   2.771212   2.159524   1.097496
    22  H    5.127579   4.053396   2.771213   2.159524   1.097496
    23  H    6.646226   5.240489   4.196177   2.783919   2.157485
    24  H    6.646215   5.240476   4.196174   2.783918   2.157484
    25  H    7.673028   6.523244   5.234143   4.228482   2.797511
    26  H    7.673040   6.523257   5.234147   4.228485   2.797514
    27  H    9.126023   7.754633   6.623332   5.246986   4.222435
    28  H    9.126010   7.754618   6.623326   5.246980   4.222431
    29  H   11.474189  10.135982   8.958327   7.622699   6.470513
    30  H   11.474171  10.135964   8.958315   7.622689   6.470504
    31  H   11.995887  10.855352   9.551167   8.479027   7.040599
                    6          7          8          9         10
     6  C    0.000000
     7  C    1.532055   0.000000
     8  C    2.539085   1.520865   0.000000
     9  O    3.771045   2.394974   1.422941   0.000000
    10  C    4.892957   3.675169   2.357325   1.397889   0.000000
    11  N    6.018676   4.633749   3.568102   2.251655   1.441799
    12  N    7.254321   5.926873   4.742723   3.531929   2.412171
    13  O    8.279518   6.875638   5.822626   4.509546   3.568243
    14  H    7.242160   8.500291   9.775373  10.894614  12.115737
    15  H    6.696074   7.767604   9.146904  10.134049  11.423036
    16  H    6.696063   7.767585   9.146886  10.134026  11.423013
    17  H    5.259211   6.673324   7.781873   9.020944  10.138896
    18  H    4.149385   5.070456   6.507917   7.426657   8.744731
    19  H    2.779134   4.208550   5.209155   6.467874   7.541017
    20  H    2.779133   4.208549   5.209152   6.467870   7.541011
    21  H    2.159103   2.780824   4.196539   5.069143   6.371291
    22  H    2.159103   2.780825   4.196542   5.069147   6.371297
    23  H    1.097867   2.162468   2.768146   4.071701   5.039837
    24  H    1.097867   2.162467   2.768143   4.071697   5.039830
    25  H    2.167612   1.095632   2.139770   2.614667   3.932130
    26  H    2.167613   1.095632   2.139771   2.614670   3.932135
    27  H    2.795546   2.169110   1.100910   2.070832   2.618151
    28  H    2.795543   2.169109   1.100910   2.070831   2.618146
    29  H    5.095833   4.042697   2.654567   2.074322   1.103809
    30  H    5.095825   4.042692   2.654564   2.074321   1.103809
    31  H    6.040895   4.556323   3.786832   2.365340   2.140907
                   11         12         13         14         15
    11  N    0.000000
    12  N    1.353197   0.000000
    13  O    2.262090   1.258209   0.000000
    14  H   13.130893  14.425562  15.357208   0.000000
    15  H   12.320371  13.643797  14.496087   1.762162   0.000000
    16  H   12.320343  13.643767  14.496055   1.762162   1.762498
    17  H   11.272166  12.512942  13.529806   2.393321   2.957303
    18  H    9.602086  10.934467  11.773732   3.786237   2.837687
    19  H    8.698140   9.913115  10.950640   4.905880   4.572262
    20  H    8.698132   9.913106  10.950632   4.905858   4.897940
    21  H    7.235532   8.552808   9.417050   6.074990   5.401860
    22  H    7.235540   8.552818   9.417059   6.075009   5.107691
    23  H    6.249040   7.415884   8.491112   7.374249   6.848629
    24  H    6.249032   7.415875   8.491104   7.374232   7.070822
    25  H    4.694943   6.009269   6.860345   8.608284   7.876664
    26  H    4.694950   6.009277   6.860353   8.608302   7.677422
    27  H    3.912861   4.953548   6.086894   9.905245   9.287606
    28  H    3.912856   4.953541   6.086888   9.905226   9.454566
    29  H    2.097697   2.723697   3.908767  12.291153  11.603089
    30  H    2.097696   2.723695   3.908766  12.291131  11.738267
    31  H    1.010543   2.055348   2.498676  12.952233  12.045544
                   16         17         18         19         20
    16  H    0.000000
    17  H    2.957302   0.000000
    18  H    2.837687   3.053130   0.000000
    19  H    4.897952   2.796942   2.948276   0.000000
    20  H    4.572262   2.796902   2.948293   1.749958   0.000000
    21  H    5.107664   4.600205   2.588611   3.061604   2.510728
    22  H    5.401849   4.600230   2.588593   2.510727   3.061604
    23  H    7.070823   5.280627   4.575717   2.551001   3.094914
    24  H    6.848616   5.280604   4.575726   3.094914   2.550998
    25  H    7.677389   6.928901   5.067537   4.749218   4.413382
    26  H    7.876650   6.928921   5.067532   4.413385   4.749219
    27  H    9.454562   7.829528   6.814710   5.122900   5.417673
    28  H    9.287581   7.829508   6.814711   5.417672   5.122891
    29  H   11.738261  10.246933   9.039730   7.551252   7.755931
    30  H   11.603051  10.246911   9.039724   7.755928   7.551235
    31  H   12.045514  11.224789   9.315871   8.710423   8.710418
                   21         22         23         24         25
    21  H    0.000000
    22  H    1.754137   0.000000
    23  H    3.062985   2.510707   0.000000
    24  H    2.510706   3.062984   1.754838   0.000000
    25  H    2.573594   3.115744   3.071331   2.519399   0.000000
    26  H    3.115746   2.573599   2.519400   3.071332   1.758398
    27  H    4.750508   4.410535   2.571908   3.119372   3.062790
    28  H    4.410527   4.750507   3.119372   2.571902   2.501713
    29  H    6.809788   6.575155   5.001517   5.306316   4.549882
    30  H    6.575138   6.809785   5.306317   5.001503   4.189643
    31  H    7.001179   7.001184   6.372182   6.372178   4.479382
                   26         27         28         29         30
    26  H    0.000000
    27  H    2.501715   0.000000
    28  H    3.062790   1.775540   0.000000
    29  H    4.189655   2.433086   3.016428   0.000000
    30  H    4.549882   3.016431   2.433078   1.790419   0.000000
    31  H    4.479385   4.266633   4.266632   2.864197   2.864200
                   31
    31  H    0.000000
 Stoichiometry    C9H18N2O2
 Framework group  C1[X(C9H18N2O2)]
 Deg. of freedom    87
 Full point group                 C1      NOp   1
 Largest Abelian subgroup         C1      NOp   1
 Largest concise Abelian subgroup C1      NOp   1
                         Standard orientation:                         
 ---------------------------------------------------------------------
 Center     Atomic      Atomic             Coordinates (Angstroms)
 Number     Number       Type             X           Y           Z
 ---------------------------------------------------------------------
      1          6           0        7.387775   -0.737784    0.000019
      2          6           0        6.158701    0.141779    0.000026
      3          6           0        4.900103   -0.300969   -0.000013
      4          6           0        3.663176    0.572916   -0.000008
      5          6           0        2.356966   -0.229922   -0.000018
      6          6           0        1.103767    0.649782   -0.000010
      7          6           0       -0.197645   -0.158623   -0.000019
      8          6           0       -1.434147    0.726867   -0.000006
      9          8           0       -2.591911   -0.100385   -0.000011
     10          6           0       -3.789107    0.621290    0.000006
     11          7           0       -4.826081   -0.380443    0.000002
     12          7           0       -6.122159    0.008560    0.000019
     13          8           0       -7.038011   -0.854171    0.000012
     14          1           0        8.302628   -0.140968    0.000057
     15          1           0        7.421458   -1.386782   -0.881251
     16          1           0        7.421425   -1.386842    0.881247
     17          1           0        6.332241    1.217546    0.000068
     18          1           0        4.724075   -1.377720   -0.000053
     19          1           0        3.675766    1.235302   -0.874980
     20          1           0        3.675762    1.235285    0.874978
     21          1           0        2.338044   -0.889394    0.877043
     22          1           0        2.338046   -0.889375   -0.877094
     23          1           0        1.125840    1.309308   -0.877422
     24          1           0        1.125839    1.309288    0.877416
     25          1           0       -0.234366   -0.811374    0.879173
     26          1           0       -0.234368   -0.811354   -0.879225
     27          1           0       -1.445135    1.377836   -0.887768
     28          1           0       -1.445129    1.377815    0.887772
     29          1           0       -3.875415    1.261260   -0.895194
     30          1           0       -3.875401    1.261236    0.895225
     31          1           0       -4.591785   -1.363450   -0.000020
 ---------------------------------------------------------------------
 Rotational constants (GHZ):           6.3859607           0.1284595           0.1266187
 Standard basis: 6-31+G(3df,2p) (6D, 7F)
 There are   677 symmetry adapted cartesian basis functions of A   symmetry.
 There are   638 symmetry adapted basis functions of A   symmetry.
   638 basis functions,   882 primitive gaussians,   677 cartesian basis functions
    51 alpha electrons       51 beta electrons
       nuclear repulsion energy       721.3844270009 Hartrees.
 NAtoms=   31 NActive=   31 NUniq=   31 SFac= 1.00D+00 NAtFMM=   60 NAOKFM=F Big=F
 Integral buffers will be    131072 words long.
 Regular integral format.
 Two-electron integral symmetry is turned on.
 One-electron integrals computed using PRISM.
 PrsmSu:  requested number of processors reduced to:  12 ShMem   1 Linda.
 NBasis=   638 RedAO= T EigKep=  5.09D-06  NBF=   638
 NBsUse=   638 1.00D-06 EigRej= -1.00D+00 NBFU=   638
 Initial guess from the checkpoint file:  "CCdCCCCCCOCNNdO.chk"
 B after Tr=    -0.000000    0.000000    0.000000
         Rot=    1.000000   -0.000002    0.000000    0.000393 Ang=  -0.05 deg.
 ExpMin= 4.38D-02 ExpMax= 5.48D+03 ExpMxC= 8.25D+02 IAcc=2 IRadAn=         4 AccDes= 0.00D+00
 Harris functional with IExCor=  402 and IRadAn=       4 diagonalized for initial guess.
 HarFok:  IExCor=  402 AccDes= 0.00D+00 IRadAn=         4 IDoV= 1 UseB2=F ITyADJ=14
 ICtDFT=  3500011 ScaDFX=  1.000000  1.000000  1.000000  1.000000
 FoFCou: FMM=F IPFlag=           0 FMFlag=      100000 FMFlg1=           0
         NFxFlg=           0 DoJE=T BraDBF=F KetDBF=T FulRan=T
         wScrn=  0.000000 ICntrl=       500 IOpCl=  0 I1Cent=   200000004 NGrid=           0
         NMat0=    1 NMatS0=      1 NMatT0=    0 NMatD0=    1 NMtDS0=    0 NMtDT0=    0
 Petite list used in FoFCou.
 Requested convergence on RMS density matrix=1.00D-08 within 128 cycles.
 Requested convergence on MAX density matrix=1.00D-06.
 Requested convergence on             energy=1.00D-06.
 No special actions if energy rises.
 SCF Done:  E(RB3LYP) =  -613.722759510     A.U. after   11 cycles
            NFock= 11  Conv=0.92D-08     -V/T= 2.0086
 DoSCS=F DFT=T ScalE2(SS,OS)=  1.000000  1.000000
 ExpMin= 4.38D-02 ExpMax= 5.48D+03 ExpMxC= 8.25D+02 IAcc=3 IRadAn=         5 AccDes= 0.00D+00
 HarFok:  IExCor=  205 AccDes= 0.00D+00 IRadAn=         5 IDoV=-2 UseB2=F ITyADJ=14
 ICtDFT= 12500011 ScaDFX=  1.000000  1.000000  1.000000  1.000000
 Range of M.O.s used for correlation:    14   638
 NBasis=   638 NAE=    51 NBE=    51 NFC=    13 NFV=     0
 NROrb=    625 NOA=    38 NOB=    38 NVA=   587 NVB=   587

 **** Warning!!: The largest alpha MO coefficient is  0.10041685D+03

 Orbital symmetries:
       Occupied  (A) (A) (A) (A) (A) (A) (A) (A) (A) (A) (A) (A)
                 (A) (A) (A) (A) (A) (A) (A) (A) (A) (A) (A) (A)
                 (A) (A) (A) (A) (A) (A) (A) (A) (A) (A) (A) (A)
                 (A) (A) (A) (A) (A) (A) (A) (A) (A) (A) (A) (A)
                 (A) (A) (A)
       Virtual   (A) (A) (A) (A) (A) (A) (A) (A) (A) (A) (A) (A)
                 (A) (A) (A) (A) (A) (A) (A) (A) (A) (A) (A) (A)
                 (A) (A) (A) (A) (A) (A) (A) (A) (A) (A) (A) (A)
                 (A) (A) (A) (A) (A) (A) (A) (A) (A) (A) (A) (A)
                 (A) (A) (A) (A) (A) (A) (A) (A) (A) (A) (A) (A)
                 (A) (A) (A) (A) (A) (A) (A) (A) (A) (A) (A) (A)
                 (A) (A) (A) (A) (A) (A) (A) (A) (A) (A) (A) (A)
                 (A) (A) (A) (A) (A) (A) (A) (A) (A) (A) (A) (A)
                 (A) (A) (A) (A) (A) (A) (A) (A) (A) (A) (A) (A)
                 (A) (A) (A) (A) (A) (A) (A) (A) (A) (A) (A) (A)
                 (A) (A) (A) (A) (A) (A) (A) (A) (A) (A) (A) (A)
                 (A) (A) (A) (A) (A) (A) (A) (A) (A) (A) (A) (A)
                 (A) (A) (A) (A) (A) (A) (A) (A) (A) (A) (A) (A)
                 (A) (A) (A) (A) (A) (A) (A) (A) (A) (A) (A) (A)
                 (A) (A) (A) (A) (A) (A) (A) (A) (A) (A) (A) (A)
                 (A) (A) (A) (A) (A) (A) (A) (A) (A) (A) (A) (A)
                 (A) (A) (A) (A) (A) (A) (A) (A) (A) (A) (A) (A)
                 (A) (A) (A) (A) (A) (A) (A) (A) (A) (A) (A) (A)
                 (A) (A) (A) (A) (A) (A) (A) (A) (A) (A) (A) (A)
                 (A) (A) (A) (A) (A) (A) (A) (A) (A) (A) (A) (A)
                 (A) (A) (A) (A) (A) (A) (A) (A) (A) (A) (A) (A)
                 (A) (A) (A) (A) (A) (A) (A) (A) (A) (A) (A) (A)
                 (A) (A) (A) (A) (A) (A) (A) (A) (A) (A) (A) (A)
                 (A) (A) (A) (A) (A) (A) (A) (A) (A) (A) (A) (A)
                 (A) (A) (A) (A) (A) (A) (A) (A) (A) (A) (A) (A)
                 (A) (A) (A) (A) (A) (A) (A) (A) (A) (A) (A) (A)
                 (A) (A) (A) (A) (A) (A) (A) (A) (A) (A) (A) (A)
                 (A) (A) (A) (A) (A) (A) (A) (A) (A) (A) (A) (A)
                 (A) (A) (A) (A) (A) (A) (A) (A) (A) (A) (A) (A)
                 (A) (A) (A) (A) (A) (A) (A) (A) (A) (A) (A) (A)
                 (A) (A) (A) (A) (A) (A) (A) (A) (A) (A) (A) (A)
                 (A) (A) (A) (A) (A) (A) (A) (A) (A) (A) (A) (A)
                 (A) (A) (A) (A) (A) (A) (A) (A) (A) (A) (A) (A)
                 (A) (A) (A) (A) (A) (A) (A) (A) (A) (A) (A) (A)
                 (A) (A) (A) (A) (A) (A) (A) (A) (A) (A) (A) (A)
                 (A) (A) (A) (A) (A) (A) (A) (A) (A) (A) (A) (A)
                 (A) (A) (A) (A) (A) (A) (A) (A) (A) (A) (A) (A)
                 (A) (A) (A) (A) (A) (A) (A) (A) (A) (A) (A) (A)
                 (A) (A) (A) (A) (A) (A) (A) (A) (A) (A) (A) (A)
                 (A) (A) (A) (A) (A) (A) (A) (A) (A) (A) (A) (A)
                 (A) (A) (A) (A) (A) (A) (A) (A) (A) (A) (A) (A)
                 (A) (A) (A) (A) (A) (A) (A) (A) (A) (A) (A) (A)
                 (A) (A) (A) (A) (A) (A) (A) (A) (A) (A) (A) (A)
                 (A) (A) (A) (A) (A) (A) (A) (A) (A) (A) (A) (A)
                 (A) (A) (A) (A) (A) (A) (A) (A) (A) (A) (A) (A)
                 (A) (A) (A) (A) (A) (A) (A) (A) (A) (A) (A) (A)
                 (A) (A) (A) (A) (A) (A) (A) (A) (A) (A) (A) (A)
                 (A) (A) (A) (A) (A) (A) (A) (A) (A) (A) (A) (A)
                 (A) (A) (A) (A) (A) (A) (A) (A) (A) (A) (A)
 Generating guess from densities on rwf.
 Convergence on wavefunction:    0.000001000000000
 Iteration     1 Dimension    20 NMult     0 NNew     20
 CISAX will form     2 AO SS matrices at one time.
 New state      4 was old state      5
 New state      5 was old state      6
 New state      6 was old state      8
 New state      7 was old state      4
 New state      8 was old state      9
 New state      9 was old state     10
 New state     10 was old state      7
 Iteration     2 Dimension    40 NMult    20 NNew     20
 New state      5 was old state      7
 New state      6 was old state      5
 New state      7 was old state     10
 New state      8 was old state      6
 New state      9 was old state      8
 New state     10 was old state      9
 Iteration     3 Dimension    60 NMult    40 NNew     20
slurmstepd: error: *** JOB 27484609 ON lewis4-r630-hpc4-node539 CANCELLED AT 2023-05-25T01:49:02 DUE TO TIME LIMIT ***
