### Starting Gaussian ###
 Entering Gaussian System, Link 0=g16
 Initial command:
 /cluster/software/gaussian/gaussian-16-A.03/avx2/g16/l1.exe "/local/scratch/ks29c/Gau-1602.inp" -scrdir="/local/scratch/ks29c/"
 Entering Link 1 = /cluster/software/gaussian/gaussian-16-A.03/avx2/g16/l1.exe PID=      1609.
  
 Copyright (c) 1988,1990,1992,1993,1995,1998,2003,2009,2016,
            Gaussian, Inc.  All Rights Reserved.
  
 This is part of the Gaussian(R) 16 program.  It is based on
 the Gaussian(R) 09 system (copyright 2009, Gaussian, Inc.),
 the Gaussian(R) 03 system (copyright 2003, Gaussian, Inc.),
 the Gaussian(R) 98 system (copyright 1998, Gaussian, Inc.),
 the Gaussian(R) 94 system (copyright 1995, Gaussian, Inc.),
 the Gaussian 92(TM) system (copyright 1992, Gaussian, Inc.),
 the Gaussian 90(TM) system (copyright 1990, Gaussian, Inc.),
 the Gaussian 88(TM) system (copyright 1988, Gaussian, Inc.),
 the Gaussian 86(TM) system (copyright 1986, Carnegie Mellon
 University), and the Gaussian 82(TM) system (copyright 1983,
 Carnegie Mellon University). Gaussian is a federally registered
 trademark of Gaussian, Inc.
  
 This software contains proprietary and confidential information,
 including trade secrets, belonging to Gaussian, Inc.
  
 This software is provided under written license and may be
 used, copied, transmitted, or stored only in accord with that
 written license.
  
 The following legend is applicable only to US Government
 contracts under FAR:
  
                    RESTRICTED RIGHTS LEGEND
  
 Use, reproduction and disclosure by the US Government is
 subject to restrictions as set forth in subparagraphs (a)
 and (c) of the Commercial Computer Software - Restricted
 Rights clause in FAR 52.227-19.
  
 Gaussian, Inc.
 340 Quinnipiac St., Bldg. 40, Wallingford CT 06492
  
  
 ---------------------------------------------------------------
 Warning -- This program may not be used in any manner that
 competes with the business of Gaussian, Inc. or will provide
 assistance to any competitor of Gaussian, Inc.  The licensee
 of this program is prohibited from giving any competitor of
 Gaussian, Inc. access to this program.  By using this program,
 the user acknowledges that Gaussian, Inc. is engaged in the
 business of creating and licensing software in the field of
 computational chemistry and represents and warrants to the
 licensee that it is not a competitor of Gaussian, Inc. and that
 it will not use this program in any manner prohibited above.
 ---------------------------------------------------------------
  

 Cite this work as:
 Gaussian 16, Revision A.03,
 M. J. Frisch, G. W. Trucks, H. B. Schlegel, G. E. Scuseria, 
 M. A. Robb, J. R. Cheeseman, G. Scalmani, V. Barone, 
 G. A. Petersson, H. Nakatsuji, X. Li, M. Caricato, A. V. Marenich, 
 J. Bloino, B. G. Janesko, R. Gomperts, B. Mennucci, H. P. Hratchian, 
 J. V. Ortiz, A. F. Izmaylov, J. L. Sonnenberg, D. Williams-Young, 
 F. Ding, F. Lipparini, F. Egidi, J. Goings, B. Peng, A. Petrone, 
 T. Henderson, D. Ranasinghe, V. G. Zakrzewski, J. Gao, N. Rega, 
 G. Zheng, W. Liang, M. Hada, M. Ehara, K. Toyota, R. Fukuda, 
 J. Hasegawa, M. Ishida, T. Nakajima, Y. Honda, O. Kitao, H. Nakai, 
 T. Vreven, K. Throssell, J. A. Montgomery, Jr., J. E. Peralta, 
 F. Ogliaro, M. J. Bearpark, J. J. Heyd, E. N. Brothers, K. N. Kudin, 
 V. N. Staroverov, T. A. Keith, R. Kobayashi, J. Normand, 
 K. Raghavachari, A. P. Rendell, J. C. Burant, S. S. Iyengar, 
 J. Tomasi, M. Cossi, J. M. Millam, M. Klene, C. Adamo, R. Cammi, 
 J. W. Ochterski, R. L. Martin, K. Morokuma, O. Farkas, 
 J. B. Foresman, and D. J. Fox, Gaussian, Inc., Wallingford CT, 2016.
 
 ******************************************
 Gaussian 16:  ES64L-G16RevA.03 25-Dec-2016
                25-May-2023 
 ******************************************
 %chk=CCONqOrCqCrCNCCCCCCN.chk
 %NProcShared=20
 Will use up to   20 processors via shared memory.
 -----------------------------------------------------------------
 # opt freq b3lyp/6-31+g(3df,2p) Geom=AllCheckpoint TD(NStates=10)
 -----------------------------------------------------------------
 1/18=20,19=15,26=3,29=7,38=1/1,3;
 2/9=110,12=2,40=1/2;
 3/5=1,6=6,7=216,11=9,14=-4,25=1,30=1,71=1,74=-5/1,2,3,8;
 4//1;
 5/5=2,38=5/2;
 8/6=1,10=2,108=10/1;
 9/15=2,41=10,42=1,70=2/14;
 10/5=4/2;
 6/7=2,8=2,9=2,10=2/1;
 7/12=6,13=5/1,2,3,16;
 1/18=20,19=15,26=3/3(2);
 2/9=110/2;
 99//99;
 2/9=110/2;
 3/5=1,6=6,7=216,11=9,14=-2,25=1,30=1,71=1,74=-5/1,2,3,8;
 4/5=5,16=3,69=1/1;
 5/5=2,38=5/2;
 8/6=1,10=2,108=10/1;
 9/15=2,41=10,42=1,49=4,70=2/14;
 10/5=4/2;
 7/12=6,13=5/1,2,3,16;
 1/18=20,19=15,26=3/3(-8);
 2/9=110/2;
 6/7=2,8=2,9=2,10=2/1;
 99//99;
 Structure from the checkpoint file:  "CCONqOrCqCrCNCCCCCCN.chk"
 -------------------
 Title Card Required
 -------------------
 Charge =  0 Multiplicity = 1
 Redundant internal coordinates found in file.  (old form).
 C,0,0.7635575476,0.2876433572,0.0024217811
 C,0,2.2540089219,0.022718477,0.1304519678
 O,0,2.8954691582,1.2782973811,0.3191662919
 N,0,4.2883964822,1.0821218833,0.5160571467
 O,0,4.857596211,1.0901066647,-0.8065161494
 C,0,4.7540177934,2.334140122,1.1597461709
 C,0,4.0866817096,2.4628159254,2.5292507285
 C,0,6.2859951792,2.2801596381,1.2596716915
 N,0,6.8184488241,3.4785835525,1.896467973
 C,0,8.2709708821,3.5889651188,1.8015406293
 C,0,8.7796599879,4.835091439,2.5258920672
 C,0,10.2961606449,5.020628426,2.4148747997
 C,0,10.8115882038,6.2637526957,3.1482909941
 C,0,12.3266994661,6.4537049522,3.0300053151
 C,0,12.8413772761,7.689453002,3.7683204423
 N,0,14.289709642,7.8360379354,3.5856974005
 H,0,0.2276997725,-0.652449457,-0.1585089229
 H,0,0.5607366658,0.9512558054,-0.8427270167
 H,0,0.3727518592,0.7576960235,0.9094963773
 H,0,2.6391785964,-0.4553698986,-0.781394279
 H,0,2.4757868461,-0.6369469575,0.9798750149
 H,0,5.1677439121,0.1829821448,-0.9048108532
 H,0,4.4696147699,3.183218714,0.5239076848
 H,0,4.3818775232,1.636276484,3.1856124216
 H,0,3.0011545126,2.4560254137,2.4322807703
 H,0,4.3789531554,3.4066869845,2.9968766706
 H,0,6.6961627894,2.2268565458,0.248638955
 H,0,6.5773809839,1.3438256406,1.7738261699
 H,0,6.5584976376,3.4871126015,2.8776796692
 H,0,8.5338387082,3.6510077816,0.7369922193
 H,0,8.794532216,2.6955107094,2.1955894994
 H,0,8.4988728681,4.775433803,3.5878131243
 H,0,8.2608110486,5.7121875464,2.1202928737
 H,0,10.5780615699,5.0833865995,1.3548146174
 H,0,10.804358137,4.1300531857,2.8101891317
 H,0,10.5312163893,6.2005202671,4.2091417038
 H,0,10.3012606193,7.1535358146,2.754070978
 H,0,12.6187481689,6.5304762036,1.9756697381
 H,0,12.8366879759,5.5624611623,3.4245470945
 H,0,12.5279644353,7.6327580938,4.8266370433
 H,0,12.3616966143,8.5846422988,3.352239553
 H,0,14.7679628063,7.061394999,4.0383415309
 H,0,14.6140514888,8.6751809202,4.0572689803
 Recover connectivity data from disk.

 GradGradGradGradGradGradGradGradGradGradGradGradGradGradGradGradGradGrad
 Berny optimization.
 Initialization pass.
                           ----------------------------
                           !    Initial Parameters    !
                           ! (Angstroms and Degrees)  !
 --------------------------                            --------------------------
 ! Name  Definition              Value          Derivative Info.                !
 --------------------------------------------------------------------------------
 ! R1    R(1,2)                  1.5192         estimate D2E/DX2                !
 ! R2    R(1,17)                 1.094          estimate D2E/DX2                !
 ! R3    R(1,18)                 1.0935         estimate D2E/DX2                !
 ! R4    R(1,19)                 1.0938         estimate D2E/DX2                !
 ! R5    R(2,3)                  1.4225         estimate D2E/DX2                !
 ! R6    R(2,20)                 1.0993         estimate D2E/DX2                !
 ! R7    R(2,21)                 1.0981         estimate D2E/DX2                !
 ! R8    R(3,4)                  1.4204         estimate D2E/DX2                !
 ! R9    R(4,5)                  1.4399         estimate D2E/DX2                !
 ! R10   R(4,6)                  1.4828         estimate D2E/DX2                !
 ! R11   R(5,22)                 0.9637         estimate D2E/DX2                !
 ! R12   R(6,7)                  1.5289         estimate D2E/DX2                !
 ! R13   R(6,8)                  1.5362         estimate D2E/DX2                !
 ! R14   R(6,23)                 1.0982         estimate D2E/DX2                !
 ! R15   R(7,24)                 1.096          estimate D2E/DX2                !
 ! R16   R(7,25)                 1.0899         estimate D2E/DX2                !
 ! R17   R(7,26)                 1.0932         estimate D2E/DX2                !
 ! R18   R(8,9)                  1.4578         estimate D2E/DX2                !
 ! R19   R(8,27)                 1.0924         estimate D2E/DX2                !
 ! R20   R(8,28)                 1.1072         estimate D2E/DX2                !
 ! R21   R(9,10)                 1.4598         estimate D2E/DX2                !
 ! R22   R(9,29)                 1.0151         estimate D2E/DX2                !
 ! R23   R(10,11)                1.5285         estimate D2E/DX2                !
 ! R24   R(10,30)                1.0983         estimate D2E/DX2                !
 ! R25   R(10,31)                1.108          estimate D2E/DX2                !
 ! R26   R(11,12)                1.5318         estimate D2E/DX2                !
 ! R27   R(11,32)                1.1            estimate D2E/DX2                !
 ! R28   R(11,33)                1.0968         estimate D2E/DX2                !
 ! R29   R(12,13)                1.5326         estimate D2E/DX2                !
 ! R30   R(12,34)                1.0987         estimate D2E/DX2                !
 ! R31   R(12,35)                1.0989         estimate D2E/DX2                !
 ! R32   R(13,14)                1.5315         estimate D2E/DX2                !
 ! R33   R(13,36)                1.0991         estimate D2E/DX2                !
 ! R34   R(13,37)                1.0989         estimate D2E/DX2                !
 ! R35   R(14,15)                1.5287         estimate D2E/DX2                !
 ! R36   R(14,38)                1.0967         estimate D2E/DX2                !
 ! R37   R(14,39)                1.1            estimate D2E/DX2                !
 ! R38   R(15,16)                1.4671         estimate D2E/DX2                !
 ! R39   R(15,40)                1.1052         estimate D2E/DX2                !
 ! R40   R(15,41)                1.0975         estimate D2E/DX2                !
 ! R41   R(16,42)                1.0167         estimate D2E/DX2                !
 ! R42   R(16,43)                1.0157         estimate D2E/DX2                !
 ! A1    A(2,1,17)             110.0653         estimate D2E/DX2                !
 ! A2    A(2,1,18)             110.666          estimate D2E/DX2                !
 ! A3    A(2,1,19)             110.8283         estimate D2E/DX2                !
 ! A4    A(17,1,18)            108.4783         estimate D2E/DX2                !
 ! A5    A(17,1,19)            108.4371         estimate D2E/DX2                !
 ! A6    A(18,1,19)            108.292          estimate D2E/DX2                !
 ! A7    A(1,2,3)              107.437          estimate D2E/DX2                !
 ! A8    A(1,2,20)             110.4683         estimate D2E/DX2                !
 ! A9    A(1,2,21)             111.5973         estimate D2E/DX2                !
 ! A10   A(3,2,20)             109.6284         estimate D2E/DX2                !
 ! A11   A(3,2,21)             109.666          estimate D2E/DX2                !
 ! A12   A(20,2,21)            108.036          estimate D2E/DX2                !
 ! A13   A(2,3,4)              109.7976         estimate D2E/DX2                !
 ! A14   A(3,4,5)              105.045          estimate D2E/DX2                !
 ! A15   A(3,4,6)              104.5664         estimate D2E/DX2                !
 ! A16   A(5,4,6)              105.6596         estimate D2E/DX2                !
 ! A17   A(4,5,22)             102.456          estimate D2E/DX2                !
 ! A18   A(4,6,7)              108.8357         estimate D2E/DX2                !
 ! A19   A(4,6,8)              108.1631         estimate D2E/DX2                !
 ! A20   A(4,6,23)             108.6722         estimate D2E/DX2                !
 ! A21   A(7,6,8)              112.3328         estimate D2E/DX2                !
 ! A22   A(7,6,23)             109.908          estimate D2E/DX2                !
 ! A23   A(8,6,23)             108.8495         estimate D2E/DX2                !
 ! A24   A(6,7,24)             110.8195         estimate D2E/DX2                !
 ! A25   A(6,7,25)             110.7644         estimate D2E/DX2                !
 ! A26   A(6,7,26)             109.8254         estimate D2E/DX2                !
 ! A27   A(24,7,25)            108.4734         estimate D2E/DX2                !
 ! A28   A(24,7,26)            108.8428         estimate D2E/DX2                !
 ! A29   A(25,7,26)            108.0436         estimate D2E/DX2                !
 ! A30   A(6,8,9)              111.3317         estimate D2E/DX2                !
 ! A31   A(6,8,27)             108.4192         estimate D2E/DX2                !
 ! A32   A(6,8,28)             108.806          estimate D2E/DX2                !
 ! A33   A(9,8,27)             107.8943         estimate D2E/DX2                !
 ! A34   A(9,8,28)             113.3422         estimate D2E/DX2                !
 ! A35   A(27,8,28)            106.8402         estimate D2E/DX2                !
 ! A36   A(8,9,10)             113.4016         estimate D2E/DX2                !
 ! A37   A(8,9,29)             109.6095         estimate D2E/DX2                !
 ! A38   A(10,9,29)            108.4834         estimate D2E/DX2                !
 ! A39   A(9,10,11)            111.2215         estimate D2E/DX2                !
 ! A40   A(9,10,30)            107.7855         estimate D2E/DX2                !
 ! A41   A(9,10,31)            112.7105         estimate D2E/DX2                !
 ! A42   A(11,10,30)           109.4896         estimate D2E/DX2                !
 ! A43   A(11,10,31)           109.3664         estimate D2E/DX2                !
 ! A44   A(30,10,31)           106.0916         estimate D2E/DX2                !
 ! A45   A(10,11,12)           113.1957         estimate D2E/DX2                !
 ! A46   A(10,11,32)           109.1667         estimate D2E/DX2                !
 ! A47   A(10,11,33)           108.6186         estimate D2E/DX2                !
 ! A48   A(12,11,32)           109.222          estimate D2E/DX2                !
 ! A49   A(12,11,33)           110.1608         estimate D2E/DX2                !
 ! A50   A(32,11,33)           106.2366         estimate D2E/DX2                !
 ! A51   A(11,12,13)           113.3595         estimate D2E/DX2                !
 ! A52   A(11,12,34)           109.3205         estimate D2E/DX2                !
 ! A53   A(11,12,35)           109.4867         estimate D2E/DX2                !
 ! A54   A(13,12,34)           109.2136         estimate D2E/DX2                !
 ! A55   A(13,12,35)           109.248          estimate D2E/DX2                !
 ! A56   A(34,12,35)           105.9448         estimate D2E/DX2                !
 ! A57   A(12,13,14)           113.3493         estimate D2E/DX2                !
 ! A58   A(12,13,36)           109.2344         estimate D2E/DX2                !
 ! A59   A(12,13,37)           109.2028         estimate D2E/DX2                !
 ! A60   A(14,13,36)           109.514          estimate D2E/DX2                !
 ! A61   A(14,13,37)           109.3469         estimate D2E/DX2                !
 ! A62   A(36,13,37)           105.925          estimate D2E/DX2                !
 ! A63   A(13,14,15)           113.3289         estimate D2E/DX2                !
 ! A64   A(13,14,38)           110.265          estimate D2E/DX2                !
 ! A65   A(13,14,39)           109.2962         estimate D2E/DX2                !
 ! A66   A(15,14,38)           108.5451         estimate D2E/DX2                !
 ! A67   A(15,14,39)           109.0028         estimate D2E/DX2                !
 ! A68   A(38,14,39)           106.1444         estimate D2E/DX2                !
 ! A69   A(14,15,16)           110.6707         estimate D2E/DX2                !
 ! A70   A(14,15,40)           108.9975         estimate D2E/DX2                !
 ! A71   A(14,15,41)           109.213          estimate D2E/DX2                !
 ! A72   A(16,15,40)           113.845          estimate D2E/DX2                !
 ! A73   A(16,15,41)           107.624          estimate D2E/DX2                !
 ! A74   A(40,15,41)           106.3153         estimate D2E/DX2                !
 ! A75   A(15,16,42)           109.4402         estimate D2E/DX2                !
 ! A76   A(15,16,43)           109.8752         estimate D2E/DX2                !
 ! A77   A(42,16,43)           105.816          estimate D2E/DX2                !
 ! D1    D(17,1,2,3)           179.2328         estimate D2E/DX2                !
 ! D2    D(17,1,2,20)           59.6909         estimate D2E/DX2                !
 ! D3    D(17,1,2,21)          -60.5207         estimate D2E/DX2                !
 ! D4    D(18,1,2,3)            59.3383         estimate D2E/DX2                !
 ! D5    D(18,1,2,20)          -60.2037         estimate D2E/DX2                !
 ! D6    D(18,1,2,21)          179.5848         estimate D2E/DX2                !
 ! D7    D(19,1,2,3)           -60.8202         estimate D2E/DX2                !
 ! D8    D(19,1,2,20)          179.6378         estimate D2E/DX2                !
 ! D9    D(19,1,2,21)           59.4263         estimate D2E/DX2                !
 ! D10   D(1,2,3,4)            176.933          estimate D2E/DX2                !
 ! D11   D(20,2,3,4)           -62.99           estimate D2E/DX2                !
 ! D12   D(21,2,3,4)            55.4693         estimate D2E/DX2                !
 ! D13   D(2,3,4,5)             88.3212         estimate D2E/DX2                !
 ! D14   D(2,3,4,6)           -160.6626         estimate D2E/DX2                !
 ! D15   D(3,4,5,22)          -113.4648         estimate D2E/DX2                !
 ! D16   D(6,4,5,22)           136.3036         estimate D2E/DX2                !
 ! D17   D(3,4,6,7)             64.3373         estimate D2E/DX2                !
 ! D18   D(3,4,6,8)           -173.356          estimate D2E/DX2                !
 ! D19   D(3,4,6,23)           -55.3355         estimate D2E/DX2                !
 ! D20   D(5,4,6,7)            174.9091         estimate D2E/DX2                !
 ! D21   D(5,4,6,8)            -62.7841         estimate D2E/DX2                !
 ! D22   D(5,4,6,23)            55.2363         estimate D2E/DX2                !
 ! D23   D(4,6,7,24)            62.6097         estimate D2E/DX2                !
 ! D24   D(4,6,7,25)           -57.8361         estimate D2E/DX2                !
 ! D25   D(4,6,7,26)          -177.0991         estimate D2E/DX2                !
 ! D26   D(8,6,7,24)           -57.1393         estimate D2E/DX2                !
 ! D27   D(8,6,7,25)          -177.5851         estimate D2E/DX2                !
 ! D28   D(8,6,7,26)            63.1518         estimate D2E/DX2                !
 ! D29   D(23,6,7,24)         -178.4887         estimate D2E/DX2                !
 ! D30   D(23,6,7,25)           61.0656         estimate D2E/DX2                !
 ! D31   D(23,6,7,26)          -58.1975         estimate D2E/DX2                !
 ! D32   D(4,6,8,9)           -179.4877         estimate D2E/DX2                !
 ! D33   D(4,6,8,27)            61.9753         estimate D2E/DX2                !
 ! D34   D(4,6,8,28)           -53.8723         estimate D2E/DX2                !
 ! D35   D(7,6,8,9)            -59.348          estimate D2E/DX2                !
 ! D36   D(7,6,8,27)          -177.8851         estimate D2E/DX2                !
 ! D37   D(7,6,8,28)            66.2674         estimate D2E/DX2                !
 ! D38   D(23,6,8,9)            62.6053         estimate D2E/DX2                !
 ! D39   D(23,6,8,27)          -55.9317         estimate D2E/DX2                !
 ! D40   D(23,6,8,28)         -171.7792         estimate D2E/DX2                !
 ! D41   D(6,8,9,10)          -169.6376         estimate D2E/DX2                !
 ! D42   D(6,8,9,29)            68.9699         estimate D2E/DX2                !
 ! D43   D(27,8,9,10)          -50.7861         estimate D2E/DX2                !
 ! D44   D(27,8,9,29)         -172.1785         estimate D2E/DX2                !
 ! D45   D(28,8,9,10)           67.3069         estimate D2E/DX2                !
 ! D46   D(28,8,9,29)          -54.0855         estimate D2E/DX2                !
 ! D47   D(8,9,10,11)         -178.0157         estimate D2E/DX2                !
 ! D48   D(8,9,10,30)           61.9556         estimate D2E/DX2                !
 ! D49   D(8,9,10,31)          -54.7758         estimate D2E/DX2                !
 ! D50   D(29,9,10,11)         -55.9939         estimate D2E/DX2                !
 ! D51   D(29,9,10,30)        -176.0226         estimate D2E/DX2                !
 ! D52   D(29,9,10,31)          67.246          estimate D2E/DX2                !
 ! D53   D(9,10,11,12)        -178.0777         estimate D2E/DX2                !
 ! D54   D(9,10,11,32)          60.042          estimate D2E/DX2                !
 ! D55   D(9,10,11,33)         -55.3914         estimate D2E/DX2                !
 ! D56   D(30,10,11,12)        -59.064          estimate D2E/DX2                !
 ! D57   D(30,10,11,32)        179.0557         estimate D2E/DX2                !
 ! D58   D(30,10,11,33)         63.6223         estimate D2E/DX2                !
 ! D59   D(31,10,11,12)         56.7884         estimate D2E/DX2                !
 ! D60   D(31,10,11,32)        -65.0919         estimate D2E/DX2                !
 ! D61   D(31,10,11,33)        179.4747         estimate D2E/DX2                !
 ! D62   D(10,11,12,13)       -179.5917         estimate D2E/DX2                !
 ! D63   D(10,11,12,34)         58.3158         estimate D2E/DX2                !
 ! D64   D(10,11,12,35)        -57.3331         estimate D2E/DX2                !
 ! D65   D(32,11,12,13)        -57.7423         estimate D2E/DX2                !
 ! D66   D(32,11,12,34)       -179.8348         estimate D2E/DX2                !
 ! D67   D(32,11,12,35)         64.5162         estimate D2E/DX2                !
 ! D68   D(33,11,12,13)         58.5821         estimate D2E/DX2                !
 ! D69   D(33,11,12,34)        -63.5104         estimate D2E/DX2                !
 ! D70   D(33,11,12,35)       -179.1593         estimate D2E/DX2                !
 ! D71   D(11,12,13,14)       -179.6493         estimate D2E/DX2                !
 ! D72   D(11,12,13,36)         57.9415         estimate D2E/DX2                !
 ! D73   D(11,12,13,37)        -57.4781         estimate D2E/DX2                !
 ! D74   D(34,12,13,14)        -57.4972         estimate D2E/DX2                !
 ! D75   D(34,12,13,36)       -179.9065         estimate D2E/DX2                !
 ! D76   D(34,12,13,37)         64.674          estimate D2E/DX2                !
 ! D77   D(35,12,13,14)         57.9596         estimate D2E/DX2                !
 ! D78   D(35,12,13,36)        -64.4497         estimate D2E/DX2                !
 ! D79   D(35,12,13,37)       -179.8693         estimate D2E/DX2                !
 ! D80   D(12,13,14,15)       -179.6746         estimate D2E/DX2                !
 ! D81   D(12,13,14,38)         58.4244         estimate D2E/DX2                !
 ! D82   D(12,13,14,39)        -57.8915         estimate D2E/DX2                !
 ! D83   D(36,13,14,15)        -57.4207         estimate D2E/DX2                !
 ! D84   D(36,13,14,38)       -179.3217         estimate D2E/DX2                !
 ! D85   D(36,13,14,39)         64.3624         estimate D2E/DX2                !
 ! D86   D(37,13,14,15)         58.2344         estimate D2E/DX2                !
 ! D87   D(37,13,14,38)        -63.6666         estimate D2E/DX2                !
 ! D88   D(37,13,14,39)       -179.9824         estimate D2E/DX2                !
 ! D89   D(13,14,15,16)       -178.405          estimate D2E/DX2                !
 ! D90   D(13,14,15,40)         55.6605         estimate D2E/DX2                !
 ! D91   D(13,14,15,41)        -60.0999         estimate D2E/DX2                !
 ! D92   D(38,14,15,16)        -55.5485         estimate D2E/DX2                !
 ! D93   D(38,14,15,40)        178.517          estimate D2E/DX2                !
 ! D94   D(38,14,15,41)         62.7566         estimate D2E/DX2                !
 ! D95   D(39,14,15,16)         59.6479         estimate D2E/DX2                !
 ! D96   D(39,14,15,40)        -66.2865         estimate D2E/DX2                !
 ! D97   D(39,14,15,41)        177.9531         estimate D2E/DX2                !
 ! D98   D(14,15,16,42)        -65.9193         estimate D2E/DX2                !
 ! D99   D(14,15,16,43)        178.3002         estimate D2E/DX2                !
 ! D100  D(40,15,16,42)         57.2524         estimate D2E/DX2                !
 ! D101  D(40,15,16,43)        -58.5281         estimate D2E/DX2                !
 ! D102  D(41,15,16,42)        174.8124         estimate D2E/DX2                !
 ! D103  D(41,15,16,43)         59.0319         estimate D2E/DX2                !
 --------------------------------------------------------------------------------
 Trust Radius=3.00D-01 FncErr=1.00D-07 GrdErr=1.00D-06 EigMax=2.50D+02 EigMin=1.00D-04
 Number of steps in this run=    232 maximum allowed number of steps=    258.
 GradGradGradGradGradGradGradGradGradGradGradGradGradGradGradGradGradGrad

                          Input orientation:                          
 ---------------------------------------------------------------------
 Center     Atomic      Atomic             Coordinates (Angstroms)
 Number     Number       Type             X           Y           Z
 ---------------------------------------------------------------------
      1          6           0        0.763558    0.287643    0.002422
      2          6           0        2.254009    0.022718    0.130452
      3          8           0        2.895469    1.278297    0.319166
      4          7           0        4.288396    1.082122    0.516057
      5          8           0        4.857596    1.090107   -0.806516
      6          6           0        4.754018    2.334140    1.159746
      7          6           0        4.086682    2.462816    2.529251
      8          6           0        6.285995    2.280160    1.259672
      9          7           0        6.818449    3.478584    1.896468
     10          6           0        8.270971    3.588965    1.801541
     11          6           0        8.779660    4.835091    2.525892
     12          6           0       10.296161    5.020628    2.414875
     13          6           0       10.811588    6.263753    3.148291
     14          6           0       12.326699    6.453705    3.030005
     15          6           0       12.841377    7.689453    3.768320
     16          7           0       14.289710    7.836038    3.585697
     17          1           0        0.227700   -0.652449   -0.158509
     18          1           0        0.560737    0.951256   -0.842727
     19          1           0        0.372752    0.757696    0.909496
     20          1           0        2.639179   -0.455370   -0.781394
     21          1           0        2.475787   -0.636947    0.979875
     22          1           0        5.167744    0.182982   -0.904811
     23          1           0        4.469615    3.183219    0.523908
     24          1           0        4.381878    1.636276    3.185612
     25          1           0        3.001155    2.456025    2.432281
     26          1           0        4.378953    3.406687    2.996877
     27          1           0        6.696163    2.226857    0.248639
     28          1           0        6.577381    1.343826    1.773826
     29          1           0        6.558498    3.487113    2.877680
     30          1           0        8.533839    3.651008    0.736992
     31          1           0        8.794532    2.695511    2.195589
     32          1           0        8.498873    4.775434    3.587813
     33          1           0        8.260811    5.712188    2.120293
     34          1           0       10.578062    5.083387    1.354815
     35          1           0       10.804358    4.130053    2.810189
     36          1           0       10.531216    6.200520    4.209142
     37          1           0       10.301261    7.153536    2.754071
     38          1           0       12.618748    6.530476    1.975670
     39          1           0       12.836688    5.562461    3.424547
     40          1           0       12.527964    7.632758    4.826637
     41          1           0       12.361697    8.584642    3.352240
     42          1           0       14.767963    7.061395    4.038342
     43          1           0       14.614051    8.675181    4.057269
 ---------------------------------------------------------------------
                    Distance matrix (angstroms):
                    1          2          3          4          5
     1  C    0.000000
     2  C    1.519218   0.000000
     3  O    2.372081   1.422520   0.000000
     4  N    3.649590   2.325889   1.420386   0.000000
     5  O    4.249645   2.965787   2.269916   1.439879   0.000000
     6  C    4.631557   3.556988   2.296863   1.482798   2.329063
     7  C    4.707377   3.881623   2.776066   2.449480   3.688629
     8  C    6.004008   4.756899   3.658407   2.445129   2.779511
     9  N    7.101494   5.991321   4.766436   3.748297   4.105592
    10  C    8.396238   7.191278   6.035945   4.878281   4.969646
    11  C    9.555369   8.454655   7.221089   6.188349   6.364938
    12  C   10.912910   9.740323   8.553787   7.430382   7.443409
    13  C   12.106746  11.013175   9.773620   8.736703   8.823669
    14  C   13.449640  12.297320  11.094215   9.989402   9.963663
    15  C   14.657507  13.568540  12.325610  11.286608  11.323483
    16  N   15.898897  14.759566  13.546324  12.452483  12.400157
    17  H    1.093991   2.155291   3.327604   4.466882   4.989224
    18  H    1.093524   2.162505   2.628294   3.969744   4.299255
    19  H    1.093829   2.164770   2.642654   3.948711   4.813421
    20  H    2.164345   1.099267   2.069425   2.601381   2.703795
    21  H    2.177616   1.098118   2.069017   2.540842   3.441936
    22  H    4.497875   3.096337   2.803760   1.897517   0.963706
    23  H    4.731930   3.879752   2.479633   2.108912   2.510314
    24  H    5.004373   4.057758   3.248703   2.728067   4.057302
    25  H    3.951321   3.431854   2.421459   2.686357   3.975162
    26  H    5.636158   4.917624   3.728391   3.400922   4.479000
    27  H    6.246357   4.960335   3.917909   2.679416   2.405386
    28  H    6.168787   4.810151   3.959394   2.624866   3.111302
    29  H    7.216997   6.170730   4.984238   4.063816   4.712961
    30  H    8.498770   7.277956   6.131521   4.967068   4.738712
    31  H    8.666277   7.361186   6.350465   5.072387   5.204750
    32  H    9.634853   8.575545   7.369678   6.387828   6.793428
    33  H    9.493148   8.509477   7.189599   6.308023   6.442958
    34  H   11.006935   9.818313   8.635595   7.501568   7.303517
    35  H   11.111496   9.856960   8.768593   7.550542   7.595117
    36  H   12.168228  11.104644   9.882551   8.877481   9.135815
    37  H   12.069790  11.067529   9.761810   8.833194   8.892493
    38  H   13.542977  12.376735  11.174594  10.060308   9.877938
    39  H   13.612315  12.390840  11.261673  10.079982  10.078182
    40  H   14.684176  13.620610  12.388762  11.374639  11.548734
    41  H   14.648491  13.632748  12.336599  11.380242  11.391876
    42  H   16.071581  14.879973  13.719788  12.568990  12.543695
    43  H   16.692176  15.590242  14.353134  13.297138  13.280745
                    6          7          8          9         10
     6  C    0.000000
     7  C    1.528868   0.000000
     8  C    1.536182   2.546011   0.000000
     9  N    2.472728   2.982407   1.457819   0.000000
    10  C    3.788858   4.393865   2.438590   1.459800   0.000000
    11  C    4.932231   5.258493   3.788054   2.466300   1.528490
    12  C    6.285532   6.716630   4.992604   3.839418   2.554845
    13  C    7.489347   7.749497   6.317981   5.026867   3.927208
    14  C    8.821235   9.169288   7.552660   6.362160   5.115153
    15  C   10.044373  10.271208   8.861535   7.583595   6.447545
    16  N   11.273222  11.579697  10.016867   8.812528   7.579318
    17  H    5.580777   5.640981   6.878545   8.045268   9.301914
    18  H    4.848286   5.107576   6.242167   7.283511   8.567227
    19  H    4.662970   4.395943   6.116123   7.065717   8.437635
    20  H    4.002741   4.644507   4.994832   6.333501   7.399006
    21  H    3.748339   3.821528   4.806816   6.052805   7.219254
    22  H    3.010157   4.261351   3.214595   4.629576   5.343695
    23  H    1.098230   2.164952   2.157800   2.736455   4.030792
    24  H    2.174773   1.095956   2.783792   3.315549   4.566585
    25  H    2.169500   1.089871   3.492294   3.988039   5.427002
    26  H    2.160111   1.093156   2.814916   2.677164   4.075519
    27  H    2.147918   3.473652   1.092367   2.072948   2.597473
    28  H    2.163902   2.833088   1.107241   2.151824   2.812413
    29  H    2.745321   2.698233   2.036895   1.015098   2.025096
    30  H    4.024911   4.939757   2.684254   2.077661   1.098277
    31  H    4.186803   4.725392   2.709468   2.146528   1.107994
    32  H    5.087176   5.092758   4.067366   2.714092   2.156482
    33  H    4.963008   5.305565   4.052084   2.668238   2.147040
    34  H    6.443283   7.098218   5.127277   4.123526   2.784875
    35  H    6.523487   6.927177   5.122676   4.140866   2.779964
    36  H    7.591030   7.637048   6.487719   5.151897   4.210163
    37  H    7.519332   7.789377   6.488866   5.135244   4.211360
    38  H    8.951478   9.468288   7.660392   6.554677   5.252235
    39  H    8.993383   9.325876   7.640142   6.549563   5.232075
    40  H   10.097311  10.161769   8.963020   7.644712   6.604958
    41  H   10.087248  10.326177   9.002194   7.675852   6.640444
    42  H   11.441693  11.726638  10.125463   8.978805   7.698828
    43  H   12.075790  12.318841  10.866433   9.614838   8.437569
                   11         12         13         14         15
    11  C    0.000000
    12  C    1.531836   0.000000
    13  C    2.560700   1.532620   0.000000
    14  C    3.931352   2.560309   1.531547   0.000000
    15  C    5.117476   3.928431   2.556776   1.528750   0.000000
    16  N    6.363137   5.024519   3.841970   2.464355   1.467142
    17  H   10.509764  11.839764  13.068568  14.389227  15.624090
    18  H    9.694456  11.043108  12.216006  13.554073  14.747176
    19  H    9.482299  10.904715  12.012417  13.410367  14.549527
    20  H    8.754007   9.941432  11.286156  12.494404  13.824721
    21  H    8.489534   9.758362  11.036633  12.309381  13.584912
    22  H    6.815995   7.792547   9.233438  10.298320  11.707686
    23  H    5.031214   6.395347   7.523145   8.871887  10.045833
    24  H    5.477968   6.857596   7.921875   9.292579  10.418427
    25  H    6.249787   7.732697   8.718620  10.163882  11.225139
    26  H    4.650633   6.160915   7.040209   8.511879   9.515768
    27  H    4.041006   5.045565   6.453002   7.570019   8.943812
    28  H    4.195780   5.268695   6.635009   7.793813   9.136884
    29  H    2.621901   4.066446   5.086427   6.488145   7.611011
    30  H    2.159316   2.792298   4.222433   5.243931   6.637234
    31  H    2.164977   2.776535   4.208148   5.224603   6.617394
    32  H    1.100035   2.160127   2.785126   4.216634   5.232727
    33  H    1.096819   2.169719   2.804901   4.231888   5.254252
    34  H    2.160398   1.098697   2.159712   2.782404   4.211792
    35  H    2.162708   1.098937   2.160333   2.786611   4.211507
    36  H    2.786696   2.160275   1.099096   2.162920   2.783539
    37  H    2.782538   2.159716   1.098889   2.160626   2.787131
    38  H    4.232691   2.804809   2.170716   1.096727   2.146250
    39  H    4.218545   2.786988   2.160823   1.100030   2.154599
    40  H    5.212500   4.197710   2.763507   2.158370   1.105204
    41  H    5.250997   4.224605   2.798385   2.155447   1.097534
    42  H    6.565341   5.176619   4.132956   2.710313   2.044285
    43  H    7.150631   5.890449   4.593469   3.349956   2.048786
                   16         17         18         19         20
    16  N    0.000000
    17  H   16.846769   0.000000
    18  H   15.984238   1.775088   0.000000
    19  H   15.841297   1.774876   1.772876   0.000000
    20  H   14.951716   2.498411   2.510434   3.076903   0.000000
    21  H   14.769921   2.519931   3.084102   2.524428   1.778127
    22  H   12.725729   5.065466   4.671040   5.158872   2.610817
    23  H   11.289710   5.759504   4.704113   4.776623   4.277106
    24  H   11.694539   5.803327   5.594452   4.693154   4.811354
    25  H   12.558120   4.905798   4.352660   3.480186   4.351432
    26  H   10.871474   6.608022   5.945627   5.236789   5.676058
    27  H   10.013033   7.092051   6.360950   6.525388   4.971361
    28  H   10.242642   6.930908   6.572706   6.291902   5.027494
    29  H    8.898656   8.150670   7.499675   7.041797   6.655303
    30  H    7.665484   9.397532   8.564726   8.660505   7.342673
    31  H    7.652084   9.494274   8.948138   8.737022   7.528536
    32  H    6.549893  10.578712   9.862456   9.452483   8.988175
    33  H    6.557878  10.499163   9.525603   9.393322   8.835231
    34  H    5.131302  11.929793  11.056694  11.093162   9.912975
    35  H    5.146204  11.981285  11.330504  11.126717  10.029742
    36  H    4.146067  13.122577  12.348547  11.987760  11.466934
    37  H    4.130997  13.072611  12.094753  11.953431  11.362326
    38  H    2.662479  14.480581  13.581852  13.580359  12.489806
    39  H    2.703034  14.506894  13.790280  13.592680  12.565565
    40  H    2.164486  15.645857  14.832353  14.503781  13.951914
    41  H    2.081381  15.648741  14.667276  14.524561  13.904535
    42  H    1.016703  16.986353  16.217395  16.023370  15.061176
    43  H    1.015745  17.656290  16.767965  16.595471  15.816991
                   21         22         23         24         25
    21  H    0.000000
    22  H    3.386880   0.000000
    23  H    4.333235   3.395591   0.000000
    24  H    3.696756   4.411486   3.079838   0.000000
    25  H    3.457162   4.582250   2.515367   1.773667   0.000000
    26  H    4.903194   5.122268   2.484700   1.780445   1.766594
    27  H    5.152441   2.800702   2.438835   3.785567   4.298127
    28  H    4.623515   3.241871   3.064040   2.626576   3.802624
    29  H    6.105576   5.211402   3.161649   2.873690   3.730444
    30  H    7.426004   5.104245   4.096602   5.224334   5.908687
    31  H    7.246363   5.392483   4.662327   4.644744   5.803154
    32  H    8.507219   7.236761   5.306372   5.192853   6.077814
    33  H    8.664789   7.020714   4.828799   5.726612   6.193861
    34  H    9.925203   7.641427   6.450904   7.323052   8.091568
    35  H    9.769311   7.819975   6.800923   6.899864   7.989692
    36  H   11.048487   9.546209   7.708961   7.726209   8.595366
    37  H   11.183802   9.398352   7.398996   8.103424   8.686870
    38  H   12.459664  10.203201   8.928612   9.657287  10.455035
    39  H   12.318984  10.319634   9.169647   9.325011  10.362058
    40  H   13.573204  11.938237  10.161146  10.247414  11.103676
    41  H   13.725780  11.851723   9.972953  10.582300  11.226131
    42  H   14.822830  12.802794  11.551947  11.748610  12.737607
    43  H   15.605241  13.637170  12.064654  12.450034  13.273201
                   26         27         28         29         30
    26  H    0.000000
    27  H    3.783421   0.000000
    28  H    3.253357   1.766366   0.000000
    29  H    2.184283   2.918742   2.410919   0.000000
    30  H    4.736016   2.375657   3.197787   2.917426   0.000000
    31  H    4.543696   2.900587   2.630722   2.468143   1.763077
    32  H    4.381371   4.571115   4.331122   2.434978   3.064757
    33  H    4.599190   4.254262   4.694312   2.902148   2.497304
    34  H    6.628472   4.944950   5.492298   4.585205   2.571432
    35  H    6.468689   5.202016   5.167635   4.294794   3.111734
    36  H    6.864797   6.795824   6.719454   4.991780   4.748195
    37  H    7.012243   6.598946   6.969999   5.240822   4.411359
    38  H    8.871028   7.522021   7.964936   6.841222   5.148995
    39  H    8.738624   7.675852   7.726622   6.634893   5.421357
    40  H    9.360240   9.175606   9.180401   7.524583   6.966532
    41  H    9.521644   9.063777   9.401017   7.738678   6.769990
    42  H   11.062236  10.143400  10.242278   9.028729   7.835429
    43  H   11.560221  10.898601  11.115348   9.653985   8.557777
                   31         32         33         34         35
    31  H    0.000000
    32  H    2.520274   0.000000
    33  H    3.064452   1.757213   0.000000
    34  H    3.096745   3.066618   2.520119   0.000000
    35  H    2.544611   2.517236   3.073880   1.754471   0.000000
    36  H    4.399495   2.558777   3.123539   3.065512   2.513664
    37  H    4.738789   3.098241   2.577323   2.513972   3.065567
    38  H    5.420328   4.759470   4.436454   2.577582   3.122573
    39  H    5.105758   4.411656   4.760478   3.100758   2.561170
    40  H    6.725871   5.092403   5.405690   4.728104   4.393839
    41  H    6.981717   5.430191   5.156157   4.407931   4.749999
    42  H    7.624864   6.688055   6.916813   5.354354   5.080481
    43  H    8.549217   7.268000   7.272886   6.040982   6.060294
                   36         37         38         39         40
    36  H    0.000000
    37  H    1.754522   0.000000
    38  H    3.074908   2.522867   0.000000
    39  H    2.517520   3.067482   1.756074   0.000000
    40  H    2.533695   3.079512   3.057987   2.519384   0.000000
    41  H    3.125536   2.579005   2.486085   3.060135   1.762832
    42  H    4.326696   4.648577   3.025824   2.520589   2.442429
    43  H    4.776668   4.755407   3.593612   3.639833   2.455673
                   41         42         43
    41  H    0.000000
    42  H    2.929357   0.000000
    43  H    2.361857   1.621219   0.000000
 Stoichiometry    C11H27N3O2
 Framework group  C1[X(C11H27N3O2)]
 Deg. of freedom   123
 Full point group                 C1      NOp   1
 Largest Abelian subgroup         C1      NOp   1
 Largest concise Abelian subgroup C1      NOp   1
                         Standard orientation:                         
 ---------------------------------------------------------------------
 Center     Atomic      Atomic             Coordinates (Angstroms)
 Number     Number       Type             X           Y           Z
 ---------------------------------------------------------------------
      1          6           0       -7.333791    0.553817   -0.443166
      2          6           0       -6.217026   -0.203438    0.254990
      3          8           0       -4.997919    0.144338   -0.390294
      4          7           0       -3.908077   -0.483246    0.269919
      5          8           0       -3.775361   -1.768069   -0.366375
      6          6           0       -2.718693    0.296212   -0.150197
      7          6           0       -2.849503    1.722737    0.383987
      8          6           0       -1.466609   -0.414966    0.384933
      9          7           0       -0.251826    0.303516    0.019800
     10          6           0        0.970019   -0.447275    0.292609
     11          6           0        2.212216    0.369471   -0.062573
     12          6           0        3.520992   -0.394061    0.162476
     13          6           0        4.769475    0.424949   -0.183118
     14          6           0        6.077531   -0.341562    0.033878
     15          6           0        7.322856    0.478460   -0.303470
     16          7           0        8.537515   -0.321693   -0.111472
     17          1           0       -8.297090    0.306253    0.012448
     18          1           0       -7.374190    0.290650   -1.503781
     19          1           0       -7.180597    1.633898   -0.363037
     20          1           0       -6.380185   -1.287686    0.176423
     21          1           0       -6.157985    0.055163    1.320590
     22          1           0       -4.013031   -2.376479    0.342200
     23          1           0       -2.677102    0.310159   -1.247551
     24          1           0       -2.865430    1.728404    1.479813
     25          1           0       -3.766544    2.187980    0.022872
     26          1           0       -2.005455    2.326282    0.040032
     27          1           0       -1.416139   -1.409510   -0.064069
     28          1           0       -1.578405   -0.561238    1.476760
     29          1           0       -0.209938    1.181750    0.527120
     30          1           0        0.945551   -1.360749   -0.316636
     31          1           0        1.039733   -0.782677    1.346315
     32          1           0        2.222568    1.290888    0.538225
     33          1           0        2.135000    0.686918   -1.109606
     34          1           0        3.513622   -1.313326   -0.439215
     35          1           0        3.579930   -0.719633    1.210422
     36          1           0        4.778056    1.343854    0.419835
     37          1           0        4.708665    0.752084   -1.230420
     38          1           0        6.087136   -1.255690   -0.571999
     39          1           0        6.137394   -0.668894    1.082371
     40          1           0        7.307099    1.414660    0.283690
     41          1           0        7.284342    0.775963   -1.359211
     42          1           0        8.646187   -0.540358    0.875473
     43          1           0        9.354967    0.225086   -0.365526
 ---------------------------------------------------------------------
 Rotational constants (GHZ):           2.6539270           0.0912626           0.0893944
 Standard basis: 6-31+G(3df,2p) (6D, 7F)
 There are   872 symmetry adapted cartesian basis functions of A   symmetry.
 There are   824 symmetry adapted basis functions of A   symmetry.
   824 basis functions,  1134 primitive gaussians,   872 cartesian basis functions
    65 alpha electrons       65 beta electrons
       nuclear repulsion energy      1104.1583238113 Hartrees.
 NAtoms=   43 NActive=   43 NUniq=   43 SFac= 1.00D+00 NAtFMM=   60 NAOKFM=F Big=F
 Integral buffers will be    131072 words long.
 Regular integral format.
 Two-electron integral symmetry is turned on.
 One-electron integrals computed using PRISM.
 PrsmSu:  requested number of processors reduced to:  11 ShMem   1 Linda.
 NBasis=   824 RedAO= T EigKep=  4.94D-06  NBF=   824
 NBsUse=   824 1.00D-06 EigRej= -1.00D+00 NBFU=   824
 ExpMin= 4.38D-02 ExpMax= 5.48D+03 ExpMxC= 8.25D+02 IAcc=3 IRadAn=         5 AccDes= 0.00D+00
 Harris functional with IExCor=  402 and IRadAn=       5 diagonalized for initial guess.
 HarFok:  IExCor=  402 AccDes= 0.00D+00 IRadAn=         5 IDoV= 1 UseB2=F ITyADJ=14
 ICtDFT=  3500011 ScaDFX=  1.000000  1.000000  1.000000  1.000000
 FoFCou: FMM=F IPFlag=           0 FMFlag=      100000 FMFlg1=           0
         NFxFlg=           0 DoJE=T BraDBF=F KetDBF=T FulRan=T
         wScrn=  0.000000 ICntrl=       500 IOpCl=  0 I1Cent=   200000004 NGrid=           0
         NMat0=    1 NMatS0=      1 NMatT0=    0 NMatD0=    1 NMtDS0=    0 NMtDT0=    0
 Petite list used in FoFCou.
 Requested convergence on RMS density matrix=1.00D-08 within 128 cycles.
 Requested convergence on MAX density matrix=1.00D-06.
 Requested convergence on             energy=1.00D-06.
 No special actions if energy rises.
 SCF Done:  E(RB3LYP) =  -750.142306927     A.U. after   13 cycles
            NFock= 13  Conv=0.33D-08     -V/T= 2.0084
 DoSCS=F DFT=T ScalE2(SS,OS)=  1.000000  1.000000
 ExpMin= 4.38D-02 ExpMax= 5.48D+03 ExpMxC= 8.25D+02 IAcc=3 IRadAn=         5 AccDes= 0.00D+00
 HarFok:  IExCor=  205 AccDes= 0.00D+00 IRadAn=         5 IDoV=-2 UseB2=F ITyADJ=14
 ICtDFT= 12500011 ScaDFX=  1.000000  1.000000  1.000000  1.000000
 Range of M.O.s used for correlation:    17   824
 NBasis=   824 NAE=    65 NBE=    65 NFC=    16 NFV=     0
 NROrb=    808 NOA=    49 NOB=    49 NVA=   759 NVB=   759

 **** Warning!!: The largest alpha MO coefficient is  0.77551760D+02

 Orbital symmetries:
       Occupied  (A) (A) (A) (A) (A) (A) (A) (A) (A) (A) (A) (A)
                 (A) (A) (A) (A) (A) (A) (A) (A) (A) (A) (A) (A)
                 (A) (A) (A) (A) (A) (A) (A) (A) (A) (A) (A) (A)
                 (A) (A) (A) (A) (A) (A) (A) (A) (A) (A) (A) (A)
                 (A) (A) (A) (A) (A) (A) (A) (A) (A) (A) (A) (A)
                 (A) (A) (A) (A) (A)
       Virtual   (A) (A) (A) (A) (A) (A) (A) (A) (A) (A) (A) (A)
                 (A) (A) (A) (A) (A) (A) (A) (A) (A) (A) (A) (A)
                 (A) (A) (A) (A) (A) (A) (A) (A) (A) (A) (A) (A)
                 (A) (A) (A) (A) (A) (A) (A) (A) (A) (A) (A) (A)
                 (A) (A) (A) (A) (A) (A) (A) (A) (A) (A) (A) (A)
                 (A) (A) (A) (A) (A) (A) (A) (A) (A) (A) (A) (A)
                 (A) (A) (A) (A) (A) (A) (A) (A) (A) (A) (A) (A)
                 (A) (A) (A) (A) (A) (A) (A) (A) (A) (A) (A) (A)
                 (A) (A) (A) (A) (A) (A) (A) (A) (A) (A) (A) (A)
                 (A) (A) (A) (A) (A) (A) (A) (A) (A) (A) (A) (A)
                 (A) (A) (A) (A) (A) (A) (A) (A) (A) (A) (A) (A)
                 (A) (A) (A) (A) (A) (A) (A) (A) (A) (A) (A) (A)
                 (A) (A) (A) (A) (A) (A) (A) (A) (A) (A) (A) (A)
                 (A) (A) (A) (A) (A) (A) (A) (A) (A) (A) (A) (A)
                 (A) (A) (A) (A) (A) (A) (A) (A) (A) (A) (A) (A)
                 (A) (A) (A) (A) (A) (A) (A) (A) (A) (A) (A) (A)
                 (A) (A) (A) (A) (A) (A) (A) (A) (A) (A) (A) (A)
                 (A) (A) (A) (A) (A) (A) (A) (A) (A) (A) (A) (A)
                 (A) (A) (A) (A) (A) (A) (A) (A) (A) (A) (A) (A)
                 (A) (A) (A) (A) (A) (A) (A) (A) (A) (A) (A) (A)
                 (A) (A) (A) (A) (A) (A) (A) (A) (A) (A) (A) (A)
                 (A) (A) (A) (A) (A) (A) (A) (A) (A) (A) (A) (A)
                 (A) (A) (A) (A) (A) (A) (A) (A) (A) (A) (A) (A)
                 (A) (A) (A) (A) (A) (A) (A) (A) (A) (A) (A) (A)
                 (A) (A) (A) (A) (A) (A) (A) (A) (A) (A) (A) (A)
                 (A) (A) (A) (A) (A) (A) (A) (A) (A) (A) (A) (A)
                 (A) (A) (A) (A) (A) (A) (A) (A) (A) (A) (A) (A)
                 (A) (A) (A) (A) (A) (A) (A) (A) (A) (A) (A) (A)
                 (A) (A) (A) (A) (A) (A) (A) (A) (A) (A) (A) (A)
                 (A) (A) (A) (A) (A) (A) (A) (A) (A) (A) (A) (A)
                 (A) (A) (A) (A) (A) (A) (A) (A) (A) (A) (A) (A)
                 (A) (A) (A) (A) (A) (A) (A) (A) (A) (A) (A) (A)
                 (A) (A) (A) (A) (A) (A) (A) (A) (A) (A) (A) (A)
                 (A) (A) (A) (A) (A) (A) (A) (A) (A) (A) (A) (A)
                 (A) (A) (A) (A) (A) (A) (A) (A) (A) (A) (A) (A)
                 (A) (A) (A) (A) (A) (A) (A) (A) (A) (A) (A) (A)
                 (A) (A) (A) (A) (A) (A) (A) (A) (A) (A) (A) (A)
                 (A) (A) (A) (A) (A) (A) (A) (A) (A) (A) (A) (A)
                 (A) (A) (A) (A) (A) (A) (A) (A) (A) (A) (A) (A)
                 (A) (A) (A) (A) (A) (A) (A) (A) (A) (A) (A) (A)
                 (A) (A) (A) (A) (A) (A) (A) (A) (A) (A) (A) (A)
                 (A) (A) (A) (A) (A) (A) (A) (A) (A) (A) (A) (A)
                 (A) (A) (A) (A) (A) (A) (A) (A) (A) (A) (A) (A)
                 (A) (A) (A) (A) (A) (A) (A) (A) (A) (A) (A) (A)
                 (A) (A) (A) (A) (A) (A) (A) (A) (A) (A) (A) (A)
                 (A) (A) (A) (A) (A) (A) (A) (A) (A) (A) (A) (A)
                 (A) (A) (A) (A) (A) (A) (A) (A) (A) (A) (A) (A)
                 (A) (A) (A) (A) (A) (A) (A) (A) (A) (A) (A) (A)
                 (A) (A) (A) (A) (A) (A) (A) (A) (A) (A) (A) (A)
                 (A) (A) (A) (A) (A) (A) (A) (A) (A) (A) (A) (A)
                 (A) (A) (A) (A) (A) (A) (A) (A) (A) (A) (A) (A)
                 (A) (A) (A) (A) (A) (A) (A) (A) (A) (A) (A) (A)
                 (A) (A) (A) (A) (A) (A) (A) (A) (A) (A) (A) (A)
                 (A) (A) (A) (A) (A) (A) (A) (A) (A) (A) (A) (A)
                 (A) (A) (A) (A) (A) (A) (A) (A) (A) (A) (A) (A)
                 (A) (A) (A) (A) (A) (A) (A) (A) (A) (A) (A) (A)
                 (A) (A) (A) (A) (A) (A) (A) (A) (A) (A) (A) (A)
                 (A) (A) (A) (A) (A) (A) (A) (A) (A) (A) (A) (A)
                 (A) (A) (A) (A) (A) (A) (A) (A) (A) (A) (A) (A)
                 (A) (A) (A) (A) (A) (A) (A) (A) (A) (A) (A) (A)
                 (A) (A) (A) (A) (A) (A) (A) (A) (A) (A) (A) (A)
                 (A) (A) (A) (A) (A) (A) (A) (A) (A) (A) (A) (A)
                 (A) (A) (A) (A) (A) (A) (A) (A) (A) (A) (A) (A)
                 (A) (A) (A)
    40 initial guesses have been made.
 Convergence on wavefunction:    0.000001000000000
 Iteration     1 Dimension    40 NMult     0 NNew     40
 CISAX will form     1 AO SS matrices at one time.
 New state      1 was old state      3
 New state      2 was old state      5
 New state      3 was old state      2
 New state      4 was old state      1
 New state      5 was old state     10
 New state      6 was old state      4
 New state      7 was old state     11
 New state      8 was old state      7
 New state      9 was old state     12
 New state     10 was old state     13
 Iteration     2 Dimension    60 NMult    40 NNew     20
 New state      4 was old state      5
 New state      5 was old state      4
 Iteration     3 Dimension    80 NMult    60 NNew     20
 Iteration     4 Dimension   100 NMult    80 NNew     20
 Iteration     5 Dimension   120 NMult   100 NNew     20
 Iteration     6 Dimension   140 NMult   120 NNew     20
