### Starting Gaussian ###
 Entering Gaussian System, Link 0=g16
 Initial command:
 /cluster/software/gaussian/gaussian-16-A.03/avx2/g16/l1.exe "/local/scratch/ks29c/Gau-31717.inp" -scrdir="/local/scratch/ks29c/"
 Entering Link 1 = /cluster/software/gaussian/gaussian-16-A.03/avx2/g16/l1.exe PID=     31719.
  
 Copyright (c) 1988,1990,1992,1993,1995,1998,2003,2009,2016,
            Gaussian, Inc.  All Rights Reserved.
  
 This is part of the Gaussian(R) 16 program.  It is based on
 the Gaussian(R) 09 system (copyright 2009, Gaussian, Inc.),
 the Gaussian(R) 03 system (copyright 2003, Gaussian, Inc.),
 the Gaussian(R) 98 system (copyright 1998, Gaussian, Inc.),
 the Gaussian(R) 94 system (copyright 1995, Gaussian, Inc.),
 the Gaussian 92(TM) system (copyright 1992, Gaussian, Inc.),
 the Gaussian 90(TM) system (copyright 1990, Gaussian, Inc.),
 the Gaussian 88(TM) system (copyright 1988, Gaussian, Inc.),
 the Gaussian 86(TM) system (copyright 1986, Carnegie Mellon
 University), and the Gaussian 82(TM) system (copyright 1983,
 Carnegie Mellon University). Gaussian is a federally registered
 trademark of Gaussian, Inc.
  
 This software contains proprietary and confidential information,
 including trade secrets, belonging to Gaussian, Inc.
  
 This software is provided under written license and may be
 used, copied, transmitted, or stored only in accord with that
 written license.
  
 The following legend is applicable only to US Government
 contracts under FAR:
  
                    RESTRICTED RIGHTS LEGEND
  
 Use, reproduction and disclosure by the US Government is
 subject to restrictions as set forth in subparagraphs (a)
 and (c) of the Commercial Computer Software - Restricted
 Rights clause in FAR 52.227-19.
  
 Gaussian, Inc.
 340 Quinnipiac St., Bldg. 40, Wallingford CT 06492
  
  
 ---------------------------------------------------------------
 Warning -- This program may not be used in any manner that
 competes with the business of Gaussian, Inc. or will provide
 assistance to any competitor of Gaussian, Inc.  The licensee
 of this program is prohibited from giving any competitor of
 Gaussian, Inc. access to this program.  By using this program,
 the user acknowledges that Gaussian, Inc. is engaged in the
 business of creating and licensing software in the field of
 computational chemistry and represents and warrants to the
 licensee that it is not a competitor of Gaussian, Inc. and that
 it will not use this program in any manner prohibited above.
 ---------------------------------------------------------------
  

 Cite this work as:
 Gaussian 16, Revision A.03,
 M. J. Frisch, G. W. Trucks, H. B. Schlegel, G. E. Scuseria, 
 M. A. Robb, J. R. Cheeseman, G. Scalmani, V. Barone, 
 G. A. Petersson, H. Nakatsuji, X. Li, M. Caricato, A. V. Marenich, 
 J. Bloino, B. G. Janesko, R. Gomperts, B. Mennucci, H. P. Hratchian, 
 J. V. Ortiz, A. F. Izmaylov, J. L. Sonnenberg, D. Williams-Young, 
 F. Ding, F. Lipparini, F. Egidi, J. Goings, B. Peng, A. Petrone, 
 T. Henderson, D. Ranasinghe, V. G. Zakrzewski, J. Gao, N. Rega, 
 G. Zheng, W. Liang, M. Hada, M. Ehara, K. Toyota, R. Fukuda, 
 J. Hasegawa, M. Ishida, T. Nakajima, Y. Honda, O. Kitao, H. Nakai, 
 T. Vreven, K. Throssell, J. A. Montgomery, Jr., J. E. Peralta, 
 F. Ogliaro, M. J. Bearpark, J. J. Heyd, E. N. Brothers, K. N. Kudin, 
 V. N. Staroverov, T. A. Keith, R. Kobayashi, J. Normand, 
 K. Raghavachari, A. P. Rendell, J. C. Burant, S. S. Iyengar, 
 J. Tomasi, M. Cossi, J. M. Millam, M. Klene, C. Adamo, R. Cammi, 
 J. W. Ochterski, R. L. Martin, K. Morokuma, O. Farkas, 
 J. B. Foresman, and D. J. Fox, Gaussian, Inc., Wallingford CT, 2016.
 
 ******************************************
 Gaussian 16:  ES64L-G16RevA.03 25-Dec-2016
                24-May-2023 
 ******************************************
 %chk=COC1CCCqCrCCCCNC1.chk
 %NProcShared=20
 Will use up to   20 processors via shared memory.
 -----------------------------------------------------------------
 # opt freq b3lyp/6-31+g(3df,2p) Geom=AllCheckpoint TD(NStates=10)
 -----------------------------------------------------------------
 1/18=20,19=15,26=3,29=7,38=1/1,3;
 2/9=110,12=2,40=1/2;
 3/5=1,6=6,7=216,11=9,14=-4,25=1,30=1,71=1,74=-5/1,2,3,8;
 4//1;
 5/5=2,38=5/2;
 8/6=1,10=2,108=10/1;
 9/15=2,41=10,42=1,70=2/14;
 10/5=4/2;
 6/7=2,8=2,9=2,10=2/1;
 7/12=6,13=5/1,2,3,16;
 1/18=20,19=15,26=3/3(2);
 2/9=110/2;
 99//99;
 2/9=110/2;
 3/5=1,6=6,7=216,11=9,14=-2,25=1,30=1,71=1,74=-5/1,2,3,8;
 4/5=5,16=3,69=1/1;
 5/5=2,38=5/2;
 8/6=1,10=2,108=10/1;
 9/15=2,41=10,42=1,49=4,70=2/14;
 10/5=4/2;
 7/12=6,13=5/1,2,3,16;
 1/18=20,19=15,26=3/3(-8);
 2/9=110/2;
 6/7=2,8=2,9=2,10=2/1;
 99//99;
 Structure from the checkpoint file:  "COC1CCCqCrCCCCNC1.chk"
 -------------------
 Title Card Required
 -------------------
 Charge =  0 Multiplicity = 1
 Redundant internal coordinates found in file.  (old form).
 C,0,2.3556186979,1.1158573748,1.8221877627
 O,0,2.4706941394,0.3133519872,0.6726720415
 C,0,2.5782054783,1.0366477865,-0.5522730088
 C,0,3.3319298064,0.1612327835,-1.5798427186
 C,0,3.1125243778,-1.3684036887,-1.4393604353
 C,0,2.8675694061,-2.2075863352,-2.7197389538
 C,0,3.8865584318,-1.9377741437,-3.8360411861
 C,0,1.3996850197,-2.2085768247,-3.2170525976
 C,0,0.8943798357,-1.0307661634,-4.0900335255
 C,0,-0.5163907781,-0.5333193578,-3.7054172378
 C,0,-0.4723633709,0.6492960703,-2.7219784197
 N,0,0.4207434982,0.3961650159,-1.6006833329
 C,0,1.2021852086,1.496377435,-1.0681481872
 H,0,2.329462933,0.4437005173,2.6842183831
 H,0,1.4389338484,1.7248311173,1.8305231072
 H,0,3.2153111674,1.7963982779,1.9302624404
 H,0,3.1701794025,1.948803796,-0.3654577583
 H,0,4.4018825599,0.3742616348,-1.4853676188
 H,0,3.0457432187,0.5101913666,-2.5753024112
 H,0,2.2856146346,-1.5540638301,-0.752519953
 H,0,3.997510024,-1.7838668496,-0.9427448457
 H,0,3.0400929992,-3.2431466925,-2.3926492233
 H,0,3.8009870973,-0.9249158809,-4.2421868513
 H,0,3.7491790469,-2.6356486543,-4.6695236339
 H,0,4.9115810902,-2.0569763066,-3.4678070376
 H,0,0.7610874506,-2.2956872644,-2.33217428
 H,0,1.2443817177,-3.136470771,-3.7836492486
 H,0,0.893648947,-1.3409110351,-5.1407823271
 H,0,1.5839176097,-0.1832361761,-4.0344352677
 H,0,-1.0972342374,-1.3607830895,-3.2770844018
 H,0,-1.071093348,-0.2062895404,-4.5938028328
 H,0,-1.4971322665,0.9239510025,-2.4163953029
 H,0,-0.0749396081,1.518197598,-3.2608730781
 H,0,-0.0179825907,-0.1425820134,-0.8669646845
 H,0,0.6850050256,2.0711289521,-0.279253845
 H,0,1.3862635272,2.2056719016,-1.88372953
 Recover connectivity data from disk.

 GradGradGradGradGradGradGradGradGradGradGradGradGradGradGradGradGradGrad
 Berny optimization.
 Initialization pass.
                           ----------------------------
                           !    Initial Parameters    !
                           ! (Angstroms and Degrees)  !
 --------------------------                            --------------------------
 ! Name  Definition              Value          Derivative Info.                !
 --------------------------------------------------------------------------------
 ! R1    R(1,2)                  1.4066         estimate D2E/DX2                !
 ! R2    R(1,14)                 1.0934         estimate D2E/DX2                !
 ! R3    R(1,15)                 1.1006         estimate D2E/DX2                !
 ! R4    R(1,16)                 1.1018         estimate D2E/DX2                !
 ! R5    R(2,3)                  1.4266         estimate D2E/DX2                !
 ! R6    R(3,4)                  1.5461         estimate D2E/DX2                !
 ! R7    R(3,13)                 1.5398         estimate D2E/DX2                !
 ! R8    R(3,17)                 1.1033         estimate D2E/DX2                !
 ! R9    R(4,5)                  1.5517         estimate D2E/DX2                !
 ! R10   R(4,18)                 1.095          estimate D2E/DX2                !
 ! R11   R(4,19)                 1.093          estimate D2E/DX2                !
 ! R12   R(5,6)                  1.5504         estimate D2E/DX2                !
 ! R13   R(5,20)                 1.0909         estimate D2E/DX2                !
 ! R14   R(5,21)                 1.0966         estimate D2E/DX2                !
 ! R15   R(6,7)                  1.5353         estimate D2E/DX2                !
 ! R16   R(6,8)                  1.5498         estimate D2E/DX2                !
 ! R17   R(6,22)                 1.0996         estimate D2E/DX2                !
 ! R18   R(7,23)                 1.0946         estimate D2E/DX2                !
 ! R19   R(7,24)                 1.0957         estimate D2E/DX2                !
 ! R20   R(7,25)                 1.0957         estimate D2E/DX2                !
 ! R21   R(8,9)                  1.5507         estimate D2E/DX2                !
 ! R22   R(8,26)                 1.0947         estimate D2E/DX2                !
 ! R23   R(8,27)                 1.0982         estimate D2E/DX2                !
 ! R24   R(9,10)                 1.5446         estimate D2E/DX2                !
 ! R25   R(9,28)                 1.0956         estimate D2E/DX2                !
 ! R26   R(9,29)                 1.094          estimate D2E/DX2                !
 ! R27   R(10,11)                1.5387         estimate D2E/DX2                !
 ! R28   R(10,30)                1.098          estimate D2E/DX2                !
 ! R29   R(10,31)                1.0972         estimate D2E/DX2                !
 ! R30   R(11,12)                1.4557         estimate D2E/DX2                !
 ! R31   R(11,32)                1.1041         estimate D2E/DX2                !
 ! R32   R(11,33)                1.097          estimate D2E/DX2                !
 ! R33   R(12,13)                1.4508         estimate D2E/DX2                !
 ! R34   R(12,34)                1.0105         estimate D2E/DX2                !
 ! R35   R(13,35)                1.1046         estimate D2E/DX2                !
 ! R36   R(13,36)                1.0964         estimate D2E/DX2                !
 ! A1    A(2,1,14)             107.1884         estimate D2E/DX2                !
 ! A2    A(2,1,15)             112.9552         estimate D2E/DX2                !
 ! A3    A(2,1,16)             111.6368         estimate D2E/DX2                !
 ! A4    A(14,1,15)            108.3157         estimate D2E/DX2                !
 ! A5    A(14,1,16)            108.7257         estimate D2E/DX2                !
 ! A6    A(15,1,16)            107.9023         estimate D2E/DX2                !
 ! A7    A(1,2,3)              114.7463         estimate D2E/DX2                !
 ! A8    A(2,3,4)              108.6838         estimate D2E/DX2                !
 ! A9    A(2,3,13)             111.8206         estimate D2E/DX2                !
 ! A10   A(2,3,17)             108.3126         estimate D2E/DX2                !
 ! A11   A(4,3,13)             112.4603         estimate D2E/DX2                !
 ! A12   A(4,3,17)             108.6071         estimate D2E/DX2                !
 ! A13   A(13,3,17)            106.8198         estimate D2E/DX2                !
 ! A14   A(3,4,5)              115.4087         estimate D2E/DX2                !
 ! A15   A(3,4,18)             107.9898         estimate D2E/DX2                !
 ! A16   A(3,4,19)             107.2716         estimate D2E/DX2                !
 ! A17   A(5,4,18)             108.7917         estimate D2E/DX2                !
 ! A18   A(5,4,19)             111.1108         estimate D2E/DX2                !
 ! A19   A(18,4,19)            105.8017         estimate D2E/DX2                !
 ! A20   A(4,5,6)              118.7619         estimate D2E/DX2                !
 ! A21   A(4,5,20)             109.3882         estimate D2E/DX2                !
 ! A22   A(4,5,21)             107.4808         estimate D2E/DX2                !
 ! A23   A(6,5,20)             107.9443         estimate D2E/DX2                !
 ! A24   A(6,5,21)             107.2448         estimate D2E/DX2                !
 ! A25   A(20,5,21)            105.1971         estimate D2E/DX2                !
 ! A26   A(5,6,7)              113.6079         estimate D2E/DX2                !
 ! A27   A(5,6,8)              114.5189         estimate D2E/DX2                !
 ! A28   A(5,6,22)             103.8456         estimate D2E/DX2                !
 ! A29   A(7,6,8)              113.2911         estimate D2E/DX2                !
 ! A30   A(7,6,22)             106.1196         estimate D2E/DX2                !
 ! A31   A(8,6,22)             104.09           estimate D2E/DX2                !
 ! A32   A(6,7,23)             112.3647         estimate D2E/DX2                !
 ! A33   A(6,7,24)             110.9728         estimate D2E/DX2                !
 ! A34   A(6,7,25)             110.9421         estimate D2E/DX2                !
 ! A35   A(23,7,24)            107.2956         estimate D2E/DX2                !
 ! A36   A(23,7,25)            107.3679         estimate D2E/DX2                !
 ! A37   A(24,7,25)            107.6771         estimate D2E/DX2                !
 ! A38   A(6,8,9)              119.2606         estimate D2E/DX2                !
 ! A39   A(6,8,26)             107.0481         estimate D2E/DX2                !
 ! A40   A(6,8,27)             107.4587         estimate D2E/DX2                !
 ! A41   A(9,8,26)             108.9899         estimate D2E/DX2                !
 ! A42   A(9,8,27)             107.7706         estimate D2E/DX2                !
 ! A43   A(26,8,27)            105.5036         estimate D2E/DX2                !
 ! A44   A(8,9,10)             113.7074         estimate D2E/DX2                !
 ! A45   A(8,9,28)             108.9735         estimate D2E/DX2                !
 ! A46   A(8,9,29)             110.7579         estimate D2E/DX2                !
 ! A47   A(10,9,28)            109.2319         estimate D2E/DX2                !
 ! A48   A(10,9,29)            108.2722         estimate D2E/DX2                !
 ! A49   A(28,9,29)            105.5734         estimate D2E/DX2                !
 ! A50   A(9,10,11)            112.3675         estimate D2E/DX2                !
 ! A51   A(9,10,30)            109.7319         estimate D2E/DX2                !
 ! A52   A(9,10,31)            110.8633         estimate D2E/DX2                !
 ! A53   A(11,10,30)           110.1831         estimate D2E/DX2                !
 ! A54   A(11,10,31)           107.6303         estimate D2E/DX2                !
 ! A55   A(30,10,31)           105.8453         estimate D2E/DX2                !
 ! A56   A(10,11,12)           112.0996         estimate D2E/DX2                !
 ! A57   A(10,11,32)           109.9703         estimate D2E/DX2                !
 ! A58   A(10,11,33)           107.7683         estimate D2E/DX2                !
 ! A59   A(12,11,32)           113.5483         estimate D2E/DX2                !
 ! A60   A(12,11,33)           107.0898         estimate D2E/DX2                !
 ! A61   A(32,11,33)           105.9736         estimate D2E/DX2                !
 ! A62   A(11,12,13)           118.7737         estimate D2E/DX2                !
 ! A63   A(11,12,34)           112.6837         estimate D2E/DX2                !
 ! A64   A(13,12,34)           111.8181         estimate D2E/DX2                !
 ! A65   A(3,13,12)            112.2045         estimate D2E/DX2                !
 ! A66   A(3,13,35)            109.5412         estimate D2E/DX2                !
 ! A67   A(3,13,36)            106.9975         estimate D2E/DX2                !
 ! A68   A(12,13,35)           113.8634         estimate D2E/DX2                !
 ! A69   A(12,13,36)           107.9377         estimate D2E/DX2                !
 ! A70   A(35,13,36)           105.8578         estimate D2E/DX2                !
 ! D1    D(14,1,2,3)          -177.381          estimate D2E/DX2                !
 ! D2    D(15,1,2,3)            63.3933         estimate D2E/DX2                !
 ! D3    D(16,1,2,3)           -58.4196         estimate D2E/DX2                !
 ! D4    D(1,2,3,4)            153.8057         estimate D2E/DX2                !
 ! D5    D(1,2,3,13)           -81.4566         estimate D2E/DX2                !
 ! D6    D(1,2,3,17)            35.9844         estimate D2E/DX2                !
 ! D7    D(2,3,4,5)             31.9994         estimate D2E/DX2                !
 ! D8    D(2,3,4,18)           -89.9523         estimate D2E/DX2                !
 ! D9    D(2,3,4,19)           156.4202         estimate D2E/DX2                !
 ! D10   D(13,3,4,5)           -92.3602         estimate D2E/DX2                !
 ! D11   D(13,3,4,18)          145.688          estimate D2E/DX2                !
 ! D12   D(13,3,4,19)           32.0606         estimate D2E/DX2                !
 ! D13   D(17,3,4,5)           149.6337         estimate D2E/DX2                !
 ! D14   D(17,3,4,18)           27.6819         estimate D2E/DX2                !
 ! D15   D(17,3,4,19)          -85.9455         estimate D2E/DX2                !
 ! D16   D(2,3,13,12)          -73.0641         estimate D2E/DX2                !
 ! D17   D(2,3,13,35)           54.4203         estimate D2E/DX2                !
 ! D18   D(2,3,13,36)          168.7314         estimate D2E/DX2                !
 ! D19   D(4,3,13,12)           49.5457         estimate D2E/DX2                !
 ! D20   D(4,3,13,35)          177.0301         estimate D2E/DX2                !
 ! D21   D(4,3,13,36)          -68.6589         estimate D2E/DX2                !
 ! D22   D(17,3,13,12)         168.6018         estimate D2E/DX2                !
 ! D23   D(17,3,13,35)         -63.9138         estimate D2E/DX2                !
 ! D24   D(17,3,13,36)          50.3972         estimate D2E/DX2                !
 ! D25   D(3,4,5,6)            136.24           estimate D2E/DX2                !
 ! D26   D(3,4,5,20)            11.7857         estimate D2E/DX2                !
 ! D27   D(3,4,5,21)          -101.9292         estimate D2E/DX2                !
 ! D28   D(18,4,5,6)          -102.2393         estimate D2E/DX2                !
 ! D29   D(18,4,5,20)          133.3064         estimate D2E/DX2                !
 ! D30   D(18,4,5,21)           19.5914         estimate D2E/DX2                !
 ! D31   D(19,4,5,6)            13.8458         estimate D2E/DX2                !
 ! D32   D(19,4,5,20)         -110.6085         estimate D2E/DX2                !
 ! D33   D(19,4,5,21)          135.6765         estimate D2E/DX2                !
 ! D34   D(4,5,6,7)             49.13           estimate D2E/DX2                !
 ! D35   D(4,5,6,8)            -83.2185         estimate D2E/DX2                !
 ! D36   D(4,5,6,22)           163.9513         estimate D2E/DX2                !
 ! D37   D(20,5,6,7)           174.286          estimate D2E/DX2                !
 ! D38   D(20,5,6,8)            41.9376         estimate D2E/DX2                !
 ! D39   D(20,5,6,22)          -70.8927         estimate D2E/DX2                !
 ! D40   D(21,5,6,7)           -72.8194         estimate D2E/DX2                !
 ! D41   D(21,5,6,8)           154.8322         estimate D2E/DX2                !
 ! D42   D(21,5,6,22)           42.002          estimate D2E/DX2                !
 ! D43   D(5,6,7,23)           -66.7529         estimate D2E/DX2                !
 ! D44   D(5,6,7,24)           173.1141         estimate D2E/DX2                !
 ! D45   D(5,6,7,25)            53.4512         estimate D2E/DX2                !
 ! D46   D(8,6,7,23)            66.1865         estimate D2E/DX2                !
 ! D47   D(8,6,7,24)           -53.9466         estimate D2E/DX2                !
 ! D48   D(8,6,7,25)          -173.6094         estimate D2E/DX2                !
 ! D49   D(22,6,7,23)          179.7837         estimate D2E/DX2                !
 ! D50   D(22,6,7,24)           59.6506         estimate D2E/DX2                !
 ! D51   D(22,6,7,25)          -60.0122         estimate D2E/DX2                !
 ! D52   D(5,6,8,9)             82.9402         estimate D2E/DX2                !
 ! D53   D(5,6,8,26)           -41.2501         estimate D2E/DX2                !
 ! D54   D(5,6,8,27)          -154.1753         estimate D2E/DX2                !
 ! D55   D(7,6,8,9)            -49.5586         estimate D2E/DX2                !
 ! D56   D(7,6,8,26)          -173.7489         estimate D2E/DX2                !
 ! D57   D(7,6,8,27)            73.3259         estimate D2E/DX2                !
 ! D58   D(22,6,8,9)          -164.3745         estimate D2E/DX2                !
 ! D59   D(22,6,8,26)           71.4352         estimate D2E/DX2                !
 ! D60   D(22,6,8,27)          -41.4899         estimate D2E/DX2                !
 ! D61   D(6,8,9,10)          -137.4495         estimate D2E/DX2                !
 ! D62   D(6,8,9,28)           100.4508         estimate D2E/DX2                !
 ! D63   D(6,8,9,29)           -15.2656         estimate D2E/DX2                !
 ! D64   D(26,8,9,10)          -14.2058         estimate D2E/DX2                !
 ! D65   D(26,8,9,28)         -136.3055         estimate D2E/DX2                !
 ! D66   D(26,8,9,29)          107.9781         estimate D2E/DX2                !
 ! D67   D(27,8,9,10)           99.8196         estimate D2E/DX2                !
 ! D68   D(27,8,9,28)          -22.2801         estimate D2E/DX2                !
 ! D69   D(27,8,9,29)         -137.9965         estimate D2E/DX2                !
 ! D70   D(8,9,10,11)           94.1737         estimate D2E/DX2                !
 ! D71   D(8,9,10,30)          -28.7802         estimate D2E/DX2                !
 ! D72   D(8,9,10,31)         -145.3399         estimate D2E/DX2                !
 ! D73   D(28,9,10,11)        -143.8697         estimate D2E/DX2                !
 ! D74   D(28,9,10,30)          93.1764         estimate D2E/DX2                !
 ! D75   D(28,9,10,31)         -23.3832         estimate D2E/DX2                !
 ! D76   D(29,9,10,11)         -29.3739         estimate D2E/DX2                !
 ! D77   D(29,9,10,30)        -152.3278         estimate D2E/DX2                !
 ! D78   D(29,9,10,31)          91.1125         estimate D2E/DX2                !
 ! D79   D(9,10,11,12)         -48.4999         estimate D2E/DX2                !
 ! D80   D(9,10,11,32)        -175.8253         estimate D2E/DX2                !
 ! D81   D(9,10,11,33)          69.0926         estimate D2E/DX2                !
 ! D82   D(30,10,11,12)         74.2            estimate D2E/DX2                !
 ! D83   D(30,10,11,32)        -53.1254         estimate D2E/DX2                !
 ! D84   D(30,10,11,33)       -168.2075         estimate D2E/DX2                !
 ! D85   D(31,10,11,12)       -170.8351         estimate D2E/DX2                !
 ! D86   D(31,10,11,32)         61.8395         estimate D2E/DX2                !
 ! D87   D(31,10,11,33)        -53.2426         estimate D2E/DX2                !
 ! D88   D(10,11,12,13)        143.3753         estimate D2E/DX2                !
 ! D89   D(10,11,12,34)        -83.066          estimate D2E/DX2                !
 ! D90   D(32,11,12,13)        -91.24           estimate D2E/DX2                !
 ! D91   D(32,11,12,34)         42.3187         estimate D2E/DX2                !
 ! D92   D(33,11,12,13)         25.3786         estimate D2E/DX2                !
 ! D93   D(33,11,12,34)        158.9374         estimate D2E/DX2                !
 ! D94   D(11,12,13,3)        -146.4543         estimate D2E/DX2                !
 ! D95   D(11,12,13,35)         88.4027         estimate D2E/DX2                !
 ! D96   D(11,12,13,36)        -28.808          estimate D2E/DX2                !
 ! D97   D(34,12,13,3)          79.617          estimate D2E/DX2                !
 ! D98   D(34,12,13,35)        -45.526          estimate D2E/DX2                !
 ! D99   D(34,12,13,36)       -162.7367         estimate D2E/DX2                !
 --------------------------------------------------------------------------------
 Trust Radius=3.00D-01 FncErr=1.00D-07 GrdErr=1.00D-06 EigMax=2.50D+02 EigMin=1.00D-04
 Number of steps in this run=    215 maximum allowed number of steps=    216.
 GradGradGradGradGradGradGradGradGradGradGradGradGradGradGradGradGradGrad

                          Input orientation:                          
 ---------------------------------------------------------------------
 Center     Atomic      Atomic             Coordinates (Angstroms)
 Number     Number       Type             X           Y           Z
 ---------------------------------------------------------------------
      1          6           0        2.355619    1.115857    1.822188
      2          8           0        2.470694    0.313352    0.672672
      3          6           0        2.578205    1.036648   -0.552273
      4          6           0        3.331930    0.161233   -1.579843
      5          6           0        3.112524   -1.368404   -1.439360
      6          6           0        2.867569   -2.207586   -2.719739
      7          6           0        3.886558   -1.937774   -3.836041
      8          6           0        1.399685   -2.208577   -3.217053
      9          6           0        0.894380   -1.030766   -4.090034
     10          6           0       -0.516391   -0.533319   -3.705417
     11          6           0       -0.472363    0.649296   -2.721978
     12          7           0        0.420743    0.396165   -1.600683
     13          6           0        1.202185    1.496377   -1.068148
     14          1           0        2.329463    0.443701    2.684218
     15          1           0        1.438934    1.724831    1.830523
     16          1           0        3.215311    1.796398    1.930262
     17          1           0        3.170179    1.948804   -0.365458
     18          1           0        4.401883    0.374262   -1.485368
     19          1           0        3.045743    0.510191   -2.575302
     20          1           0        2.285615   -1.554064   -0.752520
     21          1           0        3.997510   -1.783867   -0.942745
     22          1           0        3.040093   -3.243147   -2.392649
     23          1           0        3.800987   -0.924916   -4.242187
     24          1           0        3.749179   -2.635649   -4.669524
     25          1           0        4.911581   -2.056976   -3.467807
     26          1           0        0.761087   -2.295687   -2.332174
     27          1           0        1.244382   -3.136471   -3.783649
     28          1           0        0.893649   -1.340911   -5.140782
     29          1           0        1.583918   -0.183236   -4.034435
     30          1           0       -1.097234   -1.360783   -3.277084
     31          1           0       -1.071093   -0.206290   -4.593803
     32          1           0       -1.497132    0.923951   -2.416395
     33          1           0       -0.074940    1.518198   -3.260873
     34          1           0       -0.017983   -0.142582   -0.866965
     35          1           0        0.685005    2.071129   -0.279254
     36          1           0        1.386264    2.205672   -1.883730
 ---------------------------------------------------------------------
                    Distance matrix (angstroms):
                    1          2          3          4          5
     1  C    0.000000
     2  O    1.406643   0.000000
     3  C    2.386186   1.426606   0.000000
     4  C    3.665829   2.416338   1.546076   0.000000
     5  C    4.169191   2.775055   2.618529   1.551664   0.000000
     6  C    5.651236   4.245126   3.912377   2.669513   1.550355
     7  C    6.609387   5.234571   4.619752   3.131114   2.582129
     8  C    6.112251   4.757851   4.361358   3.468432   2.607662
     9  C    6.457366   5.193726   4.430036   3.696427   3.472784
    10  C    6.443806   5.367233   4.688672   4.450847   4.359060
    11  C    5.372579   4.505341   3.763460   4.001915   4.309019
    12  N    3.997217   3.062238   2.482745   2.920725   3.222641
    13  C    3.135163   2.457462   1.539776   2.565201   3.463259
    14  H    1.093424   2.020707   3.299748   4.389413   4.571740
    15  H    1.100559   2.097003   2.729332   4.202246   4.802202
    16  H    1.101765   2.082166   2.673220   3.874042   4.623948
    17  H    2.478528   2.059538   1.103341   2.167096   3.487185
    18  H    3.959430   2.896607   2.152956   1.095037   2.168281
    19  H    4.492329   3.304355   2.142054   1.092984   2.196348
    20  H    3.709784   2.356410   2.614860   2.172897   1.090871
    21  H    4.330018   3.055988   3.181540   2.152279   1.096557
    22  H    6.101989   4.729597   4.681556   3.512211   2.104440
    23  H    6.559763   5.240117   4.354123   2.913385   2.920017
    24  H    7.626147   6.234596   5.639920   4.188409   3.527775
    25  H    6.677115   5.359100   4.849277   3.313632   2.797380
    26  H    5.607129   4.331159   4.192186   3.634789   2.680714
    27  H    7.123381   5.767488   5.443877   4.482128   3.480188
    28  H    7.527019   6.246592   5.435525   4.569676   4.315633
    29  H    6.048405   4.815582   3.821280   3.033023   3.236615
    30  H    6.637659   5.579733   5.165378   4.981431   4.593403
    31  H    7.392927   6.367892   5.585359   5.348424   5.366905
    32  H    5.731152   5.065453   4.482860   4.959980   5.240078
    33  H    5.648628   4.837838   3.821987   4.034102   4.670150
    34  H    3.801209   2.961734   2.868764   3.438373   3.410330
    35  H    2.849483   2.680416   2.174603   3.513609   4.366816
    36  H    3.982608   3.360365   2.135444   2.838608   3.993927
                    6          7          8          9         10
     6  C    0.000000
     7  C    1.535340   0.000000
     8  C    1.549841   2.577018   0.000000
     9  C    2.675087   3.136927   1.550699   0.000000
    10  C    3.902040   4.623366   2.591589   1.544557   0.000000
    11  C    4.395103   5.189823   3.452115   2.561673   1.538723
    12  N    3.744164   4.738773   3.218021   2.908149   2.484364
    13  C    4.384131   5.163380   4.287596   3.951328   3.745445
    14  H    6.043313   7.114053   6.536365   7.079831   7.062641
    15  H    6.181407   7.177430   6.399317   6.553079   6.290403
    16  H    6.146164   6.902527   6.769873   7.044398   7.149410
    17  H    4.786417   5.259623   5.343225   5.284843   5.559412
    18  H    3.247111   3.337175   4.322381   4.589222   5.471904
    19  H    2.727439   2.879057   3.242384   3.049151   3.880061
    20  H    2.153071   3.495477   2.699478   3.653542   4.196755
    21  H    2.148025   2.899511   3.478728   4.483526   5.437971
    22  H    1.099608   2.122235   2.107348   3.518498   4.659946
    23  H    2.198718   1.094604   2.909457   2.912511   4.368206
    24  H    2.182231   1.095717   2.795029   3.325859   4.852255
    25  H    2.181805   1.095663   3.524099   4.192634   5.642771
    26  H    2.143650   3.486873   1.094717   2.169761   2.573653
    27  H    2.151620   2.901847   1.098243   2.156470   3.143698
    28  H    3.241749   3.319051   2.170173   1.095565   2.168107
    29  H    2.733895   2.901710   2.191817   1.094011   2.154555
    30  H    4.092356   5.048122   2.637606   2.176310   1.097973
    31  H    4.798997   5.305709   3.465450   2.190121   1.097211
    32  H    5.380443   6.260111   4.341121   3.513021   2.178777
    33  H    4.778352   5.288480   4.008152   2.850316   2.145046
    34  H    4.002927   5.223368   3.435263   3.465465   2.908247
    35  H    5.387667   6.242755   5.239972   4.918092   4.468232
    36  H    4.729696   5.218347   4.611239   3.947690   3.800094
                   11         12         13         14         15
    11  C    0.000000
    12  N    1.455685   0.000000
    13  C    2.501362   1.450763   0.000000
    14  H    6.092575   4.691040   4.056986   0.000000
    15  H    5.053227   3.817754   2.917282   1.778520   0.000000
    16  H    6.046332   4.715701   3.623969   1.784087   1.780614
    17  H    4.528800   3.390556   2.138098   3.503236   2.805300
    18  H    5.036181   3.982869   3.416325   4.656736   4.647390
    19  H    3.523909   2.802411   2.577360   5.308487   4.844428
    20  H    4.042277   2.828519   3.252481   3.975444   4.259123
    21  H    5.391263   4.240127   4.311562   4.571575   5.152503
    22  H    5.253277   4.553328   5.253123   6.314461   6.714142
    23  H    4.801115   4.488746   4.763502   7.212044   7.034079
    24  H    5.692558   5.448684   6.044065   8.097871   8.160982
    25  H    6.071822   5.447171   5.669595   7.125176   7.377916
    26  H    3.216563   2.810157   4.021453   5.926908   5.826842
    27  H    4.290267   4.233584   5.370196   7.471836   7.428932
    28  H    3.417240   3.971571   4.973103   8.153345   7.635130
    29  H    2.577585   2.758954   3.430114   6.788902   6.169236
    30  H    2.176930   2.863816   4.281366   7.108836   6.483889
    31  H    2.143416   3.398131   4.527374   8.059520   7.162501
    32  H    1.104069   2.149928   3.071117   6.394508   5.224769
    33  H    1.096970   2.064192   2.537630   6.502293   5.315715
    34  H    2.067513   1.010481   2.053162   4.297107   3.589746
    35  H    3.054180   2.149771   1.104613   3.759645   2.267044
    36  H    2.565046   2.070425   1.096429   4.986012   3.745618
                   16         17         18         19         20
    16  H    0.000000
    17  H    2.301216   0.000000
    18  H    3.885480   2.291391   0.000000
    19  H    4.688624   2.639792   1.745150   0.000000
    20  H    4.391726   3.633504   2.955350   2.856831   0.000000
    21  H    4.656641   3.866596   2.261742   2.972172   1.737694
    22  H    6.641933   5.575193   3.970299   3.757784   2.472299
    23  H    6.771093   4.866745   3.106282   2.325603   3.856158
    24  H    7.967762   6.314858   4.429947   3.844073   4.319116
    25  H    6.845800   5.357548   3.178172   3.296705   3.810696
    26  H    6.398183   5.261882   4.593593   3.626530   2.317217
    27  H    7.801702   6.422830   5.251395   4.243012   3.574342
    28  H    8.076664   6.229650   5.348979   3.826196   4.608671
    29  H    6.492920   4.530256   3.840505   2.178725   3.625261
    30  H    7.462058   6.135288   6.038287   4.599707   4.225453
    31  H    8.058998   6.364882   6.320829   4.640693   5.276309
    32  H    6.470063   5.200045   5.997278   4.564446   4.818528
    33  H    6.152319   4.370315   4.950045   3.350335   4.615500
    34  H    4.694498   3.845748   4.492745   3.568045   2.704060
    35  H    3.370443   2.489676   4.260193   3.644372   3.990984
    36  H    4.249642   2.356584   3.550593   2.471194   4.027913
                   21         22         23         24         25
    21  H    0.000000
    22  H    2.269001   0.000000
    23  H    3.415075   3.061690   0.000000
    24  H    3.830937   2.460897   1.764060   0.000000
    25  H    2.699269   2.462810   1.764835   1.769227   0.000000
    26  H    3.559060   2.468846   3.842935   3.808867   4.309668
    27  H    4.180908   2.273948   3.411373   2.703628   3.835807
    28  H    5.239626   3.972148   3.071342   3.170565   4.410825
    29  H    4.236272   3.765496   2.347051   3.332570   3.860740
    30  H    5.620014   4.630658   5.011385   5.201143   6.052018
    31  H    6.442803   5.565019   4.937330   5.398384   6.362806
    32  H    6.300398   6.160494   5.901008   6.728382   7.145838
    33  H    5.732556   5.755662   4.685572   5.819160   6.139225
    34  H    4.338633   4.614438   5.156423   5.904773   5.893207
    35  H    5.125807   6.185015   5.864339   7.128631   6.713574
    36  H    4.860091   5.716973   4.603671   6.064850   5.753897
                   26         27         28         29         30
    26  H    0.000000
    27  H    1.745643   0.000000
    28  H    2.969419   2.277907   0.000000
    29  H    2.834994   2.983249   1.743756   0.000000
    30  H    2.284789   2.982087   2.727156   3.024694   0.000000
    31  H    3.582936   3.821483   2.333830   2.713394   1.751367
    32  H    3.933538   5.086483   4.274075   3.651956   2.474008
    33  H    4.013370   4.866194   3.556223   2.499016   3.055140
    34  H    2.718391   4.366232   4.531289   3.549733   2.908174
    35  H    4.825905   6.301808   5.943064   4.471196   4.892993
    36  H    4.566638   5.671712   4.840384   3.220479   4.563858
                   31         32         33         34         35
    31  H    0.000000
    32  H    2.489991   0.000000
    33  H    2.396431   1.757528   0.000000
    34  H    3.873296   2.392930   2.914143   0.000000
    35  H    5.185157   3.262685   3.126228   2.395853   0.000000
    36  H    4.381856   3.200080   2.122324   2.918906   1.756191
                   36
    36  H    0.000000
 Stoichiometry    C11H23NO
 Framework group  C1[X(C11H23NO)]
 Deg. of freedom   102
 Full point group                 C1      NOp   1
 Largest Abelian subgroup         C1      NOp   1
 Largest concise Abelian subgroup C1      NOp   1
                         Standard orientation:                         
 ---------------------------------------------------------------------
 Center     Atomic      Atomic             Coordinates (Angstroms)
 Number     Number       Type             X           Y           Z
 ---------------------------------------------------------------------
      1          6           0        3.910824   -0.234071    0.560847
      2          8           0        2.545999   -0.573019    0.529044
      3          6           0        1.871192   -0.220901   -0.677543
      4          6           0        0.668444   -1.173426   -0.868449
      5          6           0       -0.001099   -1.670872    0.439954
      6          6           0       -1.549002   -1.691962    0.524515
      7          6           0       -2.221557   -2.363678   -0.681194
      8          6           0       -2.190840   -0.333916    0.906301
      9          6           0       -2.429150    0.728785   -0.197576
     10          6           0       -2.060597    2.165436    0.233537
     11          6           0       -0.626347    2.548504   -0.171252
     12          7           0        0.339503    1.524747    0.200332
     13          6           0        1.455140    1.261557   -0.688936
     14          1           0        4.312167   -0.598277    1.510507
     15          1           0        4.084980    0.851198    0.505250
     16          1           0        4.466656   -0.708943   -0.263431
     17          1           0        2.569851   -0.362902   -1.519608
     18          1           0        1.011951   -2.041365   -1.440978
     19          1           0       -0.053083   -0.660588   -1.509550
     20          1           0        0.373621   -1.088278    1.282669
     21          1           0        0.348288   -2.694533    0.620186
     22          1           0       -1.756508   -2.338653    1.389309
     23          1           0       -2.080218   -1.796261   -1.606516
     24          1           0       -3.301031   -2.464276   -0.522413
     25          1           0       -1.814797   -3.367334   -0.847620
     26          1           0       -1.570093    0.104162    1.694441
     27          1           0       -3.158356   -0.548243    1.379708
     28          1           0       -3.482551    0.700989   -0.497305
     29          1           0       -1.860527    0.484888   -1.099818
     30          1           0       -2.188967    2.271228    1.318836
     31          1           0       -2.740733    2.896499   -0.221254
     32          1           0       -0.379133    3.550919    0.219923
     33          1           0       -0.599052    2.635860   -1.264397
     34          1           0        0.636480    1.600323    1.163226
     35          1           0        2.339344    1.894952   -0.496159
     36          1           0        1.135150    1.496809   -1.710904
 ---------------------------------------------------------------------
 Rotational constants (GHZ):           0.9750980           0.5943704           0.4201153
 Standard basis: 6-31+G(3df,2p) (6D, 7F)
 There are   717 symmetry adapted cartesian basis functions of A   symmetry.
 There are   678 symmetry adapted basis functions of A   symmetry.
   678 basis functions,   932 primitive gaussians,   717 cartesian basis functions
    52 alpha electrons       52 beta electrons
       nuclear repulsion energy       909.4239959063 Hartrees.
 NAtoms=   36 NActive=   36 NUniq=   36 SFac= 1.00D+00 NAtFMM=   60 NAOKFM=F Big=F
 Integral buffers will be    131072 words long.
 Regular integral format.
 Two-electron integral symmetry is turned on.
 One-electron integrals computed using PRISM.
 PrsmSu:  requested number of processors reduced to:  12 ShMem   1 Linda.
 NBasis=   678 RedAO= T EigKep=  7.92D-06  NBF=   678
 NBsUse=   678 1.00D-06 EigRej= -1.00D+00 NBFU=   678
 ExpMin= 4.38D-02 ExpMax= 5.48D+03 ExpMxC= 8.25D+02 IAcc=3 IRadAn=         5 AccDes= 0.00D+00
 Harris functional with IExCor=  402 and IRadAn=       5 diagonalized for initial guess.
 HarFok:  IExCor=  402 AccDes= 0.00D+00 IRadAn=         5 IDoV= 1 UseB2=F ITyADJ=14
 ICtDFT=  3500011 ScaDFX=  1.000000  1.000000  1.000000  1.000000
 FoFCou: FMM=F IPFlag=           0 FMFlag=      100000 FMFlg1=           0
         NFxFlg=           0 DoJE=T BraDBF=F KetDBF=T FulRan=T
         wScrn=  0.000000 ICntrl=       500 IOpCl=  0 I1Cent=   200000004 NGrid=           0
         NMat0=    1 NMatS0=      1 NMatT0=    0 NMatD0=    1 NMtDS0=    0 NMtDT0=    0
 Petite list used in FoFCou.
 Requested convergence on RMS density matrix=1.00D-08 within 128 cycles.
 Requested convergence on MAX density matrix=1.00D-06.
 Requested convergence on             energy=1.00D-06.
 No special actions if energy rises.
 SCF Done:  E(RB3LYP) =  -563.041662437     A.U. after   12 cycles
            NFock= 12  Conv=0.63D-08     -V/T= 2.0083
 DoSCS=F DFT=T ScalE2(SS,OS)=  1.000000  1.000000
 ExpMin= 4.38D-02 ExpMax= 5.48D+03 ExpMxC= 8.25D+02 IAcc=3 IRadAn=         5 AccDes= 0.00D+00
 HarFok:  IExCor=  205 AccDes= 0.00D+00 IRadAn=         5 IDoV=-2 UseB2=F ITyADJ=14
 ICtDFT= 12500011 ScaDFX=  1.000000  1.000000  1.000000  1.000000
 Range of M.O.s used for correlation:    14   678
 NBasis=   678 NAE=    52 NBE=    52 NFC=    13 NFV=     0
 NROrb=    665 NOA=    39 NOB=    39 NVA=   626 NVB=   626

 **** Warning!!: The largest alpha MO coefficient is  0.70459900D+02

 Orbital symmetries:
       Occupied  (A) (A) (A) (A) (A) (A) (A) (A) (A) (A) (A) (A)
                 (A) (A) (A) (A) (A) (A) (A) (A) (A) (A) (A) (A)
                 (A) (A) (A) (A) (A) (A) (A) (A) (A) (A) (A) (A)
                 (A) (A) (A) (A) (A) (A) (A) (A) (A) (A) (A) (A)
                 (A) (A) (A) (A)
       Virtual   (A) (A) (A) (A) (A) (A) (A) (A) (A) (A) (A) (A)
                 (A) (A) (A) (A) (A) (A) (A) (A) (A) (A) (A) (A)
                 (A) (A) (A) (A) (A) (A) (A) (A) (A) (A) (A) (A)
                 (A) (A) (A) (A) (A) (A) (A) (A) (A) (A) (A) (A)
                 (A) (A) (A) (A) (A) (A) (A) (A) (A) (A) (A) (A)
                 (A) (A) (A) (A) (A) (A) (A) (A) (A) (A) (A) (A)
                 (A) (A) (A) (A) (A) (A) (A) (A) (A) (A) (A) (A)
                 (A) (A) (A) (A) (A) (A) (A) (A) (A) (A) (A) (A)
                 (A) (A) (A) (A) (A) (A) (A) (A) (A) (A) (A) (A)
                 (A) (A) (A) (A) (A) (A) (A) (A) (A) (A) (A) (A)
                 (A) (A) (A) (A) (A) (A) (A) (A) (A) (A) (A) (A)
                 (A) (A) (A) (A) (A) (A) (A) (A) (A) (A) (A) (A)
                 (A) (A) (A) (A) (A) (A) (A) (A) (A) (A) (A) (A)
                 (A) (A) (A) (A) (A) (A) (A) (A) (A) (A) (A) (A)
                 (A) (A) (A) (A) (A) (A) (A) (A) (A) (A) (A) (A)
                 (A) (A) (A) (A) (A) (A) (A) (A) (A) (A) (A) (A)
                 (A) (A) (A) (A) (A) (A) (A) (A) (A) (A) (A) (A)
                 (A) (A) (A) (A) (A) (A) (A) (A) (A) (A) (A) (A)
                 (A) (A) (A) (A) (A) (A) (A) (A) (A) (A) (A) (A)
                 (A) (A) (A) (A) (A) (A) (A) (A) (A) (A) (A) (A)
                 (A) (A) (A) (A) (A) (A) (A) (A) (A) (A) (A) (A)
                 (A) (A) (A) (A) (A) (A) (A) (A) (A) (A) (A) (A)
                 (A) (A) (A) (A) (A) (A) (A) (A) (A) (A) (A) (A)
                 (A) (A) (A) (A) (A) (A) (A) (A) (A) (A) (A) (A)
                 (A) (A) (A) (A) (A) (A) (A) (A) (A) (A) (A) (A)
                 (A) (A) (A) (A) (A) (A) (A) (A) (A) (A) (A) (A)
                 (A) (A) (A) (A) (A) (A) (A) (A) (A) (A) (A) (A)
                 (A) (A) (A) (A) (A) (A) (A) (A) (A) (A) (A) (A)
                 (A) (A) (A) (A) (A) (A) (A) (A) (A) (A) (A) (A)
                 (A) (A) (A) (A) (A) (A) (A) (A) (A) (A) (A) (A)
                 (A) (A) (A) (A) (A) (A) (A) (A) (A) (A) (A) (A)
                 (A) (A) (A) (A) (A) (A) (A) (A) (A) (A) (A) (A)
                 (A) (A) (A) (A) (A) (A) (A) (A) (A) (A) (A) (A)
                 (A) (A) (A) (A) (A) (A) (A) (A) (A) (A) (A) (A)
                 (A) (A) (A) (A) (A) (A) (A) (A) (A) (A) (A) (A)
                 (A) (A) (A) (A) (A) (A) (A) (A) (A) (A) (A) (A)
                 (A) (A) (A) (A) (A) (A) (A) (A) (A) (A) (A) (A)
                 (A) (A) (A) (A) (A) (A) (A) (A) (A) (A) (A) (A)
                 (A) (A) (A) (A) (A) (A) (A) (A) (A) (A) (A) (A)
                 (A) (A) (A) (A) (A) (A) (A) (A) (A) (A) (A) (A)
                 (A) (A) (A) (A) (A) (A) (A) (A) (A) (A) (A) (A)
                 (A) (A) (A) (A) (A) (A) (A) (A) (A) (A) (A) (A)
                 (A) (A) (A) (A) (A) (A) (A) (A) (A) (A) (A) (A)
                 (A) (A) (A) (A) (A) (A) (A) (A) (A) (A) (A) (A)
                 (A) (A) (A) (A) (A) (A) (A) (A) (A) (A) (A) (A)
                 (A) (A) (A) (A) (A) (A) (A) (A) (A) (A) (A) (A)
                 (A) (A) (A) (A) (A) (A) (A) (A) (A) (A) (A) (A)
                 (A) (A) (A) (A) (A) (A) (A) (A) (A) (A) (A) (A)
                 (A) (A) (A) (A) (A) (A) (A) (A) (A) (A) (A) (A)
                 (A) (A) (A) (A) (A) (A) (A) (A) (A) (A) (A) (A)
                 (A) (A) (A) (A) (A) (A) (A) (A) (A) (A) (A) (A)
                 (A) (A) (A) (A) (A) (A) (A) (A) (A) (A) (A) (A)
                 (A) (A)
    40 initial guesses have been made.
 Convergence on wavefunction:    0.000001000000000
 Iteration     1 Dimension    40 NMult     0 NNew     40
 CISAX will form     2 AO SS matrices at one time.
 Iteration     2 Dimension    60 NMult    40 NNew     20
 Iteration     3 Dimension    80 NMult    60 NNew     20
 Iteration     4 Dimension   100 NMult    80 NNew     20
 Iteration     5 Dimension   120 NMult   100 NNew     20
 Iteration     6 Dimension   140 NMult   120 NNew     20
 Iteration     7 Dimension   160 NMult   140 NNew     20
 Iteration     8 Dimension   180 NMult   160 NNew     20
slurmstepd: error: *** JOB 27484595 ON lewis4-r630-hpc4rc-node351 CANCELLED AT 2023-05-25T01:49:02 DUE TO TIME LIMIT ***
