### Starting Gaussian ###
 Entering Gaussian System, Link 0=g16
 Initial command:
 /cluster/software/gaussian/gaussian-16-A.03/avx2/g16/l1.exe "/local/scratch/ks29c/Gau-8906.inp" -scrdir="/local/scratch/ks29c/"
 Entering Link 1 = /cluster/software/gaussian/gaussian-16-A.03/avx2/g16/l1.exe PID=      8912.
  
 Copyright (c) 1988,1990,1992,1993,1995,1998,2003,2009,2016,
            Gaussian, Inc.  All Rights Reserved.
  
 This is part of the Gaussian(R) 16 program.  It is based on
 the Gaussian(R) 09 system (copyright 2009, Gaussian, Inc.),
 the Gaussian(R) 03 system (copyright 2003, Gaussian, Inc.),
 the Gaussian(R) 98 system (copyright 1998, Gaussian, Inc.),
 the Gaussian(R) 94 system (copyright 1995, Gaussian, Inc.),
 the Gaussian 92(TM) system (copyright 1992, Gaussian, Inc.),
 the Gaussian 90(TM) system (copyright 1990, Gaussian, Inc.),
 the Gaussian 88(TM) system (copyright 1988, Gaussian, Inc.),
 the Gaussian 86(TM) system (copyright 1986, Carnegie Mellon
 University), and the Gaussian 82(TM) system (copyright 1983,
 Carnegie Mellon University). Gaussian is a federally registered
 trademark of Gaussian, Inc.
  
 This software contains proprietary and confidential information,
 including trade secrets, belonging to Gaussian, Inc.
  
 This software is provided under written license and may be
 used, copied, transmitted, or stored only in accord with that
 written license.
  
 The following legend is applicable only to US Government
 contracts under FAR:
  
                    RESTRICTED RIGHTS LEGEND
  
 Use, reproduction and disclosure by the US Government is
 subject to restrictions as set forth in subparagraphs (a)
 and (c) of the Commercial Computer Software - Restricted
 Rights clause in FAR 52.227-19.
  
 Gaussian, Inc.
 340 Quinnipiac St., Bldg. 40, Wallingford CT 06492
  
  
 ---------------------------------------------------------------
 Warning -- This program may not be used in any manner that
 competes with the business of Gaussian, Inc. or will provide
 assistance to any competitor of Gaussian, Inc.  The licensee
 of this program is prohibited from giving any competitor of
 Gaussian, Inc. access to this program.  By using this program,
 the user acknowledges that Gaussian, Inc. is engaged in the
 business of creating and licensing software in the field of
 computational chemistry and represents and warrants to the
 licensee that it is not a competitor of Gaussian, Inc. and that
 it will not use this program in any manner prohibited above.
 ---------------------------------------------------------------
  

 Cite this work as:
 Gaussian 16, Revision A.03,
 M. J. Frisch, G. W. Trucks, H. B. Schlegel, G. E. Scuseria, 
 M. A. Robb, J. R. Cheeseman, G. Scalmani, V. Barone, 
 G. A. Petersson, H. Nakatsuji, X. Li, M. Caricato, A. V. Marenich, 
 J. Bloino, B. G. Janesko, R. Gomperts, B. Mennucci, H. P. Hratchian, 
 J. V. Ortiz, A. F. Izmaylov, J. L. Sonnenberg, D. Williams-Young, 
 F. Ding, F. Lipparini, F. Egidi, J. Goings, B. Peng, A. Petrone, 
 T. Henderson, D. Ranasinghe, V. G. Zakrzewski, J. Gao, N. Rega, 
 G. Zheng, W. Liang, M. Hada, M. Ehara, K. Toyota, R. Fukuda, 
 J. Hasegawa, M. Ishida, T. Nakajima, Y. Honda, O. Kitao, H. Nakai, 
 T. Vreven, K. Throssell, J. A. Montgomery, Jr., J. E. Peralta, 
 F. Ogliaro, M. J. Bearpark, J. J. Heyd, E. N. Brothers, K. N. Kudin, 
 V. N. Staroverov, T. A. Keith, R. Kobayashi, J. Normand, 
 K. Raghavachari, A. P. Rendell, J. C. Burant, S. S. Iyengar, 
 J. Tomasi, M. Cossi, J. M. Millam, M. Klene, C. Adamo, R. Cammi, 
 J. W. Ochterski, R. L. Martin, K. Morokuma, O. Farkas, 
 J. B. Foresman, and D. J. Fox, Gaussian, Inc., Wallingford CT, 2016.
 
 ******************************************
 Gaussian 16:  ES64L-G16RevA.03 25-Dec-2016
                25-May-2023 
 ******************************************
 %chk=COCCdNCCqCCqCrdOrCqNrCO.chk
 %NProcShared=20
 Will use up to   20 processors via shared memory.
 -----------------------------------------------------------------
 # opt freq b3lyp/6-31+g(3df,2p) Geom=AllCheckpoint TD(NStates=10)
 -----------------------------------------------------------------
 1/18=20,19=15,26=3,29=7,38=1/1,3;
 2/9=110,12=2,40=1/2;
 3/5=1,6=6,7=216,11=9,14=-4,25=1,30=1,71=1,74=-5/1,2,3,8;
 4//1;
 5/5=2,38=5/2;
 8/6=1,10=2,108=10/1;
 9/15=2,41=10,42=1,70=2/14;
 10/5=4/2;
 6/7=2,8=2,9=2,10=2/1;
 7/12=6,13=5/1,2,3,16;
 1/18=20,19=15,26=3/3(2);
 2/9=110/2;
 99//99;
 2/9=110/2;
 3/5=1,6=6,7=216,11=9,14=-2,25=1,30=1,71=1,74=-5/1,2,3,8;
 4/5=5,16=3,69=1/1;
 5/5=2,38=5/2;
 8/6=1,10=2,108=10/1;
 9/15=2,41=10,42=1,49=4,70=2/14;
 10/5=4/2;
 7/12=6,13=5/1,2,3,16;
 1/18=20,19=15,26=3/3(-8);
 2/9=110/2;
 6/7=2,8=2,9=2,10=2/1;
 99//99;
 Structure from the checkpoint file:  "COCCdNCCqCCqCrdOrCqNrCO.chk"
 -------------------
 Title Card Required
 -------------------
 Charge =  0 Multiplicity = 1
 Redundant internal coordinates found in file.  (old form).
 C,0,1.3291992358,0.5638377762,-0.488943481
 O,0,2.6794157592,0.2084038247,-0.3024712485
 C,0,2.9935684021,-0.0567120996,1.0452910182
 C,0,4.4607458589,-0.3788688636,1.1226010082
 N,0,4.9225854912,-1.2039037643,1.9596062797
 C,0,6.3550991833,-1.4353317044,1.9946734736
 C,0,6.891274624,-1.334142189,3.4379328377
 C,0,6.4904306492,-2.5784667156,4.2676618517
 C,0,5.0113466892,-2.973275511,4.2431109897
 C,0,4.0473627795,-2.0775966088,5.0005547512
 O,0,4.6520944323,-3.9993929914,3.7144879436
 C,0,8.4276656988,-1.1240711144,3.4428469605
 N,0,8.8738155978,0.1311180824,2.8113048624
 C,0,9.0471602377,-1.1301863515,4.8557699963
 O,0,10.4219185262,-0.8398399732,4.7991267458
 H,0,1.1877302994,0.7568031017,-1.5547515019
 H,0,1.0656741884,1.4717092596,0.0769040477
 H,0,0.6478774921,-0.2434593089,-0.1790825745
 H,0,2.4068094781,-0.893244714,1.452364782
 H,0,2.7806248319,0.8305775759,1.6717309889
 H,0,5.0911659766,0.1657050429,0.4012669434
 H,0,6.8919019555,-0.7385445516,1.3322154892
 H,0,6.5378406178,-2.4536476224,1.6259096771
 H,0,6.4421183028,-0.440640018,3.8957283267
 H,0,6.7645413008,-2.4117264976,5.3157918901
 H,0,7.0495405985,-3.4487431332,3.9076215447
 H,0,4.2497005627,-2.1502876727,6.0764625657
 H,0,3.0229887339,-2.3981518171,4.8077395923
 H,0,4.1693293284,-1.0310943872,4.7107754301
 H,0,8.9005799602,-1.9391234132,2.8790216024
 H,0,8.2803501184,0.9070277229,3.0924336097
 H,0,8.8467603181,0.0803554479,1.8005223321
 H,0,8.9401068049,-2.111595333,5.3251469765
 H,0,8.5016357243,-0.4011262405,5.4862292991
 H,0,10.4926902424,-0.1697152381,4.1008949896
 Recover connectivity data from disk.

 GradGradGradGradGradGradGradGradGradGradGradGradGradGradGradGradGradGrad
 Berny optimization.
 Initialization pass.
                           ----------------------------
                           !    Initial Parameters    !
                           ! (Angstroms and Degrees)  !
 --------------------------                            --------------------------
 ! Name  Definition              Value          Derivative Info.                !
 --------------------------------------------------------------------------------
 ! R1    R(1,2)                  1.4086         estimate D2E/DX2                !
 ! R2    R(1,16)                 1.0923         estimate D2E/DX2                !
 ! R3    R(1,17)                 1.1018         estimate D2E/DX2                !
 ! R4    R(1,18)                 1.1009         estimate D2E/DX2                !
 ! R5    R(2,3)                  1.4091         estimate D2E/DX2                !
 ! R6    R(3,4)                  1.5041         estimate D2E/DX2                !
 ! R7    R(3,19)                 1.0999         estimate D2E/DX2                !
 ! R8    R(3,20)                 1.1068         estimate D2E/DX2                !
 ! R9    R(4,5)                  1.2628         estimate D2E/DX2                !
 ! R10   R(4,21)                 1.102          estimate D2E/DX2                !
 ! R11   R(5,6)                  1.4515         estimate D2E/DX2                !
 ! R12   R(6,7)                  1.543          estimate D2E/DX2                !
 ! R13   R(6,22)                 1.1011         estimate D2E/DX2                !
 ! R14   R(6,23)                 1.0983         estimate D2E/DX2                !
 ! R15   R(7,8)                  1.5484         estimate D2E/DX2                !
 ! R16   R(7,12)                 1.5507         estimate D2E/DX2                !
 ! R17   R(7,24)                 1.0998         estimate D2E/DX2                !
 ! R18   R(8,9)                  1.5311         estimate D2E/DX2                !
 ! R19   R(8,25)                 1.0961         estimate D2E/DX2                !
 ! R20   R(8,26)                 1.0953         estimate D2E/DX2                !
 ! R21   R(9,10)                 1.5183         estimate D2E/DX2                !
 ! R22   R(9,11)                 1.2089         estimate D2E/DX2                !
 ! R23   R(10,27)                1.0972         estimate D2E/DX2                !
 ! R24   R(10,28)                1.0905         estimate D2E/DX2                !
 ! R25   R(10,29)                1.0927         estimate D2E/DX2                !
 ! R26   R(12,13)                1.4742         estimate D2E/DX2                !
 ! R27   R(12,14)                1.5428         estimate D2E/DX2                !
 ! R28   R(12,30)                1.0981         estimate D2E/DX2                !
 ! R29   R(13,31)                1.0165         estimate D2E/DX2                !
 ! R30   R(13,32)                1.0124         estimate D2E/DX2                !
 ! R31   R(14,15)                1.4062         estimate D2E/DX2                !
 ! R32   R(14,33)                1.0931         estimate D2E/DX2                !
 ! R33   R(14,34)                1.1075         estimate D2E/DX2                !
 ! R34   R(15,35)                0.9704         estimate D2E/DX2                !
 ! A1    A(2,1,16)             107.3304         estimate D2E/DX2                !
 ! A2    A(2,1,17)             111.6668         estimate D2E/DX2                !
 ! A3    A(2,1,18)             111.7731         estimate D2E/DX2                !
 ! A4    A(16,1,17)            108.9396         estimate D2E/DX2                !
 ! A5    A(16,1,18)            108.9063         estimate D2E/DX2                !
 ! A6    A(17,1,18)            108.1608         estimate D2E/DX2                !
 ! A7    A(1,2,3)              112.8181         estimate D2E/DX2                !
 ! A8    A(2,3,4)              107.8748         estimate D2E/DX2                !
 ! A9    A(2,3,19)             112.2199         estimate D2E/DX2                !
 ! A10   A(2,3,20)             110.3426         estimate D2E/DX2                !
 ! A11   A(4,3,19)             109.7821         estimate D2E/DX2                !
 ! A12   A(4,3,20)             109.2856         estimate D2E/DX2                !
 ! A13   A(19,3,20)            107.3133         estimate D2E/DX2                !
 ! A14   A(3,4,5)              122.0571         estimate D2E/DX2                !
 ! A15   A(3,4,21)             114.743          estimate D2E/DX2                !
 ! A16   A(5,4,21)             123.1981         estimate D2E/DX2                !
 ! A17   A(4,5,6)              118.7597         estimate D2E/DX2                !
 ! A18   A(5,6,7)              110.7991         estimate D2E/DX2                !
 ! A19   A(5,6,22)             111.45           estimate D2E/DX2                !
 ! A20   A(5,6,23)             107.6928         estimate D2E/DX2                !
 ! A21   A(7,6,22)             110.5994         estimate D2E/DX2                !
 ! A22   A(7,6,23)             108.4839         estimate D2E/DX2                !
 ! A23   A(22,6,23)            107.6729         estimate D2E/DX2                !
 ! A24   A(6,7,8)              111.0131         estimate D2E/DX2                !
 ! A25   A(6,7,12)             110.8634         estimate D2E/DX2                !
 ! A26   A(6,7,24)             107.5            estimate D2E/DX2                !
 ! A27   A(8,7,12)             111.3252         estimate D2E/DX2                !
 ! A28   A(8,7,24)             108.9105         estimate D2E/DX2                !
 ! A29   A(12,7,24)            107.0521         estimate D2E/DX2                !
 ! A30   A(7,8,9)              116.662          estimate D2E/DX2                !
 ! A31   A(7,8,25)             108.9909         estimate D2E/DX2                !
 ! A32   A(7,8,26)             109.2835         estimate D2E/DX2                !
 ! A33   A(9,8,25)             107.2258         estimate D2E/DX2                !
 ! A34   A(9,8,26)             106.4382         estimate D2E/DX2                !
 ! A35   A(25,8,26)            107.911          estimate D2E/DX2                !
 ! A36   A(8,9,10)             116.9514         estimate D2E/DX2                !
 ! A37   A(8,9,11)             120.8622         estimate D2E/DX2                !
 ! A38   A(10,9,11)            122.019          estimate D2E/DX2                !
 ! A39   A(9,10,27)            109.453          estimate D2E/DX2                !
 ! A40   A(9,10,28)            109.5593         estimate D2E/DX2                !
 ! A41   A(9,10,29)            111.2114         estimate D2E/DX2                !
 ! A42   A(27,10,28)           109.0948         estimate D2E/DX2                !
 ! A43   A(27,10,29)           107.633          estimate D2E/DX2                !
 ! A44   A(28,10,29)           109.8446         estimate D2E/DX2                !
 ! A45   A(7,12,13)            114.4451         estimate D2E/DX2                !
 ! A46   A(7,12,14)            113.5911         estimate D2E/DX2                !
 ! A47   A(7,12,30)            108.936          estimate D2E/DX2                !
 ! A48   A(13,12,14)           105.9133         estimate D2E/DX2                !
 ! A49   A(13,12,30)           106.3592         estimate D2E/DX2                !
 ! A50   A(14,12,30)           107.1192         estimate D2E/DX2                !
 ! A51   A(12,13,31)           110.7772         estimate D2E/DX2                !
 ! A52   A(12,13,32)           112.1427         estimate D2E/DX2                !
 ! A53   A(31,13,32)           107.3849         estimate D2E/DX2                !
 ! A54   A(12,14,15)           110.7843         estimate D2E/DX2                !
 ! A55   A(12,14,33)           110.9455         estimate D2E/DX2                !
 ! A56   A(12,14,34)           108.72           estimate D2E/DX2                !
 ! A57   A(15,14,33)           107.3619         estimate D2E/DX2                !
 ! A58   A(15,14,34)           111.6265         estimate D2E/DX2                !
 ! A59   A(33,14,34)           107.3575         estimate D2E/DX2                !
 ! A60   A(14,15,35)           104.0562         estimate D2E/DX2                !
 ! D1    D(16,1,2,3)           179.5026         estimate D2E/DX2                !
 ! D2    D(17,1,2,3)            60.1735         estimate D2E/DX2                !
 ! D3    D(18,1,2,3)           -61.1472         estimate D2E/DX2                !
 ! D4    D(1,2,3,4)           -178.2065         estimate D2E/DX2                !
 ! D5    D(1,2,3,19)            60.7374         estimate D2E/DX2                !
 ! D6    D(1,2,3,20)           -58.8867         estimate D2E/DX2                !
 ! D7    D(2,3,4,5)           -146.8811         estimate D2E/DX2                !
 ! D8    D(2,3,4,21)            33.5905         estimate D2E/DX2                !
 ! D9    D(19,3,4,5)           -24.3161         estimate D2E/DX2                !
 ! D10   D(19,3,4,21)          156.1556         estimate D2E/DX2                !
 ! D11   D(20,3,4,5)            93.1301         estimate D2E/DX2                !
 ! D12   D(20,3,4,21)          -86.3982         estimate D2E/DX2                !
 ! D13   D(3,4,5,6)           -178.4279         estimate D2E/DX2                !
 ! D14   D(21,4,5,6)             1.0602         estimate D2E/DX2                !
 ! D15   D(4,5,6,7)            130.608          estimate D2E/DX2                !
 ! D16   D(4,5,6,22)             6.993          estimate D2E/DX2                !
 ! D17   D(4,5,6,23)          -110.8925         estimate D2E/DX2                !
 ! D18   D(5,6,7,8)             73.9176         estimate D2E/DX2                !
 ! D19   D(5,6,7,12)          -161.7976         estimate D2E/DX2                !
 ! D20   D(5,6,7,24)           -45.1041         estimate D2E/DX2                !
 ! D21   D(22,6,7,8)          -161.9801         estimate D2E/DX2                !
 ! D22   D(22,6,7,12)          -37.6953         estimate D2E/DX2                !
 ! D23   D(22,6,7,24)           78.9982         estimate D2E/DX2                !
 ! D24   D(23,6,7,8)           -44.1011         estimate D2E/DX2                !
 ! D25   D(23,6,7,12)           80.1837         estimate D2E/DX2                !
 ! D26   D(23,6,7,24)         -163.1228         estimate D2E/DX2                !
 ! D27   D(6,7,8,9)            -50.689          estimate D2E/DX2                !
 ! D28   D(6,7,8,25)          -172.2396         estimate D2E/DX2                !
 ! D29   D(6,7,8,26)            70.0513         estimate D2E/DX2                !
 ! D30   D(12,7,8,9)          -174.7112         estimate D2E/DX2                !
 ! D31   D(12,7,8,25)           63.7382         estimate D2E/DX2                !
 ! D32   D(12,7,8,26)          -53.9708         estimate D2E/DX2                !
 ! D33   D(24,7,8,9)            67.4818         estimate D2E/DX2                !
 ! D34   D(24,7,8,25)          -54.0688         estimate D2E/DX2                !
 ! D35   D(24,7,8,26)         -171.7779         estimate D2E/DX2                !
 ! D36   D(6,7,12,13)           62.9329         estimate D2E/DX2                !
 ! D37   D(6,7,12,14)         -175.2533         estimate D2E/DX2                !
 ! D38   D(6,7,12,30)          -55.9517         estimate D2E/DX2                !
 ! D39   D(8,7,12,13)         -172.9602         estimate D2E/DX2                !
 ! D40   D(8,7,12,14)          -51.1465         estimate D2E/DX2                !
 ! D41   D(8,7,12,30)           68.1551         estimate D2E/DX2                !
 ! D42   D(24,7,12,13)         -54.036          estimate D2E/DX2                !
 ! D43   D(24,7,12,14)          67.7778         estimate D2E/DX2                !
 ! D44   D(24,7,12,30)        -172.9206         estimate D2E/DX2                !
 ! D45   D(7,8,9,10)           -72.0307         estimate D2E/DX2                !
 ! D46   D(7,8,9,11)           112.5796         estimate D2E/DX2                !
 ! D47   D(25,8,9,10)           50.4432         estimate D2E/DX2                !
 ! D48   D(25,8,9,11)         -124.9465         estimate D2E/DX2                !
 ! D49   D(26,8,9,10)          165.7319         estimate D2E/DX2                !
 ! D50   D(26,8,9,11)           -9.6578         estimate D2E/DX2                !
 ! D51   D(8,9,10,27)          -67.05           estimate D2E/DX2                !
 ! D52   D(8,9,10,28)          173.3681         estimate D2E/DX2                !
 ! D53   D(8,9,10,29)           51.7452         estimate D2E/DX2                !
 ! D54   D(11,9,10,27)         108.2824         estimate D2E/DX2                !
 ! D55   D(11,9,10,28)         -11.2995         estimate D2E/DX2                !
 ! D56   D(11,9,10,29)        -132.9224         estimate D2E/DX2                !
 ! D57   D(7,12,13,31)          43.1511         estimate D2E/DX2                !
 ! D58   D(7,12,13,32)         -76.8098         estimate D2E/DX2                !
 ! D59   D(14,12,13,31)        -82.7745         estimate D2E/DX2                !
 ! D60   D(14,12,13,32)        157.2646         estimate D2E/DX2                !
 ! D61   D(30,12,13,31)        163.4786         estimate D2E/DX2                !
 ! D62   D(30,12,13,32)         43.5177         estimate D2E/DX2                !
 ! D63   D(7,12,14,15)        -175.7541         estimate D2E/DX2                !
 ! D64   D(7,12,14,33)          65.0995         estimate D2E/DX2                !
 ! D65   D(7,12,14,34)         -52.7399         estimate D2E/DX2                !
 ! D66   D(13,12,14,15)        -49.3082         estimate D2E/DX2                !
 ! D67   D(13,12,14,33)       -168.4547         estimate D2E/DX2                !
 ! D68   D(13,12,14,34)         73.7059         estimate D2E/DX2                !
 ! D69   D(30,12,14,15)         63.9126         estimate D2E/DX2                !
 ! D70   D(30,12,14,33)        -55.2339         estimate D2E/DX2                !
 ! D71   D(30,12,14,34)       -173.0733         estimate D2E/DX2                !
 ! D72   D(12,14,15,35)         37.592          estimate D2E/DX2                !
 ! D73   D(33,14,15,35)        158.8762         estimate D2E/DX2                !
 ! D74   D(34,14,15,35)        -83.7239         estimate D2E/DX2                !
 --------------------------------------------------------------------------------
 Trust Radius=3.00D-01 FncErr=1.00D-07 GrdErr=1.00D-06 EigMax=2.50D+02 EigMin=1.00D-04
 Number of steps in this run=    178 maximum allowed number of steps=    210.
 GradGradGradGradGradGradGradGradGradGradGradGradGradGradGradGradGradGrad

                          Input orientation:                          
 ---------------------------------------------------------------------
 Center     Atomic      Atomic             Coordinates (Angstroms)
 Number     Number       Type             X           Y           Z
 ---------------------------------------------------------------------
      1          6           0        1.329199    0.563838   -0.488943
      2          8           0        2.679416    0.208404   -0.302471
      3          6           0        2.993568   -0.056712    1.045291
      4          6           0        4.460746   -0.378869    1.122601
      5          7           0        4.922585   -1.203904    1.959606
      6          6           0        6.355099   -1.435332    1.994673
      7          6           0        6.891275   -1.334142    3.437933
      8          6           0        6.490431   -2.578467    4.267662
      9          6           0        5.011347   -2.973276    4.243111
     10          6           0        4.047363   -2.077597    5.000555
     11          8           0        4.652094   -3.999393    3.714488
     12          6           0        8.427666   -1.124071    3.442847
     13          7           0        8.873816    0.131118    2.811305
     14          6           0        9.047160   -1.130186    4.855770
     15          8           0       10.421919   -0.839840    4.799127
     16          1           0        1.187730    0.756803   -1.554752
     17          1           0        1.065674    1.471709    0.076904
     18          1           0        0.647877   -0.243459   -0.179083
     19          1           0        2.406809   -0.893245    1.452365
     20          1           0        2.780625    0.830578    1.671731
     21          1           0        5.091166    0.165705    0.401267
     22          1           0        6.891902   -0.738545    1.332215
     23          1           0        6.537841   -2.453648    1.625910
     24          1           0        6.442118   -0.440640    3.895728
     25          1           0        6.764541   -2.411726    5.315792
     26          1           0        7.049541   -3.448743    3.907622
     27          1           0        4.249701   -2.150288    6.076463
     28          1           0        3.022989   -2.398152    4.807740
     29          1           0        4.169329   -1.031094    4.710775
     30          1           0        8.900580   -1.939123    2.879022
     31          1           0        8.280350    0.907028    3.092434
     32          1           0        8.846760    0.080355    1.800522
     33          1           0        8.940107   -2.111595    5.325147
     34          1           0        8.501636   -0.401126    5.486229
     35          1           0       10.492690   -0.169715    4.100895
 ---------------------------------------------------------------------
                    Distance matrix (angstroms):
                    1          2          3          4          5
     1  C    0.000000
     2  O    1.408613   0.000000
     3  C    2.347143   1.409057   0.000000
     4  C    3.645868   2.355601   1.504118   0.000000
     5  N    4.693904   3.484741   2.423454   1.262757   0.000000
     6  C    5.951865   4.635665   3.755237   2.337776   1.451511
     7  C    7.068194   5.840362   4.748545   3.490097   2.465390
     8  C    7.690103   6.570890   5.382468   4.341573   3.110415
     9  C    6.961445   6.018580   4.775335   4.095325   2.890147
    10  C    6.670845   5.934573   4.564928   4.253832   3.282792
    11  O    7.038007   6.142717   5.041830   4.456757   3.311727
    12  C    8.288319   6.988939   6.034645   4.655676   3.806831
    13  N    8.246219   6.933409   6.142588   4.752577   4.256747
    14  C    9.539528   8.303460   7.233123   5.961227   5.040369
    15  O   10.611859   9.331209   8.359722   7.018897   6.199845
    16  H    1.092335   2.023382   3.268498   4.378424   5.490376
    17  H    1.101753   2.084233   2.643978   4.005575   5.057592
    18  H    1.100882   2.084839   2.652590   4.031213   4.875405
    19  H    2.655751   2.089831   1.099901   2.142891   2.585137
    20  H    2.616544   2.072394   1.106822   2.141754   2.968161
    21  H    3.886306   2.512690   2.205482   1.101959   2.081506
    22  H    5.996372   4.616704   3.967899   2.466541   2.118581
    23  H    6.380264   5.068788   4.317903   2.978649   2.069363
    24  H    6.810012   5.674863   4.490533   3.408796   2.576843
    25  H    8.490694   7.424164   6.164698   5.198349   4.014426
    26  H    8.255477   7.085026   6.012464   4.886955   3.654861
    27  H    7.681169   6.979973   5.592282   5.265283   4.277490
    28  H    6.300568   5.746863   4.431616   4.441272   3.625818
    29  H    6.135733   5.374834   3.970845   3.658595   2.857655
    30  H    8.656432   7.310038   6.465201   5.023100   4.148531
    31  H    7.827039   6.586647   5.750622   4.485883   4.124792
    32  H    7.873318   6.517294   5.903306   4.461792   4.132043
    33  H    9.944220   8.732052   7.609273   6.381881   5.318952
    34  H    9.384972   8.232790   7.083739   5.947314   5.088332
    35  H   10.274935   8.976629   8.098538   6.730404   6.056462
                    6          7          8          9         10
     6  C    0.000000
     7  C    1.542959   0.000000
     8  C    2.547852   1.548376   0.000000
     9  C    3.037501   2.620916   1.531067   0.000000
    10  C    3.843628   3.329016   2.599343   1.518297   0.000000
    11  O    3.525960   3.491987   2.388412   1.208893   2.390182
    12  C    2.547474   1.550694   2.558997   3.966260   4.745811
    13  N    3.076456   2.543643   3.891446   5.158100   5.741592
    14  C    3.940327   2.588378   2.996707   4.478852   5.090827
    15  O    4.975800   3.816101   4.331498   5.842516   6.496736
    16  H    6.641203   7.863165   8.552377   7.883447   7.693072
    17  H    6.332989   7.287451   7.962057   7.258340   6.762424
    18  H    6.222391   7.297424   7.704623   6.785835   6.461362
    19  H    4.022058   4.924155   5.238495   4.347230   4.084575
    20  H    4.244467   4.970203   5.667724   5.104646   4.598170
    21  H    2.588395   3.835528   4.943423   4.961788   5.222583
    22  H    1.101145   2.188329   3.487598   4.123569   4.831271
    23  H    1.098339   2.159082   2.645124   3.074075   4.210953
    24  H    2.147322   1.099847   2.170477   2.929509   3.104049
    25  H    3.485802   2.168779   1.096137   2.130651   2.755735
    26  H    2.862769   2.171910   1.095269   2.119636   3.476725
    27  H    4.648104   3.821760   2.911352   2.149091   1.097179
    28  H    4.465795   4.239354   3.513880   2.145493   1.090539
    29  H    3.509730   3.020091   2.824575   2.167895   1.092710
    30  H    2.741414   2.171564   2.854103   4.249276   5.298471
    31  H    3.224642   2.659275   4.090678   5.202614   5.519700
    32  H    2.922906   2.916478   4.325321   5.477344   6.158830
    33  H    4.269854   2.892010   2.708719   4.165147   4.903617
    34  H    4.227075   2.767544   3.204788   4.510367   4.784034
    35  H    4.812236   3.842604   4.674182   6.158352   6.781714
                   11         12         13         14         15
    11  O    0.000000
    12  C    4.753546   0.000000
    13  N    5.974930   1.474244   0.000000
    14  C    5.371357   1.542777   2.408480   0.000000
    15  O    6.667090   2.428441   2.700151   1.406225   0.000000
    16  H    7.898614   8.996129   8.861706  10.316305  11.322158
    17  H    7.485144   8.500974   8.381003   9.659790  10.732286
    18  H    6.730578   8.626642   8.760638   9.832801  10.984995
    19  H    4.450468   6.345550   6.687167   7.465492   8.685945
    20  H    5.568112   6.232702   6.238176   7.297408   8.423792
    21  H    5.340249   4.695419   4.485300   6.096870   6.983496
    22  H    4.617910   2.638554   2.621450   4.148971   4.948813
    23  H    3.210534   2.939468   3.680075   4.298864   5.268752
    24  H    3.987701   2.148157   2.723239   2.860664   4.100524
    25  H    3.089869   2.816374   4.145787   2.657878   4.014247
    26  H    2.467441   2.742142   4.164768   3.203931   4.355926
    27  H    3.026555   5.044249   6.103155   5.054336   6.437790
    28  H    2.532421   5.718107   6.679456   6.156353   7.561255
    29  H    3.168035   4.444065   5.204894   4.880991   6.256137
    30  H    4.795033   1.098115   2.071522   2.140887   2.685088
    31  H    6.133853   2.066362   1.016499   2.801356   3.248178
    32  H    6.156528   2.079306   1.012418   3.292432   3.509916
    33  H    4.954296   2.186516   3.369504   1.093133   2.022332
    34  H    5.559277   2.168763   2.752639   1.107522   2.086161
    35  H    6.994877   2.368153   2.091482   1.892590   0.970363
                   16         17         18         19         20
    16  H    0.000000
    17  H    1.785578   0.000000
    18  H    1.784497   1.783784   0.000000
    19  H    3.640269   3.046891   2.485495   0.000000
    20  H    3.599020   2.428081   3.021205   1.777477   0.000000
    21  H    4.405930   4.244460   4.499670   3.071148   2.719326
    22  H    6.565685   6.356568   6.443367   4.489368   4.413617
    23  H    7.003376   6.910315   6.544814   4.419320   4.990481
    24  H    7.664867   6.866342   7.086338   4.739050   4.468634
    25  H    9.399190   8.660491   8.503447   6.018445   6.297881
    26  H    9.049031   8.642448   8.243560   5.840703   6.444799
    27  H    8.721368   7.697505   7.465987   5.134071   5.517735
    28  H    7.335067   6.417765   5.928933   3.728668   4.507547
    29  H    7.165427   6.113057   6.077146   3.707117   3.824933
    30  H    9.295935   8.992852   8.962945   6.730399   6.825148
    31  H    8.480811   7.839887   8.383381   6.358403   5.680776
    32  H    8.389051   8.090243   8.440697   6.522429   6.113708
    33  H   10.754536  10.118835  10.126576   7.691995   7.742290
    34  H   10.218093   9.384127   9.685150   7.325377   6.985518
    35  H   10.928269  10.380530  10.735175   8.539302   8.147231
                   21         22         23         24         25
    21  H    0.000000
    22  H    2.219681   0.000000
    23  H    3.233207   1.775724   0.000000
    24  H    3.795258   2.619666   3.035365   0.000000
    25  H    5.796196   4.322573   3.697077   2.450657   0.000000
    26  H    5.403146   3.742024   2.541311   3.068841   1.771884
    27  H    6.187062   5.610894   5.013485   3.533439   2.640340
    28  H    5.501611   5.459126   4.741445   4.044016   3.775913
    29  H    4.566615   4.348868   4.141244   2.485660   3.001219
    30  H    5.008114   2.805136   2.723520   3.053388   3.274731
    31  H    4.238258   2.781019   4.059701   2.416731   4.272602
    32  H    4.008702   2.170571   3.432604   3.231660   4.785732
    33  H    6.651694   4.692964   4.424052   3.327954   2.196190
    34  H    6.148938   4.467765   4.792849   2.602473   2.662529
    35  H    6.555625   4.577645   5.194491   4.064803   4.516822
                   26         27         28         29         30
    26  H    0.000000
    27  H    3.772130   0.000000
    28  H    4.257590   1.782110   0.000000
    29  H    3.845218   1.767528   1.786713   0.000000
    30  H    2.600638   5.647911   6.202962   5.154083   0.000000
    31  H    4.599148   5.873478   6.442541   4.824504   2.920754
    32  H    4.486023   6.662762   7.007330   5.619898   2.290055
    33  H    2.715066   4.750356   5.946605   4.930036   2.452517
    34  H    3.726735   4.635396   5.870607   4.446017   3.053215
    35  H    4.758640   6.841086   7.827005   6.410836   2.675555
                   31         32         33         34         35
    31  H    0.000000
    32  H    1.635005   0.000000
    33  H    3.812135   4.151667   0.000000
    34  H    2.736876   3.733011   1.773107   0.000000
    35  H    2.659101   2.839601   2.771319   2.436596   0.000000
 Stoichiometry    C10H20N2O3
 Framework group  C1[X(C10H20N2O3)]
 Deg. of freedom    99
 Full point group                 C1      NOp   1
 Largest Abelian subgroup         C1      NOp   1
 Largest concise Abelian subgroup C1      NOp   1
                         Standard orientation:                         
 ---------------------------------------------------------------------
 Center     Atomic      Atomic             Coordinates (Angstroms)
 Number     Number       Type             X           Y           Z
 ---------------------------------------------------------------------
      1          6           0        5.700847   -0.921441    0.288047
      2          8           0        4.413142   -1.205671   -0.207150
      3          6           0        3.410124   -0.421568    0.396651
      4          6           0        2.085649   -0.844078   -0.177476
      5          7           0        1.136157   -0.028282   -0.343301
      6          6           0       -0.123252   -0.520376   -0.871144
      7          6           0       -1.305893   -0.038794   -0.005026
      8          6           0       -1.590503    1.464857   -0.240610
      9          6           0       -0.394188    2.414839   -0.137985
     10          6           0        0.163429    2.671686    1.250655
     11          8           0        0.023088    2.994200   -1.113506
     12          6           0       -2.568835   -0.899595   -0.267043
     13          7           0       -2.423261   -2.321777    0.092962
     14          6           0       -3.822480   -0.400154    0.480684
     15          8           0       -4.905128   -1.274655    0.279209
     16          1           0        6.401442   -1.580115   -0.230134
     17          1           0        5.770088   -1.107345    1.371793
     18          1           0        5.988948    0.124338    0.100202
     19          1           0        3.563807    0.654057    0.225786
     20          1           0        3.402251   -0.583335    1.491560
     21          1           0        2.012752   -1.914208   -0.430107
     22          1           0       -0.124308   -1.618536   -0.952156
     23          1           0       -0.243610   -0.111248   -1.883308
     24          1           0       -1.026733   -0.187980    1.048291
     25          1           0       -2.337943    1.804486    0.485683
     26          1           0       -2.009201    1.600942   -1.243499
     27          1           0       -0.575018    3.224847    1.844382
     28          1           0        1.075686    3.264284    1.173905
     29          1           0        0.372623    1.734569    1.772252
     30          1           0       -2.800971   -0.874355   -1.340044
     31          1           0       -1.949396   -2.420802    0.986784
     32          1           0       -1.885118   -2.835980   -0.593323
     33          1           0       -4.127125    0.585073    0.118113
     34          1           0       -3.577032   -0.295294    1.555563
     35          1           0       -4.499622   -2.156222    0.281682
 ---------------------------------------------------------------------
 Rotational constants (GHZ):           0.8012911           0.2542088           0.2062527
 Standard basis: 6-31+G(3df,2p) (6D, 7F)
 There are   775 symmetry adapted cartesian basis functions of A   symmetry.
 There are   730 symmetry adapted basis functions of A   symmetry.
   730 basis functions,  1010 primitive gaussians,   775 cartesian basis functions
    59 alpha electrons       59 beta electrons
       nuclear repulsion energy      1034.3108959212 Hartrees.
 NAtoms=   35 NActive=   35 NUniq=   35 SFac= 1.00D+00 NAtFMM=   60 NAOKFM=F Big=F
 Integral buffers will be    131072 words long.
 Regular integral format.
 Two-electron integral symmetry is turned on.
 One-electron integrals computed using PRISM.
 PrsmSu:  requested number of processors reduced to:  12 ShMem   1 Linda.
 NBasis=   730 RedAO= T EigKep=  4.83D-06  NBF=   730
 NBsUse=   730 1.00D-06 EigRej= -1.00D+00 NBFU=   730
 ExpMin= 4.38D-02 ExpMax= 5.48D+03 ExpMxC= 8.25D+02 IAcc=3 IRadAn=         5 AccDes= 0.00D+00
 Harris functional with IExCor=  402 and IRadAn=       5 diagonalized for initial guess.
 HarFok:  IExCor=  402 AccDes= 0.00D+00 IRadAn=         5 IDoV= 1 UseB2=F ITyADJ=14
 ICtDFT=  3500011 ScaDFX=  1.000000  1.000000  1.000000  1.000000
 FoFCou: FMM=F IPFlag=           0 FMFlag=      100000 FMFlg1=           0
         NFxFlg=           0 DoJE=T BraDBF=F KetDBF=T FulRan=T
         wScrn=  0.000000 ICntrl=       500 IOpCl=  0 I1Cent=   200000004 NGrid=           0
         NMat0=    1 NMatS0=      1 NMatT0=    0 NMatD0=    1 NMtDS0=    0 NMtDT0=    0
 Petite list used in FoFCou.
 Requested convergence on RMS density matrix=1.00D-08 within 128 cycles.
 Requested convergence on MAX density matrix=1.00D-06.
 Requested convergence on             energy=1.00D-06.
 No special actions if energy rises.
 SCF Done:  E(RB3LYP) =  -728.339524715     A.U. after   13 cycles
            NFock= 13  Conv=0.89D-08     -V/T= 2.0082
 DoSCS=F DFT=T ScalE2(SS,OS)=  1.000000  1.000000
 ExpMin= 4.38D-02 ExpMax= 5.48D+03 ExpMxC= 8.25D+02 IAcc=3 IRadAn=         5 AccDes= 0.00D+00
 HarFok:  IExCor=  205 AccDes= 0.00D+00 IRadAn=         5 IDoV=-2 UseB2=F ITyADJ=14
 ICtDFT= 12500011 ScaDFX=  1.000000  1.000000  1.000000  1.000000
 Range of M.O.s used for correlation:    16   730
 NBasis=   730 NAE=    59 NBE=    59 NFC=    15 NFV=     0
 NROrb=    715 NOA=    44 NOB=    44 NVA=   671 NVB=   671

 **** Warning!!: The largest alpha MO coefficient is  0.80705383D+02

 Orbital symmetries:
       Occupied  (A) (A) (A) (A) (A) (A) (A) (A) (A) (A) (A) (A)
                 (A) (A) (A) (A) (A) (A) (A) (A) (A) (A) (A) (A)
                 (A) (A) (A) (A) (A) (A) (A) (A) (A) (A) (A) (A)
                 (A) (A) (A) (A) (A) (A) (A) (A) (A) (A) (A) (A)
                 (A) (A) (A) (A) (A) (A) (A) (A) (A) (A) (A)
       Virtual   (A) (A) (A) (A) (A) (A) (A) (A) (A) (A) (A) (A)
                 (A) (A) (A) (A) (A) (A) (A) (A) (A) (A) (A) (A)
                 (A) (A) (A) (A) (A) (A) (A) (A) (A) (A) (A) (A)
                 (A) (A) (A) (A) (A) (A) (A) (A) (A) (A) (A) (A)
                 (A) (A) (A) (A) (A) (A) (A) (A) (A) (A) (A) (A)
                 (A) (A) (A) (A) (A) (A) (A) (A) (A) (A) (A) (A)
                 (A) (A) (A) (A) (A) (A) (A) (A) (A) (A) (A) (A)
                 (A) (A) (A) (A) (A) (A) (A) (A) (A) (A) (A) (A)
                 (A) (A) (A) (A) (A) (A) (A) (A) (A) (A) (A) (A)
                 (A) (A) (A) (A) (A) (A) (A) (A) (A) (A) (A) (A)
                 (A) (A) (A) (A) (A) (A) (A) (A) (A) (A) (A) (A)
                 (A) (A) (A) (A) (A) (A) (A) (A) (A) (A) (A) (A)
                 (A) (A) (A) (A) (A) (A) (A) (A) (A) (A) (A) (A)
                 (A) (A) (A) (A) (A) (A) (A) (A) (A) (A) (A) (A)
                 (A) (A) (A) (A) (A) (A) (A) (A) (A) (A) (A) (A)
                 (A) (A) (A) (A) (A) (A) (A) (A) (A) (A) (A) (A)
                 (A) (A) (A) (A) (A) (A) (A) (A) (A) (A) (A) (A)
                 (A) (A) (A) (A) (A) (A) (A) (A) (A) (A) (A) (A)
                 (A) (A) (A) (A) (A) (A) (A) (A) (A) (A) (A) (A)
                 (A) (A) (A) (A) (A) (A) (A) (A) (A) (A) (A) (A)
                 (A) (A) (A) (A) (A) (A) (A) (A) (A) (A) (A) (A)
                 (A) (A) (A) (A) (A) (A) (A) (A) (A) (A) (A) (A)
                 (A) (A) (A) (A) (A) (A) (A) (A) (A) (A) (A) (A)
                 (A) (A) (A) (A) (A) (A) (A) (A) (A) (A) (A) (A)
                 (A) (A) (A) (A) (A) (A) (A) (A) (A) (A) (A) (A)
                 (A) (A) (A) (A) (A) (A) (A) (A) (A) (A) (A) (A)
                 (A) (A) (A) (A) (A) (A) (A) (A) (A) (A) (A) (A)
                 (A) (A) (A) (A) (A) (A) (A) (A) (A) (A) (A) (A)
                 (A) (A) (A) (A) (A) (A) (A) (A) (A) (A) (A) (A)
                 (A) (A) (A) (A) (A) (A) (A) (A) (A) (A) (A) (A)
                 (A) (A) (A) (A) (A) (A) (A) (A) (A) (A) (A) (A)
                 (A) (A) (A) (A) (A) (A) (A) (A) (A) (A) (A) (A)
                 (A) (A) (A) (A) (A) (A) (A) (A) (A) (A) (A) (A)
                 (A) (A) (A) (A) (A) (A) (A) (A) (A) (A) (A) (A)
                 (A) (A) (A) (A) (A) (A) (A) (A) (A) (A) (A) (A)
                 (A) (A) (A) (A) (A) (A) (A) (A) (A) (A) (A) (A)
                 (A) (A) (A) (A) (A) (A) (A) (A) (A) (A) (A) (A)
                 (A) (A) (A) (A) (A) (A) (A) (A) (A) (A) (A) (A)
                 (A) (A) (A) (A) (A) (A) (A) (A) (A) (A) (A) (A)
                 (A) (A) (A) (A) (A) (A) (A) (A) (A) (A) (A) (A)
                 (A) (A) (A) (A) (A) (A) (A) (A) (A) (A) (A) (A)
                 (A) (A) (A) (A) (A) (A) (A) (A) (A) (A) (A) (A)
                 (A) (A) (A) (A) (A) (A) (A) (A) (A) (A) (A) (A)
                 (A) (A) (A) (A) (A) (A) (A) (A) (A) (A) (A) (A)
                 (A) (A) (A) (A) (A) (A) (A) (A) (A) (A) (A) (A)
                 (A) (A) (A) (A) (A) (A) (A) (A) (A) (A) (A) (A)
                 (A) (A) (A) (A) (A) (A) (A) (A) (A) (A) (A) (A)
                 (A) (A) (A) (A) (A) (A) (A) (A) (A) (A) (A) (A)
                 (A) (A) (A) (A) (A) (A) (A) (A) (A) (A) (A) (A)
                 (A) (A) (A) (A) (A) (A) (A) (A) (A) (A) (A) (A)
                 (A) (A) (A) (A) (A) (A) (A) (A) (A) (A) (A) (A)
                 (A) (A) (A) (A) (A) (A) (A) (A) (A) (A) (A) (A)
                 (A) (A) (A) (A) (A) (A) (A) (A) (A) (A) (A) (A)
                 (A) (A) (A) (A) (A) (A) (A) (A) (A) (A) (A) (A)
                 (A) (A) (A) (A) (A) (A) (A) (A) (A) (A) (A) (A)
                 (A) (A) (A) (A) (A) (A) (A) (A) (A) (A) (A)
    40 initial guesses have been made.
 Convergence on wavefunction:    0.000001000000000
 Iteration     1 Dimension    40 NMult     0 NNew     40
 CISAX will form     2 AO SS matrices at one time.
 New state      1 was old state      2
 New state      2 was old state      1
 New state      3 was old state      5
 New state      4 was old state      3
 New state      5 was old state      7
 New state      6 was old state      4
 New state      7 was old state      6
 New state      9 was old state     12
 Iteration     2 Dimension    60 NMult    40 NNew     20
 New state      2 was old state      3
 New state      3 was old state      2
 Iteration     3 Dimension    80 NMult    60 NNew     20
 Iteration     4 Dimension   100 NMult    80 NNew     20
 Iteration     5 Dimension   120 NMult   100 NNew     20
 Iteration     6 Dimension   140 NMult   120 NNew     20
 Iteration     7 Dimension   160 NMult   140 NNew     20
slurmstepd: error: *** JOB 27484616 ON lewis4-r630-hpc4-node236 CANCELLED AT 2023-05-25T09:49:25 DUE TO TIME LIMIT ***
