### Starting Gaussian ###
 Entering Gaussian System, Link 0=g16
 Initial command:
 /cluster/software/gaussian/gaussian-16-A.03/avx2/g16/l1.exe "/local/scratch/linjian/Gau-9298.inp" -scrdir="/local/scratch/linjian/"
 Entering Link 1 = /cluster/software/gaussian/gaussian-16-A.03/avx2/g16/l1.exe PID=      9299.
  
 Copyright (c) 1988,1990,1992,1993,1995,1998,2003,2009,2016,
            Gaussian, Inc.  All Rights Reserved.
  
 This is part of the Gaussian(R) 16 program.  It is based on
 the Gaussian(R) 09 system (copyright 2009, Gaussian, Inc.),
 the Gaussian(R) 03 system (copyright 2003, Gaussian, Inc.),
 the Gaussian(R) 98 system (copyright 1998, Gaussian, Inc.),
 the Gaussian(R) 94 system (copyright 1995, Gaussian, Inc.),
 the Gaussian 92(TM) system (copyright 1992, Gaussian, Inc.),
 the Gaussian 90(TM) system (copyright 1990, Gaussian, Inc.),
 the Gaussian 88(TM) system (copyright 1988, Gaussian, Inc.),
 the Gaussian 86(TM) system (copyright 1986, Carnegie Mellon
 University), and the Gaussian 82(TM) system (copyright 1983,
 Carnegie Mellon University). Gaussian is a federally registered
 trademark of Gaussian, Inc.
  
 This software contains proprietary and confidential information,
 including trade secrets, belonging to Gaussian, Inc.
  
 This software is provided under written license and may be
 used, copied, transmitted, or stored only in accord with that
 written license.
  
 The following legend is applicable only to US Government
 contracts under FAR:
  
                    RESTRICTED RIGHTS LEGEND
  
 Use, reproduction and disclosure by the US Government is
 subject to restrictions as set forth in subparagraphs (a)
 and (c) of the Commercial Computer Software - Restricted
 Rights clause in FAR 52.227-19.
  
 Gaussian, Inc.
 340 Quinnipiac St., Bldg. 40, Wallingford CT 06492
  
  
 ---------------------------------------------------------------
 Warning -- This program may not be used in any manner that
 competes with the business of Gaussian, Inc. or will provide
 assistance to any competitor of Gaussian, Inc.  The licensee
 of this program is prohibited from giving any competitor of
 Gaussian, Inc. access to this program.  By using this program,
 the user acknowledges that Gaussian, Inc. is engaged in the
 business of creating and licensing software in the field of
 computational chemistry and represents and warrants to the
 licensee that it is not a competitor of Gaussian, Inc. and that
 it will not use this program in any manner prohibited above.
 ---------------------------------------------------------------
  

 Cite this work as:
 Gaussian 16, Revision A.03,
 M. J. Frisch, G. W. Trucks, H. B. Schlegel, G. E. Scuseria, 
 M. A. Robb, J. R. Cheeseman, G. Scalmani, V. Barone, 
 G. A. Petersson, H. Nakatsuji, X. Li, M. Caricato, A. V. Marenich, 
 J. Bloino, B. G. Janesko, R. Gomperts, B. Mennucci, H. P. Hratchian, 
 J. V. Ortiz, A. F. Izmaylov, J. L. Sonnenberg, D. Williams-Young, 
 F. Ding, F. Lipparini, F. Egidi, J. Goings, B. Peng, A. Petrone, 
 T. Henderson, D. Ranasinghe, V. G. Zakrzewski, J. Gao, N. Rega, 
 G. Zheng, W. Liang, M. Hada, M. Ehara, K. Toyota, R. Fukuda, 
 J. Hasegawa, M. Ishida, T. Nakajima, Y. Honda, O. Kitao, H. Nakai, 
 T. Vreven, K. Throssell, J. A. Montgomery, Jr., J. E. Peralta, 
 F. Ogliaro, M. J. Bearpark, J. J. Heyd, E. N. Brothers, K. N. Kudin, 
 V. N. Staroverov, T. A. Keith, R. Kobayashi, J. Normand, 
 K. Raghavachari, A. P. Rendell, J. C. Burant, S. S. Iyengar, 
 J. Tomasi, M. Cossi, J. M. Millam, M. Klene, C. Adamo, R. Cammi, 
 J. W. Ochterski, R. L. Martin, K. Morokuma, O. Farkas, 
 J. B. Foresman, and D. J. Fox, Gaussian, Inc., Wallingford CT, 2016.
 
 ******************************************
 Gaussian 16:  ES64L-G16RevA.03 25-Dec-2016
                15-May-2023 
 ******************************************
 %chk=Nc1cccc2ccqc3cqc1rdCCdCCdCd3rS2.chk
 %NProcShared=20
 Will use up to   20 processors via shared memory.
 -----------------------------
 # opt freq b3lyp/6-31g(2df,p)
 -----------------------------
 1/18=20,19=15,26=3,38=1/1,3;
 2/9=110,12=2,17=6,18=5,40=1/2;
 3/5=1,6=6,7=104,11=2,25=1,30=1,71=1,74=-5/1,2,3;
 4//1;
 5/5=2,38=5/2;
 6/7=2,8=2,9=2,10=2,28=1/1;
 7//1,2,3,16;
 1/18=20,19=15,26=3/3(2);
 2/9=110/2;
 99//99;
 2/9=110/2;
 3/5=1,6=6,7=104,11=2,25=1,30=1,71=1,74=-5/1,2,3;
 4/5=5,16=3,69=1/1;
 5/5=2,38=5/2;
 7//1,2,3,16;
 1/18=20,19=15,26=3/3(-5);
 2/9=110/2;
 6/7=2,8=2,9=2,10=2,19=2,28=1/1;
 99/9=1/99;
 -------------------
 Title Card Required
 -------------------
 Symbolic Z-matrix:
 Charge =  0 Multiplicity = 1
 N                     2.52485  -0.05551   0.21313 
 C                     4.63672  -0.30206   0.55692 
 C                     3.26344  -0.78856   1.23527 
 C                     4.43754  -0.96343   1.47911 
 C                     5.26153  -1.61689   2.39028 
 C                     6.72334  -1.67802   2.47552 
 C                     7.23791  -2.33067   3.38554 
 C                     8.38058  -1.91876   2.81119 
 C                     9.64952  -2.66235   3.84802 
 C                     8.6627   -1.61098   2.38203 
 C                     6.65721  -0.7563    1.1903 
 C                     10.33792  -2.43226   3.5272 
 C                     12.54936  -2.91532   4.20076 
 C                     13.65415  -3.88966   5.55935 
 C                     12.5236  -3.7233    5.32739 
 C                     11.13336  -3.3244    4.77118 
 S                     8.43448  -0.57458   0.93692 
 H                     1.09585  -0.40869   0.7056 
 H                     1.18121   0.41875  -0.44816 
 H                     2.6673   -1.27071   1.90758 
 H                     5.2993   -1.15811   1.75057 
 H                     4.74686  -2.08258   3.03962 
 H                     6.90825  -2.85423   4.11558 
 H                     5.6602    0.02183   0.10529 
 H                     9.85611  -3.46772   4.97101 
 H                     13.81278  -2.85012   4.10984 
 H                     13.50746  -4.73853   6.74298 
 H                     14.2436  -3.85827   5.51559 
 
 Add virtual bond connecting atoms H19        and H18        Dist= 2.69D+00.
 Add virtual bond connecting atoms H27        and C14        Dist= 2.77D+00.
 Add virtual bond connecting atoms H18        and N1         Dist= 2.93D+00.
 Add virtual bond connecting atoms H19        and N1         Dist= 2.97D+00.

 GradGradGradGradGradGradGradGradGradGradGradGradGradGradGradGradGradGrad
 Berny optimization.
 Initialization pass.
                           ----------------------------
                           !    Initial Parameters    !
                           ! (Angstroms and Degrees)  !
 --------------------------                            --------------------------
 ! Name  Definition              Value          Derivative Info.                !
 --------------------------------------------------------------------------------
 ! R1    R(1,3)                  1.4586         estimate D2E/DX2                !
 ! R2    R(1,18)                 1.5522         estimate D2E/DX2                !
 ! R3    R(1,19)                 1.5709         estimate D2E/DX2                !
 ! R4    R(2,3)                  1.6071         estimate D2E/DX2                !
 ! R5    R(2,4)                  1.1522         estimate D2E/DX2                !
 ! R6    R(2,24)                 1.1646         estimate D2E/DX2                !
 ! R7    R(3,4)                  1.2118         estimate D2E/DX2                !
 ! R8    R(3,20)                 1.0197         estimate D2E/DX2                !
 ! R9    R(4,5)                  1.3915         estimate D2E/DX2                !
 ! R10   R(4,21)                 0.9242         estimate D2E/DX2                !
 ! R11   R(5,6)                  1.4656         estimate D2E/DX2                !
 ! R12   R(5,21)                 0.7881         estimate D2E/DX2                !
 ! R13   R(5,22)                 0.9505         estimate D2E/DX2                !
 ! R14   R(6,7)                  1.2324         estimate D2E/DX2                !
 ! R15   R(6,8)                  1.7079         estimate D2E/DX2                !
 ! R16   R(6,11)                 1.583          estimate D2E/DX2                !
 ! R17   R(7,8)                  1.3436         estimate D2E/DX2                !
 ! R18   R(7,23)                 0.9569         estimate D2E/DX2                !
 ! R19   R(8,9)                  1.7995         estimate D2E/DX2                !
 ! R20   R(8,10)                 0.5987         estimate D2E/DX2                !
 ! R21   R(9,12)                 0.7936         estimate D2E/DX2                !
 ! R22   R(10,17)                1.7929         estimate D2E/DX2                !
 ! R23   R(11,17)                1.8044         estimate D2E/DX2                !
 ! R24   R(12,16)                1.7251         estimate D2E/DX2                !
 ! R25   R(13,15)                1.3866         estimate D2E/DX2                !
 ! R26   R(13,16)                1.5804         estimate D2E/DX2                !
 ! R27   R(13,26)                1.2684         estimate D2E/DX2                !
 ! R28   R(14,15)                1.166          estimate D2E/DX2                !
 ! R29   R(14,27)                1.4639         estimate D2E/DX2                !
 ! R30   R(14,28)                0.5919         estimate D2E/DX2                !
 ! R31   R(15,16)                1.5496         estimate D2E/DX2                !
 ! R32   R(16,25)                1.3007         estimate D2E/DX2                !
 ! R33   R(18,19)                1.4224         estimate D2E/DX2                !
 ! A1    A(3,1,18)              97.44           estimate D2E/DX2                !
 ! A2    A(3,1,19)             151.6223         estimate D2E/DX2                !
 ! A3    A(4,2,24)             128.4575         estimate D2E/DX2                !
 ! A4    A(1,3,2)               89.1272         estimate D2E/DX2                !
 ! A5    A(1,3,4)              134.7573         estimate D2E/DX2                !
 ! A6    A(1,3,20)             113.8037         estimate D2E/DX2                !
 ! A7    A(2,3,20)             157.0691         estimate D2E/DX2                !
 ! A8    A(4,3,20)             111.439          estimate D2E/DX2                !
 ! A9    A(2,4,5)              133.7339         estimate D2E/DX2                !
 ! A10   A(2,4,21)             101.2334         estimate D2E/DX2                !
 ! A11   A(3,4,5)              140.6473         estimate D2E/DX2                !
 ! A12   A(4,5,6)              130.4155         estimate D2E/DX2                !
 ! A13   A(4,5,22)             110.9037         estimate D2E/DX2                !
 ! A14   A(6,5,21)              91.3574         estimate D2E/DX2                !
 ! A15   A(6,5,22)             118.6808         estimate D2E/DX2                !
 ! A16   A(21,5,22)            149.9618         estimate D2E/DX2                !
 ! A17   A(5,6,7)              118.7828         estimate D2E/DX2                !
 ! A18   A(5,6,11)              83.5014         estimate D2E/DX2                !
 ! A19   A(7,6,11)             157.7158         estimate D2E/DX2                !
 ! A20   A(8,6,11)             106.3903         estimate D2E/DX2                !
 ! A21   A(6,7,23)             135.1707         estimate D2E/DX2                !
 ! A22   A(8,7,23)             141.8892         estimate D2E/DX2                !
 ! A23   A(6,8,9)              148.8391         estimate D2E/DX2                !
 ! A24   A(6,8,10)             104.1151         estimate D2E/DX2                !
 ! A25   A(7,8,9)              103.1047         estimate D2E/DX2                !
 ! A26   A(7,8,10)             149.8496         estimate D2E/DX2                !
 ! A27   A(9,8,10)             107.0457         estimate D2E/DX2                !
 ! A28   A(8,9,12)             105.0087         estimate D2E/DX2                !
 ! A29   A(8,10,17)            144.5758         estimate D2E/DX2                !
 ! A30   A(6,11,17)             97.5565         estimate D2E/DX2                !
 ! A31   A(9,12,16)             87.6228         estimate D2E/DX2                !
 ! A32   A(15,13,26)            96.1251         estimate D2E/DX2                !
 ! A33   A(16,13,26)           158.6919         estimate D2E/DX2                !
 ! A34   A(15,14,27)            98.4194         estimate D2E/DX2                !
 ! A35   A(15,14,28)           160.6095         estimate D2E/DX2                !
 ! A36   A(27,14,28)           100.9711         estimate D2E/DX2                !
 ! A37   A(13,15,14)           103.1058         estimate D2E/DX2                !
 ! A38   A(12,16,13)            91.0885         estimate D2E/DX2                !
 ! A39   A(12,16,15)           143.6698         estimate D2E/DX2                !
 ! A40   A(12,16,25)            73.4407         estimate D2E/DX2                !
 ! A41   A(13,16,25)           164.5293         estimate D2E/DX2                !
 ! A42   A(15,16,25)           142.8894         estimate D2E/DX2                !
 ! A43   A(10,17,11)            87.3622         estimate D2E/DX2                !
 ! A44   L(3,2,24,5,-1)        177.2086         estimate D2E/DX2                !
 ! A45   L(3,4,21,2,-1)        186.8522         estimate D2E/DX2                !
 ! A46   L(5,6,8,11,-1)        189.8917         estimate D2E/DX2                !
 ! A47   L(14,15,16,13,-1)     167.9576         estimate D2E/DX2                !
 ! A48   L(3,2,24,5,-2)        179.9995         estimate D2E/DX2                !
 ! A49   L(3,4,21,2,-2)        180.0            estimate D2E/DX2                !
 ! A50   L(5,6,8,11,-2)        180.0003         estimate D2E/DX2                !
 ! A51   L(14,15,16,13,-2)     179.9999         estimate D2E/DX2                !
 ! D1    D(18,1,3,2)          -179.9996         estimate D2E/DX2                !
 ! D2    D(18,1,3,4)          -179.9996         estimate D2E/DX2                !
 ! D3    D(18,1,3,20)           -0.0004         estimate D2E/DX2                !
 ! D4    D(19,1,3,2)          -179.9997         estimate D2E/DX2                !
 ! D5    D(19,1,3,4)          -179.9996         estimate D2E/DX2                !
 ! D6    D(19,1,3,20)           -0.0005         estimate D2E/DX2                !
 ! D7    D(3,2,4,24)           179.9994         estimate D2E/DX2                !
 ! D8    D(24,2,4,5)             0.0007         estimate D2E/DX2                !
 ! D9    D(24,2,4,21)            0.0006         estimate D2E/DX2                !
 ! D10   D(1,3,4,5)            179.9998         estimate D2E/DX2                !
 ! D11   D(20,3,4,5)             0.0006         estimate D2E/DX2                !
 ! D12   D(2,4,5,6)             -0.0003         estimate D2E/DX2                !
 ! D13   D(2,4,5,22)           179.9999         estimate D2E/DX2                !
 ! D14   D(3,4,5,6)            179.9998         estimate D2E/DX2                !
 ! D15   D(3,4,5,22)             0.0001         estimate D2E/DX2                !
 ! D16   D(4,5,6,7)           -179.9994         estimate D2E/DX2                !
 ! D17   D(4,5,6,11)             0.0001         estimate D2E/DX2                !
 ! D18   D(21,5,6,7)          -179.9995         estimate D2E/DX2                !
 ! D19   D(21,5,6,11)            0.0            estimate D2E/DX2                !
 ! D20   D(22,5,6,7)             0.0004         estimate D2E/DX2                !
 ! D21   D(22,5,6,11)          179.9998         estimate D2E/DX2                !
 ! D22   D(4,5,8,9)           -179.9996         estimate D2E/DX2                !
 ! D23   D(4,5,8,10)             0.0002         estimate D2E/DX2                !
 ! D24   D(21,5,8,9)          -179.9998         estimate D2E/DX2                !
 ! D25   D(21,5,8,10)            0.0            estimate D2E/DX2                !
 ! D26   D(22,5,8,9)             0.0            estimate D2E/DX2                !
 ! D27   D(22,5,8,10)          179.9998         estimate D2E/DX2                !
 ! D28   D(5,6,7,23)            -0.0009         estimate D2E/DX2                !
 ! D29   D(11,6,7,23)         -179.9995         estimate D2E/DX2                !
 ! D30   D(11,6,8,9)          -179.9999         estimate D2E/DX2                !
 ! D31   D(11,6,8,10)            0.0001         estimate D2E/DX2                !
 ! D32   D(5,6,11,17)          180.0            estimate D2E/DX2                !
 ! D33   D(7,6,11,17)           -0.0013         estimate D2E/DX2                !
 ! D34   D(8,6,11,17)           -0.0003         estimate D2E/DX2                !
 ! D35   D(23,7,8,9)             0.0006         estimate D2E/DX2                !
 ! D36   D(23,7,8,10)         -179.9999         estimate D2E/DX2                !
 ! D37   D(6,8,9,12)          -179.9994         estimate D2E/DX2                !
 ! D38   D(7,8,9,12)          -179.9997         estimate D2E/DX2                !
 ! D39   D(10,8,9,12)            0.0006         estimate D2E/DX2                !
 ! D40   D(6,8,10,17)            0.0003         estimate D2E/DX2                !
 ! D41   D(7,8,10,17)            0.0009         estimate D2E/DX2                !
 ! D42   D(9,8,10,17)         -179.9997         estimate D2E/DX2                !
 ! D43   D(8,9,12,16)          179.9995         estimate D2E/DX2                !
 ! D44   D(8,10,17,11)          -0.0005         estimate D2E/DX2                !
 ! D45   D(6,11,17,10)           0.0003         estimate D2E/DX2                !
 ! D46   D(9,12,16,13)         179.9993         estimate D2E/DX2                !
 ! D47   D(9,12,16,15)         179.9992         estimate D2E/DX2                !
 ! D48   D(9,12,16,25)          -0.0002         estimate D2E/DX2                !
 ! D49   D(26,13,15,14)         -0.0001         estimate D2E/DX2                !
 ! D50   D(26,13,16,12)       -180.0            estimate D2E/DX2                !
 ! D51   D(26,13,16,25)       -179.9982         estimate D2E/DX2                !
 ! D52   D(27,14,15,13)       -179.9996         estimate D2E/DX2                !
 ! D53   D(28,14,15,13)          0.0024         estimate D2E/DX2                !
 ! D54   D(27,14,16,12)       -179.9995         estimate D2E/DX2                !
 ! D55   D(27,14,16,25)         -0.0006         estimate D2E/DX2                !
 ! D56   D(28,14,16,12)          0.0018         estimate D2E/DX2                !
 ! D57   D(28,14,16,25)       -179.9993         estimate D2E/DX2                !
 --------------------------------------------------------------------------------
 Trust Radius=3.00D-01 FncErr=1.00D-07 GrdErr=1.00D-06 EigMax=2.50D+02 EigMin=1.00D-04
 Number of steps in this run=    151 maximum allowed number of steps=    168.
 GradGradGradGradGradGradGradGradGradGradGradGradGradGradGradGradGradGrad

                          Input orientation:                          
 ---------------------------------------------------------------------
 Center     Atomic      Atomic             Coordinates (Angstroms)
 Number     Number       Type             X           Y           Z
 ---------------------------------------------------------------------
      1          7           0        2.524850   -0.055510    0.213130
      2          6           0        4.636720   -0.302060    0.556920
      3          6           0        3.263440   -0.788560    1.235270
      4          6           0        4.437540   -0.963430    1.479110
      5          6           0        5.261530   -1.616890    2.390280
      6          6           0        6.723340   -1.678020    2.475520
      7          6           0        7.237910   -2.330670    3.385540
      8          6           0        8.380580   -1.918760    2.811190
      9          6           0        9.649520   -2.662350    3.848020
     10          6           0        8.662700   -1.610980    2.382030
     11          6           0        6.657210   -0.756300    1.190300
     12          6           0       10.337920   -2.432260    3.527200
     13          6           0       12.549360   -2.915320    4.200760
     14          6           0       13.654150   -3.889660    5.559350
     15          6           0       12.523600   -3.723300    5.327390
     16          6           0       11.133360   -3.324400    4.771180
     17         16           0        8.434480   -0.574580    0.936920
     18          1           0        1.095850   -0.408690    0.705600
     19          1           0        1.181210    0.418750   -0.448160
     20          1           0        2.667300   -1.270710    1.907580
     21          1           0        5.299300   -1.158110    1.750570
     22          1           0        4.746860   -2.082580    3.039620
     23          1           0        6.908250   -2.854230    4.115580
     24          1           0        5.660200    0.021830    0.105290
     25          1           0        9.856110   -3.467720    4.971010
     26          1           0       13.812780   -2.850120    4.109840
     27          1           0       13.507460   -4.738530    6.742980
     28          1           0       14.243600   -3.858270    5.515590
 ---------------------------------------------------------------------
                    Distance matrix (angstroms):
                    1          2          3          4          5
     1  N    0.000000
     2  C    2.153828   0.000000
     3  C    1.458646   1.607090   0.000000
     4  C    2.466862   1.152179   1.211837   0.000000
     5  C    3.829792   2.341020   2.452049   1.391474   0.000000
     6  C    5.037685   3.150917   3.781569   2.593907   1.465569
     7  C    6.119924   4.345404   4.774744   3.653203   2.325103
     8  C    6.671671   4.659607   5.472294   4.270206   3.161766
     9  C    8.412429   6.444414   7.149795   5.971834   4.740511
    10  C    6.693042   4.610077   5.580631   4.368817   3.401185
    11  C    4.303762   2.165614   3.394221   2.247943   2.031869
    12  C    8.813402   6.772296   7.615967   6.416122   5.265658
    13  C   11.161116   9.094865   9.977252   8.776040   7.620776
    14  C   12.928422  10.918298  11.673960  10.495574   9.254435
    15  C   11.814539   9.831843  10.540812   9.370726   8.111796
    16  C   10.274624   8.312693   8.992707   7.825977   6.562215
    17  S    5.976373   3.826441   5.184058   4.052247   3.642290
    18  H    1.552193   3.545594   2.263470   3.474615   4.653040
    19  H    1.570858   3.670191   2.937212   4.028458   5.371181
    20  H    2.090015   2.577049   1.019731   1.847094   2.661366
    21  H    3.358128   1.611408   2.132329   0.924241   0.788121
    22  H    4.127395   3.057153   2.670337   1.945088   0.950471
    23  H    6.502011   4.933303   5.084075   4.078052   2.686886
    24  H    3.138157   1.164640   2.770929   2.086388   2.839986
    25  H    9.382322   7.533102   8.037223   6.915615   5.585329
    26  H   12.264239  10.164444  11.126624   9.918441   8.809178
    27  H   13.608356  11.689296  12.283203  11.145544   9.832904
    28  H   13.412910  11.381001  12.178184  10.992365   9.770820
                    6          7          8          9         10
     6  C    0.000000
     7  C    1.232425   0.000000
     8  C    1.707945   1.343593   0.000000
     9  C    3.378637   2.477854   1.799486   0.000000
    10  C    1.942769   1.885474   0.598747   2.056288   0.000000
    11  C    1.582950   2.763138   2.636020   4.432880   2.484490
    12  C    3.839283   3.104907   2.146516   0.793575   2.189127
    13  C    6.200796   5.405358   4.505859   2.932148   4.484998
    14  C    7.901739   6.951549   6.264772   4.524600   6.340530
    15  C    6.779332   5.800752   5.172257   3.402130   5.295620
    16  C    5.237261   4.252297   3.659943   1.868774   3.840313
    17  S    2.552033   3.242125   2.307079   3.782804   1.792917
    18  H    6.034274   6.971441   7.731825   9.387175   7.843031
    19  H    6.607538   7.677251   8.241253   9.983116   8.252422
    20  H    4.115813   4.919183   5.820485   7.379252   6.023762
    21  H    1.680401   2.793964   3.346310   5.058305   3.451998
    22  H    2.094839   2.527160   3.644577   5.002571   3.998579
    23  H    2.026687   0.956948   2.178140   2.760972   2.762057
    24  H    3.104472   4.333990   4.299797   6.093236   4.106656
    25  H    4.386883   3.265206   3.039949   1.397286   3.402136
    26  H    7.369191   6.635010   5.662395   4.175708   5.571725
    27  H    8.579174   7.508492   7.049466   5.251192   7.229879
    28  H    8.399394   7.479998   6.741697   5.031559   6.783506
                   11         12         13         14         15
    11  C    0.000000
    12  C    4.670928   0.000000
    13  C    6.960005   2.361672   0.000000
    14  C    8.824042   4.153436   2.003913   0.000000
    15  C    7.767441   3.112020   1.386647   1.166029   0.000000
    16  C    6.281223   1.725145   1.580437   2.700947   1.549599
    17  S    1.804415   3.712628   5.750126   7.720205   6.775807
    18  H    5.593254   9.872797  12.234469  13.906363  12.764837
    19  H    5.835398  10.381574  12.726481  14.499200  13.385192
    20  H    4.086379   7.925325  10.277087  11.870349  10.717133
    21  H    1.522916   5.492501   7.852044   9.579754   8.459572
    22  H    2.971269   5.623163   7.932257   9.431564   8.270643
    23  H    3.608545   3.505265   5.642084   6.975941   5.809985
    24  H    1.666362   6.293893   8.535822  10.437900   9.402265
    25  H    5.646107   1.840898   2.855175   3.866431   2.703300
    26  H    8.006871   3.548060   1.268364   1.790778   1.976577
    27  H    9.675554   5.070119   3.271839   1.463926   2.000642
    28  H    9.267344   4.608854   2.342730   0.591905   1.735522
                   16         17         18         19         20
    16  C    0.000000
    17  S    5.435716   0.000000
    18  H   11.215254   7.344149   0.000000
    19  H   11.844744   7.450844   1.422359   0.000000
    20  H    9.170170   5.889579   2.158075   3.257645   0.000000
    21  H    6.917597   3.291183   4.395746   4.927430   2.639082
    22  H    6.732592   4.504881   4.645367   5.579885   2.503042
    23  H    4.301445   4.198817   7.168865   8.021166   5.036711
    24  H    7.932419   2.957016   4.623744   4.530475   3.725099
    25  H    1.300708   5.163833  10.212421  10.941935   8.117293
    26  H    2.800286   6.646173  13.389165  13.820906  11.470231
    27  H    3.394718   8.762644  14.465322  15.173875  12.365918
    28  H    3.242338   8.092757  14.418701  14.982832  12.398545
                   21         22         23         24         25
    21  H    0.000000
    22  H    1.679728   0.000000
    23  H    3.325480   2.534707   0.000000
    24  H    2.056564   3.724651   5.090361   0.000000
    25  H    6.039044   5.635008   3.130177   7.311488   0.000000
    26  H    8.994909   9.161080   6.904534   9.526231   4.096130
    27  H   10.252680   9.875073   7.348700  11.326935   4.252904
    28  H   10.073070   9.973544   7.534951  10.862839   4.438374
                   26         27         28
    26  H    0.000000
    27  H    3.254649   0.000000
    28  H    1.782724   1.680252   0.000000
 Stoichiometry    C15H11NS
 Framework group  C1[X(C15H11NS)]
 Deg. of freedom    78
 Full point group                 C1      NOp   1
 Largest Abelian subgroup         C1      NOp   1
 Largest concise Abelian subgroup C1      NOp   1
                         Standard orientation:                         
 ---------------------------------------------------------------------
 Center     Atomic      Atomic             Coordinates (Angstroms)
 Number     Number       Type             X           Y           Z
 ---------------------------------------------------------------------
      1          7           0        6.129729   -0.167996    0.000004
      2          6           0        4.088303    0.518700   -0.000000
      3          6           0        4.862187   -0.889789    0.000003
      4          6           0        3.694898   -0.564236   -0.000000
      5          6           0        2.421453   -1.125072   -0.000004
      6          6           0        1.102146   -0.486855   -0.000005
      7          6           0        0.097584   -1.200806    0.000002
      8          6           0       -0.540261   -0.018268    0.000002
      9          6           0       -2.276489   -0.491201    0.000006
     10          6           0       -0.521365    0.580181    0.000003
     11          6           0        1.948327    0.850945   -0.000001
     12          6           0       -2.676222    0.194346    0.000001
     13          6           0       -5.006363    0.578977    0.000003
     14          6           0       -6.797811   -0.319009    0.000001
     15          6           0       -5.675557   -0.635506   -0.000003
     16          6           0       -4.129200   -0.735696   -0.000005
     17         16           0        0.563447    2.007674   -0.000002
     18          1           0        7.066004   -1.406016   -0.000002
     19          1           0        7.700195   -0.132867    0.000002
     20          1           0        4.966218   -1.904200   -0.000007
     21          1           0        2.781369   -0.423933   -0.000002
     22          1           0        2.468966   -2.074354   -0.000004
     23          1           0       -0.064787   -2.143878   -0.000001
     24          1           0        3.478435    1.510893    0.000006
     25          1           0       -3.144832   -1.585909   -0.000000
     26          1           0       -6.045595    1.306124    0.000009
     27          1           0       -7.397182   -1.654611    0.000004
     28          1           0       -7.281840    0.021677   -0.000004
 ---------------------------------------------------------------------
 Rotational constants (GHZ):           2.1269808           0.1563312           0.1456277
 Standard basis: 6-31G(2df,p) (6D, 7F)
 There are   586 symmetry adapted cartesian basis functions of A   symmetry.
 There are   535 symmetry adapted basis functions of A   symmetry.
   535 basis functions,   849 primitive gaussians,   586 cartesian basis functions
    62 alpha electrons       62 beta electrons
       nuclear repulsion energy      1157.2882373511 Hartrees.
 NAtoms=   28 NActive=   28 NUniq=   28 SFac= 1.00D+00 NAtFMM=   60 NAOKFM=F Big=F
 Integral buffers will be    131072 words long.
 Raffenetti 2 integral format.
 Two-electron integral symmetry is turned on.
 One-electron integrals computed using PRISM.
 PrsmSu:  requested number of processors reduced to:  12 ShMem   1 Linda.
 NBasis=   535 RedAO= T EigKep=  2.66D-06  NBF=   535
 NBsUse=   535 1.00D-06 EigRej= -1.00D+00 NBFU=   535
 ExpMin= 1.17D-01 ExpMax= 2.19D+04 ExpMxC= 3.30D+03 IAcc=3 IRadAn=         5 AccDes= 0.00D+00
 Harris functional with IExCor=  402 and IRadAn=       5 diagonalized for initial guess.
 HarFok:  IExCor=  402 AccDes= 0.00D+00 IRadAn=         5 IDoV= 1 UseB2=F ITyADJ=14
 ICtDFT=  3500011 ScaDFX=  1.000000  1.000000  1.000000  1.000000
 FoFCou: FMM=F IPFlag=           0 FMFlag=      100000 FMFlg1=           0
         NFxFlg=           0 DoJE=T BraDBF=F KetDBF=T FulRan=T
         wScrn=  0.000000 ICntrl=       500 IOpCl=  0 I1Cent=   200000004 NGrid=           0
         NMat0=    1 NMatS0=      1 NMatT0=    0 NMatD0=    1 NMtDS0=    0 NMtDT0=    0
 Petite list used in FoFCou.
 Requested convergence on RMS density matrix=1.00D-08 within 128 cycles.
 Requested convergence on MAX density matrix=1.00D-06.
 Requested convergence on             energy=1.00D-06.
 No special actions if energy rises.
 Integral accuracy reduced to 1.0D-05 until final iterations.
 EnCoef did     4 forward-backward iterations
 EnCoef did     6 forward-backward iterations
 EnCoef did   100 forward-backward iterations
 EnCoef did     3 forward-backward iterations
 EnCoef did     3 forward-backward iterations
 EnCoef did     3 forward-backward iterations
 EnCoef did     4 forward-backward iterations
 EnCoef did     1 forward-backward iterations
 EnCoef did     9 forward-backward iterations
 Rare condition: small coef for last iteration:  0.000D+00
 Restarting incremental Fock formation.
 Problem detected with inexpensive integrals.
 Switching to full accuracy and repeating last cycle.
 SCF Done:  E(RB3LYP) =  -1024.63775078     A.U. after   55 cycles
            NFock= 55  Conv=0.24D-08     -V/T= 1.9852

 **********************************************************************

            Population analysis using the SCF density.

 **********************************************************************

 Orbital symmetries:
       Occupied  (A) (A) (A) (A) (A) (A) (A) (A) (A) (A) (A) (A)
                 (A) (A) (A) (A) (A) (A) (A) (A) (A) (A) (A) (A)
                 (A) (A) (A) (A) (A) (A) (A) (A) (A) (A) (A) (A)
                 (A) (A) (A) (A) (A) (A) (A) (A) (A) (A) (A) (A)
                 (A) (A) (A) (A) (A) (A) (A) (A) (A) (A) (A) (A)
                 (A) (A)
       Virtual   (A) (A) (A) (A) (A) (A) (A) (A) (A) (A) (A) (A)
                 (A) (A) (A) (A) (A) (A) (A) (A) (A) (A) (A) (A)
                 (A) (A) (A) (A) (A) (A) (A) (A) (A) (A) (A) (A)
                 (A) (A) (A) (A) (A) (A) (A) (A) (A) (A) (A) (A)
                 (A) (A) (A) (A) (A) (A) (A) (A) (A) (A) (A) (A)
                 (A) (A) (A) (A) (A) (A) (A) (A) (A) (A) (A) (A)
                 (A) (A) (A) (A) (A) (A) (A) (A) (A) (A) (A) (A)
                 (A) (A) (A) (A) (A) (A) (A) (A) (A) (A) (A) (A)
                 (A) (A) (A) (A) (A) (A) (A) (A) (A) (A) (A) (A)
                 (A) (A) (A) (A) (A) (A) (A) (A) (A) (A) (A) (A)
                 (A) (A) (A) (A) (A) (A) (A) (A) (A) (A) (A) (A)
                 (A) (A) (A) (A) (A) (A) (A) (A) (A) (A) (A) (A)
                 (A) (A) (A) (A) (A) (A) (A) (A) (A) (A) (A) (A)
                 (A) (A) (A) (A) (A) (A) (A) (A) (A) (A) (A) (A)
                 (A) (A) (A) (A) (A) (A) (A) (A) (A) (A) (A) (A)
                 (A) (A) (A) (A) (A) (A) (A) (A) (A) (A) (A) (A)
                 (A) (A) (A) (A) (A) (A) (A) (A) (A) (A) (A) (A)
                 (A) (A) (A) (A) (A) (A) (A) (A) (A) (A) (A) (A)
                 (A) (A) (A) (A) (A) (A) (A) (A) (A) (A) (A) (A)
                 (A) (A) (A) (A) (A) (A) (A) (A) (A) (A) (A) (A)
                 (A) (A) (A) (A) (A) (A) (A) (A) (A) (A) (A) (A)
                 (A) (A) (A) (A) (A) (A) (A) (A) (A) (A) (A) (A)
                 (A) (A) (A) (A) (A) (A) (A) (A) (A) (A) (A) (A)
                 (A) (A) (A) (A) (A) (A) (A) (A) (A) (A) (A) (A)
                 (A) (A) (A) (A) (A) (A) (A) (A) (A) (A) (A) (A)
                 (A) (A) (A) (A) (A) (A) (A) (A) (A) (A) (A) (A)
                 (A) (A) (A) (A) (A) (A) (A) (A) (A) (A) (A) (A)
                 (A) (A) (A) (A) (A) (A) (A) (A) (A) (A) (A) (A)
                 (A) (A) (A) (A) (A) (A) (A) (A) (A) (A) (A) (A)
                 (A) (A) (A) (A) (A) (A) (A) (A) (A) (A) (A) (A)
                 (A) (A) (A) (A) (A) (A) (A) (A) (A) (A) (A) (A)
                 (A) (A) (A) (A) (A) (A) (A) (A) (A) (A) (A) (A)
                 (A) (A) (A) (A) (A) (A) (A) (A) (A) (A) (A) (A)
                 (A) (A) (A) (A) (A) (A) (A) (A) (A) (A) (A) (A)
                 (A) (A) (A) (A) (A) (A) (A) (A) (A) (A) (A) (A)
                 (A) (A) (A) (A) (A) (A) (A) (A) (A) (A) (A) (A)
                 (A) (A) (A) (A) (A) (A) (A) (A) (A) (A) (A) (A)
                 (A) (A) (A) (A) (A) (A) (A) (A) (A) (A) (A) (A)
                 (A) (A) (A) (A) (A) (A) (A) (A) (A) (A) (A) (A)
                 (A) (A) (A) (A) (A)
 The electronic state is 1-A.
 Alpha  occ. eigenvalues --  -88.93171 -14.33999 -10.70109 -10.33082 -10.28750
 Alpha  occ. eigenvalues --  -10.26894 -10.26539 -10.25622 -10.23987 -10.22624
 Alpha  occ. eigenvalues --  -10.22567 -10.22473 -10.19283 -10.18649 -10.17163
 Alpha  occ. eigenvalues --  -10.15272 -10.14199  -7.99182  -5.95451  -5.95175
 Alpha  occ. eigenvalues --   -5.95138  -1.08201  -0.95928  -0.94660  -0.93125
 Alpha  occ. eigenvalues --   -0.87426  -0.80422  -0.78182  -0.77611  -0.72732
 Alpha  occ. eigenvalues --   -0.70768  -0.68178  -0.64969  -0.62600  -0.61822
 Alpha  occ. eigenvalues --   -0.59554  -0.58932  -0.54931  -0.53489  -0.51613
 Alpha  occ. eigenvalues --   -0.49090  -0.47645  -0.45979  -0.45600  -0.45584
 Alpha  occ. eigenvalues --   -0.41505  -0.40827  -0.40528  -0.39602  -0.36361
 Alpha  occ. eigenvalues --   -0.33258  -0.31518  -0.30875  -0.29788  -0.29421
 Alpha  occ. eigenvalues --   -0.27764  -0.27093  -0.25811  -0.23861  -0.20829
 Alpha  occ. eigenvalues --   -0.18420  -0.16492
 Alpha virt. eigenvalues --   -0.14868  -0.12760  -0.08804  -0.07166  -0.05045
 Alpha virt. eigenvalues --   -0.04864   0.00646   0.01226   0.03356   0.03727
 Alpha virt. eigenvalues --    0.05826   0.05995   0.06759   0.09236   0.12359
 Alpha virt. eigenvalues --    0.12754   0.12944   0.14864   0.14883   0.16675
 Alpha virt. eigenvalues --    0.17958   0.18187   0.18986   0.22789   0.24062
 Alpha virt. eigenvalues --    0.24245   0.25068   0.25748   0.26699   0.28395
 Alpha virt. eigenvalues --    0.29989   0.30758   0.30847   0.32632   0.33531
 Alpha virt. eigenvalues --    0.34635   0.35924   0.36877   0.38899   0.39780
 Alpha virt. eigenvalues --    0.40583   0.42299   0.42698   0.42831   0.43815
 Alpha virt. eigenvalues --    0.44367   0.46048   0.47245   0.47660   0.49772
 Alpha virt. eigenvalues --    0.50119   0.50698   0.51149   0.51474   0.52835
 Alpha virt. eigenvalues --    0.52947   0.53284   0.55771   0.56192   0.56939
 Alpha virt. eigenvalues --    0.57191   0.57576   0.59206   0.60456   0.61117
 Alpha virt. eigenvalues --    0.61279   0.61632   0.62942   0.63609   0.64813
 Alpha virt. eigenvalues --    0.65120   0.65446   0.67024   0.67445   0.68089
 Alpha virt. eigenvalues --    0.69131   0.69447   0.70441   0.71527   0.72740
 Alpha virt. eigenvalues --    0.72900   0.74435   0.74945   0.75018   0.75483
 Alpha virt. eigenvalues --    0.75990   0.77205   0.77626   0.77792   0.79011
 Alpha virt. eigenvalues --    0.79489   0.80014   0.80558   0.81075   0.81866
 Alpha virt. eigenvalues --    0.82615   0.82744   0.84604   0.87155   0.87158
 Alpha virt. eigenvalues --    0.87680   0.88479   0.89316   0.92016   0.92045
 Alpha virt. eigenvalues --    0.92585   0.93107   0.94531   0.95809   0.98832
 Alpha virt. eigenvalues --    0.99099   0.99381   1.00536   1.02773   1.02841
 Alpha virt. eigenvalues --    1.05368   1.06567   1.06859   1.07530   1.09075
 Alpha virt. eigenvalues --    1.10682   1.11415   1.12722   1.13079   1.14138
 Alpha virt. eigenvalues --    1.15385   1.17414   1.21089   1.21096   1.22306
 Alpha virt. eigenvalues --    1.23911   1.24245   1.25503   1.25551   1.26858
 Alpha virt. eigenvalues --    1.27699   1.28616   1.28901   1.30106   1.30379
 Alpha virt. eigenvalues --    1.32522   1.33623   1.35225   1.36552   1.38927
 Alpha virt. eigenvalues --    1.39974   1.40082   1.40908   1.43041   1.43604
 Alpha virt. eigenvalues --    1.44889   1.45702   1.46600   1.47790   1.50195
 Alpha virt. eigenvalues --    1.51385   1.51716   1.52030   1.55341   1.56037
 Alpha virt. eigenvalues --    1.56348   1.57140   1.57399   1.62192   1.62434
 Alpha virt. eigenvalues --    1.64005   1.67334   1.67376   1.69226   1.71056
 Alpha virt. eigenvalues --    1.71749   1.72680   1.73837   1.74735   1.76697
 Alpha virt. eigenvalues --    1.77927   1.77969   1.79468   1.80418   1.82615
 Alpha virt. eigenvalues --    1.83227   1.83794   1.85959   1.87946   1.88115
 Alpha virt. eigenvalues --    1.89092   1.91326   1.93406   1.94242   1.96085
 Alpha virt. eigenvalues --    1.97548   1.97772   2.01111   2.02436   2.05691
 Alpha virt. eigenvalues --    2.07792   2.08013   2.09262   2.11376   2.12842
 Alpha virt. eigenvalues --    2.14133   2.14544   2.16507   2.17122   2.19837
 Alpha virt. eigenvalues --    2.20313   2.21571   2.23874   2.24132   2.25552
 Alpha virt. eigenvalues --    2.27432   2.29196   2.30194   2.31980   2.33144
 Alpha virt. eigenvalues --    2.33415   2.35755   2.36595   2.37819   2.41825
 Alpha virt. eigenvalues --    2.42309   2.45492   2.46405   2.49208   2.51696
 Alpha virt. eigenvalues --    2.52124   2.52605   2.53815   2.54591   2.57814
 Alpha virt. eigenvalues --    2.60627   2.60944   2.62219   2.63223   2.66734
 Alpha virt. eigenvalues --    2.69429   2.70892   2.70964   2.73160   2.73551
 Alpha virt. eigenvalues --    2.74423   2.76614   2.77367   2.79097   2.80754
 Alpha virt. eigenvalues --    2.82436   2.83395   2.85152   2.85540   2.86917
 Alpha virt. eigenvalues --    2.88339   2.89249   2.89368   2.90028   2.92260
 Alpha virt. eigenvalues --    2.96293   2.97765   2.98281   2.99324   2.99575
 Alpha virt. eigenvalues --    3.00289   3.01292   3.01766   3.02739   3.05081
 Alpha virt. eigenvalues --    3.05184   3.06197   3.07320   3.08389   3.08526
 Alpha virt. eigenvalues --    3.10663   3.11903   3.12136   3.13193   3.14956
 Alpha virt. eigenvalues --    3.17476   3.17923   3.19359   3.19973   3.21542
 Alpha virt. eigenvalues --    3.21709   3.24327   3.25078   3.26126   3.26835
 Alpha virt. eigenvalues --    3.27681   3.29891   3.31073   3.31412   3.33037
 Alpha virt. eigenvalues --    3.33910   3.34263   3.35674   3.37764   3.38541
 Alpha virt. eigenvalues --    3.40107   3.40494   3.41687   3.43269   3.44352
 Alpha virt. eigenvalues --    3.45314   3.45896   3.47091   3.48075   3.49199
 Alpha virt. eigenvalues --    3.53020   3.54369   3.55978   3.56407   3.59054
 Alpha virt. eigenvalues --    3.59388   3.60998   3.62664   3.65551   3.66393
 Alpha virt. eigenvalues --    3.67364   3.67774   3.67924   3.70017   3.70510
 Alpha virt. eigenvalues --    3.70892   3.73851   3.74117   3.75236   3.76004
 Alpha virt. eigenvalues --    3.77876   3.78547   3.79019   3.80459   3.81095
 Alpha virt. eigenvalues --    3.84582   3.86194   3.86732   3.88314   3.88499
 Alpha virt. eigenvalues --    3.91923   3.95638   3.96468   3.97204   3.98097
 Alpha virt. eigenvalues --    4.00953   4.01479   4.02812   4.05050   4.08976
 Alpha virt. eigenvalues --    4.09585   4.11085   4.12614   4.13718   4.14310
 Alpha virt. eigenvalues --    4.17092   4.17967   4.20891   4.22537   4.24565
 Alpha virt. eigenvalues --    4.24988   4.26240   4.28306   4.28370   4.31042
 Alpha virt. eigenvalues --    4.33830   4.34894   4.37392   4.37751   4.38650
 Alpha virt. eigenvalues --    4.38799   4.40328   4.41122   4.41517   4.42380
 Alpha virt. eigenvalues --    4.44235   4.44901   4.45622   4.47300   4.49160
 Alpha virt. eigenvalues --    4.49400   4.50947   4.51618   4.53345   4.53583
 Alpha virt. eigenvalues --    4.54910   4.56176   4.59915   4.60536   4.63548
 Alpha virt. eigenvalues --    4.65221   4.66204   4.67227   4.68045   4.70446
 Alpha virt. eigenvalues --    4.73752   4.75182   4.78029   4.79096   4.81254
 Alpha virt. eigenvalues --    4.83089   4.84412   4.87828   4.88358   4.90478
 Alpha virt. eigenvalues --    4.93496   4.93852   4.97967   4.98494   4.99982
 Alpha virt. eigenvalues --    5.04815   5.05876   5.07698   5.10832   5.11908
 Alpha virt. eigenvalues --    5.14153   5.15805   5.17730   5.18496   5.21281
 Alpha virt. eigenvalues --    5.23850   5.24739   5.31396   5.34264   5.34490
 Alpha virt. eigenvalues --    5.35318   5.35673   5.35681   5.43491   5.47435
 Alpha virt. eigenvalues --    5.51813   5.53334   5.55878   5.57798   5.64460
 Alpha virt. eigenvalues --    5.67461   5.73071   5.75730   5.80963   5.82237
 Alpha virt. eigenvalues --    5.88352   6.00303   6.03600   6.11640   6.21603
 Alpha virt. eigenvalues --    6.33041   6.39656   6.45673   6.57026   6.60038
 Alpha virt. eigenvalues --    6.65578   6.71408   6.89500   7.13898   7.30792
 Alpha virt. eigenvalues --    7.48035   7.62107   7.76764   8.24336   8.80026
 Alpha virt. eigenvalues --    9.61778   9.71243   9.95371  10.09993  10.61916
 Alpha virt. eigenvalues --   10.81850  10.92477  11.06340  11.18381  11.37455
 Alpha virt. eigenvalues --   11.42499  11.54102  11.57697  12.18211  12.37400
 Alpha virt. eigenvalues --   12.55001  12.99251  15.07573
          Condensed to atoms (all electrons):
               1          2          3          4          5          6
     1  N    7.353507  -0.080172   0.383505   0.083595   0.006686  -0.000201
     2  C   -0.080172   5.782834   0.138565   0.432914  -0.211187  -0.039243
     3  C    0.383505   0.138565   5.428172   0.266146  -0.049679   0.038535
     4  C    0.083595   0.432914   0.266146   5.107064  -0.365619   0.337807
     5  C    0.006686  -0.211187  -0.049679  -0.365619   7.087892  -0.273598
     6  C   -0.000201  -0.039243   0.038535   0.337807  -0.273598   5.937273
     7  C   -0.000001  -0.000192   0.001399   0.086534  -0.436545  -0.978937
     8  C   -0.000000  -0.002213   0.000594   0.033368  -0.367884  -2.583185
     9  C   -0.000000  -0.000001   0.000000   0.000108  -0.001933  -0.033119
    10  C    0.000000   0.001093  -0.000400  -0.031223   0.384832   3.370193
    11  C    0.001371  -0.191002   0.018997  -0.036562  -0.075845   0.311597
    12  C   -0.000000   0.000000   0.000000   0.000009  -0.000016  -0.020129
    13  C    0.000000  -0.000000   0.000000   0.000000  -0.000000   0.000003
    14  C    0.000000   0.000000   0.000000   0.000000  -0.000000  -0.000000
    15  C   -0.000000  -0.000000   0.000000   0.000000  -0.000000  -0.000009
    16  C   -0.000000  -0.000000   0.000000   0.000000  -0.000005  -0.001813
    17  S   -0.000010   0.000565  -0.000551   0.002566   0.045042  -0.040650
    18  H   -0.033471   0.002213  -0.022811   0.001895   0.000542  -0.000005
    19  H   -0.117870   0.010303  -0.013293  -0.001875   0.000081  -0.000000
    20  H   -0.120844   0.012110   0.295453  -0.085869  -0.009883   0.000332
    21  H    0.002507   0.054751  -0.425618  -0.797430   0.345221  -0.260460
    22  H   -0.000248   0.013249  -0.024798  -0.018941   0.389574  -0.076753
    23  H   -0.000000  -0.000000  -0.000007   0.001580  -0.016288  -0.010577
    24  H   -0.002346   0.327002   0.004024  -0.014151  -0.005156   0.007754
    25  H    0.000000  -0.000000  -0.000000  -0.000000  -0.000001   0.001929
    26  H   -0.000000   0.000000  -0.000000   0.000000   0.000000  -0.000000
    27  H    0.000000   0.000000  -0.000000  -0.000000  -0.000000  -0.000000
    28  H    0.000000   0.000000   0.000000   0.000000  -0.000000  -0.000000
               7          8          9         10         11         12
     1  N   -0.000001  -0.000000  -0.000000   0.000000   0.001371  -0.000000
     2  C   -0.000192  -0.002213  -0.000001   0.001093  -0.191002   0.000000
     3  C    0.001399   0.000594   0.000000  -0.000400   0.018997   0.000000
     4  C    0.086534   0.033368   0.000108  -0.031223  -0.036562   0.000009
     5  C   -0.436545  -0.367884  -0.001933   0.384832  -0.075845  -0.000016
     6  C   -0.978937  -2.583185  -0.033119   3.370193   0.311597  -0.020129
     7  C    8.828788   3.381693   0.047985  -4.682746   0.065630   0.066338
     8  C    3.381693  53.887017  -1.107915 -51.741036   0.449237   0.918099
     9  C    0.047985  -1.107915   5.834345   1.152601   0.001305   0.079633
    10  C   -4.682746 -51.741036   1.152601  61.321594  -0.498988  -0.934659
    11  C    0.065630   0.449237   0.001305  -0.498988   6.190576   0.000313
    12  C    0.066338   0.918099   0.079633  -0.934659   0.000313   5.802170
    13  C   -0.000030  -0.000345  -0.034194  -0.000160  -0.000000   0.042104
    14  C    0.000001   0.000015  -0.004042  -0.000023   0.000000   0.000330
    15  C    0.000080   0.001411  -0.077921  -0.001832   0.000000   0.037484
    16  C    0.007885   0.013721  -0.126850  -0.040790   0.000005   0.197887
    17  S   -0.053509   0.450049  -0.000941  -0.098174   0.244652   0.001330
    18  H    0.000000   0.000000  -0.000000  -0.000000   0.000011   0.000000
    19  H    0.000000   0.000000  -0.000000  -0.000000   0.000023   0.000000
    20  H    0.000054   0.000000  -0.000000   0.000001   0.000516   0.000000
    21  H   -0.118299  -0.051408  -0.000257   0.049432  -0.216923  -0.000044
    22  H   -0.020157  -0.005056  -0.000089   0.007106   0.020079  -0.000010
    23  H    0.369864  -0.177270   0.002615   0.131259   0.002954   0.005137
    24  H   -0.000002   0.000471   0.000002  -0.000194  -0.040611  -0.000000
    25  H   -0.012392  -0.047115   0.346266   0.050361  -0.000004  -0.182628
    26  H    0.000000   0.000020   0.000013  -0.000019   0.000000  -0.000909
    27  H    0.000000  -0.000000   0.000057   0.000000   0.000000  -0.000079
    28  H    0.000000   0.000001  -0.000416  -0.000001   0.000000   0.000012
              13         14         15         16         17         18
     1  N    0.000000   0.000000  -0.000000  -0.000000  -0.000010  -0.033471
     2  C   -0.000000   0.000000  -0.000000  -0.000000   0.000565   0.002213
     3  C    0.000000   0.000000   0.000000   0.000000  -0.000551  -0.022811
     4  C    0.000000   0.000000   0.000000   0.000000   0.002566   0.001895
     5  C   -0.000000  -0.000000  -0.000000  -0.000005   0.045042   0.000542
     6  C    0.000003  -0.000000  -0.000009  -0.001813  -0.040650  -0.000005
     7  C   -0.000030   0.000001   0.000080   0.007885  -0.053509   0.000000
     8  C   -0.000345   0.000015   0.001411   0.013721   0.450049   0.000000
     9  C   -0.034194  -0.004042  -0.077921  -0.126850  -0.000941  -0.000000
    10  C   -0.000160  -0.000023  -0.001832  -0.040790  -0.098174  -0.000000
    11  C   -0.000000   0.000000   0.000000   0.000005   0.244652   0.000011
    12  C    0.042104   0.000330   0.037484   0.197887   0.001330   0.000000
    13  C    5.357506  -0.217843   0.359562   0.321862   0.000056   0.000000
    14  C   -0.217843   5.445553   0.455468  -0.038302   0.000000   0.000000
    15  C    0.359562   0.455468   5.195468  -0.001667  -0.000000  -0.000000
    16  C    0.321862  -0.038302  -0.001667   5.813979  -0.000061   0.000000
    17  S    0.000056   0.000000  -0.000000  -0.000061  15.554933  -0.000000
    18  H    0.000000   0.000000  -0.000000   0.000000  -0.000000   0.804393
    19  H    0.000000   0.000000   0.000000   0.000000  -0.000000   0.214063
    20  H    0.000000  -0.000000  -0.000000   0.000000  -0.000009   0.000466
    21  H   -0.000000  -0.000000  -0.000000  -0.000001  -0.025166  -0.000377
    22  H    0.000000  -0.000000  -0.000000  -0.000000  -0.000859   0.000025
    23  H    0.000003   0.000000   0.000015   0.000858  -0.000191   0.000000
    24  H   -0.000000   0.000000   0.000000  -0.000000   0.005470  -0.000011
    25  H    0.001509  -0.005194  -0.069153   0.134987   0.000084   0.000000
    26  H    0.295754   0.020311  -0.080645  -0.012005  -0.000001   0.000000
    27  H    0.024219   0.198841   0.024092  -0.001925  -0.000000   0.000000
    28  H   -0.063415   0.300697   0.008147  -0.017958   0.000000   0.000000
              19         20         21         22         23         24
     1  N   -0.117870  -0.120844   0.002507  -0.000248  -0.000000  -0.002346
     2  C    0.010303   0.012110   0.054751   0.013249  -0.000000   0.327002
     3  C   -0.013293   0.295453  -0.425618  -0.024798  -0.000007   0.004024
     4  C   -0.001875  -0.085869  -0.797430  -0.018941   0.001580  -0.014151
     5  C    0.000081  -0.009883   0.345221   0.389574  -0.016288  -0.005156
     6  C   -0.000000   0.000332  -0.260460  -0.076753  -0.010577   0.007754
     7  C    0.000000   0.000054  -0.118299  -0.020157   0.369864  -0.000002
     8  C    0.000000   0.000000  -0.051408  -0.005056  -0.177270   0.000471
     9  C   -0.000000  -0.000000  -0.000257  -0.000089   0.002615   0.000002
    10  C   -0.000000   0.000001   0.049432   0.007106   0.131259  -0.000194
    11  C    0.000023   0.000516  -0.216923   0.020079   0.002954  -0.040611
    12  C    0.000000   0.000000  -0.000044  -0.000010   0.005137  -0.000000
    13  C    0.000000   0.000000  -0.000000   0.000000   0.000003  -0.000000
    14  C    0.000000  -0.000000  -0.000000  -0.000000   0.000000   0.000000
    15  C    0.000000  -0.000000  -0.000000  -0.000000   0.000015   0.000000
    16  C    0.000000   0.000000  -0.000001  -0.000000   0.000858  -0.000000
    17  S   -0.000000  -0.000009  -0.025166  -0.000859  -0.000191   0.005470
    18  H    0.214063   0.000466  -0.000377   0.000025   0.000000  -0.000011
    19  H    0.812319   0.010001  -0.000132   0.000009  -0.000000  -0.000301
    20  H    0.010001   0.811133   0.015611   0.014322   0.000006  -0.002293
    21  H   -0.000132   0.015611   2.773594  -0.039904   0.000547  -0.021255
    22  H    0.000009   0.014322  -0.039904   0.624032   0.001223  -0.001441
    23  H   -0.000000   0.000006   0.000547   0.001223   0.539437  -0.000001
    24  H   -0.000301  -0.002293  -0.021255  -0.001441  -0.000001   0.538190
    25  H    0.000000   0.000000   0.000001   0.000002  -0.000160  -0.000000
    26  H    0.000000  -0.000000  -0.000000  -0.000000  -0.000000   0.000000
    27  H    0.000000  -0.000000   0.000000  -0.000000  -0.000000   0.000000
    28  H    0.000000  -0.000000  -0.000000  -0.000000   0.000000   0.000000
              25         26         27         28
     1  N    0.000000  -0.000000   0.000000   0.000000
     2  C   -0.000000   0.000000   0.000000   0.000000
     3  C   -0.000000  -0.000000  -0.000000   0.000000
     4  C   -0.000000   0.000000  -0.000000   0.000000
     5  C   -0.000001   0.000000  -0.000000  -0.000000
     6  C    0.001929  -0.000000  -0.000000  -0.000000
     7  C   -0.012392   0.000000   0.000000   0.000000
     8  C   -0.047115   0.000020  -0.000000   0.000001
     9  C    0.346266   0.000013   0.000057  -0.000416
    10  C    0.050361  -0.000019   0.000000  -0.000001
    11  C   -0.000004   0.000000   0.000000   0.000000
    12  C   -0.182628  -0.000909  -0.000079   0.000012
    13  C    0.001509   0.295754   0.024219  -0.063415
    14  C   -0.005194   0.020311   0.198841   0.300697
    15  C   -0.069153  -0.080645   0.024092   0.008147
    16  C    0.134987  -0.012005  -0.001925  -0.017958
    17  S    0.000084  -0.000001  -0.000000   0.000000
    18  H    0.000000   0.000000   0.000000   0.000000
    19  H    0.000000   0.000000   0.000000   0.000000
    20  H    0.000000  -0.000000  -0.000000  -0.000000
    21  H    0.000001  -0.000000   0.000000  -0.000000
    22  H    0.000002  -0.000000  -0.000000  -0.000000
    23  H   -0.000160  -0.000000  -0.000000   0.000000
    24  H   -0.000000   0.000000   0.000000   0.000000
    25  H    0.623248  -0.000533   0.000283  -0.000390
    26  H   -0.000533   0.541431  -0.001767   0.033037
    27  H    0.000283  -0.001767   0.926966  -0.088941
    28  H   -0.000390   0.033037  -0.088941   0.769471
 Mulliken charges:
               1
     1  N   -0.476011
     2  C   -0.251591
     3  C   -0.038234
     4  C    0.998086
     5  C   -0.446232
     6  C    0.313254
     7  C   -0.553440
     8  C    2.947732
     9  C   -0.077252
    10  C   -2.438227
    11  C   -0.247331
    12  C   -0.012373
    13  C   -0.086588
    14  C   -0.155812
    15  C    0.149503
    16  C   -0.249807
    17  S   -0.084624
    18  H    0.033067
    19  H    0.086671
    20  H    0.058893
    21  H   -0.284393
    22  H    0.118636
    23  H    0.148998
    24  H    0.204850
    25  H    0.158900
    26  H    0.205312
    27  H   -0.081746
    28  H    0.059755
 Sum of Mulliken charges =  -0.00000
 Mulliken charges with hydrogens summed into heavy atoms:
               1
     1  N   -0.356272
     2  C   -0.046741
     3  C    0.020659
     4  C    0.998086
     5  C   -0.611989
     6  C    0.313254
     7  C   -0.404442
     8  C    2.947732
     9  C   -0.077252
    10  C   -2.438227
    11  C   -0.247331
    12  C   -0.012373
    13  C    0.118724
    14  C   -0.177803
    15  C    0.149503
    16  C   -0.090906
    17  S   -0.084624
 Electronic spatial extent (au):  <R**2>=           7048.3508
 Charge=             -0.0000 electrons
 Dipole moment (field-independent basis, Debye):
    X=             -2.9263    Y=             -0.0859    Z=             -0.0000  Tot=              2.9276
 Quadrupole moment (field-independent basis, Debye-Ang):
   XX=           -134.0936   YY=           -100.8054   ZZ=           -104.7916
   XY=            -16.1639   XZ=              0.0000   YZ=              0.0000
 Traceless Quadrupole moment (field-independent basis, Debye-Ang):
   XX=            -20.8634   YY=             12.4248   ZZ=              8.4386
   XY=            -16.1639   XZ=              0.0000   YZ=              0.0000
 Octapole moment (field-independent basis, Debye-Ang**2):
  XXX=           -111.2265  YYY=             -4.2341  ZZZ=              0.0000  XYY=             10.3818
  XXY=             74.5994  XXZ=             -0.0005  XZZ=             -1.7697  YZZ=              4.0342
  YYZ=             -0.0000  XYZ=             -0.0000
 Hexadecapole moment (field-independent basis, Debye-Ang**3):
 XXXX=         -11256.2261 YYYY=           -739.8050 ZZZZ=           -104.4407 XXXY=           -782.2821
 XXXZ=              0.0009 YYYX=            -43.9067 YYYZ=              0.0000 ZZZX=              0.0001
 ZZZY=             -0.0000 XXYY=          -1690.9764 XXZZ=          -1627.2794 YYZZ=           -148.4036
 XXYZ=              0.0004 YYXZ=              0.0000 ZZXY=             -6.0759
 N-N= 1.157288237351D+03 E-N=-4.725543198989D+03  KE= 1.040028239882D+03
 PrsmSu:  requested number of processors reduced to:  13 ShMem   1 Linda.
 Calling FoFJK, ICntrl=      2127 FMM=F ISym2X=0 I1Cent= 0 IOpClX= 0 NMat=1 NMatS=1 NMatT=0.
 ***** Axes restored to original set *****
 -------------------------------------------------------------------
 Center     Atomic                   Forces (Hartrees/Bohr)
 Number     Number              X              Y              Z
 -------------------------------------------------------------------
      1        7           0.009043600   -0.031628179    0.044101109
      2        6           0.058672501    0.238598541   -0.332694876
      3        6          -0.311687371    0.060001246   -0.083663904
      4        6           0.009176777   -0.120189975    0.167588476
      5        6           0.023096848   -0.301509230    0.420417260
      6        6          -0.277990695    0.092824812   -0.129432435
      7        6           0.080309490   -0.032237204    0.044950604
      8        6          -3.977066547   -4.344652446    6.058060655
      9        6          -2.721515238   -0.959508462    1.337866927
     10        6           4.038205169    4.433759236   -6.182308590
     11        6           0.228354423   -0.032406771    0.045188008
     12        6           2.852857417    0.890407899   -1.241514916
     13        6          -0.008125654    0.013885493   -0.019361314
     14        6          -1.572128453   -0.272402469    0.379800046
     15        6          -0.259942416    0.083467554   -0.116382316
     16        6           0.087749013    0.015920331   -0.022199437
     17       16          -0.003224255    0.008263843   -0.011523814
     18        1           0.019732441    0.031951714   -0.044552655
     19        1          -0.003127238   -0.026394331    0.036803242
     20        1          -0.066800426   -0.028846866    0.040223292
     21        1           0.210422614    0.238995765   -0.333248405
     22        1          -0.077645224   -0.060471623    0.084319270
     23        1          -0.040267232   -0.064196044    0.089513046
     24        1          -0.051622838    0.002167147   -0.003020907
     25        1          -0.007384275   -0.006744102    0.009402929
     26        1          -0.066979648    0.025178371   -0.035107962
     27        1           0.031489959    0.027833374   -0.038809809
     28        1           1.796397254    0.117932376   -0.164413523
 -------------------------------------------------------------------
 Cartesian Forces:  Max     6.182308590 RMS     1.436152633

 GradGradGradGradGradGradGradGradGradGradGradGradGradGradGradGradGradGrad
 Berny optimization.
 FormGI is forming the generalized inverse of G from B-inverse, IUseBI=4.
 Internal  Forces:  Max     8.061888432 RMS     0.773054291
 Search for a local minimum.
 Step number   1 out of a maximum of  151
 All quantities printed in internal units (Hartrees-Bohrs-Radians)
 Mixed Optimization -- RFO/linear search
 Second derivative matrix not updated -- first step.
 ITU=  0
     Eigenvalues ---    0.00230   0.00230   0.00230   0.00230   0.00230
     Eigenvalues ---    0.00473   0.00600   0.00667   0.00916   0.00916
     Eigenvalues ---    0.00945   0.01151   0.01446   0.01826   0.02039
     Eigenvalues ---    0.02118   0.02241   0.02404   0.03485   0.03923
     Eigenvalues ---    0.04048   0.04306   0.04544   0.07441   0.07884
     Eigenvalues ---    0.08908   0.09767   0.10111   0.10202   0.11263
     Eigenvalues ---    0.12320   0.13967   0.15644   0.15771   0.16000
     Eigenvalues ---    0.16000   0.16000   0.16000   0.16000   0.16000
     Eigenvalues ---    0.16000   0.16000   0.16852   0.18565   0.19212
     Eigenvalues ---    0.19649   0.20280   0.21827   0.22750   0.22750
     Eigenvalues ---    0.24785   0.25000   0.25000   0.25000   0.25000
     Eigenvalues ---    0.25000   0.25026   0.25708   0.26534   0.26603
     Eigenvalues ---    0.27437   0.34598   0.36276   0.37134   0.43976
     Eigenvalues ---    0.44381   0.49321   0.55900   0.56135   0.57575
     Eigenvalues ---    0.78334   0.83672   0.97364   1.10284   1.23928
     Eigenvalues ---    3.84988  16.26493  17.34000
 RFO step:  Lambda=-4.44774274D+00 EMin= 2.30000000D-03
 Linear search not attempted -- first point.
 Maximum step size (   0.300) exceeded in Quadratic search.
    -- Step size scaled by   0.572
 Iteration  1 RMS(Cart)=  0.07675713 RMS(Int)=  0.00216407
 Iteration  2 RMS(Cart)=  0.00265448 RMS(Int)=  0.00009055
 Iteration  3 RMS(Cart)=  0.00000560 RMS(Int)=  0.00009049
 Iteration  4 RMS(Cart)=  0.00000000 RMS(Int)=  0.00009049
 Variable       Old X    -DE/DX   Delta X   Delta X   Delta X     New X
                                 (Linear)    (Quad)   (Total)
    R1        2.75644  -0.05156   0.00000  -0.00612  -0.00612   2.75032
    R2        2.93322  -0.01993   0.00000  -0.00251  -0.00251   2.93071
    R3        2.96849  -0.00023   0.00000  -0.00003  -0.00003   2.96846
    R4        3.03696   0.12938   0.00000   0.01352   0.01339   3.05035
    R5        2.17730   0.31031   0.00000   0.03218   0.03227   2.20957
    R6        2.20085  -0.04359   0.00000  -0.00528  -0.00528   2.19557
    R7        2.29004   0.26543   0.00000   0.02902   0.02910   2.31914
    R8        1.92701   0.07921   0.00000   0.00926   0.00926   1.93627
    R9        2.62951   0.19673   0.00000   0.02093   0.02056   2.65007
   R10        1.74656   0.23246   0.00000   0.02719   0.02754   1.77410
   R11        2.76952   0.18060   0.00000   0.02146   0.02146   2.79099
   R12        1.48933   0.45845   0.00000   0.04845   0.04867   1.53801
   R13        1.79613   0.12928   0.00000   0.01471   0.01471   1.81084
   R14        2.32895   0.31465   0.00000   0.01980   0.01982   2.34877
   R15        3.22755   0.10590   0.00000   0.01885   0.01862   3.24617
   R16        2.99134   0.47381   0.00000   0.01056   0.01048   3.00182
   R17        2.53902  -0.09469   0.00000   0.00339   0.00341   2.54243
   R18        1.80837   0.11728   0.00000   0.01339   0.01339   1.82176
   R19        3.40054   0.17128   0.00000   0.02135   0.02135   3.42188
   R20        1.13147   8.06189   0.00000   0.22252   0.22249   1.35396
   R21        1.49964   3.24010   0.00000   0.08502   0.08502   1.58466
   R22        3.38812  -0.50592   0.00000  -0.01633  -0.01622   3.37190
   R23        3.40985   0.26205   0.00000   0.00553   0.00570   3.41555
   R24        3.26005  -0.00723   0.00000  -0.00089  -0.00089   3.25916
   R25        2.62038   0.09610   0.00000   0.01120   0.01120   2.63158
   R26        2.98659  -0.06220   0.00000  -0.00751  -0.00751   2.97909
   R27        2.39686  -0.06291   0.00000  -0.00773  -0.00773   2.38913
   R28        2.20348   0.30117   0.00000   0.03028   0.03028   2.23375
   R29        2.76642  -0.05067   0.00000  -0.00634  -0.00634   2.76008
   R30        1.11854   1.80736   0.00000   0.12453   0.12453   1.24306
   R31        2.92832  -0.03186   0.00000  -0.00396  -0.00396   2.92436
   R32        2.45798   0.00944   0.00000   0.00116   0.00116   2.45915
   R33        2.68787  -0.04414   0.00000  -0.00558  -0.00558   2.68229
    A1        1.70065   0.00952   0.00000   0.00120   0.00120   1.70185
    A2        2.64631  -0.00387   0.00000  -0.00050  -0.00050   2.64581
    A3        2.24201  -0.00413   0.00000   0.00000   0.00005   2.24205
    A4        1.55556  -0.05248   0.00000  -0.00554  -0.00551   1.55005
    A5        2.35196   0.03718   0.00000   0.00367   0.00364   2.35560
    A6        1.98625  -0.01112   0.00000  -0.00139  -0.00139   1.98486
    A7        2.74137   0.06361   0.00000   0.00693   0.00690   2.74827
    A8        1.94498  -0.02605   0.00000  -0.00228  -0.00225   1.94273
    A9        2.33410   0.27652   0.00000   0.03079   0.03059   2.36469
   A10        1.76686   0.04764   0.00000   0.00617   0.00621   1.77307
   A11        2.45476  -0.11719   0.00000  -0.01369  -0.01365   2.44111
   A12        2.27618   0.22956   0.00000   0.02779   0.02756   2.30374
   A13        1.93564  -0.13188   0.00000  -0.01580  -0.01557   1.92006
   A14        1.59449   0.07982   0.00000   0.01019   0.01042   1.60491
   A15        2.07137  -0.09769   0.00000  -0.01198  -0.01198   2.05939
   A16        2.61733   0.01787   0.00000   0.00179   0.00156   2.61889
   A17        2.07315  -0.14736   0.00000  -0.01231  -0.01231   2.06085
   A18        1.45737   0.04581   0.00000   0.02339   0.02351   1.48088
   A19        2.75266   0.10155   0.00000  -0.01108  -0.01120   2.74146
   A20        1.85686   0.19123   0.00000  -0.00580  -0.00604   1.85082
   A21        2.35917   0.00690   0.00000  -0.00111  -0.00103   2.35814
   A22        2.47643   0.00664   0.00000  -0.00115  -0.00106   2.47537
   A23        2.59773   0.15406   0.00000   0.00222   0.00230   2.60003
   A24        1.81715  -0.40682   0.00000  -0.00948  -0.00965   1.80750
   A25        1.79952   0.05083   0.00000  -0.00079  -0.00077   1.79875
   A26        2.61537  -0.30359   0.00000  -0.00646  -0.00658   2.60878
   A27        1.86830   0.25276   0.00000   0.00726   0.00735   1.87565
   A28        1.83275   0.10369   0.00000   0.01262   0.01262   1.84537
   A29        2.52332  -1.04806   0.00000  -0.02630  -0.02642   2.49691
   A30        1.70268   1.49941   0.00000   0.05133   0.05140   1.75408
   A31        1.52931   0.02670   0.00000   0.00325   0.00325   1.53256
   A32        1.67770   0.06601   0.00000   0.00816   0.00816   1.68586
   A33        2.76970   0.05130   0.00000   0.00640   0.00639   2.77609
   A34        1.71774   0.06315   0.00000   0.00783   0.00783   1.72558
   A35        2.80316  -0.05285   0.00000  -0.00656  -0.00656   2.79661
   A36        1.76228  -0.01029   0.00000  -0.00128  -0.00128   1.76100
   A37        1.79954   0.12386   0.00000   0.01529   0.01529   1.81482
   A38        1.58979  -0.02696   0.00000  -0.00319  -0.00320   1.58660
   A39        2.50751   0.02521   0.00000   0.00298   0.00298   2.51049
   A40        1.28178   0.00875   0.00000   0.00108   0.00108   1.28287
   A41        2.87158  -0.01821   0.00000  -0.00211  -0.00211   2.86946
   A42        2.49389  -0.03396   0.00000  -0.00406  -0.00407   2.48982
   A43        1.52476  -0.23577   0.00000  -0.00975  -0.00929   1.51547
   A44        3.09287   0.06554   0.00000   0.00788   0.00784   3.10072
   A45        3.26119  -0.11169   0.00000  -0.01093  -0.01073   3.25045
   A46        3.31424   0.23705   0.00000   0.01759   0.01747   3.33170
   A47        2.93141   0.08641   0.00000   0.01088   0.01088   2.94229
   A48        3.14158  -0.00000   0.00000   0.00000   0.00000   3.14158
   A49        3.14159   0.00000   0.00000   0.00000   0.00000   3.14159
   A50        3.14160   0.00000   0.00000  -0.00000  -0.00000   3.14160
   A51        3.14159  -0.00000   0.00000  -0.00000  -0.00000   3.14159
    D1       -3.14159   0.00000   0.00000   0.00000   0.00000  -3.14159
    D2       -3.14158  -0.00000   0.00000  -0.00000  -0.00000  -3.14158
    D3       -0.00001  -0.00000   0.00000   0.00000   0.00000  -0.00001
    D4       -3.14159   0.00000   0.00000   0.00000   0.00000  -3.14159
    D5       -3.14159  -0.00000   0.00000  -0.00000  -0.00000  -3.14159
    D6       -0.00001  -0.00000   0.00000  -0.00000  -0.00000  -0.00001
    D7        3.14158   0.00000   0.00000   0.00000   0.00000   3.14158
    D8        0.00001   0.00000   0.00000   0.00000   0.00000   0.00001
    D9        0.00001  -0.00000   0.00000  -0.00000  -0.00000   0.00001
   D10        3.14159   0.00000   0.00000   0.00000   0.00000   3.14159
   D11        0.00001   0.00000   0.00000   0.00000   0.00000   0.00001
   D12       -0.00001  -0.00000   0.00000  -0.00000  -0.00000  -0.00001
   D13        3.14159  -0.00000   0.00000  -0.00000  -0.00000   3.14159
   D14        3.14159   0.00000   0.00000   0.00000   0.00000   3.14159
   D15        0.00000   0.00000   0.00000   0.00000   0.00000   0.00000
   D16       -3.14158  -0.00000   0.00000  -0.00000  -0.00000  -3.14158
   D17        0.00000   0.00000   0.00000  -0.00000  -0.00000   0.00000
   D18       -3.14158  -0.00000   0.00000  -0.00000  -0.00000  -3.14158
   D19        0.00000   0.00000   0.00000  -0.00000  -0.00000   0.00000
   D20        0.00001  -0.00000   0.00000   0.00000   0.00000   0.00001
   D21        3.14159   0.00000   0.00000  -0.00000  -0.00000   3.14159
   D22       -3.14158   0.00000   0.00000   0.00000   0.00000  -3.14158
   D23        0.00000  -0.00000   0.00000   0.00000   0.00000   0.00000
   D24       -3.14159   0.00000   0.00000  -0.00000  -0.00000  -3.14159
   D25        0.00000  -0.00000   0.00000   0.00000   0.00000   0.00000
   D26       -0.00000   0.00000   0.00000  -0.00000  -0.00000  -0.00000
   D27        3.14159  -0.00000   0.00000   0.00000   0.00000   3.14159
   D28       -0.00002   0.00000   0.00000   0.00000   0.00000  -0.00002
   D29       -3.14158  -0.00000   0.00000  -0.00000  -0.00000  -3.14158
   D30       -3.14159  -0.00000   0.00000  -0.00000  -0.00000  -3.14159
   D31        0.00000  -0.00000   0.00000  -0.00000  -0.00000   0.00000
   D32        3.14159  -0.00000   0.00000  -0.00000  -0.00000   3.14159
   D33       -0.00002  -0.00000   0.00000   0.00000   0.00000  -0.00002
   D34       -0.00001  -0.00000   0.00000  -0.00000  -0.00000  -0.00001
   D35        0.00001   0.00000   0.00000  -0.00000  -0.00000   0.00001
   D36       -3.14159   0.00000   0.00000  -0.00000  -0.00000  -3.14159
   D37       -3.14158   0.00000   0.00000   0.00000   0.00000  -3.14158
   D38       -3.14159  -0.00000   0.00000  -0.00000  -0.00000  -3.14159
   D39        0.00001   0.00000   0.00000   0.00000   0.00000   0.00001
   D40        0.00001  -0.00000   0.00000  -0.00000  -0.00000   0.00001
   D41        0.00002  -0.00000   0.00000   0.00000   0.00000   0.00002
   D42       -3.14159  -0.00000   0.00000  -0.00000  -0.00000  -3.14159
   D43        3.14158   0.00000   0.00000   0.00000   0.00000   3.14158
   D44       -0.00001   0.00000   0.00000   0.00000   0.00000  -0.00001
   D45        0.00001   0.00001   0.00000   0.00000   0.00000   0.00001
   D46        3.14158  -0.00000   0.00000  -0.00000  -0.00000   3.14158
   D47        3.14158   0.00000   0.00000   0.00000   0.00000   3.14158
   D48       -0.00000   0.00000   0.00000   0.00000   0.00000  -0.00000
   D49       -0.00000  -0.00000   0.00000  -0.00000  -0.00000  -0.00000
   D50       -3.14159   0.00000   0.00000   0.00000   0.00000  -3.14159
   D51       -3.14156   0.00000   0.00000   0.00000   0.00000  -3.14156
   D52       -3.14159   0.00000   0.00000   0.00000   0.00000  -3.14159
   D53        0.00004  -0.00000   0.00000  -0.00000  -0.00000   0.00004
   D54       -3.14158  -0.00000   0.00000  -0.00000  -0.00000  -3.14158
   D55       -0.00001  -0.00000   0.00000  -0.00000  -0.00000  -0.00001
   D56        0.00003   0.00000   0.00000   0.00000   0.00000   0.00003
   D57       -3.14158   0.00000   0.00000   0.00000   0.00000  -3.14158
         Item               Value     Threshold  Converged?
 Maximum Force            8.061888     0.000450     NO 
 RMS     Force            0.773054     0.000300     NO 
 Maximum Displacement     0.262931     0.001800     NO 
 RMS     Displacement     0.077476     0.001200     NO 
 Predicted change in Energy=-2.016087D+00
 GradGradGradGradGradGradGradGradGradGradGradGradGradGradGradGradGradGrad

                          Input orientation:                          
 ---------------------------------------------------------------------
 Center     Atomic      Atomic             Coordinates (Angstroms)
 Number     Number       Type             X           Y           Z
 ---------------------------------------------------------------------
      1          7           0        2.421439   -0.081876    0.249894
      2          6           0        4.549397   -0.264433    0.504454
      3          6           0        3.214296   -0.793165    1.241691
      4          6           0        4.414903   -0.941340    1.448309
      5          6           0        5.276510   -1.586165    2.347438
      6          6           0        6.749683   -1.647495    2.432957
      7          6           0        7.255058   -2.309278    3.355711
      8          6           0        8.409114   -1.906245    2.793740
      9          6           0        9.666812   -2.665471    3.852372
     10          6           0        8.751439   -1.539428    2.282259
     11          6           0        6.720143   -0.721897    1.142330
     12          6           0       10.405424   -2.434072    3.529727
     13          6           0       12.590197   -2.946272    4.243918
     14          6           0       13.666842   -3.951101    5.645021
     15          6           0       12.532605   -3.757150    5.374590
     16          6           0       11.163350   -3.336929    4.788651
     17         16           0        8.490866   -0.510679    0.847820
     18          1           0        1.021651   -0.470982    0.792458
     19          1           0        1.042073    0.356146   -0.360867
     20          1           0        2.652241   -1.292442    1.937883
     21          1           0        5.306780   -1.112175    1.686519
     22          1           0        4.767576   -2.059355    3.007236
     23          1           0        6.911205   -2.834150    4.087580
     24          1           0        5.536254    0.092924    0.006158
     25          1           0        9.880145   -3.463051    4.964500
     26          1           0       13.851037   -2.892025    4.168271
     27          1           0       13.476613   -4.795059    6.821803
     28          1           0       14.323476   -3.928264    5.613189
 ---------------------------------------------------------------------
                    Distance matrix (angstroms):
                    1          2          3          4          5
     1  N    0.000000
     2  C    2.150891   0.000000
     3  C    1.455409   1.614178   0.000000
     4  C    2.479672   1.169254   1.227234   0.000000
     5  C    3.848897   2.381651   2.470679   1.402355   0.000000
     6  C    5.094175   3.236239   3.827265   2.630472   1.476927
     7  C    6.162085   4.430763   4.805771   3.684551   2.335414
     8  C    6.756606   4.778472   5.534793   4.323765   3.180384
     9  C    8.494012   6.569740   7.208061   6.027827   4.764922
    10  C    6.806164   4.737442   5.683277   4.456313   3.475854
    11  C    4.436769   2.308310   3.507978   2.335788   2.069619
    12  C    8.946180   6.939212   7.722694   6.515128   5.331276
    13  C   11.294274   9.264465  10.077537   8.869646   7.677014
    14  C   13.058996  11.097061  11.773597  10.595727   9.320120
    15  C   11.916620   9.982430  10.615882   9.446775   8.156453
    16  C   10.373846   8.458070   9.068578   7.901789   6.609052
    17  S    6.113864   3.964053   5.298785   4.142406   3.706428
    18  H    1.550866   3.545505   2.261262   3.487913   4.665343
    19  H    1.570841   3.665408   2.933881   4.041357   5.388687
    20  H    2.089987   2.590507   1.024630   1.862776   2.672228
    21  H    3.383873   1.639992   2.162898   0.938814   0.813878
    22  H    4.125253   3.087599   2.670779   1.950535   0.958256
    23  H    6.516198   5.002037   5.092331   4.096340   2.694027
    24  H    3.129222   1.161847   2.775460   2.099269   2.892819
    25  H    9.449452   7.651147   8.088334   6.970760   5.618289
    26  H   12.405093  10.336746  11.229887  10.012193   8.862461
    27  H   13.697479  11.837679  12.347791  11.217850   9.877176
    28  H   13.609487  11.621336  12.343125  11.155616   9.899401
                    6          7          8          9         10
     6  C    0.000000
     7  C    1.242915   0.000000
     8  C    1.717797   1.345397   0.000000
     9  C    3.400097   2.487992   1.810782   0.000000
    10  C    2.010327   1.996027   0.716487   2.138021   0.000000
    11  C    1.588497   2.775783   2.642435   4.450244   2.468595
    12  C    3.896928   3.157635   2.192152   0.838565   2.256597
    13  C    6.251241   5.445951   4.546001   2.962826   4.534686
    14  C    7.966872   7.003392   6.320992   4.568005   6.425381
    15  C    6.822466   5.833070   5.204787   3.423694   5.364515
    16  C    5.280524   4.287672   3.689491   1.888676   3.915396
    17  S    2.614714   3.324410   2.396016   3.879860   1.784331
    18  H    6.073366   6.986055   7.787151   9.429617   7.944225
    19  H    6.663095   7.714831   8.327259  10.063184   8.367415
    20  H    4.142487   4.922410   5.852422   7.399641   6.113903
    21  H    1.710470   2.831086   3.388357   5.110140   3.521808
    22  H    2.104323   2.524176   3.651003   5.008408   4.082534
    23  H    2.042551   0.964031   2.186038   2.770767   2.884778
    24  H    3.223480   4.465912   4.474441   6.282008   4.264109
    25  H    4.416418   3.287929   3.049554   1.385090   3.488369
    26  H    7.415484   6.671341   5.698739   4.202244   5.602898
    27  H    8.626744   7.543251   7.088729   5.278943   7.316684
    28  H    8.525147   7.594726   6.856933   5.136112   6.917314
                   11         12         13         14         15
    11  C    0.000000
    12  C    4.713015   0.000000
    13  C    7.001802   2.354921   0.000000
    14  C    8.885866   4.172852   2.032716   0.000000
    15  C    7.804454   3.111101   1.392573   1.182051   0.000000
    16  C    6.314756   1.724671   1.576465   2.716257   1.547504
    17  S    1.807432   3.815442   5.854068   7.851138   6.882360
    18  H    5.714733   9.970033  12.323591  13.984258  12.817835
    19  H    5.971788  10.516386  12.863482  14.629007  13.485065
    20  H    4.184047   7.996820  10.335179  11.921946  10.747434
    21  H    1.563987   5.580412   7.934253   9.675737   8.532896
    22  H    3.013169   5.674394   7.969279   9.472780   8.293525
    23  H    3.629410   3.561015   5.682250   7.022239   5.840245
    24  H    1.832052   6.519975   8.772311  10.689125   9.622477
    25  H    5.666439   1.842088   2.851435   3.878192   2.700039
    26  H    8.044591   3.534079   1.264272   1.826570   1.985424
    27  H    9.720954   5.083721   3.293818   1.460572   2.015647
    28  H    9.385098   4.682367   2.417327   0.657801   1.814781
                   16         17         18         19         20
    16  C    0.000000
    17  S    5.537148   0.000000
    18  H   11.271081   7.469526   0.000000
    19  H   11.941381   7.595843   1.419406   0.000000
    20  H    9.205747   5.990738   2.155370   3.254955   0.000000
    21  H    6.990863   3.347181   4.424116   4.953330   2.672500
    22  H    6.761033   4.574316   4.632507   5.572982   2.491247
    23  H    4.338781   4.288343   7.150471   8.025794   5.013665
    24  H    8.142502   3.130889   4.617131   4.516819   3.737423
    25  H    1.301324   5.252966  10.238718  11.002605   8.131086
[...]
 RMS     Force            0.022834     0.000300     NO 
 Maximum Displacement     0.235075     0.001800     NO 
 RMS     Displacement     0.062532     0.001200     NO 
 Predicted change in Energy=-7.161759D-02
 GradGradGradGradGradGradGradGradGradGradGradGradGradGradGradGradGradGrad

                          Input orientation:                          
 ---------------------------------------------------------------------
 Center     Atomic      Atomic             Coordinates (Angstroms)
 Number     Number       Type             X           Y           Z
 ---------------------------------------------------------------------
      1          7           0        1.711302   -0.470341    0.791550
      2          6           0        3.625403    0.037628    0.083276
      3          6           0        2.795685   -0.889674    1.376259
      4          6           0        4.205647   -0.673081    1.074266
      5          6           0        5.374365   -1.230193    1.851092
      6          6           0        6.865108   -1.255710    1.886684
      7          6           0        7.531607   -1.961481    2.870775
      8          6           0        8.813275   -1.817781    2.670376
      9          6           0        9.914424   -2.577656    3.729895
     10          6           0        9.841415   -0.933420    1.437241
     11          6           0        7.259297   -0.462459    0.780601
     12          6           0       11.131965   -2.354739    3.419064
     13          6           0       13.035958   -3.141899    4.516656
     14          6           0       13.261761   -4.690328    6.675795
     15          6           0       12.722982   -3.976430    5.680346
     16          6           0       11.770019   -3.349071    4.805560
     17         16           0        8.929543   -0.150548    0.345711
     18          1           0        0.694254   -1.116706    1.692812
     19          1           0        0.202700   -0.516152    0.855415
     20          1           0        2.578527   -1.544828    2.289789
     21          1           0        5.378379   -0.562188    0.919652
     22          1           0        4.858305   -1.799269    2.644592
     23          1           0        7.053648   -2.535765    3.671540
     24          1           0        3.988319    0.622116   -0.731722
     25          1           0       10.410375   -3.291238    4.724911
     26          1           0       13.999593   -2.984199    4.296742
     27          1           0       12.642271   -5.230772    7.429401
     28          1           0       14.451003   -4.935246    7.017329
 ---------------------------------------------------------------------
                    Distance matrix (angstroms):
                    1          2          3          4          5
     1  N    0.000000
     2  C    2.103204   0.000000
     3  C    1.301389   1.794471   0.000000
     4  C    2.518490   1.350501   1.458117   0.000000
     5  C    3.888191   2.791310   2.644051   1.509878   0.000000
     6  C    5.327086   3.926919   4.117611   2.841164   1.491387
     7  C    6.357879   5.198560   5.080483   3.993674   2.495642
     8  C    7.468842   6.086842   6.224750   5.008806   3.583656
     9  C    8.964700   7.725886   7.685397   6.577986   5.094869
    10  C    8.168849   6.435446   7.046130   5.653442   4.495986
    11  C    5.548012   3.733837   4.523401   3.074960   2.299639
    12  C    9.960104   8.555663   8.707067   7.503327   6.072322
    13  C   12.217261  10.877628  10.945218   9.793850   8.334258
    14  C   13.632525  12.596598  12.331618  11.381064   9.872250
    15  C   12.547911  11.410776  11.251864  10.230986   8.729672
    16  C   11.206121  10.005222   9.917026   8.848909   7.356828
    17  S    7.239064   5.313962   6.263590   4.808225   4.008878
    18  H    1.504808   3.537616   2.137232   3.592950   4.684162
    19  H    1.510647   3.552149   2.671024   4.011995   5.314822
    20  H    2.037479   2.910123   1.144954   2.210195   2.847483
    21  H    3.670464   2.032789   2.643113   1.188067   1.146223
    22  H    3.886315   3.384462   2.586587   2.039653   1.104449
    23  H    6.411004   5.590246   5.109616   4.280949   2.799739
    24  H    2.949344   1.066563   2.855078   2.233016   3.467434
    25  H    9.955031   8.869158   8.658202   7.660326   6.153709
    26  H   13.023361  11.597782  11.766214  10.566313   9.135223
    27  H   13.645837  12.768144  12.346696  11.503778   9.997231
    28  H   14.865923  13.784200  13.565941  12.587826  11.081641
                    6          7          8          9         10
     6  C    0.000000
     7  C    1.382306   0.000000
     8  C    2.173810   1.305175   0.000000
     9  C    3.800433   2.606832   1.706610   0.000000
    10  C    3.027255   2.906397   1.832973   2.822251   0.000000
    11  C    1.417058   2.586513   2.796962   4.496897   2.705608
    12  C    4.664988   3.663038   2.495031   1.276210   2.759218
    13  C    6.968059   5.865167   4.795111   3.268231   4.956337
    14  C    8.697664   7.399963   6.639574   4.934206   7.297642
    15  C    7.490585   6.237313   5.385675   3.694432   5.963831
    16  C    6.079485   4.861371   3.955527   2.279335   4.571701
    17  S    2.803190   3.407294   2.863084   4.279432   1.623526
    18  H    6.175464   6.989324   8.207658   9.554874   9.152567
    19  H    6.782193   7.737152   8.895522  10.335860   9.665271
    20  H    4.315190   5.004413   6.252314   7.546921   7.338270
    21  H    1.904334   3.225104   4.054634   5.703970   4.508259
    22  H    2.212948   2.687753   3.955097   5.229541   5.199882
    23  H    2.204495   1.095203   2.148050   2.861678   3.915514
    24  H    4.319513   5.675196   6.388080   8.078569   6.432948
    25  H    4.976727   3.673332   2.990470   1.321069   4.085559
    26  H    7.726378   6.701803   5.559091   4.144297   5.447282
    27  H    8.938593   7.588690   6.997002   5.307215   7.887840
    28  H    9.869564   8.597396   7.771651   6.078322   8.270447
                   11         12         13         14         15
    11  C    0.000000
    12  C    5.053688   0.000000
    13  C    7.382907   2.334421   0.000000
    14  C    9.415826   4.538426   2.666553   0.000000
    15  C    8.136789   3.205404   1.465801   1.338228   0.000000
    16  C    6.699211   1.821587   1.314910   2.742635   1.437696
    17  S    1.753893   4.376598   6.573249   8.913343   7.581944
    18  H    6.660328  10.651689  12.821590  13.983675  12.991103
    19  H    7.057198  11.375478  13.601166  14.894282  13.856801
    20  H    5.035751   8.665594  10.810524  11.969241  10.968980
    21  H    1.888686   6.524112   8.844877  10.598228   9.394916
    22  H    3.320585   6.345641   8.495957   9.758427   8.706835
    23  H    3.563484   4.090132   6.072039   7.225536   6.184834
    24  H    3.763339   8.781933  11.116341  13.003465  11.770963
    25  H    5.786955   1.761521   2.638060   3.727441   2.594320
    26  H    8.009619   3.064283   1.000911   3.019134   2.128055
    27  H    9.793864   5.160950   3.605894   1.115244   2.153853
    28  H   10.517758   5.533764   3.387007   1.261318   2.385981
                   16         17         18         19         20
    16  C    0.000000
    17  S    6.179733   0.000000
    18  H   11.719438   8.400484   0.000000
    19  H   12.547188   8.749357   1.141719   0.000000
    20  H    9.698862   6.786668   2.022413   2.959756   0.000000
    21  H    7.982484   3.620721   4.779780   5.176282   3.268338
    22  H    7.405636   4.957632   4.325633   5.149971   2.321210
    23  H    4.918498   4.502153   6.809624   7.677556   4.787264
    24  H   10.343436   5.116011   4.444405   4.259762   3.976517
    25  H    1.363261   5.588755  10.407940  11.263690   8.385559
    26  H    2.315821   7.024644  13.685760  14.432194  11.685050
    27  H    3.344573   9.474792  13.877648  14.838728  11.886158
    28  H    3.820412   9.893954  15.237450  16.140375  13.221205
                   21         22         23         24         25
    21  H    0.000000
    22  H    2.185467   0.000000
    23  H    3.778150   2.533096   0.000000
    24  H    2.462088   4.244936   6.225525   0.000000
    25  H    6.873767   6.113850   3.598325   9.291500   0.000000
    26  H    9.570590   9.364657   6.988428  11.769305   3.627683
    27  H   10.813724   9.760109   7.253778  13.257116   4.007172
    28  H   11.773606  10.998865   8.465972  14.156264   4.927943
                   26         27         28
    26  H    0.000000
    27  H    4.086926   0.000000
    28  H    3.378158   1.878470   0.000000
 Stoichiometry    C15H11NS
 Framework group  C1[X(C15H11NS)]
 Deg. of freedom    78
 Full point group                 C1      NOp   1
 Largest Abelian subgroup         C1      NOp   1
 Largest concise Abelian subgroup C1      NOp   1
                         Standard orientation:                         
 ---------------------------------------------------------------------
 Center     Atomic      Atomic             Coordinates (Angstroms)
 Number     Number       Type             X           Y           Z
 ---------------------------------------------------------------------
      1          7           0        6.507313   -1.467117    0.000009
      2          6           0        5.298977    0.254333    0.000002
      3          6           0        5.207846   -1.537823    0.000005
      4          6           0        4.180722   -0.502872   -0.000002
      5          6           0        2.688738   -0.734640   -0.000008
      6          6           0        1.381434   -0.016873   -0.000013
      7          6           0        0.193123   -0.723050   -0.000009
      8          6           0       -0.786774    0.139089    0.000011
      9          6           0       -2.396824   -0.426825    0.000022
     10          6           0       -0.904027    1.968308    0.000024
     11          6           0        1.731449    1.356277   -0.000007
     12          6           0       -3.252561    0.519973    0.000027
     13          6           0       -5.578450    0.320567    0.000024
     14          6           0       -7.119680   -1.855465   -0.000022
     15          6           0       -6.034393   -1.072519   -0.000010
     16          6           0       -4.667309   -0.627489    0.000003
     17         16           0        0.562831    2.664127   -0.000019
     18          1           0        6.821978   -2.938658    0.000007
     19          1           0        7.767983   -2.299442    0.000013
     20          1           0        4.825311   -2.616983   -0.000003
     21          1           0        3.266188    0.255501   -0.000007
     22          1           0        2.638731   -1.837956   -0.000013
     23          1           0        0.105741   -1.814762   -0.000015
     24          1           0        5.494408    1.302838    0.000011
     25          1           0       -3.444918   -1.231014    0.000006
     26          1           0       -6.272011    1.042228    0.000039
     27          1           0       -7.055637   -2.968869   -0.000043
     28          1           0       -8.357875   -1.615049   -0.000038
 ---------------------------------------------------------------------
 Rotational constants (GHZ):           1.0530572           0.1307234           0.1162878
 Standard basis: 6-31G(2df,p) (6D, 7F)
 There are   586 symmetry adapted cartesian basis functions of A   symmetry.
 There are   535 symmetry adapted basis functions of A   symmetry.
   535 basis functions,   849 primitive gaussians,   586 cartesian basis functions
    62 alpha electrons       62 beta electrons
       nuclear repulsion energy      1019.6319251845 Hartrees.
 NAtoms=   28 NActive=   28 NUniq=   28 SFac= 1.00D+00 NAtFMM=   60 NAOKFM=F Big=F
 Integral buffers will be    131072 words long.
 Raffenetti 2 integral format.
 Two-electron integral symmetry is turned on.
 One-electron integrals computed using PRISM.
 PrsmSu:  requested number of processors reduced to:  12 ShMem   1 Linda.
 NBasis=   535 RedAO= T EigKep=  2.19D-04  NBF=   535
 NBsUse=   535 1.00D-06 EigRej= -1.00D+00 NBFU=   535
 Initial guess from the checkpoint file:  "Nc1cccc2ccqc3cqc1rdCCdCCdCd3rS2.chk"
 B after Tr=    -0.000000    0.000000   -0.000000
         Rot=    0.999999    0.000000    0.000000   -0.001591 Ang=   0.18 deg.
 ExpMin= 1.17D-01 ExpMax= 2.19D+04 ExpMxC= 3.30D+03 IAcc=2 IRadAn=         4 AccDes= 0.00D+00
 Harris functional with IExCor=  402 and IRadAn=       4 diagonalized for initial guess.
 HarFok:  IExCor=  402 AccDes= 0.00D+00 IRadAn=         4 IDoV= 1 UseB2=F ITyADJ=14
 ICtDFT=  3500011 ScaDFX=  1.000000  1.000000  1.000000  1.000000
 FoFCou: FMM=F IPFlag=           0 FMFlag=      100000 FMFlg1=           0
         NFxFlg=           0 DoJE=T BraDBF=F KetDBF=T FulRan=T
         wScrn=  0.000000 ICntrl=       500 IOpCl=  0 I1Cent=   200000004 NGrid=           0
         NMat0=    1 NMatS0=      1 NMatT0=    0 NMatD0=    1 NMtDS0=    0 NMtDT0=    0
 Petite list used in FoFCou.
 Requested convergence on RMS density matrix=1.00D-08 within 128 cycles.
 Requested convergence on MAX density matrix=1.00D-06.
 Requested convergence on             energy=1.00D-06.
 No special actions if energy rises.
 Integral accuracy reduced to 1.0D-05 until final iterations.
 EnCoef did     1 forward-backward iterations
 Initial convergence to 1.0D-05 achieved.  Increase integral accuracy.
 SCF Done:  E(RB3LYP) =  -1029.87530621     A.U. after   21 cycles
            NFock= 21  Conv=0.57D-08     -V/T= 2.0061
 PrsmSu:  requested number of processors reduced to:  13 ShMem   1 Linda.
 Calling FoFJK, ICntrl=      2127 FMM=F ISym2X=0 I1Cent= 0 IOpClX= 0 NMat=1 NMatS=1 NMatT=0.
 ***** Axes restored to original set *****
 -------------------------------------------------------------------
 Center     Atomic                   Forces (Hartrees/Bohr)
 Number     Number              X              Y              Z
 -------------------------------------------------------------------
      1        7           0.061853029    0.046742599   -0.065176276
      2        6           0.008139943    0.007146707   -0.009966284
      3        6          -0.041755345   -0.049303944    0.068749204
      4        6          -0.024021759    0.013674431   -0.019066009
      5        6           0.004476244   -0.048832043    0.068090090
      6        6          -0.098767107    0.042637340   -0.059452992
      7        6          -0.021883543    0.001813278   -0.002526944
      8        6           0.152507964   -0.032840545    0.045786513
      9        6          -0.116065561    0.038414033   -0.053561328
     10        6          -0.032610608   -0.041437943    0.057784059
     11        6           0.031214473   -0.007126773    0.009940111
     12        6           0.020744611    0.003771354   -0.005258656
     13        6          -0.017101125   -0.061757684    0.086116862
     14        6           0.019878087   -0.025926948    0.036155449
     15        6           0.052399085   -0.010853580    0.015133030
     16        6           0.028322578    0.025423226   -0.035451028
     17       16          -0.023236789    0.002680489   -0.003741848
     18        1          -0.051762068    0.019377720   -0.027020005
     19        1           0.028673835   -0.044396156    0.061904698
     20        1           0.009295555    0.001093810   -0.001525761
     21        1           0.026575213    0.024258762   -0.033824970
     22        1           0.001551584    0.005913574   -0.008247561
     23        1           0.005957278    0.004628006   -0.006452726
     24        1           0.000944960    0.009373235   -0.013069158
     25        1          -0.020112540    0.011712578   -0.016332290
     26        1           0.054113828    0.028476878   -0.039709351
     27        1           0.002831182    0.010149180   -0.014152031
     28        1          -0.062163002    0.025188417   -0.035124798
 -------------------------------------------------------------------
 Cartesian Forces:  Max     0.152507964 RMS     0.040960559

 GradGradGradGradGradGradGradGradGradGradGradGradGradGradGradGradGradGrad
 Berny optimization.
 Using GEDIIS/GDIIS optimizer.
 FormGI is forming the generalized inverse of G from B-inverse, IUseBI=4.
 Internal  Forces:  Max     0.082435198 RMS     0.021863638
 Search for a local minimum.
 Step number   9 out of a maximum of  151
 All quantities printed in internal units (Hartrees-Bohrs-Radians)
 Mixed Optimization -- RFO/linear search
 Update second derivatives using D2CorX and points    8    9
 ITU=  0  0  1  0  0  0  0  1  0
 Use linear search instead of GDIIS.
     Eigenvalues ---    0.00230   0.00230   0.00230   0.00230   0.00230
     Eigenvalues ---    0.00387   0.00440   0.00693   0.00823   0.00916
     Eigenvalues ---    0.00916   0.00979   0.01363   0.01618   0.02040
     Eigenvalues ---    0.02151   0.02438   0.02625   0.03240   0.03525
     Eigenvalues ---    0.03614   0.03732   0.04447   0.04573   0.06037
     Eigenvalues ---    0.07527   0.07924   0.09096   0.09750   0.10111
     Eigenvalues ---    0.10472   0.12541   0.13130   0.14783   0.15872
     Eigenvalues ---    0.15990   0.16000   0.16000   0.16001   0.16006
     Eigenvalues ---    0.16137   0.16342   0.16404   0.16914   0.18071
     Eigenvalues ---    0.18724   0.19576   0.21896   0.22082   0.22457
     Eigenvalues ---    0.22760   0.24631   0.24972   0.24992   0.25000
     Eigenvalues ---    0.25575   0.25670   0.26058   0.26505   0.27378
     Eigenvalues ---    0.32557   0.35280   0.37029   0.39552   0.42499
     Eigenvalues ---    0.43743   0.44457   0.50957   0.56246   0.57114
     Eigenvalues ---    0.57603   0.77075   0.86878   1.02410   1.17121
     Eigenvalues ---    1.29416   4.58162  17.49186
 RFO step:  Lambda=-1.83749176D-01 EMin= 2.29999998D-03
 Quartic linear search produced a step of  1.10247.
 SLEqS3 Cycle:   121 Max:0.262801     RMS:0.435617E-01 Conv:0.153556E-02
 Iteration  1 RMS(Cart)=  0.01357816 RMS(Int)=  0.08029307
 SLEqS3 Cycle:   841 Max:0.593914E-03 RMS:0.978494E-04 Conv:0.756218E-06
 SLEqS3 Cycle:   841 Max:0.166527E-02 RMS:0.264800E-03 Conv:0.756218E-06
 Iteration  2 RMS(Cart)=  0.00194196 RMS(Int)=  0.38246135
 Iteration  3 RMS(Cart)=  0.00616963 RMS(Int)=  0.37981413
 Iteration  4 RMS(Cart)=  0.00577906 RMS(Int)=  0.37263470
 New curvilinear step failed, DQL= 6.32D+00 SP=-1.48D-01.
 ITry= 1 IFail=1 DXMaxC= 1.02D-01 DCOld= 1.00D+10 DXMaxT= 8.49D-01 DXLimC= 3.00D+00 Rises=F
 SLEqS3 Cycle:    93 Max:0.246965     RMS: 260.364     Conv:0.157887E-02
 Iteration  1 RMS(Cart)=  0.01713926 RMS(Int)=  0.07259332
 SLEqS3 Cycle:   841 Max:0.247661     RMS:0.410379E-01 Conv:0.132383E-05
 SLEqS3 Cycle:   841 Max:0.183949E-02 RMS:0.299525E-03 Conv:0.132383E-05
 Iteration  2 RMS(Cart)=  0.00152354 RMS(Int)=  0.38097916
 Iteration  3 RMS(Cart)=  0.00542527 RMS(Int)=  0.37846399
 Iteration  4 RMS(Cart)=  0.00511857 RMS(Int)=  0.36680751
 New curvilinear step failed, DQL= 6.31D+00 SP=-1.74D-01.
 ITry= 2 IFail=1 DXMaxC= 1.06D-01 DCOld= 1.00D+10 DXMaxT= 8.49D-01 DXLimC= 3.00D+00 Rises=F
 SLEqS3 Cycle:   106 Max:0.210037     RMS:0.383237E-01 Conv:0.162218E-02
 Iteration  1 RMS(Cart)=  0.01144320 RMS(Int)=  0.07029294
 SLEqS3 Cycle:   841 Max:0.232039     RMS:0.384510E-01 Conv:0.149089E-05
 SLEqS3 Cycle:   841 Max:0.207520E-02 RMS:0.337335E-03 Conv:0.149089E-05
 Iteration  2 RMS(Cart)=  0.00144834 RMS(Int)=  0.38055114
 Iteration  3 RMS(Cart)=  0.00518883 RMS(Int)=  0.37796058
 Iteration  4 RMS(Cart)=  0.00490253 RMS(Int)=  0.08203099
 Iteration  5 RMS(Cart)=  0.00104916 RMS(Int)=  0.33003853
 New curvilinear step failed, DQL= 6.30D+00 SP=-1.82D-01.
 ITry= 3 IFail=1 DXMaxC= 8.71D-02 DCOld= 1.00D+10 DXMaxT= 8.49D-01 DXLimC= 3.00D+00 Rises=F
 SLEqS3 Cycle:   104 Max:0.193702     RMS:0.357016E-01 Conv:0.166549E-02
 Iteration  1 RMS(Cart)=  0.01095616 RMS(Int)=  0.37977921
 Iteration  2 RMS(Cart)=  0.00484158 RMS(Int)=  0.06287887
