### Starting Gaussian ###
 Entering Gaussian System, Link 0=g16
 Initial command:
 /cluster/software/gaussian/gaussian-16-A.03/avx2/g16/l1.exe "/local/scratch/linjian/Gau-30483.inp" -scrdir="/local/scratch/linjian/"
 Entering Link 1 = /cluster/software/gaussian/gaussian-16-A.03/avx2/g16/l1.exe PID=     30484.
  
 Copyright (c) 1988,1990,1992,1993,1995,1998,2003,2009,2016,
            Gaussian, Inc.  All Rights Reserved.
  
 This is part of the Gaussian(R) 16 program.  It is based on
 the Gaussian(R) 09 system (copyright 2009, Gaussian, Inc.),
 the Gaussian(R) 03 system (copyright 2003, Gaussian, Inc.),
 the Gaussian(R) 98 system (copyright 1998, Gaussian, Inc.),
 the Gaussian(R) 94 system (copyright 1995, Gaussian, Inc.),
 the Gaussian 92(TM) system (copyright 1992, Gaussian, Inc.),
 the Gaussian 90(TM) system (copyright 1990, Gaussian, Inc.),
 the Gaussian 88(TM) system (copyright 1988, Gaussian, Inc.),
 the Gaussian 86(TM) system (copyright 1986, Carnegie Mellon
 University), and the Gaussian 82(TM) system (copyright 1983,
 Carnegie Mellon University). Gaussian is a federally registered
 trademark of Gaussian, Inc.
  
 This software contains proprietary and confidential information,
 including trade secrets, belonging to Gaussian, Inc.
  
 This software is provided under written license and may be
 used, copied, transmitted, or stored only in accord with that
 written license.
  
 The following legend is applicable only to US Government
 contracts under FAR:
  
                    RESTRICTED RIGHTS LEGEND
  
 Use, reproduction and disclosure by the US Government is
 subject to restrictions as set forth in subparagraphs (a)
 and (c) of the Commercial Computer Software - Restricted
 Rights clause in FAR 52.227-19.
  
 Gaussian, Inc.
 340 Quinnipiac St., Bldg. 40, Wallingford CT 06492
  
  
 ---------------------------------------------------------------
 Warning -- This program may not be used in any manner that
 competes with the business of Gaussian, Inc. or will provide
 assistance to any competitor of Gaussian, Inc.  The licensee
 of this program is prohibited from giving any competitor of
 Gaussian, Inc. access to this program.  By using this program,
 the user acknowledges that Gaussian, Inc. is engaged in the
 business of creating and licensing software in the field of
 computational chemistry and represents and warrants to the
 licensee that it is not a competitor of Gaussian, Inc. and that
 it will not use this program in any manner prohibited above.
 ---------------------------------------------------------------
  

 Cite this work as:
 Gaussian 16, Revision A.03,
 M. J. Frisch, G. W. Trucks, H. B. Schlegel, G. E. Scuseria, 
 M. A. Robb, J. R. Cheeseman, G. Scalmani, V. Barone, 
 G. A. Petersson, H. Nakatsuji, X. Li, M. Caricato, A. V. Marenich, 
 J. Bloino, B. G. Janesko, R. Gomperts, B. Mennucci, H. P. Hratchian, 
 J. V. Ortiz, A. F. Izmaylov, J. L. Sonnenberg, D. Williams-Young, 
 F. Ding, F. Lipparini, F. Egidi, J. Goings, B. Peng, A. Petrone, 
 T. Henderson, D. Ranasinghe, V. G. Zakrzewski, J. Gao, N. Rega, 
 G. Zheng, W. Liang, M. Hada, M. Ehara, K. Toyota, R. Fukuda, 
 J. Hasegawa, M. Ishida, T. Nakajima, Y. Honda, O. Kitao, H. Nakai, 
 T. Vreven, K. Throssell, J. A. Montgomery, Jr., J. E. Peralta, 
 F. Ogliaro, M. J. Bearpark, J. J. Heyd, E. N. Brothers, K. N. Kudin, 
 V. N. Staroverov, T. A. Keith, R. Kobayashi, J. Normand, 
 K. Raghavachari, A. P. Rendell, J. C. Burant, S. S. Iyengar, 
 J. Tomasi, M. Cossi, J. M. Millam, M. Klene, C. Adamo, R. Cammi, 
 J. W. Ochterski, R. L. Martin, K. Morokuma, O. Farkas, 
 J. B. Foresman, and D. J. Fox, Gaussian, Inc., Wallingford CT, 2016.
 
 ******************************************
 Gaussian 16:  ES64L-G16RevA.03 25-Dec-2016
                15-May-2023 
 ******************************************
 %chk=NC1dCC2dNNdCc3cccc2c3Cdc2ccccc2dNO1.chk
 %NProcShared=20
 Will use up to   20 processors via shared memory.
 -----------------------------
 # opt freq b3lyp/6-31g(2df,p)
 -----------------------------
 1/18=20,19=15,26=3,38=1/1,3;
 2/9=110,12=2,17=6,18=5,40=1/2;
 3/5=1,6=6,7=104,11=2,25=1,30=1,71=1,74=-5/1,2,3;
 4//1;
 5/5=2,38=5/2;
 6/7=2,8=2,9=2,10=2,28=1/1;
 7//1,2,3,16;
 1/18=20,19=15,26=3/3(2);
 2/9=110/2;
 99//99;
 2/9=110/2;
 3/5=1,6=6,7=104,11=2,25=1,30=1,71=1,74=-5/1,2,3;
 4/5=5,16=3,69=1/1;
 5/5=2,38=5/2;
 7//1,2,3,16;
 1/18=20,19=15,26=3/3(-5);
 2/9=110/2;
 6/7=2,8=2,9=2,10=2,19=2,28=1/1;
 99/9=1/99;
 -------------------
 Title Card Required
 -------------------
 Symbolic Z-matrix:
 Charge =  0 Multiplicity = 1
 N                     2.41666  -0.31759   0.14994 
 C                     3.97723  -0.26517  -0.09062 
 C                     4.82698  -0.51696  -1.21711 
 C                     6.5925   -0.86538  -1.70834 
 N                     6.12571  -1.60745  -2.69609 
 N                     7.04668  -2.42877  -3.18274 
 C                     7.20036  -3.47174  -2.43713 
 C                     8.48318  -3.57751  -1.71737 
 C                     9.42594  -3.62043  -2.7735 
 C                     10.2878  -2.57353  -2.82786 
 C                     9.86274  -1.48475  -1.93108 
 C                     8.43446  -1.28098  -1.19039 
 C                     8.50312  -2.5381   -0.70644 
 C                     8.58042  -2.7477    0.75477 
 C                     7.35131  -2.97776   1.23679 
 C                     6.76121  -2.58024   2.50963 
 C                     5.38977  -2.77655   2.56259 
 C                     4.56896  -3.37674   1.35517 
 C                     5.16234  -3.60367   0.16402 
 C                     6.21815  -2.61728   0.33175 
 N                     6.06285  -1.29779   0.48799 
 O                     4.74459  -0.78652   0.97176 
 H                     1.73557  -0.77115  -0.48652 
 H                     1.89551   0.56636   0.37163 
 H                     4.21737  -1.39527  -1.56471 
 H                     6.43565  -4.19408  -2.15249 
 H                     9.26502  -4.22836  -3.66585 
 H                     11.21958  -2.6651   -3.41287 
 H                     10.78427  -1.76477  -1.18776 
 H                     9.38129  -2.29234   1.3662 
 H                     7.24774  -1.70032   2.97427 
 H                     4.78291  -2.10254   3.16311 
 H                     3.55083  -2.98091   1.19035 
 H                     4.66544  -3.61565  -0.81678 
 

 GradGradGradGradGradGradGradGradGradGradGradGradGradGradGradGradGradGrad
 Berny optimization.
 Initialization pass.
                           ----------------------------
                           !    Initial Parameters    !
                           ! (Angstroms and Degrees)  !
 --------------------------                            --------------------------
 ! Name  Definition              Value          Derivative Info.                !
 --------------------------------------------------------------------------------
 ! R1    R(1,2)                  1.5799         estimate D2E/DX2                !
 ! R2    R(1,23)                 1.0367         estimate D2E/DX2                !
 ! R3    R(1,24)                 1.0498         estimate D2E/DX2                !
 ! R4    R(2,3)                  1.4333         estimate D2E/DX2                !
 ! R5    R(2,22)                 1.4104         estimate D2E/DX2                !
 ! R6    R(3,25)                 1.1242         estimate D2E/DX2                !
 ! R7    R(4,5)                  1.3207         estimate D2E/DX2                !
 ! R8    R(5,6)                  1.3265         estimate D2E/DX2                !
 ! R9    R(6,7)                  1.2913         estimate D2E/DX2                !
 ! R10   R(7,8)                  1.4747         estimate D2E/DX2                !
 ! R11   R(7,26)                 1.0898         estimate D2E/DX2                !
 ! R12   R(8,9)                  1.4164         estimate D2E/DX2                !
 ! R13   R(8,13)                 1.4501         estimate D2E/DX2                !
 ! R14   R(9,10)                 1.3571         estimate D2E/DX2                !
 ! R15   R(9,27)                 1.0917         estimate D2E/DX2                !
 ! R16   R(10,11)                1.4732         estimate D2E/DX2                !
 ! R17   R(10,28)                1.104          estimate D2E/DX2                !
 ! R18   R(11,12)                1.6218         estimate D2E/DX2                !
 ! R19   R(11,29)                1.2166         estimate D2E/DX2                !
 ! R20   R(12,13)                1.3488         estimate D2E/DX2                !
 ! R21   R(13,14)                1.4782         estimate D2E/DX2                !
 ! R22   R(14,15)                1.3401         estimate D2E/DX2                !
 ! R23   R(14,30)                1.1057         estimate D2E/DX2                !
 ! R24   R(15,16)                1.4582         estimate D2E/DX2                !
 ! R25   R(15,20)                1.4944         estimate D2E/DX2                !
 ! R26   R(16,17)                1.3864         estimate D2E/DX2                !
 ! R27   R(16,31)                1.1076         estimate D2E/DX2                !
 ! R28   R(17,18)                1.5786         estimate D2E/DX2                !
 ! R29   R(17,32)                1.0877         estimate D2E/DX2                !
 ! R30   R(18,19)                1.35           estimate D2E/DX2                !
 ! R31   R(18,33)                1.1047         estimate D2E/DX2                !
 ! R32   R(19,20)                1.4546         estimate D2E/DX2                !
 ! R33   R(19,34)                1.0996         estimate D2E/DX2                !
 ! R34   R(20,21)                1.3378         estimate D2E/DX2                !
 ! R35   R(21,22)                1.4944         estimate D2E/DX2                !
 ! A1    A(2,1,23)             124.7506         estimate D2E/DX2                !
 ! A2    A(2,1,24)             119.6415         estimate D2E/DX2                !
 ! A3    A(23,1,24)             99.8978         estimate D2E/DX2                !
 ! A4    A(1,2,3)              134.3825         estimate D2E/DX2                !
 ! A5    A(1,2,22)             114.2337         estimate D2E/DX2                !
 ! A6    A(3,2,22)             101.8004         estimate D2E/DX2                !
 ! A7    A(2,3,25)              93.3692         estimate D2E/DX2                !
 ! A8    A(4,5,6)              112.1412         estimate D2E/DX2                !
 ! A9    A(5,6,7)              111.7713         estimate D2E/DX2                !
 ! A10   A(6,7,8)              116.3132         estimate D2E/DX2                !
 ! A11   A(6,7,26)             127.0633         estimate D2E/DX2                !
 ! A12   A(8,7,26)             115.8097         estimate D2E/DX2                !
 ! A13   A(7,8,9)              102.5473         estimate D2E/DX2                !
 ! A14   A(7,8,13)             107.5058         estimate D2E/DX2                !
 ! A15   A(9,8,13)             122.1686         estimate D2E/DX2                !
 ! A16   A(8,9,10)             115.4174         estimate D2E/DX2                !
 ! A17   A(8,9,27)             121.8891         estimate D2E/DX2                !
 ! A18   A(10,9,27)            119.3705         estimate D2E/DX2                !
 ! A19   A(9,10,11)            111.2539         estimate D2E/DX2                !
 ! A20   A(9,10,28)            119.5536         estimate D2E/DX2                !
 ! A21   A(11,10,28)           128.8569         estimate D2E/DX2                !
 ! A22   A(10,11,12)           128.6808         estimate D2E/DX2                !
 ! A23   A(10,11,29)            89.0412         estimate D2E/DX2                !
 ! A24   A(12,11,29)           114.6429         estimate D2E/DX2                !
 ! A25   A(11,12,13)            90.1107         estimate D2E/DX2                !
 ! A26   A(8,13,12)            114.6599         estimate D2E/DX2                !
 ! A27   A(8,13,14)            126.0312         estimate D2E/DX2                !
 ! A28   A(12,13,14)           119.3075         estimate D2E/DX2                !
 ! A29   A(13,14,15)           109.3858         estimate D2E/DX2                !
 ! A30   A(13,14,30)           121.7427         estimate D2E/DX2                !
 ! A31   A(15,14,30)           122.4185         estimate D2E/DX2                !
 ! A32   A(14,15,16)           129.6656         estimate D2E/DX2                !
 ! A33   A(14,15,20)           115.8631         estimate D2E/DX2                !
 ! A34   A(16,15,20)            98.9764         estimate D2E/DX2                !
 ! A35   A(15,16,17)           113.2687         estimate D2E/DX2                !
 ! A36   A(15,16,31)           113.8894         estimate D2E/DX2                !
 ! A37   A(17,16,31)           122.0704         estimate D2E/DX2                !
 ! A38   A(16,17,18)           122.6138         estimate D2E/DX2                !
 ! A39   A(16,17,32)           119.0272         estimate D2E/DX2                !
 ! A40   A(18,17,32)           111.5786         estimate D2E/DX2                !
 ! A41   A(17,18,19)           120.6812         estimate D2E/DX2                !
 ! A42   A(17,18,33)           117.2001         estimate D2E/DX2                !
 ! A43   A(19,18,33)           109.4923         estimate D2E/DX2                !
 ! A44   A(18,19,20)            95.9297         estimate D2E/DX2                !
 ! A45   A(18,19,34)           126.1746         estimate D2E/DX2                !
 ! A46   A(20,19,34)           115.9931         estimate D2E/DX2                !
 ! A47   A(15,20,19)           117.1718         estimate D2E/DX2                !
 ! A48   A(15,20,21)           104.7873         estimate D2E/DX2                !
 ! A49   A(19,20,21)           126.7317         estimate D2E/DX2                !
 ! A50   A(20,21,22)           118.5332         estimate D2E/DX2                !
 ! A51   A(2,22,21)            111.2575         estimate D2E/DX2                !
 ! D1    D(23,1,2,3)            14.4814         estimate D2E/DX2                !
 ! D2    D(23,1,2,22)         -124.4846         estimate D2E/DX2                !
 ! D3    D(24,1,2,3)          -114.9734         estimate D2E/DX2                !
 ! D4    D(24,1,2,22)          106.0606         estimate D2E/DX2                !
 ! D5    D(1,2,3,25)           -38.8571         estimate D2E/DX2                !
 ! D6    D(22,2,3,25)          103.4392         estimate D2E/DX2                !
 ! D7    D(1,2,22,21)          153.4896         estimate D2E/DX2                !
 ! D8    D(3,2,22,21)            2.1311         estimate D2E/DX2                !
 ! D9    D(4,5,6,7)             79.2886         estimate D2E/DX2                !
 ! D10   D(5,6,7,8)           -111.4839         estimate D2E/DX2                !
 ! D11   D(5,6,7,26)            57.6843         estimate D2E/DX2                !
 ! D12   D(6,7,8,9)            -61.0764         estimate D2E/DX2                !
 ! D13   D(6,7,8,13)            68.8741         estimate D2E/DX2                !
 ! D14   D(26,7,8,9)           128.5124         estimate D2E/DX2                !
 ! D15   D(26,7,8,13)         -101.5371         estimate D2E/DX2                !
 ! D16   D(7,8,9,10)           115.8423         estimate D2E/DX2                !
 ! D17   D(7,8,9,27)           -43.419          estimate D2E/DX2                !
 ! D18   D(13,8,9,10)           -4.4249         estimate D2E/DX2                !
 ! D19   D(13,8,9,27)         -163.6862         estimate D2E/DX2                !
 ! D20   D(7,8,13,12)          -61.6364         estimate D2E/DX2                !
 ! D21   D(7,8,13,14)          117.9237         estimate D2E/DX2                !
 ! D22   D(9,8,13,12)           56.2351         estimate D2E/DX2                !
 ! D23   D(9,8,13,14)         -124.2048         estimate D2E/DX2                !
 ! D24   D(8,9,10,11)          -11.8121         estimate D2E/DX2                !
 ! D25   D(8,9,10,28)          162.1151         estimate D2E/DX2                !
 ! D26   D(27,9,10,11)         148.0057         estimate D2E/DX2                !
 ! D27   D(27,9,10,28)         -38.067          estimate D2E/DX2                !
 ! D28   D(9,10,11,12)         -13.5724         estimate D2E/DX2                !
 ! D29   D(9,10,11,29)         107.8138         estimate D2E/DX2                !
 ! D30   D(28,10,11,12)        173.2146         estimate D2E/DX2                !
 ! D31   D(28,10,11,29)        -65.3992         estimate D2E/DX2                !
 ! D32   D(10,11,12,13)         51.4677         estimate D2E/DX2                !
 ! D33   D(29,11,12,13)        -58.6339         estimate D2E/DX2                !
 ! D34   D(11,12,13,8)         -64.0863         estimate D2E/DX2                !
 ! D35   D(11,12,13,14)        116.3217         estimate D2E/DX2                !
 ! D36   D(8,13,14,15)         -83.9682         estimate D2E/DX2                !
 ! D37   D(8,13,14,30)         123.6608         estimate D2E/DX2                !
 ! D38   D(12,13,14,15)         95.5733         estimate D2E/DX2                !
 ! D39   D(12,13,14,30)        -56.7976         estimate D2E/DX2                !
 ! D40   D(13,14,15,16)       -144.5008         estimate D2E/DX2                !
 ! D41   D(13,14,15,20)        -15.6547         estimate D2E/DX2                !
 ! D42   D(30,14,15,16)          7.6474         estimate D2E/DX2                !
 ! D43   D(30,14,15,20)        136.4935         estimate D2E/DX2                !
 ! D44   D(14,15,16,17)        168.5595         estimate D2E/DX2                !
 ! D45   D(14,15,16,31)         23.2146         estimate D2E/DX2                !
 ! D46   D(20,15,16,17)         33.7549         estimate D2E/DX2                !
 ! D47   D(20,15,16,31)       -111.59           estimate D2E/DX2                !
 ! D48   D(14,15,20,19)        132.5591         estimate D2E/DX2                !
 ! D49   D(14,15,20,21)        -81.2614         estimate D2E/DX2                !
 ! D50   D(16,15,20,19)        -84.8114         estimate D2E/DX2                !
 ! D51   D(16,15,20,21)         61.3681         estimate D2E/DX2                !
 ! D52   D(15,16,17,18)          0.196          estimate D2E/DX2                !
 ! D53   D(15,16,17,32)       -148.5005         estimate D2E/DX2                !
 ! D54   D(31,16,17,18)        142.3494         estimate D2E/DX2                !
 ! D55   D(31,16,17,32)         -6.3471         estimate D2E/DX2                !
 ! D56   D(16,17,18,19)         -6.5295         estimate D2E/DX2                !
 ! D57   D(16,17,18,33)       -144.3593         estimate D2E/DX2                !
 ! D58   D(32,17,18,19)        144.2252         estimate D2E/DX2                !
 ! D59   D(32,17,18,33)          6.3954         estimate D2E/DX2                !
 ! D60   D(17,18,19,20)        -24.8571         estimate D2E/DX2                !
 ! D61   D(17,18,19,34)       -153.3044         estimate D2E/DX2                !
 ! D62   D(33,18,19,20)        115.8416         estimate D2E/DX2                !
 ! D63   D(33,18,19,34)        -12.6057         estimate D2E/DX2                !
 ! D64   D(18,19,20,15)         76.4245         estimate D2E/DX2                !
 ! D65   D(18,19,20,21)        -61.3937         estimate D2E/DX2                !
 ! D66   D(34,19,20,15)       -148.2716         estimate D2E/DX2                !
 ! D67   D(34,19,20,21)         73.9102         estimate D2E/DX2                !
 ! D68   D(15,20,21,22)       -120.6838         estimate D2E/DX2                !
 ! D69   D(19,20,21,22)         21.1573         estimate D2E/DX2                !
 ! D70   D(20,21,22,2)        -101.7403         estimate D2E/DX2                !
 --------------------------------------------------------------------------------
 Trust Radius=3.00D-01 FncErr=1.00D-07 GrdErr=1.00D-06 EigMax=2.50D+02 EigMin=1.00D-04
 Number of steps in this run=    166 maximum allowed number of steps=    204.
 GradGradGradGradGradGradGradGradGradGradGradGradGradGradGradGradGradGrad

                          Input orientation:                          
 ---------------------------------------------------------------------
 Center     Atomic      Atomic             Coordinates (Angstroms)
 Number     Number       Type             X           Y           Z
 ---------------------------------------------------------------------
      1          7           0        2.416660   -0.317590    0.149940
      2          6           0        3.977230   -0.265170   -0.090620
      3          6           0        4.826980   -0.516960   -1.217110
      4          6           0        6.592500   -0.865380   -1.708340
      5          7           0        6.125710   -1.607450   -2.696090
      6          7           0        7.046680   -2.428770   -3.182740
      7          6           0        7.200360   -3.471740   -2.437130
      8          6           0        8.483180   -3.577510   -1.717370
      9          6           0        9.425940   -3.620430   -2.773500
     10          6           0       10.287800   -2.573530   -2.827860
     11          6           0        9.862740   -1.484750   -1.931080
     12          6           0        8.434460   -1.280980   -1.190390
     13          6           0        8.503120   -2.538100   -0.706440
     14          6           0        8.580420   -2.747700    0.754770
     15          6           0        7.351310   -2.977760    1.236790
     16          6           0        6.761210   -2.580240    2.509630
     17          6           0        5.389770   -2.776550    2.562590
     18          6           0        4.568960   -3.376740    1.355170
     19          6           0        5.162340   -3.603670    0.164020
     20          6           0        6.218150   -2.617280    0.331750
     21          7           0        6.062850   -1.297790    0.487990
     22          8           0        4.744590   -0.786520    0.971760
     23          1           0        1.735570   -0.771150   -0.486520
     24          1           0        1.895510    0.566360    0.371630
     25          1           0        4.217370   -1.395270   -1.564710
     26          1           0        6.435650   -4.194080   -2.152490
     27          1           0        9.265020   -4.228360   -3.665850
     28          1           0       11.219580   -2.665100   -3.412870
     29          1           0       10.784270   -1.764770   -1.187760
     30          1           0        9.381290   -2.292340    1.366200
     31          1           0        7.247740   -1.700320    2.974270
     32          1           0        4.782910   -2.102540    3.163110
     33          1           0        3.550830   -2.980910    1.190350
     34          1           0        4.665440   -3.615650   -0.816780
 ---------------------------------------------------------------------
                    Distance matrix (angstroms):
                    1          2          3          4          5
     1  N    0.000000
     2  C    1.579872   0.000000
     3  C    2.778168   1.433336   0.000000
     4  C    4.603359   3.133194   1.865413   0.000000
     5  N    4.849812   3.634027   2.250167   1.320686   0.000000
     6  N    6.082838   4.864555   3.527859   2.196434   1.326492
     7  C    6.286921   5.116324   3.981470   2.773759   2.167374
     8  C    7.135586   5.824216   4.794270   3.306116   3.224390
     9  C    8.281622   6.938592   5.762318   4.093073   3.866471
    10  C    8.712715   7.255639   6.053474   4.222125   4.274771
    11  C    7.819016   6.286008   5.177379   3.335821   3.816502
    12  C    6.240074   4.701943   3.687594   1.958012   2.775616
    13  C    6.535216   5.101875   4.226085   2.729884   3.236803
    14  C    6.653059   5.297830   4.790911   3.682644   4.385682
    15  C    5.710387   4.528198   4.295277   3.702936   4.341358
    16  C    5.437172   4.457734   4.678350   4.556367   5.333826
    17  C    4.550467   3.916864   4.439438   4.831146   5.437106
    18  C    3.929806   3.481712   3.855067   4.448228   4.686850
    19  C    4.282205   3.551747   3.398200   3.612384   3.618453
    20  C    4.446679   3.276056   2.957307   2.715006   3.193136
    21  N    3.790748   2.398104   2.245982   2.300298   3.199720
    22  O    2.512875   1.410425   2.206944   3.256367   4.004315
    23  H    1.036669   2.331907   3.186721   5.009141   4.985472
    24  H    1.049815   2.288815   3.505880   5.332717   5.659589
    25  H    2.709977   1.872895   1.124224   2.437756   2.228632
    26  H    6.039920   5.072620   4.121161   3.361862   2.661244
    27  H    8.760959   7.513313   6.282278   4.720577   4.202960
    28  H    9.782424   8.321577   7.092334   5.249217   5.251658
    29  H    8.596550   7.056083   6.086641   4.318662   4.899183
    30  H    7.340640   5.952781   5.528762   4.389346   5.250721
    31  H    5.764383   4.706319   4.982779   4.801385   5.781052
    32  H    4.226627   3.822539   4.658576   5.341929   6.031455
    33  H    3.076047   3.032811   3.673618   4.704214   4.860125
    34  H    4.107159   3.496664   3.128616   3.474539   3.114011
                    6          7          8          9         10
     6  N    0.000000
     7  C    1.291255   0.000000
     8  C    2.351690   1.474744   0.000000
     9  C    2.692287   2.255761   1.416351   0.000000
    10  C    3.263703   3.239095   2.344742   1.357114   0.000000
    11  C    3.223045   3.360429   2.515651   2.337006   1.473205
    12  C    2.685668   2.806562   2.356721   2.993709   2.790495
    13  C    2.874932   2.358846   1.450086   2.509138   2.772501
    14  C    4.237695   3.552045   2.609505   3.731655   3.972495
    15  C    4.463904   3.710053   3.219921   4.560651   5.030681
    16  C    5.701536   5.045598   4.671965   6.007849   6.397318
    17  C    5.989584   5.362716   5.341234   6.743638   7.286211
    18  C    5.256460   4.616799   4.980153   6.379307   7.130780
    19  C    4.016457   3.307100   3.816843   5.177605   6.023527
    20  C    3.615749   3.059663   3.201764   4.575894   5.152388
    21  N    3.965009   3.817894   3.989829   5.228991   5.520197
    22  O    5.025582   4.986155   5.384988   6.631218   6.953970
    23  H    6.182653   6.400156   7.410863   8.514133   9.048264
    24  H    6.938220   7.234419   8.058100   9.172155   9.514525
    25  H    3.419231   3.737790   4.794018   5.791521   6.311415
    26  H    2.133329   1.089760   2.182170   3.107501   4.233364
    27  H    2.897059   2.518938   2.198057   1.091679   2.118199
    28  H    4.185918   4.213890   3.345908   2.130398   1.104009
    29  H    4.288405   4.161620   2.976832   2.793404   1.894862
    30  H    5.114868   4.540128   3.459287   4.347750   4.300112
    31  H    6.203212   5.694157   5.202080   6.439584   6.608266
    32  H    6.745435   6.251517   6.299732   7.687981   8.149685
    33  H    5.625810   5.169003   5.756635   7.116039   7.854854
    34  H    3.560443   3.011987   3.922710   5.146954   6.061468
                   11         12         13         14         15
    11  C    0.000000
    12  C    1.621767   0.000000
    13  C    2.111364   1.348804   0.000000
    14  C    3.233137   2.440537   1.478189   0.000000
    15  C    4.309496   3.153328   2.301328   1.340143   0.000000
    16  C    5.526255   4.263565   3.657750   2.533200   1.458205
    17  C    6.470647   5.058827   4.520660   3.667328   2.376104
    18  C    6.511772   5.080765   4.520085   4.104629   2.813302
    19  C    5.565342   4.235101   3.613025   3.572806   2.516781
    20  C    4.436898   3.002439   2.511015   2.403388   1.494354
    21  N    4.508439   2.905473   2.986628   2.917459   2.245691
    22  O    5.925324   4.305174   4.473358   4.313572   3.415664
    23  H    8.285341   6.755034   6.997872   7.231841   6.274987
    24  H    8.543201   6.972119   7.379730   7.471132   6.563158
    25  H    5.657953   4.235213   4.517781   5.123013   4.491576
    26  H    4.374293   3.661561   3.017907   3.891557   3.715520
    27  H    3.300620   3.937611   3.492217   4.711997   5.409451
    28  H    2.330224   3.822578   3.836671   4.933681   6.056452
    29  H    1.216616   2.399097   2.456289   3.097826   4.374357
    30  H    3.428710   2.907832   2.264380   1.105709   2.146478
    31  H    5.563017   4.350695   3.978125   2.792709   2.159031
    32  H    7.220603   5.741232   5.385452   4.542842   3.327671
    33  H    7.198752   5.692761   5.321566   5.053800   3.800765
    34  H    5.726633   4.449245   3.987615   4.306991   3.440632
                   16         17         18         19         20
    16  C    0.000000
    17  C    1.386431   0.000000
    18  C    2.602528   1.578550   0.000000
    19  C    3.017562   2.547350   1.349976   0.000000
    20  C    2.244871   2.385001   2.084225   1.454590   0.000000
    21  N    2.493875   2.635096   2.702914   2.496589   1.337753
    22  O    3.106321   2.628158   2.624326   2.960286   2.435708
    23  H    6.124278   5.164482   4.267203   4.493231   4.916430
    24  H    6.176340   5.308974   4.864435   5.301361   5.368647
    25  H    4.947274   4.507445   3.546201   2.959477   3.015458
    26  H    4.944273   5.033412   4.056631   2.708527   2.950433
    27  H    6.864541   7.477886   6.927401   5.647134   5.278238
    28  H    7.413519   8.348966   8.214097   7.096845   6.248101
    29  H    5.524554   6.647515   6.906158   6.067533   4.887242
    30  H    2.873176   4.195002   4.933008   4.578686   3.343819
    31  H    1.107638   2.186276   3.550737   3.983609   2.980568
    32  H    2.137500   1.087747   2.222163   3.375189   3.215816
    33  H    3.493934   2.303585   1.104733   2.009514   2.825600
    34  H    4.065628   3.556527   2.187179   1.099555   2.174114
                   21         22         23         24         25
    21  N    0.000000
    22  O    1.494403   0.000000
    23  H    4.466808   3.343803   0.000000
    24  H    4.566762   3.210560   1.597165   0.000000
    25  H    2.762042   2.661244   2.776932   3.603948   0.000000
    26  H    3.936954   4.922610   6.048360   7.045981   3.619335
    27  H    6.008038   7.334029   8.874292   9.674723   6.157918
    28  H    6.608942   8.042359  10.104307  10.568967   7.352490
    29  H    5.031701   6.488315   9.130060   9.320725   6.588080
    30  H    3.573853   4.891019   8.012716   8.074543   6.005084
    31  H    2.783448   3.333292   6.574530   6.368512   5.466126
    32  H    3.072806   2.556441   4.937477   4.822081   4.813767
    33  H    3.104263   2.507627   3.315132   3.999189   3.247905
    34  H    3.004606   3.348002   4.096876   5.155001   2.385425
                   26         27         28         29         30
    26  H    0.000000
    27  H    3.208858   0.000000
    28  H    5.178062   2.515569   0.000000
    29  H    5.073731   3.810292   2.439509   0.000000
    30  H    4.967352   5.392886   5.133982   2.961316   0.000000
    31  H    5.758645   7.385905   7.582999   5.462023   2.736496
    32  H    5.946570   8.440564   9.219040   7.420275   4.940649
    33  H    4.579143   7.602025   8.949810   7.710840   5.873612
    34  H    2.291800   5.445067   7.113366   6.403395   5.362443
                   31         32         33         34
    31  H    0.000000
    32  H    2.504562   0.000000
    33  H    4.299933   2.486229   0.000000
    34  H    4.970797   4.259440   2.381978   0.000000
 Stoichiometry    C17H12N4O
 Framework group  C1[X(C17H12N4O)]
 Deg. of freedom    96
 Full point group                 C1      NOp   1
 Largest Abelian subgroup         C1      NOp   1
 Largest concise Abelian subgroup C1      NOp   1
                         Standard orientation:                         
 ---------------------------------------------------------------------
 Center     Atomic      Atomic             Coordinates (Angstroms)
 Number     Number       Type             X           Y           Z
 ---------------------------------------------------------------------
      1          7           0       -4.236343   -1.868291   -0.165647
      2          6           0       -2.828113   -1.453805   -0.749672
      3          6           0       -1.489533   -1.936101   -0.576327
      4          6           0        0.304126   -1.485501   -0.820274
      5          7           0        0.583895   -2.193088    0.259199
      6          7           0        1.775867   -1.893564    0.758265
      7          6           0        1.745560   -0.803117    1.449167
      8          6           0        2.464031    0.351918    0.879463
      9          6           0        3.798650   -0.117709    0.813953
     10          6           0        4.316439   -0.228640   -0.435585
     11          6           0        3.267948   -0.095613   -1.461890
     12          6           0        1.657435   -0.146559   -1.278095
     13          6           0        1.737116    0.779105   -0.300307
     14          6           0        1.096041    2.096435   -0.497047
     15          6           0       -0.122616    2.085780    0.060396
     16          6           0       -1.352175    2.736004   -0.377503
     17          6           0       -2.475944    2.301031    0.308160
     18          6           0       -2.407959    1.212599    1.449437
     19          6           0       -1.254437    0.563165    1.714124
     20          6           0       -0.676593    0.737781    0.390704
     21          7           0       -1.170488    0.279099   -0.764831
     22          8           0       -2.624020   -0.060837   -0.835025
     23          1           0       -4.377212   -2.488339    0.653120
     24          1           0       -4.973708   -2.248526   -0.808940
     25          1           0       -1.627763   -2.120627    0.524001
     26          1           0        1.120152   -0.592176    2.316315
     27          1           0        4.254492   -0.675943    1.633920
     28          1           0        5.410465   -0.295628   -0.567710
     29          1           0        3.711877    1.001426   -1.743998
     30          1           0        1.348849    2.743774   -1.357066
     31          1           0       -1.376618    2.966274   -1.460664
     32          1           0       -3.433764    2.281231   -0.206992
     33          1           0       -3.254219    0.506492    1.524886
     34          1           0       -1.160759   -0.440997    2.152192
 ---------------------------------------------------------------------
 Rotational constants (GHZ):           0.6025872           0.2763819           0.2289843
 Standard basis: 6-31G(2df,p) (6D, 7F)
 There are   742 symmetry adapted cartesian basis functions of A   symmetry.
 There are   676 symmetry adapted basis functions of A   symmetry.
   676 basis functions,  1052 primitive gaussians,   742 cartesian basis functions
    75 alpha electrons       75 beta electrons
       nuclear repulsion energy      1775.1558046891 Hartrees.
 NAtoms=   34 NActive=   34 NUniq=   34 SFac= 1.00D+00 NAtFMM=   60 NAOKFM=F Big=F
 Integral buffers will be    131072 words long.
 Raffenetti 2 integral format.
 Two-electron integral symmetry is turned on.
 One-electron integrals computed using PRISM.
 PrsmSu:  requested number of processors reduced to:  12 ShMem   1 Linda.
 NBasis=   676 RedAO= T EigKep=  1.95D-04  NBF=   676
 NBsUse=   676 1.00D-06 EigRej= -1.00D+00 NBFU=   676
 ExpMin= 1.61D-01 ExpMax= 5.48D+03 ExpMxC= 8.25D+02 IAcc=3 IRadAn=         5 AccDes= 0.00D+00
 Harris functional with IExCor=  402 and IRadAn=       5 diagonalized for initial guess.
 HarFok:  IExCor=  402 AccDes= 0.00D+00 IRadAn=         5 IDoV= 1 UseB2=F ITyADJ=14
 ICtDFT=  3500011 ScaDFX=  1.000000  1.000000  1.000000  1.000000
 FoFCou: FMM=F IPFlag=           0 FMFlag=      100000 FMFlg1=           0
         NFxFlg=           0 DoJE=T BraDBF=F KetDBF=T FulRan=T
         wScrn=  0.000000 ICntrl=       500 IOpCl=  0 I1Cent=   200000004 NGrid=           0
         NMat0=    1 NMatS0=      1 NMatT0=    0 NMatD0=    1 NMtDS0=    0 NMtDT0=    0
 Petite list used in FoFCou.
 Requested convergence on RMS density matrix=1.00D-08 within 128 cycles.
 Requested convergence on MAX density matrix=1.00D-06.
 Requested convergence on             energy=1.00D-06.
 No special actions if energy rises.
 Integral accuracy reduced to 1.0D-05 until final iterations.
 EnCoef did     4 forward-backward iterations
 EnCoef did     1 forward-backward iterations
 Initial convergence to 1.0D-05 achieved.  Increase integral accuracy.
 SCF Done:  E(RB3LYP) =  -948.182733763     A.U. after   22 cycles
            NFock= 22  Conv=0.56D-08     -V/T= 2.0078

 **********************************************************************

            Population analysis using the SCF density.

 **********************************************************************

 Orbital symmetries:
       Occupied  (A) (A) (A) (A) (A) (A) (A) (A) (A) (A) (A) (A)
                 (A) (A) (A) (A) (A) (A) (A) (A) (A) (A) (A) (A)
                 (A) (A) (A) (A) (A) (A) (A) (A) (A) (A) (A) (A)
                 (A) (A) (A) (A) (A) (A) (A) (A) (A) (A) (A) (A)
                 (A) (A) (A) (A) (A) (A) (A) (A) (A) (A) (A) (A)
                 (A) (A) (A) (A) (A) (A) (A) (A) (A) (A) (A) (A)
                 (A) (A) (A)
       Virtual   (A) (A) (A) (A) (A) (A) (A) (A) (A) (A) (A) (A)
                 (A) (A) (A) (A) (A) (A) (A) (A) (A) (A) (A) (A)
                 (A) (A) (A) (A) (A) (A) (A) (A) (A) (A) (A) (A)
                 (A) (A) (A) (A) (A) (A) (A) (A) (A) (A) (A) (A)
                 (A) (A) (A) (A) (A) (A) (A) (A) (A) (A) (A) (A)
                 (A) (A) (A) (A) (A) (A) (A) (A) (A) (A) (A) (A)
                 (A) (A) (A) (A) (A) (A) (A) (A) (A) (A) (A) (A)
                 (A) (A) (A) (A) (A) (A) (A) (A) (A) (A) (A) (A)
                 (A) (A) (A) (A) (A) (A) (A) (A) (A) (A) (A) (A)
                 (A) (A) (A) (A) (A) (A) (A) (A) (A) (A) (A) (A)
                 (A) (A) (A) (A) (A) (A) (A) (A) (A) (A) (A) (A)
                 (A) (A) (A) (A) (A) (A) (A) (A) (A) (A) (A) (A)
                 (A) (A) (A) (A) (A) (A) (A) (A) (A) (A) (A) (A)
                 (A) (A) (A) (A) (A) (A) (A) (A) (A) (A) (A) (A)
                 (A) (A) (A) (A) (A) (A) (A) (A) (A) (A) (A) (A)
                 (A) (A) (A) (A) (A) (A) (A) (A) (A) (A) (A) (A)
                 (A) (A) (A) (A) (A) (A) (A) (A) (A) (A) (A) (A)
                 (A) (A) (A) (A) (A) (A) (A) (A) (A) (A) (A) (A)
                 (A) (A) (A) (A) (A) (A) (A) (A) (A) (A) (A) (A)
                 (A) (A) (A) (A) (A) (A) (A) (A) (A) (A) (A) (A)
                 (A) (A) (A) (A) (A) (A) (A) (A) (A) (A) (A) (A)
                 (A) (A) (A) (A) (A) (A) (A) (A) (A) (A) (A) (A)
                 (A) (A) (A) (A) (A) (A) (A) (A) (A) (A) (A) (A)
                 (A) (A) (A) (A) (A) (A) (A) (A) (A) (A) (A) (A)
                 (A) (A) (A) (A) (A) (A) (A) (A) (A) (A) (A) (A)
                 (A) (A) (A) (A) (A) (A) (A) (A) (A) (A) (A) (A)
                 (A) (A) (A) (A) (A) (A) (A) (A) (A) (A) (A) (A)
                 (A) (A) (A) (A) (A) (A) (A) (A) (A) (A) (A) (A)
                 (A) (A) (A) (A) (A) (A) (A) (A) (A) (A) (A) (A)
                 (A) (A) (A) (A) (A) (A) (A) (A) (A) (A) (A) (A)
                 (A) (A) (A) (A) (A) (A) (A) (A) (A) (A) (A) (A)
                 (A) (A) (A) (A) (A) (A) (A) (A) (A) (A) (A) (A)
                 (A) (A) (A) (A) (A) (A) (A) (A) (A) (A) (A) (A)
                 (A) (A) (A) (A) (A) (A) (A) (A) (A) (A) (A) (A)
                 (A) (A) (A) (A) (A) (A) (A) (A) (A) (A) (A) (A)
                 (A) (A) (A) (A) (A) (A) (A) (A) (A) (A) (A) (A)
                 (A) (A) (A) (A) (A) (A) (A) (A) (A) (A) (A) (A)
                 (A) (A) (A) (A) (A) (A) (A) (A) (A) (A) (A) (A)
                 (A) (A) (A) (A) (A) (A) (A) (A) (A) (A) (A) (A)
                 (A) (A) (A) (A) (A) (A) (A) (A) (A) (A) (A) (A)
                 (A) (A) (A) (A) (A) (A) (A) (A) (A) (A) (A) (A)
                 (A) (A) (A) (A) (A) (A) (A) (A) (A) (A) (A) (A)
                 (A) (A) (A) (A) (A) (A) (A) (A) (A) (A) (A) (A)
                 (A) (A) (A) (A) (A) (A) (A) (A) (A) (A) (A) (A)
                 (A) (A) (A) (A) (A) (A) (A) (A) (A) (A) (A) (A)
                 (A) (A) (A) (A) (A) (A) (A) (A) (A) (A) (A) (A)
                 (A) (A) (A) (A) (A) (A) (A) (A) (A) (A) (A) (A)
                 (A) (A) (A) (A) (A) (A) (A) (A) (A) (A) (A) (A)
                 (A) (A) (A) (A) (A) (A) (A) (A) (A) (A) (A) (A)
                 (A) (A) (A) (A) (A) (A) (A) (A) (A) (A) (A) (A)
                 (A)
 The electronic state is 1-A.
 Alpha  occ. eigenvalues --  -19.20620 -14.37166 -14.36744 -14.36206 -14.35212
 Alpha  occ. eigenvalues --  -10.30099 -10.27806 -10.25357 -10.25162 -10.23508
 Alpha  occ. eigenvalues --  -10.23035 -10.22586 -10.22447 -10.21533 -10.21250
 Alpha  occ. eigenvalues --  -10.21147 -10.21075 -10.20816 -10.20745 -10.20664
 Alpha  occ. eigenvalues --  -10.20295 -10.19686  -1.07702  -1.03008  -0.93034
 Alpha  occ. eigenvalues --   -0.89416  -0.86614  -0.83428  -0.81381  -0.80677
 Alpha  occ. eigenvalues --   -0.77954  -0.74489  -0.73838  -0.71784  -0.66205
 Alpha  occ. eigenvalues --   -0.64103  -0.60837  -0.60344  -0.58930  -0.56483
 Alpha  occ. eigenvalues --   -0.55968  -0.54457  -0.51807  -0.50655  -0.49867
 Alpha  occ. eigenvalues --   -0.48898  -0.48639  -0.47052  -0.45695  -0.45171
 Alpha  occ. eigenvalues --   -0.43940  -0.43711  -0.43148  -0.42623  -0.42228
 Alpha  occ. eigenvalues --   -0.41472  -0.40091  -0.38468  -0.38290  -0.38009
 Alpha  occ. eigenvalues --   -0.36206  -0.35028  -0.33178  -0.32495  -0.28508
 Alpha  occ. eigenvalues --   -0.28053  -0.27219  -0.26469  -0.25944  -0.23184
 Alpha  occ. eigenvalues --   -0.22636  -0.22366  -0.20647  -0.17848  -0.17357
 Alpha virt. eigenvalues --   -0.10566  -0.09545  -0.08487  -0.07395  -0.06062
 Alpha virt. eigenvalues --   -0.03937  -0.02570  -0.00376   0.00485   0.03011
 Alpha virt. eigenvalues --    0.04208   0.04556   0.07196   0.07444   0.10513
 Alpha virt. eigenvalues --    0.10816   0.11666   0.12506   0.13465   0.13804
 Alpha virt. eigenvalues --    0.15205   0.15528   0.16560   0.17314   0.17555
 Alpha virt. eigenvalues --    0.19660   0.20289   0.22703   0.22727   0.24624
 Alpha virt. eigenvalues --    0.25280   0.25714   0.26269   0.28548   0.29526
 Alpha virt. eigenvalues --    0.30017   0.31543   0.32093   0.33794   0.34922
 Alpha virt. eigenvalues --    0.35990   0.37050   0.37372   0.38668   0.39097
 Alpha virt. eigenvalues --    0.40014   0.40790   0.42094   0.42587   0.42766
 Alpha virt. eigenvalues --    0.44112   0.44228   0.45254   0.46211   0.46440
 Alpha virt. eigenvalues --    0.46744   0.47711   0.49260   0.49595   0.50230
 Alpha virt. eigenvalues --    0.50557   0.51253   0.52004   0.52359   0.53460
 Alpha virt. eigenvalues --    0.53878   0.54129   0.54866   0.55496   0.55789
 Alpha virt. eigenvalues --    0.56240   0.56966   0.57934   0.58783   0.59147
 Alpha virt. eigenvalues --    0.59920   0.60861   0.61191   0.61640   0.62551
 Alpha virt. eigenvalues --    0.63471   0.63636   0.64520   0.65185   0.66037
 Alpha virt. eigenvalues --    0.66311   0.67424   0.68072   0.69083   0.69339
 Alpha virt. eigenvalues --    0.69725   0.70213   0.70784   0.70925   0.71632
 Alpha virt. eigenvalues --    0.72101   0.72560   0.73270   0.73491   0.73992
 Alpha virt. eigenvalues --    0.74494   0.74892   0.75330   0.76104   0.76641
 Alpha virt. eigenvalues --    0.77424   0.78265   0.78651   0.79113   0.79549
 Alpha virt. eigenvalues --    0.80173   0.80854   0.81401   0.82267   0.83219
 Alpha virt. eigenvalues --    0.83795   0.85554   0.85635   0.86022   0.86804
 Alpha virt. eigenvalues --    0.87934   0.88504   0.88809   0.89021   0.91086
 Alpha virt. eigenvalues --    0.91650   0.92734   0.92912   0.94105   0.94906
 Alpha virt. eigenvalues --    0.95543   0.96958   0.97336   0.99109   1.00198
 Alpha virt. eigenvalues --    1.00869   1.01131   1.03588   1.03884   1.04692
 Alpha virt. eigenvalues --    1.05681   1.06385   1.06694   1.08363   1.09545
 Alpha virt. eigenvalues --    1.10711   1.12492   1.12900   1.14017   1.15340
 Alpha virt. eigenvalues --    1.15961   1.17585   1.19571   1.20017   1.20143
 Alpha virt. eigenvalues --    1.22199   1.23525   1.23790   1.24462   1.25249
 Alpha virt. eigenvalues --    1.26277   1.28296   1.28639   1.29979   1.30495
 Alpha virt. eigenvalues --    1.31687   1.32618   1.33089   1.34552   1.35265
 Alpha virt. eigenvalues --    1.36459   1.37035   1.37320   1.38653   1.39773
 Alpha virt. eigenvalues --    1.40429   1.41734   1.42613   1.43401   1.44098
 Alpha virt. eigenvalues --    1.45147   1.46198   1.46902   1.47908   1.48869
 Alpha virt. eigenvalues --    1.50226   1.50357   1.50874   1.51497   1.52319
 Alpha virt. eigenvalues --    1.52773   1.53544   1.53928   1.55576   1.56624
 Alpha virt. eigenvalues --    1.56911   1.57279   1.57948   1.59521   1.60744
 Alpha virt. eigenvalues --    1.61081   1.61612   1.61993   1.63719   1.64393
 Alpha virt. eigenvalues --    1.65786   1.66093   1.67002   1.68308   1.69638
 Alpha virt. eigenvalues --    1.69808   1.70913   1.72051   1.73499   1.74567
 Alpha virt. eigenvalues --    1.74783   1.76620   1.76929   1.77419   1.78296
 Alpha virt. eigenvalues --    1.80105   1.81398   1.81798   1.82582   1.83835
 Alpha virt. eigenvalues --    1.85542   1.86492   1.86701   1.88131   1.89729
 Alpha virt. eigenvalues --    1.91562   1.91878   1.92189   1.94859   1.95353
 Alpha virt. eigenvalues --    1.95623   1.96634   1.97371   1.98277   1.99824
 Alpha virt. eigenvalues --    2.00492   2.01215   2.03048   2.03592   2.05092
 Alpha virt. eigenvalues --    2.07366   2.08732   2.10224   2.12434   2.13864
 Alpha virt. eigenvalues --    2.15163   2.16659   2.18974   2.19765   2.21604
 Alpha virt. eigenvalues --    2.22736   2.24271   2.25404   2.26450   2.29262
 Alpha virt. eigenvalues --    2.32152   2.33930   2.35414   2.37336   2.39227
 Alpha virt. eigenvalues --    2.40353   2.42181   2.43442   2.44531   2.45257
 Alpha virt. eigenvalues --    2.48052   2.48915   2.51020   2.53348   2.53722
 Alpha virt. eigenvalues --    2.55584   2.57873   2.60415   2.61076   2.62953
 Alpha virt. eigenvalues --    2.64467   2.64912   2.65873   2.67500   2.68797
 Alpha virt. eigenvalues --    2.70664   2.72602   2.73516   2.75829   2.76529
 Alpha virt. eigenvalues --    2.77310   2.79252   2.79496   2.80769   2.81605
 Alpha virt. eigenvalues --    2.82394   2.83574   2.83761   2.85187   2.85758
 Alpha virt. eigenvalues --    2.86498   2.87538   2.89263   2.90755   2.91548
 Alpha virt. eigenvalues --    2.92163   2.93039   2.93488   2.95992   2.97329
 Alpha virt. eigenvalues --    2.97482   2.99270   3.00115   3.00916   3.01221
 Alpha virt. eigenvalues --    3.02334   3.03286   3.04389   3.05442   3.06662
 Alpha virt. eigenvalues --    3.07411   3.08096   3.08292   3.09341   3.10176
 Alpha virt. eigenvalues --    3.11130   3.11757   3.12572   3.13200   3.14735
 Alpha virt. eigenvalues --    3.16050   3.17223   3.17461   3.18895   3.20002
 Alpha virt. eigenvalues --    3.20823   3.22296   3.22648   3.23008   3.24374
 Alpha virt. eigenvalues --    3.25410   3.26583   3.26920   3.27775   3.29944
 Alpha virt. eigenvalues --    3.30202   3.31353   3.31840   3.32218   3.33865
 Alpha virt. eigenvalues --    3.35226   3.36360   3.37650   3.37789   3.38459
 Alpha virt. eigenvalues --    3.40058   3.40512   3.41691   3.42118   3.42561
 Alpha virt. eigenvalues --    3.43726   3.44033   3.44848   3.45824   3.46897
 Alpha virt. eigenvalues --    3.48174   3.49230   3.49409   3.49758   3.52315
 Alpha virt. eigenvalues --    3.53124   3.54037   3.55279   3.56731   3.57664
 Alpha virt. eigenvalues --    3.59621   3.59825   3.60434   3.62253   3.63043
 Alpha virt. eigenvalues --    3.65074   3.66496   3.67492   3.68529   3.69470
 Alpha virt. eigenvalues --    3.71598   3.72366   3.73367   3.74826   3.77260
 Alpha virt. eigenvalues --    3.77400   3.78721   3.78995   3.81347   3.82391
 Alpha virt. eigenvalues --    3.82491   3.84289   3.85333   3.86270   3.86749
 Alpha virt. eigenvalues --    3.87428   3.89898   3.90909   3.92490   3.93382
 Alpha virt. eigenvalues --    3.94879   3.97324   3.98535   3.99475   4.00424
 Alpha virt. eigenvalues --    4.02045   4.03164   4.04848   4.06034   4.06823
 Alpha virt. eigenvalues --    4.08362   4.10311   4.11530   4.12508   4.15009
 Alpha virt. eigenvalues --    4.16631   4.17085   4.17663   4.19398   4.20024
 Alpha virt. eigenvalues --    4.22143   4.23967   4.25520   4.26177   4.27019
 Alpha virt. eigenvalues --    4.27425   4.28039   4.28917   4.30404   4.31708
 Alpha virt. eigenvalues --    4.32206   4.33095   4.33801   4.35450   4.35799
 Alpha virt. eigenvalues --    4.36928   4.37949   4.38582   4.40379   4.41854
 Alpha virt. eigenvalues --    4.42266   4.42678   4.44168   4.45972   4.46328
 Alpha virt. eigenvalues --    4.46771   4.47595   4.48511   4.50335   4.51555
 Alpha virt. eigenvalues --    4.52252   4.53537   4.53960   4.55392   4.55433
 Alpha virt. eigenvalues --    4.56298   4.57165   4.57687   4.58480   4.58647
 Alpha virt. eigenvalues --    4.59373   4.59739   4.61168   4.61893   4.62600
 Alpha virt. eigenvalues --    4.64411   4.65082   4.65307   4.66199   4.66728
 Alpha virt. eigenvalues --    4.68220   4.68662   4.69155   4.69643   4.70179
 Alpha virt. eigenvalues --    4.71402   4.73129   4.74220   4.75459   4.76301
 Alpha virt. eigenvalues --    4.76505   4.77174   4.77464   4.78372   4.78953
 Alpha virt. eigenvalues --    4.80632   4.81011   4.82787   4.83768   4.84911
 Alpha virt. eigenvalues --    4.85193   4.85702   4.86312   4.87593   4.88176
 Alpha virt. eigenvalues --    4.88955   4.90024   4.90640   4.91392   4.92858
 Alpha virt. eigenvalues --    4.93957   4.95447   4.96407   4.97963   4.99295
 Alpha virt. eigenvalues --    4.99804   5.00972   5.02858   5.04186   5.05432
 Alpha virt. eigenvalues --    5.06447   5.07263   5.08022   5.09148   5.10390
 Alpha virt. eigenvalues --    5.10980   5.12741   5.14277   5.15166   5.17072
 Alpha virt. eigenvalues --    5.17586   5.19529   5.20040   5.21753   5.23386
 Alpha virt. eigenvalues --    5.24825   5.26813   5.28671   5.30159   5.31691
 Alpha virt. eigenvalues --    5.32608   5.33404   5.34757   5.38690   5.39159
 Alpha virt. eigenvalues --    5.40108   5.41198   5.44441   5.46417   5.47116
 Alpha virt. eigenvalues --    5.48134   5.51521   5.52437   5.57074   5.58981
 Alpha virt. eigenvalues --    5.59776   5.60041   5.61512   5.64300   5.66616
 Alpha virt. eigenvalues --    5.68845   5.69765   5.73234   5.75057   5.77352
 Alpha virt. eigenvalues --    5.78857   5.80804   5.82026   5.86884   5.91843
 Alpha virt. eigenvalues --    5.98833   6.09232   6.09919   6.14537   6.25066
 Alpha virt. eigenvalues --    6.35429   6.50116   6.91526   7.13716   7.65559
 Alpha virt. eigenvalues --    8.78106  10.25770  10.40684  10.59003  10.89574
 Alpha virt. eigenvalues --   10.94811  11.16260  11.19442  11.33364  11.35685
 Alpha virt. eigenvalues --   11.39812  11.40492  11.51981  11.72890  11.83962
 Alpha virt. eigenvalues --   11.90330  12.13575  12.27546  12.38672  12.53175
 Alpha virt. eigenvalues --   12.64964  13.25319  13.75976  14.14905  17.97996
 Alpha virt. eigenvalues --   20.83378
          Condensed to atoms (all electrons):
               1          2          3          4          5          6
     1  N    6.617433   0.374752  -0.029758   0.000441  -0.000023  -0.000000
     2  C    0.374752   4.837424   0.475685  -0.013663   0.002055  -0.000101
     3  C   -0.029758   0.475685   5.316799   0.254559  -0.041560   0.002511
     4  C    0.000441  -0.013663   0.254559   5.156139   0.547803  -0.113284
     5  N   -0.000023   0.002055  -0.041560   0.547803   6.372312   0.339802
     6  N   -0.000000  -0.000101   0.002511  -0.113284   0.339802   6.474933
     7  C    0.000000   0.000139   0.001953  -0.033536  -0.107870   0.573023
     8  C   -0.000000   0.000002  -0.000050   0.001175   0.002233  -0.041676
     9  C   -0.000000  -0.000000  -0.000013   0.001075   0.001061  -0.013341
    10  C    0.000000   0.000000   0.000003  -0.000536   0.000393   0.001355
    11  C   -0.000000  -0.000001  -0.000017  -0.006861  -0.000001   0.000151
    12  C   -0.000001   0.000239  -0.007121   0.219633  -0.028024  -0.017464
    13  C    0.000000  -0.000006   0.000550  -0.001687  -0.003931  -0.019396
    14  C    0.000000   0.000006   0.000055  -0.000886   0.000254   0.000321
    15  C    0.000002  -0.000398   0.000050   0.003942   0.000111   0.000151
    16  C    0.000003   0.000191  -0.000013  -0.000078  -0.000014  -0.000001
    17  C   -0.000010  -0.000901   0.000190   0.000032  -0.000019   0.000001
    18  C   -0.002193  -0.004506  -0.003804  -0.000179   0.000063  -0.000011
    19  C    0.000019   0.004320  -0.000455  -0.001462  -0.000174   0.000037
    20  C   -0.000059   0.000107  -0.002036  -0.010219  -0.004630  -0.001134
    21  N    0.001368  -0.064717  -0.053958  -0.013894  -0.006765   0.000519
    22  O   -0.032288   0.299734  -0.090481  -0.003738   0.000098  -0.000003
    23  H    0.324749  -0.028529   0.001161  -0.000011  -0.000003   0.000000
    24  H    0.335227  -0.027663   0.000756   0.000000   0.000000  -0.000000
    25  H   -0.002023  -0.066548   0.340162  -0.022344  -0.009284   0.000742
    26  H    0.000000   0.000007   0.000449   0.000888   0.000513  -0.070867
    27  H   -0.000000  -0.000000  -0.000000   0.000036  -0.000022   0.000330
    28  H    0.000000  -0.000000   0.000000   0.000003  -0.000004  -0.000048
    29  H   -0.000000   0.000000  -0.000001   0.000477  -0.000021   0.000048
    30  H    0.000000  -0.000000  -0.000003  -0.000067  -0.000002  -0.000009
    31  H    0.000000   0.000039   0.000018   0.000007   0.000000   0.000000
    32  H    0.000046   0.000136   0.000101   0.000003  -0.000000   0.000000
    33  H    0.006013   0.003009   0.000029  -0.000039   0.000015  -0.000000
    34  H    0.000028   0.001132   0.000555   0.000351   0.003190  -0.000681
               7          8          9         10         11         12
     1  N    0.000000  -0.000000  -0.000000   0.000000  -0.000000  -0.000001
     2  C    0.000139   0.000002  -0.000000   0.000000  -0.000001   0.000239
     3  C    0.001953  -0.000050  -0.000013   0.000003  -0.000017  -0.007121
     4  C   -0.033536   0.001175   0.001075  -0.000536  -0.006861   0.219633
     5  N   -0.107870   0.002233   0.001061   0.000393  -0.000001  -0.028024
     6  N    0.573023  -0.041676  -0.013341   0.001355   0.000151  -0.017464
     7  C    4.964192   0.330436  -0.030774  -0.000964   0.006778  -0.001183
     8  C    0.330436   5.103311   0.503821  -0.024826  -0.053984  -0.003182
     9  C   -0.030774   0.503821   4.834092   0.544237  -0.060930  -0.030595
    10  C   -0.000964  -0.024826   0.544237   4.888910   0.437587  -0.016542
    11  C    0.006778  -0.053984  -0.060930   0.437587   5.253904   0.344065
    12  C   -0.001183  -0.003182  -0.030595  -0.016542   0.344065   5.366058
    13  C   -0.045883   0.388427  -0.014591  -0.018975   0.048488   0.402808
    14  C   -0.003309  -0.034001   0.002439   0.000940  -0.005508  -0.037358
    15  C    0.002641   0.002801   0.000123  -0.000003   0.002686  -0.013753
    16  C    0.000099  -0.000084  -0.000002   0.000001  -0.000010  -0.000220
    17  C   -0.000009   0.000026   0.000000  -0.000000   0.000000   0.000038
    18  C    0.000467  -0.000073   0.000000  -0.000000   0.000001   0.000091
    19  C   -0.001904  -0.001104   0.000085  -0.000002  -0.000022   0.001252
    20  C   -0.002772  -0.001086   0.000177   0.000010  -0.000265   0.004601
    21  N   -0.000180   0.000254   0.000012  -0.000009   0.000446  -0.000561
    22  O   -0.000019  -0.000003   0.000000   0.000000  -0.000001  -0.000037
    23  H   -0.000000   0.000000   0.000000  -0.000000   0.000000   0.000000
    24  H    0.000000   0.000000  -0.000000  -0.000000   0.000000   0.000000
    25  H   -0.000430  -0.000008   0.000003  -0.000000   0.000001   0.000543
    26  H    0.365041  -0.080716   0.004458  -0.000311  -0.000310   0.001273
    27  H    0.005438  -0.045969   0.343566  -0.045744   0.009043  -0.000348
    28  H   -0.000054   0.006724  -0.040013   0.353115  -0.039544   0.002053
    29  H   -0.000160   0.008998   0.002968  -0.043012   0.299008  -0.026892
    30  H   -0.000057   0.003150   0.000054  -0.000236  -0.001269   0.001396
    31  H    0.000001   0.000015   0.000000  -0.000000  -0.000000   0.000172
    32  H    0.000000  -0.000000  -0.000000   0.000000  -0.000000  -0.000002
    33  H   -0.000004   0.000001   0.000000  -0.000000  -0.000000   0.000001
    34  H   -0.000208  -0.000188   0.000001  -0.000000  -0.000001   0.000041
              13         14         15         16         17         18
     1  N    0.000000   0.000000   0.000002   0.000003  -0.000010  -0.002193
     2  C   -0.000006   0.000006  -0.000398   0.000191  -0.000901  -0.004506
     3  C    0.000550   0.000055   0.000050  -0.000013   0.000190  -0.003804
     4  C   -0.001687  -0.000886   0.003942  -0.000078   0.000032  -0.000179
     5  N   -0.003931   0.000254   0.000111  -0.000014  -0.000019   0.000063
     6  N   -0.019396   0.000321   0.000151  -0.000001   0.000001  -0.000011
     7  C   -0.045883  -0.003309   0.002641   0.000099  -0.000009   0.000467
     8  C    0.388427  -0.034001   0.002801  -0.000084   0.000026  -0.000073
     9  C   -0.014591   0.002439   0.000123  -0.000002   0.000000   0.000000
    10  C   -0.018975   0.000940  -0.000003   0.000001  -0.000000  -0.000000
    11  C    0.048488  -0.005508   0.002686  -0.000010   0.000000   0.000001
    12  C    0.402808  -0.037358  -0.013753  -0.000220   0.000038   0.000091
    13  C    4.590314   0.411691  -0.047722   0.003444   0.000156  -0.000190
    14  C    0.411691   5.222960   0.489858  -0.020336  -0.000480   0.001635
    15  C   -0.047722   0.489858   4.744731   0.402148  -0.006723  -0.010999
    16  C    0.003444  -0.020336   0.402148   4.983871   0.619530  -0.021356
    17  C    0.000156  -0.000480  -0.006723   0.619530   4.889470   0.435768
    18  C   -0.000190   0.001635  -0.010999  -0.021356   0.435768   4.926281
    19  C   -0.001211   0.003157  -0.044981  -0.013532  -0.031010   0.576025
    20  C    0.020772  -0.033687   0.361365  -0.090415  -0.056323  -0.076651
    21  N   -0.009055   0.000530  -0.053502  -0.010805  -0.037679  -0.016686
    22  O    0.000126   0.000199   0.004785  -0.004023  -0.006561   0.009859
    23  H   -0.000000  -0.000000  -0.000000   0.000000   0.000008   0.000191
    24  H   -0.000000   0.000000  -0.000000  -0.000000  -0.000005   0.000024
    25  H   -0.000067  -0.000015   0.000126  -0.000006   0.000070   0.000848
    26  H   -0.001167  -0.000502   0.000522   0.000016  -0.000020   0.000591
    27  H    0.005244  -0.000159   0.000010  -0.000000  -0.000000   0.000000
    28  H    0.000446   0.000002   0.000000  -0.000000  -0.000000   0.000000
    29  H   -0.005234   0.000595   0.000056  -0.000002   0.000000   0.000000
    30  H   -0.029353   0.334947  -0.024812  -0.007418   0.000263   0.000017
    31  H    0.000073  -0.010783  -0.033015   0.354869  -0.028368   0.003389
    32  H    0.000007  -0.000257   0.003026  -0.034886   0.362478  -0.040909
    33  H   -0.000009  -0.000010  -0.000738   0.004188  -0.035094   0.358555
    34  H   -0.000240  -0.000426   0.002988  -0.000339   0.003537  -0.026882
              19         20         21         22         23         24
     1  N    0.000019  -0.000059   0.001368  -0.032288   0.324749   0.335227
     2  C    0.004320   0.000107  -0.064717   0.299734  -0.028529  -0.027663
     3  C   -0.000455  -0.002036  -0.053958  -0.090481   0.001161   0.000756
     4  C   -0.001462  -0.010219  -0.013894  -0.003738  -0.000011   0.000000
     5  N   -0.000174  -0.004630  -0.006765   0.000098  -0.000003   0.000000
     6  N    0.000037  -0.001134   0.000519  -0.000003   0.000000  -0.000000
     7  C   -0.001904  -0.002772  -0.000180  -0.000019  -0.000000   0.000000
     8  C   -0.001104  -0.001086   0.000254  -0.000003   0.000000   0.000000
     9  C    0.000085   0.000177   0.000012   0.000000   0.000000  -0.000000
    10  C   -0.000002   0.000010  -0.000009   0.000000  -0.000000  -0.000000
    11  C   -0.000022  -0.000265   0.000446  -0.000001   0.000000   0.000000
    12  C    0.001252   0.004601  -0.000561  -0.000037   0.000000   0.000000
    13  C   -0.001211   0.020772  -0.009055   0.000126  -0.000000  -0.000000
    14  C    0.003157  -0.033687   0.000530   0.000199  -0.000000   0.000000
    15  C   -0.044981   0.361365  -0.053502   0.004785  -0.000000  -0.000000
    16  C   -0.013532  -0.090415  -0.010805  -0.004023   0.000000  -0.000000
    17  C   -0.031010  -0.056323  -0.037679  -0.006561   0.000008  -0.000005
    18  C    0.576025  -0.076651  -0.016686   0.009859   0.000191   0.000024
    19  C    5.166807   0.354337  -0.040400  -0.012223  -0.000038   0.000001
    20  C    0.354337   4.874151   0.517336  -0.057487  -0.000011   0.000002
    21  N   -0.040400   0.517336   6.693740   0.191743  -0.000021  -0.000072
    22  O   -0.012223  -0.057487   0.191743   7.906460   0.002435   0.000951
    23  H   -0.000038  -0.000011  -0.000021   0.002435   0.478687  -0.040649
    24  H    0.000001   0.000002  -0.000072   0.000951  -0.040649   0.467724
    25  H    0.002873  -0.001107   0.005119   0.004938   0.002654  -0.000097
    26  H    0.003662  -0.002303  -0.000252   0.000005  -0.000000  -0.000000
    27  H   -0.000001   0.000001   0.000000   0.000000   0.000000  -0.000000
    28  H   -0.000000   0.000000   0.000000  -0.000000  -0.000000  -0.000000
    29  H   -0.000000   0.000015  -0.000006   0.000000   0.000000  -0.000000
    30  H   -0.000218   0.005808  -0.000341   0.000009  -0.000000  -0.000000
    31  H    0.000228   0.004956   0.002638   0.000087  -0.000000   0.000000
    32  H    0.003630   0.001529  -0.001220   0.004905  -0.000005   0.000001
    33  H   -0.050670   0.008194   0.000058   0.001314  -0.000132  -0.000041
    34  H    0.350916  -0.046585  -0.001852  -0.000599  -0.000049  -0.000000
              25         26         27         28         29         30
     1  N   -0.002023   0.000000  -0.000000   0.000000  -0.000000   0.000000
     2  C   -0.066548   0.000007  -0.000000  -0.000000   0.000000  -0.000000
     3  C    0.340162   0.000449  -0.000000   0.000000  -0.000001  -0.000003
     4  C   -0.022344   0.000888   0.000036   0.000003   0.000477  -0.000067
     5  N   -0.009284   0.000513  -0.000022  -0.000004  -0.000021  -0.000002
     6  N    0.000742  -0.070867   0.000330  -0.000048   0.000048  -0.000009
     7  C   -0.000430   0.365041   0.005438  -0.000054  -0.000160  -0.000057
     8  C   -0.000008  -0.080716  -0.045969   0.006724   0.008998   0.003150
     9  C    0.000003   0.004458   0.343566  -0.040013   0.002968   0.000054
    10  C   -0.000000  -0.000311  -0.045744   0.353115  -0.043012  -0.000236
    11  C    0.000001  -0.000310   0.009043  -0.039544   0.299008  -0.001269
    12  C    0.000543   0.001273  -0.000348   0.002053  -0.026892   0.001396
    13  C   -0.000067  -0.001167   0.005244   0.000446  -0.005234  -0.029353
    14  C   -0.000015  -0.000502  -0.000159   0.000002   0.000595   0.334947
    15  C    0.000126   0.000522   0.000010   0.000000   0.000056  -0.024812
    16  C   -0.000006   0.000016  -0.000000  -0.000000  -0.000002  -0.007418
    17  C    0.000070  -0.000020  -0.000000  -0.000000   0.000000   0.000263
    18  C    0.000848   0.000591   0.000000   0.000000   0.000000   0.000017
    19  C    0.002873   0.003662  -0.000001  -0.000000  -0.000000  -0.000218
    20  C   -0.001107  -0.002303   0.000001   0.000000   0.000015   0.005808
    21  N    0.005119  -0.000252   0.000000   0.000000  -0.000006  -0.000341
    22  O    0.004938   0.000005   0.000000  -0.000000   0.000000   0.000009
    23  H    0.002654  -0.000000   0.000000  -0.000000   0.000000  -0.000000
    24  H   -0.000097  -0.000000  -0.000000  -0.000000  -0.000000  -0.000000
    25  H    0.600410  -0.000222   0.000000  -0.000000   0.000000   0.000000
    26  H   -0.000222   0.673601   0.000929   0.000013   0.000020  -0.000008
    27  H    0.000000   0.000929   0.619516  -0.002617  -0.000301  -0.000002
    28  H   -0.000000   0.000013  -0.002617   0.591568   0.003561  -0.000006
    29  H    0.000000   0.000020  -0.000301   0.003561   0.612283   0.001471
    30  H    0.000000  -0.000008  -0.000002  -0.000006   0.001471   0.584122
    31  H    0.000000   0.000000  -0.000000  -0.000000   0.000000   0.003244
    32  H   -0.000011  -0.000000  -0.000000   0.000000   0.000000  -0.000002
    33  H   -0.000627   0.000014   0.000000  -0.000000  -0.000000  -0.000001
    34  H    0.003063   0.003949   0.000000   0.000000   0.000000   0.000005
              31         32         33         34
     1  N    0.000000   0.000046   0.006013   0.000028
     2  C    0.000039   0.000136   0.003009   0.001132
     3  C    0.000018   0.000101   0.000029   0.000555
     4  C    0.000007   0.000003  -0.000039   0.000351
     5  N    0.000000  -0.000000   0.000015   0.003190
     6  N    0.000000   0.000000  -0.000000  -0.000681
     7  C    0.000001   0.000000  -0.000004  -0.000208
     8  C    0.000015  -0.000000   0.000001  -0.000188
     9  C    0.000000  -0.000000   0.000000   0.000001
    10  C   -0.000000   0.000000  -0.000000  -0.000000
    11  C   -0.000000  -0.000000  -0.000000  -0.000001
    12  C    0.000172  -0.000002   0.000001   0.000041
    13  C    0.000073   0.000007  -0.000009  -0.000240
    14  C   -0.010783  -0.000257  -0.000010  -0.000426
    15  C   -0.033015   0.003026  -0.000738   0.002988
    16  C    0.354869  -0.034886   0.004188  -0.000339
    17  C   -0.028368   0.362478  -0.035094   0.003537
    18  C    0.003389  -0.040909   0.358555  -0.026882
    19  C    0.000228   0.003630  -0.050670   0.350916
    20  C    0.004956   0.001529   0.008194  -0.046585
    21  N    0.002638  -0.001220   0.000058  -0.001852
    22  O    0.000087   0.004905   0.001314  -0.000599
    23  H   -0.000000  -0.000005  -0.000132  -0.000049
    24  H    0.000000   0.000001  -0.000041  -0.000000
    25  H    0.000000  -0.000011  -0.000627   0.003063
    26  H    0.000000  -0.000000   0.000014   0.003949
    27  H   -0.000000  -0.000000   0.000000   0.000000
    28  H   -0.000000   0.000000  -0.000000   0.000000
    29  H    0.000000   0.000000  -0.000000   0.000000
    30  H    0.003244  -0.000002  -0.000001   0.000005
    31  H    0.565995  -0.004732  -0.000146   0.000029
    32  H   -0.004732   0.582880  -0.002918  -0.000145
    33  H   -0.000146  -0.002918   0.566368  -0.009241
    34  H    0.000029  -0.000145  -0.009241   0.591037
 Mulliken charges:
               1
     1  N   -0.593728
     2  C    0.208057
     3  C   -0.166317
     4  C    0.035920
     5  N   -0.067559
     6  N   -0.115908
     7  C   -0.020891
     8  C   -0.064425
     9  C   -0.047915
    10  C   -0.075392
    11  C   -0.233435
    12  C   -0.160985
    13  C    0.326169
    14  C   -0.321874
    15  C    0.214524
    16  C   -0.164820
    17  C   -0.108365
    18  C   -0.109366
    19  C   -0.267941
    20  C    0.233412
    21  N   -0.101789
    22  O   -0.220186
    23  H    0.259561
    24  H    0.263840
    25  H    0.141239
    26  H    0.100726
    27  H    0.111050
    28  H    0.124800
    29  H    0.146129
    30  H    0.129318
    31  H    0.141282
    32  H    0.126345
    33  H    0.151912
    34  H    0.126613
 Sum of Mulliken charges =  -0.00000
 Mulliken charges with hydrogens summed into heavy atoms:
               1
     1  N   -0.070327
     2  C    0.208057
     3  C   -0.025079
     4  C    0.035920
     5  N   -0.067559
     6  N   -0.115908
     7  C    0.079836
     8  C   -0.064425
     9  C    0.063135
    10  C    0.049407
    11  C   -0.087306
    12  C   -0.160985
    13  C    0.326169
    14  C   -0.192556
    15  C    0.214524
    16  C   -0.023537
    17  C    0.017979
    18  C    0.042545
    19  C   -0.141328
    20  C    0.233412
    21  N   -0.101789
    22  O   -0.220186
 Electronic spatial extent (au):  <R**2>=           4969.1924
 Charge=             -0.0000 electrons
 Dipole moment (field-independent basis, Debye):
    X=             -1.1061    Y=              0.8829    Z=              1.9114  Tot=              2.3783
 Quadrupole moment (field-independent basis, Debye-Ang):
   XX=           -101.0113   YY=           -127.9975   ZZ=           -125.6700
   XY=             13.5459   XZ=              0.6691   YZ=             -8.3437
 Traceless Quadrupole moment (field-independent basis, Debye-Ang):
   XX=             17.2150   YY=             -9.7713   ZZ=             -7.4437
   XY=             13.5459   XZ=              0.6691   YZ=             -8.3437
 Octapole moment (field-independent basis, Debye-Ang**2):
  XXX=            -42.6463  YYY=             -1.5005  ZZZ=             11.3246  XYY=            -37.9825
  XXY=            -53.4792  XXZ=             -2.0327  XZZ=            -13.6579  YZZ=             -6.3408
  YYZ=            -12.3278  XYZ=             -2.1857
 Hexadecapole moment (field-independent basis, Debye-Ang**3):
 XXXX=          -3568.3190 YYYY=          -1810.4003 ZZZZ=           -787.2016 XXXY=            283.2339
 XXXZ=             58.5228 YYYX=            122.9312 YYYZ=            -68.5143 ZZZX=             59.8397
 ZZZY=            -44.5202 XXYY=           -881.2894 XXZZ=           -828.5394 YYZZ=           -404.1415
 XXYZ=            -41.8621 YYXZ=             -0.2764 ZZXY=             25.6113
 N-N= 1.775155804689D+03 E-N=-5.755486426350D+03  KE= 9.408065056885D+02
 PrsmSu:  requested number of processors reduced to:  12 ShMem   1 Linda.
 Calling FoFJK, ICntrl=      2127 FMM=F ISym2X=0 I1Cent= 0 IOpClX= 0 NMat=1 NMatS=1 NMatT=0.
 ***** Axes restored to original set *****
 -------------------------------------------------------------------
 Center     Atomic                   Forces (Hartrees/Bohr)
 Number     Number              X              Y              Z
 -------------------------------------------------------------------
      1        7           0.031967618    0.013949189    0.003476278
      2        6           0.029418734   -0.045652337   -0.010696700
      3        6          -0.062918540    0.007765849   -0.011433677
      4        6          -0.063710426   -0.001517260   -0.026746772
      5        7           0.010385753    0.031933080    0.013087514
      6        7           0.041426109   -0.011827436    0.003712055
      7        6          -0.016018741   -0.050080930    0.001974319
      8        6           0.003423853   -0.011433887   -0.077327029
      9        6          -0.003182910   -0.017074968   -0.008760008
     10        6          -0.009995877    0.015424728    0.005017418
     11        6           0.025701413   -0.027130995    0.038276822
     12        6          -0.000694990    0.021778682   -0.045494718
     13        6           0.044846801   -0.010820874    0.046015047
     14        6          -0.012902649    0.007843694    0.005581663
     15        6           0.011248709    0.029512203   -0.003435878
     16        6          -0.038914230   -0.005121419    0.012226226
     17        6           0.000486198    0.000411162   -0.013110672
     18        6          -0.010677455    0.016809619    0.033940784
     19        6          -0.003160323    0.031394080   -0.015053489
     20        6           0.010712567    0.003193029    0.008252766
     21        7           0.014916225   -0.008884793    0.019087651
     22        8          -0.011099795    0.013135618    0.005637970
     23        1           0.032116849   -0.002668013   -0.005396547
     24        1           0.033509490   -0.011990620   -0.003627290
     25        1           0.011500451    0.026209205   -0.038552692
     26        1          -0.019616303    0.013185621    0.007693466
     27        1           0.003911598   -0.010445552    0.007336363
     28        1          -0.006307137    0.013706805    0.009610344
     29        1          -0.029184334    0.050706814   -0.016174691
     30        1          -0.000990151   -0.016768482   -0.007261170
     31        1          -0.004195393   -0.022048700    0.014384159
     32        1           0.001008570   -0.011283432    0.008528186
     33        1          -0.005426697   -0.026164905    0.025605073
     34        1          -0.007584986   -0.006044773    0.013627228
 -------------------------------------------------------------------
 Cartesian Forces:  Max     0.077327029 RMS     0.023244094

 GradGradGradGradGradGradGradGradGradGradGradGradGradGradGradGradGradGrad
 Berny optimization.
 FormGI is forming the generalized inverse of G from B-inverse, IUseBI=4.
 Internal  Forces:  Max     0.134260328 RMS     0.045216714
 Search for a local minimum.
 Step number   1 out of a maximum of  166
 All quantities printed in internal units (Hartrees-Bohrs-Radians)
 Mixed Optimization -- RFO/linear search
 Second derivative matrix not updated -- first step.
 ITU=  0
     Eigenvalues ---    0.00230   0.00230   0.01034   0.01054   0.01100
     Eigenvalues ---    0.01110   0.01554   0.01602   0.01638   0.01648
     Eigenvalues ---    0.01786   0.01796   0.01891   0.01961   0.01985
     Eigenvalues ---    0.02110   0.02259   0.02267   0.02486   0.02515
     Eigenvalues ---    0.02559   0.02574   0.02881   0.02921   0.02927
     Eigenvalues ---    0.03083   0.03130   0.03947   0.04308   0.05221
     Eigenvalues ---    0.05734   0.09489   0.12104   0.12667   0.13239
     Eigenvalues ---    0.14630   0.14695   0.14733   0.15689   0.15881
     Eigenvalues ---    0.15885   0.16000   0.16000   0.16000   0.16881
     Eigenvalues ---    0.18099   0.19038   0.19903   0.21841   0.22033
     Eigenvalues ---    0.22046   0.22067   0.22218   0.22430   0.22458
     Eigenvalues ---    0.22556   0.23491   0.23938   0.25000   0.25000
     Eigenvalues ---    0.25000   0.25000   0.25000   0.25020   0.25260
     Eigenvalues ---    0.31139   0.31498   0.32851   0.32972   0.33059
     Eigenvalues ---    0.33164   0.33243   0.33441   0.33731   0.34619
     Eigenvalues ---    0.34778   0.34840   0.35074   0.35178   0.35877
     Eigenvalues ---    0.36136   0.37149   0.39902   0.40514   0.41732
     Eigenvalues ---    0.41782   0.43936   0.46242   0.50847   0.53123
     Eigenvalues ---    0.53208   0.57173   0.57711   0.60342   0.61761
     Eigenvalues ---    0.69682
 RFO step:  Lambda=-5.03302054D-01 EMin= 2.30000000D-03
 Linear search not attempted -- first point.
 Maximum step size (   0.300) exceeded in Quadratic search.
    -- Step size scaled by   0.537
 Iteration  1 RMS(Cart)=  0.28767218 RMS(Int)=  0.01908030
 Iteration  2 RMS(Cart)=  0.17889705 RMS(Int)=  0.00480475
 Iteration  3 RMS(Cart)=  0.00948394 RMS(Int)=  0.00025297
 Iteration  4 RMS(Cart)=  0.00002945 RMS(Int)=  0.00025254
 Iteration  5 RMS(Cart)=  0.00000000 RMS(Int)=  0.00025254
 Variable       Old X    -DE/DX   Delta X   Delta X   Delta X     New X
                                 (Linear)    (Quad)   (Total)
    R1        2.98553  -0.09722   0.00000  -0.06907  -0.06907   2.91646
    R2        1.95902  -0.01662   0.00000  -0.00969  -0.00969   1.94933
    R3        1.98386  -0.02750   0.00000  -0.01636  -0.01636   1.96750
    R4        2.70861   0.00283   0.00000   0.00167   0.00167   2.71029
    R5        2.66532   0.00418   0.00000   0.00238   0.00238   2.66770
    R6        2.12447  -0.01479   0.00000  -0.00975  -0.00975   2.11472
    R7        2.49573  -0.04337   0.00000  -0.02078  -0.02078   2.47496
    R8        2.50671   0.05085   0.00000   0.02467   0.02467   2.53138
    R9        2.44012   0.02218   0.00000   0.00992   0.00992   2.45004
   R10        2.78686   0.04017   0.00000   0.02523   0.02523   2.81209
   R11        2.05935   0.00703   0.00000   0.00443   0.00443   2.06378
   R12        2.67651   0.00863   0.00000   0.00540   0.00545   2.68197
   R13        2.74027   0.06439   0.00000   0.03918   0.03920   2.77947
   R14        2.56457   0.04012   0.00000   0.02096   0.02097   2.58554
   R15        2.06297  -0.00076   0.00000  -0.00048  -0.00048   2.06250
   R16        2.78395  -0.01152   0.00000  -0.00763  -0.00773   2.77623
   R17        2.08627  -0.01155   0.00000  -0.00742  -0.00742   2.07885
   R18        3.06470  -0.05410   0.00000  -0.04080  -0.04095   3.02375
   R19        2.29907  -0.04366   0.00000  -0.03176  -0.03176   2.26731
   R20        2.54887   0.05162   0.00000   0.02656   0.02674   2.57561
   R21        2.79337   0.04320   0.00000   0.02726   0.02726   2.82063
   R22        2.53250  -0.01498   0.00000  -0.00748  -0.00748   2.52502
   R23        2.08949  -0.01164   0.00000  -0.00750  -0.00750   2.08199
   R24        2.75561   0.03078   0.00000   0.01916   0.01920   2.77481
   R25        2.82392  -0.06227   0.00000  -0.03911  -0.03923   2.78469
   R26        2.61997  -0.00416   0.00000  -0.00334  -0.00326   2.61672
   R27        2.09313  -0.01333   0.00000  -0.00860  -0.00860   2.08453
   R28        2.98303  -0.00836   0.00000  -0.00747  -0.00743   2.97560
   R29        2.05554  -0.00285   0.00000  -0.00179  -0.00179   2.05375
   R30        2.55109   0.05476   0.00000   0.02779   0.02775   2.57884
   R31        2.08764  -0.00819   0.00000  -0.00527  -0.00527   2.08237
   R32        2.74878   0.01476   0.00000   0.01046   0.01044   2.75921
   R33        2.07786  -0.00866   0.00000  -0.00553  -0.00553   2.07233
   R34        2.52799  -0.02209   0.00000  -0.01098  -0.01098   2.51701
   R35        2.82401  -0.07625   0.00000  -0.04915  -0.04915   2.77486
    A1        2.17731  -0.03150   0.00000  -0.02601  -0.02616   2.15115
    A2        2.08814  -0.02052   0.00000  -0.01714  -0.01730   2.07084
    A3        1.74355   0.03183   0.00000   0.02508   0.02486   1.76841
    A4        2.34542  -0.04819   0.00000  -0.03320  -0.03330   2.31212
    A5        1.99375  -0.05484   0.00000  -0.03684  -0.03678   1.95698
    A6        1.77675   0.11690   0.00000   0.08755   0.08772   1.86447
    A7        1.62960   0.07104   0.00000   0.05751   0.05751   1.68711
    A8        1.95723   0.13426   0.00000   0.09571   0.09571   2.05294
    A9        1.95078   0.07772   0.00000   0.05540   0.05540   2.00618
   A10        2.03005   0.03539   0.00000   0.02687   0.02629   2.05634
   A11        2.21767  -0.03349   0.00000  -0.02519  -0.02582   2.19186
   A12        2.02126   0.00777   0.00000   0.00813   0.00758   2.02884
   A13        1.78979  -0.03772   0.00000  -0.02453  -0.02394   1.76584
   A14        1.87633   0.10885   0.00000   0.08627   0.08630   1.96263
   A15        2.13225  -0.04383   0.00000  -0.03305  -0.03298   2.09927
   A16        2.01441   0.00675   0.00000   0.00561   0.00562   2.02003
   A17        2.12737  -0.01175   0.00000  -0.00945  -0.00956   2.11780
   A18        2.08341   0.00549   0.00000   0.00440   0.00450   2.08791
   A19        1.94175   0.03256   0.00000   0.02362   0.02351   1.96526
   A20        2.08660  -0.00037   0.00000   0.00111   0.00119   2.08779
   A21        2.24898  -0.03233   0.00000  -0.02480  -0.02477   2.22420
   A22        2.24590  -0.01777   0.00000  -0.01442  -0.01462   2.23128
   A23        1.55406   0.03756   0.00000   0.03330   0.03342   1.58748
   A24        2.00090  -0.01212   0.00000  -0.00915  -0.00910   1.99180
   A25        1.57273   0.02830   0.00000   0.02037   0.02034   1.59307
   A26        2.00119  -0.00749   0.00000  -0.00318  -0.00323   1.99796
   A27        2.19966  -0.04267   0.00000  -0.03149  -0.03146   2.16820
   A28        2.08231   0.05014   0.00000   0.03465   0.03467   2.11698
   A29        1.90914  -0.02395   0.00000  -0.01831  -0.01838   1.89076
   A30        2.12481   0.03689   0.00000   0.02899   0.02875   2.15356
   A31        2.13661  -0.02360   0.00000  -0.02118  -0.02111   2.11549
   A32        2.26309   0.05963   0.00000   0.04329   0.04323   2.30633
   A33        2.02219  -0.10772   0.00000  -0.08461  -0.08388   1.93831
   A34        1.72746   0.03398   0.00000   0.02576   0.02594   1.75340
[...]
   D28       -0.20682   0.01032  -0.00195   0.00243   0.00088  -0.20594
   D29        2.21602   0.04501  -0.01992   0.04008   0.01992   2.23595
   D30        2.97650  -0.02377   0.00012  -0.00031   0.00010   2.97660
   D31       -0.88385   0.01092  -0.01785   0.03734   0.01915  -0.86470
   D32        0.96228   0.04148  -0.00204  -0.02342  -0.02526   0.93702
   D33       -1.47514  -0.00170   0.02581  -0.04879  -0.02347  -1.49861
   D34       -1.21974  -0.00796   0.00270   0.03809   0.04017  -1.17957
   D35        1.98957   0.03962   0.00445   0.04802   0.05186   2.04143
   D36       -1.55310   0.12715   0.01852   0.04119   0.05982  -1.49328
   D37        1.97657   0.16181   0.01057   0.00128   0.01160   1.98817
   D38        1.51206   0.06507   0.01716   0.03007   0.04747   1.55953
   D39       -1.24145   0.09973   0.00920  -0.00985  -0.00076  -1.24221
   D40       -2.72689   0.15464  -0.00114  -0.03315  -0.03434  -2.76123
   D41       -0.26571   0.23003  -0.01530  -0.03542  -0.05041  -0.31612
   D42        0.01556   0.09463   0.01116   0.01082   0.02167   0.03723
   D43        2.47674   0.17003  -0.00300   0.00855   0.00559   2.48233
   D44        3.13950   0.01630  -0.01776   0.00472  -0.01249   3.12701
   D45        0.35811   0.02396  -0.00425  -0.01070  -0.01457   0.34354
   D46        0.59747  -0.02772   0.00325  -0.00913  -0.00571   0.59176
   D47       -2.18392  -0.02006   0.01677  -0.02455  -0.00779  -2.19171
   D48        2.57242   0.01576  -0.02260   0.03413   0.01228   2.58470
   D49       -1.12070   0.08625  -0.01172   0.04715   0.03603  -1.08467
   D50       -1.08829   0.04666  -0.01904   0.00315  -0.01598  -1.10426
   D51        1.50178   0.11715  -0.00817   0.01617   0.00777   1.50955
   D52       -0.03325   0.03837  -0.00245   0.00097  -0.00144  -0.03469
   D53       -2.85909   0.01292   0.01332  -0.01222   0.00092  -2.85817
   D54        2.73942   0.02838  -0.01714   0.01543  -0.00145   2.73797
   D55       -0.08642   0.00293  -0.00137   0.00223   0.00091  -0.08551
   D56       -0.13996   0.01384   0.00326  -0.00090   0.00221  -0.13775
   D57       -2.85019  -0.03213   0.01943  -0.01833   0.00090  -2.84929
   D58        2.70056   0.03615  -0.01059   0.01072   0.00008   2.70064
   D59       -0.00967  -0.00983   0.00558  -0.00671  -0.00123  -0.01090
   D60       -0.33481  -0.04168  -0.00097   0.00915   0.00802  -0.32680
   D61       -2.92667  -0.06472   0.01231  -0.00952   0.00295  -2.92372
   D62        2.36534   0.00916  -0.01623   0.03258   0.01602   2.38135
   D63       -0.22652  -0.01388  -0.00296   0.01392   0.01095  -0.21557
   D64        0.99823  -0.01661   0.01401  -0.01234   0.00190   1.00013
   D65       -1.51940  -0.13234   0.02270  -0.04013  -0.01716  -1.53657
   D66       -2.65993   0.01863   0.00030   0.00586   0.00616  -2.65377
   D67        1.10561  -0.09710   0.00899  -0.02193  -0.01290   1.09272
   D68       -2.60553  -0.08544   0.00193   0.03345   0.03520  -2.57032
   D69       -0.08502  -0.01905   0.00543   0.06100   0.06660  -0.01842
   D70       -2.18428   0.30406   0.07056   0.09712   0.16769  -2.01660
         Item               Value     Threshold  Converged?
 Maximum Force            0.304060     0.000450     NO 
 RMS     Force            0.065219     0.000300     NO 
 Maximum Displacement     0.776927     0.001800     NO 
 RMS     Displacement     0.171277     0.001200     NO 
 Predicted change in Energy=-8.236715D-02
 GradGradGradGradGradGradGradGradGradGradGradGradGradGradGradGradGradGrad

                          Input orientation:                          
 ---------------------------------------------------------------------
 Center     Atomic      Atomic             Coordinates (Angstroms)
 Number     Number       Type             X           Y           Z
 ---------------------------------------------------------------------
      1          7           0        2.648080    0.129764   -0.290946
      2          6           0        3.995500   -0.249372   -0.580636
      3          6           0        4.522495   -0.261835   -1.845859
      4          6           0        5.901137   -0.998395   -2.196171
      5          7           0        6.029106   -1.782516   -3.135565
      6          7           0        7.152871   -2.573318   -3.238577
      7          6           0        7.305845   -3.645574   -2.546387
      8          6           0        8.634865   -3.583591   -1.855881
      9          6           0        9.718339   -3.530621   -2.777310
     10          6           0       10.473008   -2.379303   -2.704224
     11          6           0        9.889828   -1.334101   -1.915283
     12          6           0        8.491148   -1.282048   -1.396863
     13          6           0        8.535571   -2.505293   -0.779277
     14          6           0        8.411212   -2.840784    0.645811
     15          6           0        7.219494   -3.095613    1.223614
     16          6           0        6.871807   -3.008362    2.665202
     17          6           0        5.601377   -3.290545    3.055722
     18          6           0        4.525874   -3.641949    2.112492
     19          6           0        4.766942   -3.530057    0.776608
     20          6           0        5.931301   -2.651651    0.539516
     21          7           0        5.870960   -1.363610    0.411015
     22          8           0        4.538621   -0.846361    0.497058
     23          1           0        2.024122    0.021843   -1.080874
     24          1           0        2.533221    1.070892    0.077981
     25          1           0        3.767313   -0.356902   -2.627844
     26          1           0        6.523494   -4.388516   -2.348614
     27          1           0        9.740561   -4.185075   -3.646962
     28          1           0       11.450681   -2.271054   -3.167402
     29          1           0       10.615073   -0.967864   -1.163431
     30          1           0        9.246515   -2.566012    1.293910
     31          1           0        7.520415   -2.409180    3.299826
     32          1           0        5.258194   -2.983986    4.040411
     33          1           0        3.498757   -3.580393    2.465075
     34          1           0        3.990413   -3.575360    0.018186
 ---------------------------------------------------------------------
                    Distance matrix (angstroms):
                    1          2          3          4          5
     1  N    0.000000
     2  C    1.429408   0.000000
     3  C    2.466686   1.370646   0.000000
     4  C    3.935100   2.608149   1.601841   0.000000
     5  N    4.814562   3.607457   2.499137   1.230318   0.000000
     6  N    6.023979   4.736493   3.768487   2.265796   1.377979
     7  C    6.405854   5.133882   4.437056   3.017186   2.334133
     8  C    7.216622   5.853800   5.286374   3.777870   3.416349
     9  C    8.340803   6.952903   6.208813   4.617459   4.098129
    10  C    8.564393   7.141732   6.374093   4.802814   4.504495
    11  C    7.564674   6.140115   5.473832   4.012636   4.073738
    12  C    6.112096   4.684388   4.122213   2.725345   3.055356
    13  C    6.468736   5.073547   4.719691   3.349414   3.515233
    14  C    6.550982   5.264798   5.289756   4.215654   4.592729
    15  C    5.796101   4.663747   4.972501   4.222715   4.705708
    16  C    6.035439   5.140100   5.780342   5.349310   5.988467
    17  C    5.623226   5.005064   5.861960   5.738135   6.386637
    18  C    4.850613   4.363921   5.205164   5.238731   5.767087
    19  C    4.361598   3.633197   4.197424   4.066095   4.466772
    20  C    4.382406   3.282226   3.658685   3.196584   3.777721
    21  N    3.620756   2.396298   2.850570   2.632815   3.574733
    22  O    2.268903   1.346402   2.414786   3.022093   4.036568
    23  H    1.012401   2.051859   2.628221   4.161252   4.849470
    24  H    1.017361   2.077290   3.071569   4.560327   5.539858
    25  H    2.636402   2.062691   1.091255   2.269595   2.721372
    26  H    6.298229   5.162268   4.613703   3.450143   2.766757
    27  H    8.954550   7.609063   6.772296   5.196239   4.450698
    28  H    9.566803   8.146059   7.333703   5.775845   5.443635
    29  H    8.089438   6.683908   6.171199   4.825834   5.058069
    30  H    7.301940   6.037706   6.122397   5.082287   5.530446
    31  H    6.563500   5.669901   6.330615   5.900708   6.635583
    32  H    5.938753   5.516029   6.526832   6.576541   7.316587
    33  H    4.699423   4.540794   5.535795   5.845115   6.403295
    34  H    3.952894   3.379469   3.838910   3.898076   4.161334
                    6          7          8          9         10
     6  N    0.000000
     7  C    1.285403   0.000000
     8  C    2.264687   1.498978   0.000000
     9  C    2.776837   2.426246   1.423290   0.000000
    10  C    3.368454   3.414568   2.355582   1.378549   0.000000
    11  C    3.282941   3.523942   2.576561   2.365840   1.433519
    12  C    2.617303   2.883159   2.351266   2.909934   2.615517
    13  C    2.822170   2.436215   1.526978   2.538184   2.734037
    14  C    4.091874   3.472701   2.619207   3.728568   3.960645
    15  C    4.493149   3.810882   3.424133   4.737178   5.150375
    16  C    5.926455   5.268310   4.886661   6.164125   6.495776
    17  C    6.522250   5.866420   5.780291   7.143618   7.598692
    18  C    6.056156   5.425256   5.712722   7.133320   7.756509
    19  C    4.767570   4.183500   4.679070   6.094807   6.782302
    20  C    3.971443   3.521371   3.730375   5.110341   5.587766
    21  N    4.052927   4.001560   4.207886   5.446438   5.649353
    22  O    4.875618   4.975508   5.459667   6.690009   6.914844
    23  H    6.139594   6.595019   7.569789   8.642851   8.932213
    24  H    6.754332   7.204880   7.914171   8.997363   9.093115
    25  H    4.092371   4.831480   5.890714   6.746076   7.004447
    26  H    2.117332   1.096882   2.312699   3.335686   4.445453
    27  H    3.075821   2.725833   2.189136   1.088622   2.164727
    28  H    4.309014   4.410741   3.372190   2.177083   1.087243
    29  H    4.344026   4.475901   3.353020   3.158554   2.094371
    30  H    4.992679   4.436163   3.366121   4.210455   4.186195
    31  H    6.550782   5.979374   5.403939   6.558970   6.690838
    32  H    7.532736   6.929392   6.821121   8.165355   8.546931
    33  H    6.848241   6.293880   6.711950   8.134389   8.763815
    34  H    4.648843   4.192142   5.008306   6.373848   7.132048
                   11         12         13         14         15
    11  C    0.000000
    12  C    1.492573   0.000000
    13  C    2.120427   1.371027   0.000000
    14  C    3.318976   2.570713   1.469318   0.000000
    15  C    4.481772   3.431184   2.468220   1.348697   0.000000
    16  C    5.735193   4.701361   3.858189   2.544757   1.485488
    17  C    6.850502   5.675416   4.892170   3.728958   2.452126
    18  C    7.093739   5.797249   5.072670   4.229523   2.888628
    19  C    6.189706   4.862842   4.203984   3.711187   2.530527
    20  C    4.840652   3.489727   2.922817   2.489383   1.524642
    21  N    4.643687   3.184409   3.133750   2.947889   2.340662
    22  O    5.890050   4.404456   4.511839   4.358533   3.574087
    23  H    8.025219   6.604726   6.991162   7.209091   6.482367
    24  H    7.992294   6.573309   7.039333   7.083390   6.374433
    25  H    6.240821   4.968483   5.546987   6.200990   5.852505
    26  H    4.566118   3.798373   3.171403   3.863357   3.862230
    27  H    3.339019   3.879632   3.535150   4.690649   5.591531
    28  H    2.209513   3.587726   3.775696   4.909538   6.153362
    29  H    1.106974   2.159690   2.614496   3.411480   4.664253
    30  H    3.497196   3.075615   2.192540   1.092366   2.096242
    31  H    5.828145   4.926625   4.204624   2.832595   2.207351
    32  H    7.722981   6.550765   5.848054   4.635227   3.434167
    33  H    8.067165   6.717211   6.086966   5.290459   3.952230
    34  H    6.600352   5.245785   4.737030   4.525149   3.479968
                   16         17         18         19         20
    16  C    0.000000
    17  C    1.358722   0.000000
    18  C    2.492052   1.473049   0.000000
    19  C    2.875658   2.438853   1.362064   0.000000
    20  C    2.351667   2.616931   2.330272   1.477681   0.000000
    21  N    2.964501   3.283326   3.145649   2.458863   1.295841
    22  O    3.849526   3.694624   3.228793   2.707859   2.280445
    23  H    6.834858   6.393754   5.466235   4.856881   5.003926
    24  H    6.492870   6.107590   5.506431   5.162008   5.061353
    25  H    6.684643   6.653793   5.817021   4.760090   4.469998
    26  H    5.211957   5.591304   4.944624   3.686386   3.421796
    27  H    7.032625   7.928366   7.788405   6.688341   5.864167
    28  H    7.451777   8.601220   8.815304   7.862104   6.659554
    29  H    5.730105   6.952212   7.413551   6.673022   5.260503
    30  H    2.777652   4.112901   4.910414   4.611242   3.401042
    31  H    1.087408   2.125817   3.449167   3.899308   3.194274
    32  H    2.120269   1.086907   2.164736   3.345434   3.580472
    33  H    3.427060   2.203153   1.087692   2.112285   3.238458
    34  H    3.953558   3.450065   2.162700   1.086395   2.211802
                   21         22         23         24         25
    21  N    0.000000
    22  O    1.431809   0.000000
    23  H    4.352399   3.092952   0.000000
    24  H    4.144661   2.805908   1.643968   0.000000
    25  H    3.830594   3.255687   2.361202   3.298949   0.000000
    26  H    4.146252   4.958269   6.426724   7.184413   4.891668
    27  H    6.277074   7.441780   9.155675   9.666754   7.167510
    28  H    6.690427   7.952018   9.923255  10.060925   7.936577
    29  H    5.014190   6.300417   8.648166   8.426978   7.029196
    30  H    3.690480   5.075080   8.031161   7.731357   7.090978
    31  H    3.486997   4.380525   7.437045   6.882099   7.309917
    32  H    4.021643   4.200306   6.761788   6.290339   7.320513
    33  H    3.841958   3.525527   5.265398   5.316478   6.033311
    34  H    2.929610   2.824409   4.244302   4.869769   4.172495
                   26         27         28         29         30
    26  H    0.000000
    27  H    3.475142   0.000000
    28  H    5.425056   2.611123   0.000000
    29  H    5.463198   4.157300   2.532281   0.000000
    30  H    4.899423   5.222802   4.984843   3.235051   0.000000
    31  H    6.067659   7.506045   7.569089   5.619160   2.650984
    32  H    6.662831   8.979417   9.529309   7.735688   4.860521
    33  H    5.742273   8.756869   9.832206   8.404363   5.952925
    34  H    3.560823   6.846113   8.216130   7.216743   5.502078
                   31         32         33         34
    31  H    0.000000
    32  H    2.448777   0.000000
    33  H    4.271098   2.435775   0.000000
    34  H    4.958835   4.258554   2.495800   0.000000
 Stoichiometry    C17H12N4O
 Framework group  C1[X(C17H12N4O)]
 Deg. of freedom    96
 Full point group                 C1      NOp   1
 Largest Abelian subgroup         C1      NOp   1
 Largest concise Abelian subgroup C1      NOp   1
                         Standard orientation:                         
 ---------------------------------------------------------------------
 Center     Atomic      Atomic             Coordinates (Angstroms)
 Number     Number       Type             X           Y           Z
 ---------------------------------------------------------------------
      1          7           0       -3.805078   -2.487862   -0.455794
      2          6           0       -2.472014   -1.985435   -0.572899
      3          6           0       -1.354688   -2.740887   -0.328878
      4          6           0        0.096861   -2.091885   -0.134730
      5          7           0        0.839135   -2.365149    0.807628
      6          7           0        1.956300   -1.599892    1.062876
      7          6           0        1.891249   -0.466499    1.665743
      8          6           0        2.608372    0.557231    0.838309
      9          6           0        3.989959    0.252388    0.683253
     10          6           0        4.380815    0.024778   -0.618985
     11          6           0        3.299205   -0.129350   -1.547069
     12          6           0        1.855916   -0.311287   -1.213018
     13          6           0        1.766615    0.798312   -0.412686
     14          6           0        0.954725    2.011503   -0.579716
     15          6           0       -0.297788    2.112107   -0.089743
     16          6           0       -1.374228    3.035893   -0.530846
     17          6           0       -2.586595    2.975591    0.079611
     18          6           0       -2.909742    2.004664    1.139210
     19          6           0       -2.011703    1.019080    1.417359
     20          6           0       -1.069704    0.853633    0.290947
     21          7           0       -1.267183    0.080006   -0.729694
     22          8           0       -2.501617   -0.642440   -0.663947
     23          1           0       -3.878312   -3.285767    0.163026
     24          1           0       -4.256480   -2.726226   -1.335818
     25          1           0       -1.542813   -3.591096    0.328838
     26          1           0        1.263328   -0.248617    2.538321
     27          1           0        4.585557   -0.074778    1.533737
     28          1           0        5.419494    0.001530   -0.939458
     29          1           0        3.433164    0.548813   -2.411674
     30          1           0        1.250768    2.699877   -1.374551
     31          1           0       -1.279818    3.476081   -1.520684
     32          1           0       -3.450761    3.439928   -0.388335
     33          1           0       -3.958439    1.837703    1.374655
     34          1           0       -2.238498    0.153335    2.033236
 ---------------------------------------------------------------------
 Rotational constants (GHZ):           0.4624280           0.2689622           0.2002932
 Standard basis: 6-31G(2df,p) (6D, 7F)
 There are   742 symmetry adapted cartesian basis functions of A   symmetry.
 There are   676 symmetry adapted basis functions of A   symmetry.
   676 basis functions,  1052 primitive gaussians,   742 cartesian basis functions
    75 alpha electrons       75 beta electrons
       nuclear repulsion energy      1697.5988537619 Hartrees.
 NAtoms=   34 NActive=   34 NUniq=   34 SFac= 1.00D+00 NAtFMM=   60 NAOKFM=F Big=F
 Integral buffers will be    131072 words long.
 Raffenetti 2 integral format.
 Two-electron integral symmetry is turned on.
 One-electron integrals computed using PRISM.
 PrsmSu:  requested number of processors reduced to:  12 ShMem   1 Linda.
 NBasis=   676 RedAO= T EigKep=  2.34D-04  NBF=   676
 NBsUse=   676 1.00D-06 EigRej= -1.00D+00 NBFU=   676
 Initial guess from the checkpoint file:  "NC1dCC2dNNdCc3cccc2c3Cdc2ccccc2dNO1.chk"
 B after Tr=    -0.000000   -0.000000   -0.000000
         Rot=    0.999743   -0.007873    0.001795    0.021180 Ang=  -2.60 deg.
 ExpMin= 1.61D-01 ExpMax= 5.48D+03 ExpMxC= 8.25D+02 IAcc=2 IRadAn=         4 AccDes= 0.00D+00
 Harris functional with IExCor=  402 and IRadAn=       4 diagonalized for initial guess.
 HarFok:  IExCor=  402 AccDes= 0.00D+00 IRadAn=         4 IDoV= 1 UseB2=F ITyADJ=14
 ICtDFT=  3500011 ScaDFX=  1.000000  1.000000  1.000000  1.000000
 FoFCou: FMM=F IPFlag=           0 FMFlag=      100000 FMFlg1=           0
         NFxFlg=           0 DoJE=T BraDBF=F KetDBF=T FulRan=T
         wScrn=  0.000000 ICntrl=       500 IOpCl=  0 I1Cent=   200000004 NGrid=           0
         NMat0=    1 NMatS0=      1 NMatT0=    0 NMatD0=    1 NMtDS0=    0 NMtDT0=    0
 Petite list used in FoFCou.
 Requested convergence on RMS density matrix=1.00D-08 within 128 cycles.
 Requested convergence on MAX density matrix=1.00D-06.
 Requested convergence on             energy=1.00D-06.
 No special actions if energy rises.
 Integral accuracy reduced to 1.0D-05 until final iterations.
