### Starting Gaussian ###
 Entering Gaussian System, Link 0=g16
 Initial command:
 /cluster/software/gaussian/gaussian-16-A.03/avx2/g16/l1.exe "/local/scratch/linjian/Gau-16225.inp" -scrdir="/local/scratch/linjian/"
 Entering Link 1 = /cluster/software/gaussian/gaussian-16-A.03/avx2/g16/l1.exe PID=     16245.
  
 Copyright (c) 1988,1990,1992,1993,1995,1998,2003,2009,2016,
            Gaussian, Inc.  All Rights Reserved.
  
 This is part of the Gaussian(R) 16 program.  It is based on
 the Gaussian(R) 09 system (copyright 2009, Gaussian, Inc.),
 the Gaussian(R) 03 system (copyright 2003, Gaussian, Inc.),
 the Gaussian(R) 98 system (copyright 1998, Gaussian, Inc.),
 the Gaussian(R) 94 system (copyright 1995, Gaussian, Inc.),
 the Gaussian 92(TM) system (copyright 1992, Gaussian, Inc.),
 the Gaussian 90(TM) system (copyright 1990, Gaussian, Inc.),
 the Gaussian 88(TM) system (copyright 1988, Gaussian, Inc.),
 the Gaussian 86(TM) system (copyright 1986, Carnegie Mellon
 University), and the Gaussian 82(TM) system (copyright 1983,
 Carnegie Mellon University). Gaussian is a federally registered
 trademark of Gaussian, Inc.
  
 This software contains proprietary and confidential information,
 including trade secrets, belonging to Gaussian, Inc.
  
 This software is provided under written license and may be
 used, copied, transmitted, or stored only in accord with that
 written license.
  
 The following legend is applicable only to US Government
 contracts under FAR:
  
                    RESTRICTED RIGHTS LEGEND
  
 Use, reproduction and disclosure by the US Government is
 subject to restrictions as set forth in subparagraphs (a)
 and (c) of the Commercial Computer Software - Restricted
 Rights clause in FAR 52.227-19.
  
 Gaussian, Inc.
 340 Quinnipiac St., Bldg. 40, Wallingford CT 06492
  
  
 ---------------------------------------------------------------
 Warning -- This program may not be used in any manner that
 competes with the business of Gaussian, Inc. or will provide
 assistance to any competitor of Gaussian, Inc.  The licensee
 of this program is prohibited from giving any competitor of
 Gaussian, Inc. access to this program.  By using this program,
 the user acknowledges that Gaussian, Inc. is engaged in the
 business of creating and licensing software in the field of
 computational chemistry and represents and warrants to the
 licensee that it is not a competitor of Gaussian, Inc. and that
 it will not use this program in any manner prohibited above.
 ---------------------------------------------------------------
  

 Cite this work as:
 Gaussian 16, Revision A.03,
 M. J. Frisch, G. W. Trucks, H. B. Schlegel, G. E. Scuseria, 
 M. A. Robb, J. R. Cheeseman, G. Scalmani, V. Barone, 
 G. A. Petersson, H. Nakatsuji, X. Li, M. Caricato, A. V. Marenich, 
 J. Bloino, B. G. Janesko, R. Gomperts, B. Mennucci, H. P. Hratchian, 
 J. V. Ortiz, A. F. Izmaylov, J. L. Sonnenberg, D. Williams-Young, 
 F. Ding, F. Lipparini, F. Egidi, J. Goings, B. Peng, A. Petrone, 
 T. Henderson, D. Ranasinghe, V. G. Zakrzewski, J. Gao, N. Rega, 
 G. Zheng, W. Liang, M. Hada, M. Ehara, K. Toyota, R. Fukuda, 
 J. Hasegawa, M. Ishida, T. Nakajima, Y. Honda, O. Kitao, H. Nakai, 
 T. Vreven, K. Throssell, J. A. Montgomery, Jr., J. E. Peralta, 
 F. Ogliaro, M. J. Bearpark, J. J. Heyd, E. N. Brothers, K. N. Kudin, 
 V. N. Staroverov, T. A. Keith, R. Kobayashi, J. Normand, 
 K. Raghavachari, A. P. Rendell, J. C. Burant, S. S. Iyengar, 
 J. Tomasi, M. Cossi, J. M. Millam, M. Klene, C. Adamo, R. Cammi, 
 J. W. Ochterski, R. L. Martin, K. Morokuma, O. Farkas, 
 J. B. Foresman, and D. J. Fox, Gaussian, Inc., Wallingford CT, 2016.
 
 ******************************************
 Gaussian 16:  ES64L-G16RevA.03 25-Dec-2016
                15-May-2023 
 ******************************************
 %chk=NtCC1dCCdCCdNCdNNdC2CdNC12S.chk
 %NProcShared=20
 Will use up to   20 processors via shared memory.
 -----------------------------
 # opt freq b3lyp/6-31g(2df,p)
 -----------------------------
 1/18=20,19=15,26=3,38=1/1,3;
 2/9=110,12=2,17=6,18=5,40=1/2;
 3/5=1,6=6,7=104,11=2,25=1,30=1,71=1,74=-5/1,2,3;
 4//1;
 5/5=2,38=5/2;
 6/7=2,8=2,9=2,10=2,28=1/1;
 7//1,2,3,16;
 1/18=20,19=15,26=3/3(2);
 2/9=110/2;
 99//99;
 2/9=110/2;
 3/5=1,6=6,7=104,11=2,25=1,30=1,71=1,74=-5/1,2,3;
 4/5=5,16=3,69=1/1;
 5/5=2,38=5/2;
 7//1,2,3,16;
 1/18=20,19=15,26=3/3(-5);
 2/9=110/2;
 6/7=2,8=2,9=2,10=2,19=2,28=1/1;
 99/9=1/99;
 -------------------
 Title Card Required
 -------------------
 Symbolic Z-matrix:
 Charge =  0 Multiplicity = 1
 N                     0.95403   0.03673   0.08086 
 C                     2.21499   0.03673   0.08086 
 C                     3.73499   0.03673   0.08086 
 C                     4.23191   0.28178  -1.10192 
 C                     5.41672   0.55581  -0.66239 
 C                     5.85288   1.37006  -2.14328 
 C                     7.75369   1.29963  -1.49562 
 N                     8.00258   1.60737  -2.67191 
 C                     9.84068   1.28317  -2.0844 
 N                     10.74196   1.77338  -3.26566 
 N                     10.62473   0.73089  -3.84338 
 C                     8.75704   0.22938  -3.1145 
 C                     9.78326   0.76088  -4.93601 
 N                     8.1617    0.23041  -3.59148 
 C                     6.42647  -0.1102   -1.7492 
 S                     9.13479  -0.50902  -3.00896 
 H                     3.85588   0.4675   -1.99708 
 H                     6.41765   0.10297  -0.11224 
 H                     6.03206   0.72473  -3.18946 
 H                     8.58503   0.32822  -1.24253 
 H                     10.8911   0.58496  -2.26513 
 H                     11.04743   1.29913  -6.43241 
 H                     11.28578  -0.29584  -3.96334 
 
 Add virtual bond connecting atoms H23        and N11        Dist= 2.32D+00.
 Add virtual bond connecting atoms H20        and C7         Dist= 2.46D+00.
 Add virtual bond connecting atoms C6         and C7         Dist= 3.80D+00.
 Add virtual bond connecting atoms C15        and C7         Dist= 3.69D+00.
 Add virtual bond connecting atoms H22        and C13        Dist= 3.84D+00.

 GradGradGradGradGradGradGradGradGradGradGradGradGradGradGradGradGradGrad
 Berny optimization.
 Initialization pass.
                           ----------------------------
                           !    Initial Parameters    !
                           ! (Angstroms and Degrees)  !
 --------------------------                            --------------------------
 ! Name  Definition              Value          Derivative Info.                !
 --------------------------------------------------------------------------------
 ! R1    R(1,2)                  1.261          estimate D2E/DX2                !
 ! R2    R(2,3)                  1.52           estimate D2E/DX2                !
 ! R3    R(3,4)                  1.3061         estimate D2E/DX2                !
 ! R4    R(4,5)                  1.2931         estimate D2E/DX2                !
 ! R5    R(4,17)                 0.9885         estimate D2E/DX2                !
 ! R6    R(5,6)                  1.7454         estimate D2E/DX2                !
 ! R7    R(5,15)                 1.6261         estimate D2E/DX2                !
 ! R8    R(5,18)                 1.2287         estimate D2E/DX2                !
 ! R9    R(6,7)                  2.0094         estimate D2E/DX2                !
 ! R10   R(6,15)                 1.6357         estimate D2E/DX2                !
 ! R11   R(6,19)                 1.2422         estimate D2E/DX2                !
 ! R12   R(7,8)                  1.2411         estimate D2E/DX2                !
 ! R13   R(7,15)                 1.9528         estimate D2E/DX2                !
 ! R14   R(7,20)                 1.3034         estimate D2E/DX2                !
 ! R15   R(8,12)                 1.6322         estimate D2E/DX2                !
 ! R16   R(8,14)                 1.6634         estimate D2E/DX2                !
 ! R17   R(9,10)                 1.5646         estimate D2E/DX2                !
 ! R18   R(9,12)                 1.8292         estimate D2E/DX2                !
 ! R19   R(9,16)                 2.1366         estimate D2E/DX2                !
 ! R20   R(9,21)                 1.2742         estimate D2E/DX2                !
 ! R21   R(10,11)                1.1976         estimate D2E/DX2                !
 ! R22   R(11,13)                1.3794         estimate D2E/DX2                !
 ! R23   R(11,23)                1.227          estimate D2E/DX2                !
 ! R24   R(12,14)                0.7629         estimate D2E/DX2                !
 ! R25   R(12,16)                0.8361         estimate D2E/DX2                !
 ! R26   R(13,22)                2.0315         estimate D2E/DX2                !
 ! R27   R(14,16)                1.3539         estimate D2E/DX2                !
 ! A1    A(2,3,4)              112.3619         estimate D2E/DX2                !
 ! A2    A(3,4,5)               94.6201         estimate D2E/DX2                !
 ! A3    A(3,4,17)             135.2802         estimate D2E/DX2                !
 ! A4    A(5,4,17)             128.0631         estimate D2E/DX2                !
 ! A5    A(4,5,6)               92.26           estimate D2E/DX2                !
 ! A6    A(4,5,15)             104.7729         estimate D2E/DX2                !
 ! A7    A(4,5,18)             145.1387         estimate D2E/DX2                !
 ! A8    A(6,5,18)             110.3823         estimate D2E/DX2                !
 ! A9    A(15,5,18)             69.05           estimate D2E/DX2                !
 ! A10   A(5,6,7)               86.9369         estimate D2E/DX2                !
 ! A11   A(5,6,19)             120.5487         estimate D2E/DX2                !
 ! A12   A(7,6,19)              96.7074         estimate D2E/DX2                !
 ! A13   A(15,6,19)             71.4691         estimate D2E/DX2                !
 ! A14   A(6,7,8)               82.8495         estimate D2E/DX2                !
 ! A15   A(6,7,20)             133.7955         estimate D2E/DX2                !
 ! A16   A(8,7,15)             101.0834         estimate D2E/DX2                !
 ! A17   A(8,7,20)             103.9415         estimate D2E/DX2                !
 ! A18   A(15,7,20)             85.4486         estimate D2E/DX2                !
 ! A19   A(7,8,12)              98.0689         estimate D2E/DX2                !
 ! A20   A(7,8,14)             109.7478         estimate D2E/DX2                !
 ! A21   A(10,9,12)             95.5427         estimate D2E/DX2                !
 ! A22   A(10,9,16)             97.2627         estimate D2E/DX2                !
 ! A23   A(10,9,21)             65.7772         estimate D2E/DX2                !
 ! A24   A(12,9,21)             95.326          estimate D2E/DX2                !
 ! A25   A(16,9,21)             75.6021         estimate D2E/DX2                !
 ! A26   A(9,10,11)             92.0106         estimate D2E/DX2                !
 ! A27   A(10,11,13)           115.0168         estimate D2E/DX2                !
 ! A28   A(10,11,23)           136.2872         estimate D2E/DX2                !
 ! A29   A(13,11,23)           105.6284         estimate D2E/DX2                !
 ! A30   A(8,12,9)              68.5769         estimate D2E/DX2                !
 ! A31   A(8,12,16)            156.9594         estimate D2E/DX2                !
 ! A32   A(9,12,14)            144.4565         estimate D2E/DX2                !
 ! A33   A(11,13,22)           102.0995         estimate D2E/DX2                !
 ! A34   A(8,14,16)            106.4394         estimate D2E/DX2                !
 ! A35   A(5,15,7)              92.2669         estimate D2E/DX2                !
 ! A36   A(9,16,14)             88.0243         estimate D2E/DX2                !
 ! A37   L(1,2,3,17,-1)        180.0            estimate D2E/DX2                !
 ! A38   L(1,2,3,17,-2)        180.0            estimate D2E/DX2                !
 ! D1    D(2,3,4,5)            163.8965         estimate D2E/DX2                !
 ! D2    D(2,3,4,17)             0.0209         estimate D2E/DX2                !
 ! D3    D(3,4,5,6)           -162.1022         estimate D2E/DX2                !
 ! D4    D(3,4,5,15)           140.537          estimate D2E/DX2                !
 ! D5    D(3,4,5,18)            66.1042         estimate D2E/DX2                !
 ! D6    D(17,4,5,6)             3.5266         estimate D2E/DX2                !
 ! D7    D(17,4,5,15)          -53.8342         estimate D2E/DX2                !
 ! D8    D(17,4,5,18)         -128.267          estimate D2E/DX2                !
 ! D9    D(4,5,6,7)           -166.6953         estimate D2E/DX2                !
 ! D10   D(4,5,6,19)           -70.7122         estimate D2E/DX2                !
 ! D11   D(18,5,6,7)           -13.7354         estimate D2E/DX2                !
 ! D12   D(18,5,6,19)           82.2477         estimate D2E/DX2                !
 ! D13   D(4,5,15,7)           146.9433         estimate D2E/DX2                !
 ! D14   D(18,5,15,7)          -69.1854         estimate D2E/DX2                !
 ! D15   D(5,6,7,8)            166.4715         estimate D2E/DX2                !
 ! D16   D(5,6,7,20)            63.9904         estimate D2E/DX2                !
 ! D17   D(19,6,7,8)            46.0596         estimate D2E/DX2                !
 ! D18   D(19,6,7,20)          -56.4215         estimate D2E/DX2                !
 ! D19   D(6,7,8,12)          -113.8315         estimate D2E/DX2                !
 ! D20   D(6,7,8,14)           -88.9801         estimate D2E/DX2                !
 ! D21   D(15,7,8,12)          -68.408          estimate D2E/DX2                !
 ! D22   D(15,7,8,14)          -43.5567         estimate D2E/DX2                !
 ! D23   D(20,7,8,12)           19.6042         estimate D2E/DX2                !
 ! D24   D(20,7,8,14)           44.4556         estimate D2E/DX2                !
 ! D25   D(8,7,15,5)          -131.4265         estimate D2E/DX2                !
 ! D26   D(20,7,15,5)          125.2356         estimate D2E/DX2                !
 ! D27   D(7,8,12,9)           -76.1379         estimate D2E/DX2                !
 ! D28   D(7,8,12,16)          -13.2556         estimate D2E/DX2                !
 ! D29   D(7,8,14,16)          -56.7689         estimate D2E/DX2                !
 ! D30   D(12,9,10,11)         -32.97           estimate D2E/DX2                !
 ! D31   D(16,9,10,11)         -10.208          estimate D2E/DX2                !
 ! D32   D(21,9,10,11)          60.3896         estimate D2E/DX2                !
 ! D33   D(10,9,12,8)         -105.1249         estimate D2E/DX2                !
 ! D34   D(10,9,12,14)         -79.8942         estimate D2E/DX2                !
 ! D35   D(21,9,12,8)         -171.2366         estimate D2E/DX2                !
 ! D36   D(21,9,12,14)        -146.006          estimate D2E/DX2                !
 ! D37   D(10,9,16,14)         -85.5121         estimate D2E/DX2                !
 ! D38   D(21,9,16,14)        -148.1423         estimate D2E/DX2                !
 ! D39   D(9,10,11,13)         105.2757         estimate D2E/DX2                !
 ! D40   D(9,10,11,23)         -98.0426         estimate D2E/DX2                !
 ! D41   D(10,11,13,22)         88.3924         estimate D2E/DX2                !
 ! D42   D(23,11,13,22)        -75.1059         estimate D2E/DX2                !
 ! D43   D(16,12,14,8)         161.1            estimate D2E/DX2                !
 ! D44   D(8,14,16,9)          -21.4404         estimate D2E/DX2                !
 --------------------------------------------------------------------------------
 Trust Radius=3.00D-01 FncErr=1.00D-07 GrdErr=1.00D-06 EigMax=2.50D+02 EigMin=1.00D-04
 Number of steps in this run=    119 maximum allowed number of steps=    138.
 GradGradGradGradGradGradGradGradGradGradGradGradGradGradGradGradGradGrad

                          Input orientation:                          
 ---------------------------------------------------------------------
 Center     Atomic      Atomic             Coordinates (Angstroms)
 Number     Number       Type             X           Y           Z
 ---------------------------------------------------------------------
      1          7           0        0.954030    0.036730    0.080860
      2          6           0        2.214990    0.036730    0.080860
      3          6           0        3.734990    0.036730    0.080860
      4          6           0        4.231910    0.281780   -1.101920
      5          6           0        5.416720    0.555810   -0.662390
      6          6           0        5.852880    1.370060   -2.143280
      7          6           0        7.753690    1.299630   -1.495620
      8          7           0        8.002580    1.607370   -2.671910
      9          6           0        9.840680    1.283170   -2.084400
     10          7           0       10.741960    1.773380   -3.265660
     11          7           0       10.624730    0.730890   -3.843380
     12          6           0        8.757040    0.229380   -3.114500
     13          6           0        9.783260    0.760880   -4.936010
     14          7           0        8.161700    0.230410   -3.591480
     15          6           0        6.426470   -0.110200   -1.749200
     16         16           0        9.134790   -0.509020   -3.008960
     17          1           0        3.855880    0.467500   -1.997080
     18          1           0        6.417650    0.102970   -0.112240
     19          1           0        6.032060    0.724730   -3.189460
     20          1           0        8.585030    0.328220   -1.242530
     21          1           0       10.891100    0.584960   -2.265130
     22          1           0       11.047430    1.299130   -6.432410
     23          1           0       11.285780   -0.295840   -3.963340
 ---------------------------------------------------------------------
                    Distance matrix (angstroms):
                    1          2          3          4          5
     1  N    0.000000
     2  C    1.260960   0.000000
     3  C    2.780960   1.520000   0.000000
     4  C    3.493353   2.350954   1.306119   0.000000
     5  C    4.553841   3.327603   1.910518   1.293079   0.000000
     6  C    5.542860   4.467529   3.348138   2.212765   1.745358
     7  C    7.093348   5.895541   4.497794   3.686998   2.590168
     8  N    7.728306   6.598549   5.315729   4.294183   3.439567
     9  C    9.231171   8.024532   6.597076   5.781553   4.703465
    10  N   10.488981   9.323324   7.956933   7.020498   6.051254
    11  N   10.459635   9.306194   7.959274   6.970326   6.105139
    12  C    8.434121   7.283259   5.955537   4.952780   4.156578
    13  C   10.180800   9.108902   7.891448   6.763673   6.113310
    14  N    8.091607   6.991921   5.754942   4.652289   4.027452
    15  C    5.772201   4.594265   3.258032   2.321360   1.626137
    16  S    8.761830   7.597925   6.245212   5.319812   4.523748
    17  H    3.595015   2.682521   2.125562   0.988535   2.055582
    18  H    5.467433   4.207615   2.690416   2.406013   1.228654
    19  H    6.079040   5.073299   4.055227   2.791875   2.606388
    20  H    7.750386   6.512583   5.035793   4.355638   3.229017
    21  H   10.224949   9.004394   7.550771   6.766815   5.704249
    22  H   12.078620  11.046644   9.873607   8.712086   8.096329
    23  H   11.100055   9.937071   8.572082   7.634032   6.787300
                    6          7          8          9         10
     6  C    0.000000
     7  C    2.009354   0.000000
     8  N    2.226427   1.241092   0.000000
     9  C    3.989181   2.168516   1.956754   0.000000
    10  N    5.032445   3.505316   2.807900   1.564604   0.000000
    11  N    5.105823   3.752108   3.002704   2.003437   1.197618
    12  C    3.267807   2.184701   1.632162   1.829168   2.519264
    13  C    4.859869   4.030594   3.002252   2.899614   2.175852
    14  N    2.954105   2.387956   1.663414   2.489692   3.024013
    15  C    1.635688   1.952802   2.507103   3.702792   4.946815
    16  S    3.879597   2.732920   2.423759   2.136595   2.803255
    17  H    2.196360   4.017067   4.353139   6.040759   7.122690
    18  H    2.459595   2.265113   3.365581   4.123035   5.606602
    19  H    1.242195   2.482663   2.220329   4.004822   4.825830
    20  H    3.059645   1.303387   2.004645   1.788108   3.291487
    21  H    5.100479   3.308510   3.091010   1.274183   1.560655
    22  H    6.736840   5.934696   4.848452   4.512393   3.216602
    23  H    5.966929   4.594652   4.008666   2.848158   2.250371
                   11         12         13         14         15
    11  N    0.000000
    12  C    2.066650   0.000000
    13  C    1.379424   2.157202   0.000000
    14  N    2.525955   0.762850   2.172238   0.000000
    15  C    4.766383   2.722300   4.709838   2.553632   0.000000
    16  S    2.110345   0.836103   2.397224   1.353880   3.013478
    17  H    7.021077   5.032564   6.622478   4.597653   2.646340
    18  H    5.658199   3.808187   5.918525   3.893978   1.650805
    19  H    4.638994   2.770651   4.138024   2.222912   1.710852
    20  H    3.329706   1.882453   3.907012   2.388795   2.260157
    21  H    1.607209   2.324237   2.896870   3.055247   4.547785
    22  H    2.684148   4.171184   2.031515   4.188136   6.728442
    23  H    1.227009   2.718623   2.078536   3.189842   5.343199
                   16         17         18         19         20
    16  S    0.000000
    17  H    5.463001   0.000000
    18  H    4.018503   3.201276   0.000000
    19  H    3.343898   2.494734   3.162997   0.000000
    20  H    2.030636   4.790992   2.454756   3.235029   0.000000
    21  H    2.198795   7.041304   4.987886   4.948150   2.535663
    22  H    4.318288   8.490121   7.925289   6.000050   5.825885
    23  H    2.362847   7.723489   6.220025   5.407590   3.884110
                   21         22         23
    21  H    0.000000
    22  H    4.230922   0.000000
    23  H    1.953330   2.949076   0.000000
 Stoichiometry    C10H7N5S
 Framework group  C1[X(C10H7N5S)]
 Deg. of freedom    63
 Full point group                 C1      NOp   1
 Largest Abelian subgroup         C1      NOp   1
 Largest concise Abelian subgroup C1      NOp   1
                         Standard orientation:                         
 ---------------------------------------------------------------------
 Center     Atomic      Atomic             Coordinates (Angstroms)
 Number     Number       Type             X           Y           Z
 ---------------------------------------------------------------------
      1          7           0        6.718443   -0.454297    0.314819
      2          6           0        5.576258   -0.085565   -0.071796
      3          6           0        4.199434    0.358917   -0.537834
      4          6           0        3.238170   -0.206688    0.141880
      5          6           0        2.331069    0.629820   -0.244741
      6          6           0        1.262873    0.181190    1.060618
      7          6           0       -0.183161    1.165748    0.072118
      8          7           0       -0.921135    0.571129    0.873449
      9          6           0       -2.318974    1.336494   -0.261957
     10          7           0       -3.661883    1.041908    0.484904
     11          7           0       -3.729470   -0.058590    0.017331
     12          6           0       -1.699824   -0.383482   -0.197211
     13          6           0       -3.426629   -1.082875    0.890222
     14          7           0       -1.360308   -0.904761    0.244306
     15          6           0        1.004952   -0.279459   -0.487527
     16         16           0       -1.949590   -0.652863   -0.948290
     17          1           0        3.191910   -0.854527    0.887109
     18          1           0        1.684303    1.043551   -1.203965
     19          1           0        0.704749   -0.928544    1.066688
     20          1           0       -0.766806    0.992454   -1.080334
     21          1           0       -3.300515    1.079924   -1.032862
     22          1           0       -5.233310   -1.471433    1.734010
     23          1           0       -4.311423   -0.587942   -0.924300
 ---------------------------------------------------------------------
 Rotational constants (GHZ):           2.4870234           0.2125783           0.2095865
 Standard basis: 6-31G(2df,p) (6D, 7F)
 There are   535 symmetry adapted cartesian basis functions of A   symmetry.
 There are   487 symmetry adapted basis functions of A   symmetry.
   487 basis functions,   777 primitive gaussians,   535 cartesian basis functions
    59 alpha electrons       59 beta electrons
       nuclear repulsion energy      1183.8278242700 Hartrees.
 NAtoms=   23 NActive=   23 NUniq=   23 SFac= 1.00D+00 NAtFMM=   60 NAOKFM=F Big=F
 Integral buffers will be    131072 words long.
 Raffenetti 2 integral format.
 Two-electron integral symmetry is turned on.
 One-electron integrals computed using PRISM.
 PrsmSu:  requested number of processors reduced to:  12 ShMem   1 Linda.
 NBasis=   487 RedAO= T EigKep=  3.47D-05  NBF=   487
 NBsUse=   487 1.00D-06 EigRej= -1.00D+00 NBFU=   487
 ExpMin= 1.17D-01 ExpMax= 2.19D+04 ExpMxC= 3.30D+03 IAcc=3 IRadAn=         5 AccDes= 0.00D+00
 Harris functional with IExCor=  402 and IRadAn=       5 diagonalized for initial guess.
 HarFok:  IExCor=  402 AccDes= 0.00D+00 IRadAn=         5 IDoV= 1 UseB2=F ITyADJ=14
 ICtDFT=  3500011 ScaDFX=  1.000000  1.000000  1.000000  1.000000
 FoFCou: FMM=F IPFlag=           0 FMFlag=      100000 FMFlg1=           0
         NFxFlg=           0 DoJE=T BraDBF=F KetDBF=T FulRan=T
         wScrn=  0.000000 ICntrl=       500 IOpCl=  0 I1Cent=   200000004 NGrid=           0
         NMat0=    1 NMatS0=      1 NMatT0=    0 NMatD0=    1 NMtDS0=    0 NMtDT0=    0
 Petite list used in FoFCou.
 Requested convergence on RMS density matrix=1.00D-08 within 128 cycles.
 Requested convergence on MAX density matrix=1.00D-06.
 Requested convergence on             energy=1.00D-06.
 No special actions if energy rises.
 Integral accuracy reduced to 1.0D-05 until final iterations.
 Rare condition: small coef for last iteration:  0.000D+00
 EnCoef did   100 forward-backward iterations
 EnCoef did   100 forward-backward iterations
 EnCoef did    15 forward-backward iterations
 EnCoef did     4 forward-backward iterations
 EnCoef did     3 forward-backward iterations
 EnCoef did    14 forward-backward iterations
 EnCoef did     9 forward-backward iterations
 EnCoef did     5 forward-backward iterations
 EnCoef did     5 forward-backward iterations
 EnCoef did     4 forward-backward iterations
 EnCoef did     2 forward-backward iterations
 Rare condition: small coef for last iteration:  0.000D+00
 Restarting incremental Fock formation.
 EnCoef did   100 forward-backward iterations
 Problem detected with inexpensive integrals.
 Switching to full accuracy and repeating last cycle.
 EnCoef did     7 forward-backward iterations
 EnCoef did     3 forward-backward iterations
 EnCoef did    10 forward-backward iterations
 EnCoef did     3 forward-backward iterations
 EnCoef did     2 forward-backward iterations
 EnCoef did     8 forward-backward iterations
 EnCoef did     3 forward-backward iterations
 EnCoef did     5 forward-backward iterations
 EnCoef did     2 forward-backward iterations
 Restarting incremental Fock formation.
 EnCoef did     4 forward-backward iterations
 Restarting incremental Fock formation.
 SCF Done:  E(RB3LYP) =  -1051.95369741     A.U. after   65 cycles
            NFock= 65  Conv=0.52D-08     -V/T= 1.9891

 **********************************************************************

            Population analysis using the SCF density.

 **********************************************************************

 Orbital symmetries:
       Occupied  (A) (A) (A) (A) (A) (A) (A) (A) (A) (A) (A) (A)
                 (A) (A) (A) (A) (A) (A) (A) (A) (A) (A) (A) (A)
                 (A) (A) (A) (A) (A) (A) (A) (A) (A) (A) (A) (A)
                 (A) (A) (A) (A) (A) (A) (A) (A) (A) (A) (A) (A)
                 (A) (A) (A) (A) (A) (A) (A) (A) (A) (A) (A)
       Virtual   (A) (A) (A) (A) (A) (A) (A) (A) (A) (A) (A) (A)
                 (A) (A) (A) (A) (A) (A) (A) (A) (A) (A) (A) (A)
                 (A) (A) (A) (A) (A) (A) (A) (A) (A) (A) (A) (A)
                 (A) (A) (A) (A) (A) (A) (A) (A) (A) (A) (A) (A)
                 (A) (A) (A) (A) (A) (A) (A) (A) (A) (A) (A) (A)
                 (A) (A) (A) (A) (A) (A) (A) (A) (A) (A) (A) (A)
                 (A) (A) (A) (A) (A) (A) (A) (A) (A) (A) (A) (A)
                 (A) (A) (A) (A) (A) (A) (A) (A) (A) (A) (A) (A)
                 (A) (A) (A) (A) (A) (A) (A) (A) (A) (A) (A) (A)
                 (A) (A) (A) (A) (A) (A) (A) (A) (A) (A) (A) (A)
                 (A) (A) (A) (A) (A) (A) (A) (A) (A) (A) (A) (A)
                 (A) (A) (A) (A) (A) (A) (A) (A) (A) (A) (A) (A)
                 (A) (A) (A) (A) (A) (A) (A) (A) (A) (A) (A) (A)
                 (A) (A) (A) (A) (A) (A) (A) (A) (A) (A) (A) (A)
                 (A) (A) (A) (A) (A) (A) (A) (A) (A) (A) (A) (A)
                 (A) (A) (A) (A) (A) (A) (A) (A) (A) (A) (A) (A)
                 (A) (A) (A) (A) (A) (A) (A) (A) (A) (A) (A) (A)
                 (A) (A) (A) (A) (A) (A) (A) (A) (A) (A) (A) (A)
                 (A) (A) (A) (A) (A) (A) (A) (A) (A) (A) (A) (A)
                 (A) (A) (A) (A) (A) (A) (A) (A) (A) (A) (A) (A)
                 (A) (A) (A) (A) (A) (A) (A) (A) (A) (A) (A) (A)
                 (A) (A) (A) (A) (A) (A) (A) (A) (A) (A) (A) (A)
                 (A) (A) (A) (A) (A) (A) (A) (A) (A) (A) (A) (A)
                 (A) (A) (A) (A) (A) (A) (A) (A) (A) (A) (A) (A)
                 (A) (A) (A) (A) (A) (A) (A) (A) (A) (A) (A) (A)
                 (A) (A) (A) (A) (A) (A) (A) (A) (A) (A) (A) (A)
                 (A) (A) (A) (A) (A) (A) (A) (A) (A) (A) (A) (A)
                 (A) (A) (A) (A) (A) (A) (A) (A) (A) (A) (A) (A)
                 (A) (A) (A) (A) (A) (A) (A) (A) (A) (A) (A) (A)
                 (A) (A) (A) (A) (A) (A) (A) (A) (A) (A) (A) (A)
                 (A) (A) (A) (A) (A) (A) (A) (A) (A) (A) (A) (A)
                 (A) (A) (A) (A) (A) (A) (A) (A) (A) (A) (A) (A)
                 (A) (A) (A) (A) (A) (A) (A) (A) (A) (A) (A) (A)
                 (A) (A) (A) (A) (A) (A) (A) (A) (A) (A) (A) (A)
                 (A) (A) (A) (A) (A) (A) (A) (A) (A) (A) (A) (A)
                 (A) (A) (A) (A) (A) (A) (A) (A)
 The electronic state is 1-A.
 Alpha  occ. eigenvalues --  -89.06134 -14.49699 -14.48562 -14.42837 -14.40426
 Alpha  occ. eigenvalues --  -14.34074 -10.62481 -10.32960 -10.31445 -10.30303
 Alpha  occ. eigenvalues --  -10.30027 -10.30005 -10.26422 -10.23201 -10.22214
 Alpha  occ. eigenvalues --  -10.21070  -8.23649  -6.22450  -6.15970  -6.15041
 Alpha  occ. eigenvalues --   -1.43063  -1.19637  -1.07900  -0.98658  -0.95696
 Alpha  occ. eigenvalues --   -0.94777  -0.86848  -0.85612  -0.84673  -0.81255
 Alpha  occ. eigenvalues --   -0.68495  -0.67669  -0.65710  -0.65124  -0.59581
 Alpha  occ. eigenvalues --   -0.56140  -0.55096  -0.53533  -0.51734  -0.50491
 Alpha  occ. eigenvalues --   -0.49115  -0.46902  -0.46196  -0.42042  -0.40214
 Alpha  occ. eigenvalues --   -0.38842  -0.38167  -0.35820  -0.34576  -0.34158
 Alpha  occ. eigenvalues --   -0.31724  -0.31328  -0.30863  -0.29511  -0.28932
 Alpha  occ. eigenvalues --   -0.27396  -0.25136  -0.23319  -0.20295
 Alpha virt. eigenvalues --   -0.18071  -0.16951  -0.14340  -0.12150  -0.09571
 Alpha virt. eigenvalues --   -0.07598  -0.06149  -0.04348  -0.02302  -0.02234
 Alpha virt. eigenvalues --   -0.00638   0.01805   0.03787   0.04465   0.05217
 Alpha virt. eigenvalues --    0.06844   0.08713   0.09449   0.10176   0.12307
 Alpha virt. eigenvalues --    0.13216   0.14715   0.15568   0.19326   0.19545
 Alpha virt. eigenvalues --    0.21234   0.23070   0.26747   0.27261   0.29028
 Alpha virt. eigenvalues --    0.30673   0.31653   0.32746   0.33453   0.34771
 Alpha virt. eigenvalues --    0.37316   0.38084   0.39284   0.40130   0.40703
 Alpha virt. eigenvalues --    0.42763   0.43253   0.44025   0.45323   0.46599
 Alpha virt. eigenvalues --    0.46800   0.47939   0.48742   0.49692   0.50585
 Alpha virt. eigenvalues --    0.51519   0.52039   0.53512   0.53868   0.55713
 Alpha virt. eigenvalues --    0.56427   0.57352   0.58086   0.58547   0.59753
 Alpha virt. eigenvalues --    0.60281   0.60498   0.61098   0.61571   0.62317
 Alpha virt. eigenvalues --    0.63782   0.64176   0.65285   0.65576   0.66458
 Alpha virt. eigenvalues --    0.67432   0.69154   0.69838   0.70492   0.71379
 Alpha virt. eigenvalues --    0.72003   0.72537   0.73782   0.74444   0.76061
 Alpha virt. eigenvalues --    0.76896   0.77759   0.78565   0.78802   0.79766
 Alpha virt. eigenvalues --    0.80947   0.81405   0.82594   0.83281   0.83510
 Alpha virt. eigenvalues --    0.83814   0.85131   0.86149   0.86932   0.89106
 Alpha virt. eigenvalues --    0.90339   0.90918   0.91524   0.93178   0.94379
 Alpha virt. eigenvalues --    0.95782   0.97772   0.98575   1.00425   1.02477
 Alpha virt. eigenvalues --    1.03181   1.04552   1.05953   1.08990   1.09767
 Alpha virt. eigenvalues --    1.10192   1.11502   1.12291   1.13259   1.15257
 Alpha virt. eigenvalues --    1.15914   1.17497   1.18027   1.18192   1.20164
 Alpha virt. eigenvalues --    1.21506   1.23238   1.24276   1.26388   1.27562
 Alpha virt. eigenvalues --    1.30164   1.30955   1.31700   1.33063   1.33857
 Alpha virt. eigenvalues --    1.36260   1.36891   1.38291   1.39046   1.40430
 Alpha virt. eigenvalues --    1.41133   1.42734   1.45966   1.46795   1.47899
 Alpha virt. eigenvalues --    1.48837   1.50192   1.50527   1.53275   1.54459
 Alpha virt. eigenvalues --    1.55335   1.55642   1.57134   1.57823   1.59113
 Alpha virt. eigenvalues --    1.60181   1.61603   1.62769   1.63269   1.65246
 Alpha virt. eigenvalues --    1.66784   1.68056   1.69179   1.69962   1.72507
 Alpha virt. eigenvalues --    1.73592   1.73984   1.75735   1.76249   1.77902
 Alpha virt. eigenvalues --    1.80265   1.81076   1.82106   1.83554   1.84169
 Alpha virt. eigenvalues --    1.85971   1.87302   1.89015   1.90392   1.92105
 Alpha virt. eigenvalues --    1.95172   1.95415   1.97782   2.01929   2.03941
 Alpha virt. eigenvalues --    2.04594   2.05333   2.06669   2.08266   2.08970
 Alpha virt. eigenvalues --    2.12497   2.15857   2.17437   2.20483   2.21410
 Alpha virt. eigenvalues --    2.23466   2.25357   2.25739   2.28302   2.29207
 Alpha virt. eigenvalues --    2.31561   2.32153   2.35503   2.36126   2.40258
 Alpha virt. eigenvalues --    2.40867   2.42435   2.44826   2.47446   2.50241
 Alpha virt. eigenvalues --    2.52003   2.53026   2.56528   2.57311   2.60816
 Alpha virt. eigenvalues --    2.61624   2.63613   2.64404   2.68739   2.70848
 Alpha virt. eigenvalues --    2.71559   2.72256   2.73653   2.74094   2.76628
 Alpha virt. eigenvalues --    2.77574   2.77773   2.79734   2.80702   2.82454
 Alpha virt. eigenvalues --    2.83763   2.85159   2.85993   2.86617   2.88467
 Alpha virt. eigenvalues --    2.91435   2.92613   2.93671   2.97109   2.97410
 Alpha virt. eigenvalues --    2.98585   2.99958   3.01679   3.03111   3.05013
 Alpha virt. eigenvalues --    3.05696   3.06314   3.08818   3.11769   3.12305
 Alpha virt. eigenvalues --    3.13213   3.14283   3.16561   3.18919   3.21110
 Alpha virt. eigenvalues --    3.21508   3.23106   3.24836   3.24985   3.26056
 Alpha virt. eigenvalues --    3.27185   3.29594   3.30904   3.31922   3.33234
 Alpha virt. eigenvalues --    3.36001   3.36962   3.38236   3.40923   3.42232
 Alpha virt. eigenvalues --    3.43612   3.47870   3.48507   3.48991   3.50220
 Alpha virt. eigenvalues --    3.51454   3.53386   3.55490   3.57117   3.58009
 Alpha virt. eigenvalues --    3.61057   3.63664   3.65562   3.65673   3.66044
 Alpha virt. eigenvalues --    3.67092   3.67666   3.69850   3.71875   3.72173
 Alpha virt. eigenvalues --    3.74527   3.76053   3.78365   3.78923   3.79669
 Alpha virt. eigenvalues --    3.82881   3.83995   3.85016   3.86188   3.88664
 Alpha virt. eigenvalues --    3.91125   3.92106   3.93764   3.96737   3.97575
 Alpha virt. eigenvalues --    3.99065   4.01349   4.03002   4.05747   4.07114
 Alpha virt. eigenvalues --    4.10557   4.11823   4.12622   4.14041   4.14891
 Alpha virt. eigenvalues --    4.15525   4.16237   4.18097   4.20157   4.22118
 Alpha virt. eigenvalues --    4.22776   4.25842   4.26793   4.27303   4.29201
 Alpha virt. eigenvalues --    4.30287   4.31128   4.32845   4.33901   4.34485
 Alpha virt. eigenvalues --    4.35911   4.36903   4.38782   4.40292   4.40403
 Alpha virt. eigenvalues --    4.41795   4.42900   4.44020   4.45780   4.47990
 Alpha virt. eigenvalues --    4.49483   4.50208   4.54025   4.54985   4.57210
 Alpha virt. eigenvalues --    4.57798   4.59561   4.61099   4.62354   4.63488
 Alpha virt. eigenvalues --    4.64975   4.66642   4.67723   4.68366   4.70064
 Alpha virt. eigenvalues --    4.70867   4.72471   4.73008   4.73780   4.76861
 Alpha virt. eigenvalues --    4.79010   4.79566   4.81379   4.81908   4.84901
 Alpha virt. eigenvalues --    4.87213   4.89347   4.90263   4.91291   4.93396
 Alpha virt. eigenvalues --    4.97458   4.99517   5.00063   5.04261   5.05149
 Alpha virt. eigenvalues --    5.05944   5.08095   5.09960   5.10375   5.11236
 Alpha virt. eigenvalues --    5.12739   5.16149   5.17884   5.19721   5.23282
 Alpha virt. eigenvalues --    5.25102   5.27623   5.29609   5.30550   5.33777
 Alpha virt. eigenvalues --    5.37627   5.37726   5.41952   5.44060   5.47442
 Alpha virt. eigenvalues --    5.49018   5.52673   5.59266   5.60475   5.62125
 Alpha virt. eigenvalues --    5.66792   5.71144   5.72417   5.81688   5.94198
 Alpha virt. eigenvalues --    5.97346   6.03955   6.04780   6.54322   6.60575
 Alpha virt. eigenvalues --    7.16282   8.78971   9.86123   9.89367  10.71368
 Alpha virt. eigenvalues --   10.88481  10.95073  11.01699  11.17903  11.28156
 Alpha virt. eigenvalues --   11.32487  11.35228  11.39130  11.47854  11.54020
 Alpha virt. eigenvalues --   11.81982  11.92280  12.50476  14.05806  16.92384
 Alpha virt. eigenvalues --   21.69845  24.72100  46.71684
          Condensed to atoms (all electrons):
               1          2          3          4          5          6
     1  N    6.534432   0.885968  -0.040878  -0.001519  -0.000381   0.000017
     2  C    0.885968   4.543036   0.400346  -0.041393  -0.001080  -0.000162
     3  C   -0.040878   0.400346   5.382071   0.611860  -0.015820  -0.001514
     4  C   -0.001519  -0.041393   0.611860   4.580299   0.428054  -0.050600
     5  C   -0.000381  -0.001080  -0.015820   0.428054   5.360182   0.091879
     6  C    0.000017  -0.000162  -0.001514  -0.050600   0.091879   5.696101
     7  C   -0.000000   0.000004   0.000053   0.005326  -0.053218   0.074232
     8  N   -0.000000  -0.000000  -0.000003   0.000006   0.002339  -0.001225
     9  C   -0.000000  -0.000000  -0.000001  -0.000009   0.000208   0.005819
    10  N    0.000000  -0.000000   0.000000  -0.000000  -0.000001  -0.000035
    11  N   -0.000000  -0.000000   0.000000  -0.000000   0.000002  -0.000013
    12  C    0.000000   0.000000   0.000002   0.000056  -0.002002   0.006801
    13  C    0.000000  -0.000000  -0.000000  -0.000000  -0.000003   0.000249
    14  N   -0.000000  -0.000000  -0.000000   0.000062   0.001402  -0.023061
    15  C    0.000008  -0.000308   0.009166  -0.058303   0.007607   0.176838
    16  S   -0.000000   0.000000  -0.000008   0.000089  -0.000298   0.002069
    17  H    0.001574  -0.003019  -0.065765   0.415950  -0.100455   0.024533
    18  H   -0.000002   0.000010  -0.012061  -0.010575   0.324579  -0.029465
    19  H   -0.000000   0.000005  -0.000138   0.001185  -0.012058   0.270937
    20  H    0.000000   0.000000   0.000040  -0.000038   0.001413  -0.005496
    21  H    0.000000  -0.000000   0.000000   0.000000  -0.000004  -0.000067
    22  H   -0.000000  -0.000000   0.000000   0.000000   0.000000  -0.000000
    23  H    0.000000   0.000000   0.000000  -0.000000  -0.000000   0.000000
               7          8          9         10         11         12
     1  N   -0.000000  -0.000000  -0.000000   0.000000  -0.000000   0.000000
     2  C    0.000004  -0.000000  -0.000000  -0.000000  -0.000000   0.000000
     3  C    0.000053  -0.000003  -0.000001   0.000000   0.000000   0.000002
     4  C    0.005326   0.000006  -0.000009  -0.000000  -0.000000   0.000056
     5  C   -0.053218   0.002339   0.000208  -0.000001   0.000002  -0.002002
     6  C    0.074232  -0.001225   0.005819  -0.000035  -0.000013   0.006801
     7  C    5.538368   0.581840  -0.111242   0.003047   0.002811  -0.064815
     8  N    0.581840   6.671326  -0.001286  -0.024516  -0.005225   0.116003
     9  C   -0.111242  -0.001286   6.048413   0.240503  -0.164808   0.096683
    10  N    0.003047  -0.024516   0.240503   6.787594   0.390266   0.036851
    11  N    0.002811  -0.005225  -0.164808   0.390266   6.200286  -0.126023
    12  C   -0.064815   0.116003   0.096683   0.036851  -0.126023   7.306357
    13  C    0.001019   0.016510  -0.004987  -0.056264   0.416032  -0.037758
    14  N   -0.022496  -0.010327  -0.048114   0.000327   0.027510  -0.846390
    15  C    0.080827  -0.046040   0.004899  -0.000239   0.000292  -0.011152
    16  S    0.009540  -0.157607  -0.000779  -0.067613   0.103582  -0.651850
    17  H    0.000351  -0.000001  -0.000001   0.000000  -0.000000   0.000072
    18  H    0.003254  -0.000286  -0.000223  -0.000002   0.000001  -0.000031
    19  H   -0.017128  -0.011492  -0.000362  -0.000010   0.000009   0.002594
    20  H    0.236517  -0.040233  -0.017847   0.002604   0.005440  -0.028749
    21  H    0.000314   0.014220   0.172242  -0.088136  -0.033755  -0.008609
    22  H    0.000003  -0.000019   0.000053  -0.000323  -0.011694   0.000299
    23  H    0.000123  -0.000325   0.011784  -0.049292   0.268253  -0.032562
              13         14         15         16         17         18
     1  N    0.000000  -0.000000   0.000008  -0.000000   0.001574  -0.000002
     2  C   -0.000000  -0.000000  -0.000308   0.000000  -0.003019   0.000010
     3  C   -0.000000  -0.000000   0.009166  -0.000008  -0.065765  -0.012061
     4  C   -0.000000   0.000062  -0.058303   0.000089   0.415950  -0.010575
     5  C   -0.000003   0.001402   0.007607  -0.000298  -0.100455   0.324579
     6  C    0.000249  -0.023061   0.176838   0.002069   0.024533  -0.029465
     7  C    0.001019  -0.022496   0.080827   0.009540   0.000351   0.003254
     8  N    0.016510  -0.010327  -0.046040  -0.157607  -0.000001  -0.000286
     9  C   -0.004987  -0.048114   0.004899  -0.000779  -0.000001  -0.000223
    10  N   -0.056264   0.000327  -0.000239  -0.067613   0.000000  -0.000002
    11  N    0.416032   0.027510   0.000292   0.103582  -0.000000   0.000001
    12  C   -0.037758  -0.846390  -0.011152  -0.651850   0.000072  -0.000031
    13  C    5.663253   0.058596   0.000008   0.022750   0.000000  -0.000000
    14  N    0.058596   8.080978   0.001768  -0.417782  -0.000048  -0.000419
    15  C    0.000008   0.001768   5.991570   0.067432   0.006839  -0.000440
    16  S    0.022750  -0.417782   0.067432  16.855985  -0.000009   0.001142
    17  H    0.000000  -0.000048   0.006839  -0.000009   0.564880   0.001872
    18  H   -0.000000  -0.000419  -0.000440   0.001142   0.001872   0.428867
    19  H   -0.000374   0.016551  -0.000752  -0.004353   0.000686   0.003974
    20  H   -0.000035  -0.005023  -0.025702   0.089429  -0.000018  -0.000596
    21  H    0.018677  -0.003429   0.000113   0.000888   0.000000   0.000010
    22  H    0.142595  -0.000322   0.000001  -0.001206  -0.000000   0.000000
    23  H   -0.075303   0.002337  -0.000036   0.026957   0.000000  -0.000000
              19         20         21         22         23
     1  N   -0.000000   0.000000   0.000000  -0.000000   0.000000
     2  C    0.000005   0.000000  -0.000000  -0.000000   0.000000
     3  C   -0.000138   0.000040   0.000000   0.000000   0.000000
     4  C    0.001185  -0.000038   0.000000   0.000000  -0.000000
     5  C   -0.012058   0.001413  -0.000004   0.000000  -0.000000
     6  C    0.270937  -0.005496  -0.000067  -0.000000   0.000000
     7  C   -0.017128   0.236517   0.000314   0.000003   0.000123
     8  N   -0.011492  -0.040233   0.014220  -0.000019  -0.000325
     9  C   -0.000362  -0.017847   0.172242   0.000053   0.011784
    10  N   -0.000010   0.002604  -0.088136  -0.000323  -0.049292
    11  N    0.000009   0.005440  -0.033755  -0.011694   0.268253
    12  C    0.002594  -0.028749  -0.008609   0.000299  -0.032562
    13  C   -0.000374  -0.000035   0.018677   0.142595  -0.075303
    14  N    0.016551  -0.005023  -0.003429  -0.000322   0.002337
    15  C   -0.000752  -0.025702   0.000113   0.000001  -0.000036
    16  S   -0.004353   0.089429   0.000888  -0.001206   0.026957
    17  H    0.000686  -0.000018   0.000000  -0.000000   0.000000
    18  H    0.003974  -0.000596   0.000010   0.000000  -0.000000
    19  H    0.487438   0.000748   0.000008   0.000001  -0.000002
    20  H    0.000748   0.619977  -0.009578   0.000004  -0.000132
    21  H    0.000008  -0.009578   0.773248  -0.000506  -0.006111
    22  H    0.000001   0.000004  -0.000506   0.936399  -0.006153
    23  H   -0.000002  -0.000132  -0.006111  -0.006153   0.607276
 Mulliken charges:
               1
     1  N   -0.379219
     2  C    0.216592
     3  C   -0.267352
     4  C    0.119552
     5  C   -0.032345
     6  C   -0.237841
     7  C   -0.268729
     8  N   -0.103660
     9  C   -0.230943
    10  N   -0.174760
    11  N   -0.072965
    12  C    0.244225
    13  C   -0.164965
    14  N    0.187881
    15  C   -0.204398
    16  S    0.121641
    17  H    0.152558
    18  H    0.290390
    19  H    0.262533
    20  H    0.177275
    21  H    0.170476
    22  H   -0.059131
    23  H    0.253186
 Sum of Mulliken charges =  -0.00000
 Mulliken charges with hydrogens summed into heavy atoms:
               1
     1  N   -0.379219
     2  C    0.216592
     3  C   -0.267352
     4  C    0.272111
     5  C    0.258045
     6  C    0.024692
     7  C   -0.091453
     8  N   -0.103660
     9  C   -0.060467
    10  N   -0.174760
    11  N    0.180221
    12  C    0.244225
    13  C   -0.224096
    14  N    0.187881
    15  C   -0.204398
    16  S    0.121641
 Electronic spatial extent (au):  <R**2>=           4873.6781
 Charge=             -0.0000 electrons
 Dipole moment (field-independent basis, Debye):
    X=             -8.4479    Y=             -1.7331    Z=             -3.3447  Tot=              9.2498
 Quadrupole moment (field-independent basis, Debye-Ang):
   XX=           -146.3315   YY=           -102.4436   ZZ=           -102.5740
   XY=              3.5765   XZ=             10.6994   YZ=             -0.5309
 Traceless Quadrupole moment (field-independent basis, Debye-Ang):
   XX=            -29.2152   YY=             14.6728   ZZ=             14.5424
   XY=              3.5765   XZ=             10.6994   YZ=             -0.5309
 Octapole moment (field-independent basis, Debye-Ang**2):
  XXX=           -443.8172  YYY=            -11.0544  ZZZ=            -10.8077  XYY=              0.3176
  XXY=             11.3238  XXZ=            -55.5029  XZZ=             -8.1767  YZZ=             -0.8915
  YYZ=             -5.6956  XYZ=             -4.7522
 Hexadecapole moment (field-independent basis, Debye-Ang**3):
 XXXX=          -8868.0565 YYYY=           -444.0205 ZZZZ=           -369.6544 XXXY=            200.5113
 XXXZ=             93.0843 YYYX=            -21.5231 YYYZ=             15.5876 ZZZX=             41.7151
 ZZZY=              7.3184 XXYY=          -1151.6152 XXZZ=          -1124.0694 YYZZ=           -134.5881
 XXYZ=             48.8189 YYXZ=             31.7757 ZZXY=            -14.4108
 N-N= 1.183827824270D+03 E-N=-4.839723717023D+03  KE= 1.063580034627D+03
 PrsmSu:  requested number of processors reduced to:  13 ShMem   1 Linda.
 Calling FoFJK, ICntrl=      2127 FMM=F ISym2X=0 I1Cent= 0 IOpClX= 0 NMat=1 NMatS=1 NMatT=0.
 ***** Axes restored to original set *****
 -------------------------------------------------------------------
 Center     Atomic                   Forces (Hartrees/Bohr)
 Number     Number              X              Y              Z
 -------------------------------------------------------------------
      1        7           0.154293048    0.001221469    0.002746050
      2        6          -0.110255013   -0.007376393    0.007936701
      3        6          -0.151506657   -0.019943168    0.070089997
      4        6          -0.055399943   -0.020612963    0.067794890
      5        6           0.164186186   -0.015019784   -0.063233108
      6        6           0.062295703   -0.057849112    0.001645604
      7        6          -0.029797789   -0.045840821    0.041219275
      8        7          -0.020374079    0.183688719    0.040361015
      9        6           0.138372260    0.081206682    0.037308663
     10        7          -0.008980606    0.134076784    0.107495697
     11        7           0.065487133   -0.166336819   -0.240785053
     12        6           0.063897170    5.119612642    1.403988189
     13        6           0.068418728    0.039150558   -0.061082111
     14        7          -2.985398969    0.068246793   -2.420421617
     15        6           0.006199256    0.047361700   -0.003647565
     16       16           2.845258812   -5.461014467    0.913126807
     17        1          -0.033676900    0.001313891   -0.081738548
     18        1          -0.057786428    0.029421567    0.001010600
     19        1          -0.018378629    0.033800034    0.037451305
     20        1          -0.030131699    0.029662849    0.033421086
     21        1          -0.028395010   -0.017939185    0.051228562
     22        1          -0.028291706   -0.015744890    0.031624688
     23        1          -0.010034868    0.058913914    0.022458874
 -------------------------------------------------------------------
 Cartesian Forces:  Max     5.461014467 RMS     1.090481332

 GradGradGradGradGradGradGradGradGradGradGradGradGradGradGradGradGradGrad
 Berny optimization.
 FormGI is forming the generalized inverse of G from B-inverse, IUseBI=4.
 Internal  Forces:  Max     3.054888870 RMS     0.465921724
 Search for a local minimum.
 Step number   1 out of a maximum of  119
 All quantities printed in internal units (Hartrees-Bohrs-Radians)
 Mixed Optimization -- RFO/linear search
 Second derivative matrix not updated -- first step.
 ITU=  0
     Eigenvalues ---    0.00230   0.00492   0.00501   0.00501   0.00899
     Eigenvalues ---    0.01056   0.01873   0.01904   0.01964   0.03331
     Eigenvalues ---    0.03503   0.03637   0.03748   0.03794   0.03972
     Eigenvalues ---    0.04090   0.05027   0.05457   0.05585   0.06013
     Eigenvalues ---    0.06503   0.07935   0.09099   0.09420   0.10907
     Eigenvalues ---    0.11239   0.11364   0.11968   0.12220   0.15264
     Eigenvalues ---    0.15433   0.15655   0.16000   0.17439   0.18381
     Eigenvalues ---    0.18431   0.19956   0.20058   0.20666   0.21106
     Eigenvalues ---    0.21485   0.21825   0.22003   0.22029   0.22064
     Eigenvalues ---    0.22687   0.22794   0.23311   0.23941   0.25000
     Eigenvalues ---    0.25000   0.26446   0.30367   0.49208   0.49762
     Eigenvalues ---    0.57974   0.65522   0.69152   0.79315   0.86617
     Eigenvalues ---    1.06029   7.75966  12.18630
 RFO step:  Lambda=-2.39999532D+00 EMin= 2.30000000D-03
 Linear search not attempted -- first point.
 Maximum step size (   0.300) exceeded in Quadratic search.
    -- Step size scaled by   0.568
 Iteration  1 RMS(Cart)=  0.12959652 RMS(Int)=  0.00423193
 Iteration  2 RMS(Cart)=  0.00659201 RMS(Int)=  0.00030989
 Iteration  3 RMS(Cart)=  0.00003679 RMS(Int)=  0.00030961
 Iteration  4 RMS(Cart)=  0.00000001 RMS(Int)=  0.00030961
 Variable       Old X    -DE/DX   Delta X   Delta X   Delta X     New X
                                 (Linear)    (Quad)   (Total)
    R1        2.38287  -0.15429   0.00000  -0.02743  -0.02743   2.35544
    R2        2.87238  -0.04404   0.00000  -0.00925  -0.00925   2.86314
    R3        2.46821   0.11893   0.00000   0.02210   0.02210   2.49030
    R4        2.44357   0.16700   0.00000   0.03066   0.03066   2.47423
    R5        1.86806   0.08708   0.00000   0.01706   0.01706   1.88512
    R6        3.29825   0.01623   0.00000   0.00351   0.00353   3.30178
    R7        3.07295   0.02859   0.00000   0.00625   0.00626   3.07922
    R8        2.32182  -0.05747   0.00000  -0.01242  -0.01242   2.30940
    R9        3.79713   0.00333   0.00000   0.00082   0.00082   3.79795
   R10        3.09100  -0.03408   0.00000  -0.00745  -0.00749   3.08352
   R11        2.34741  -0.05175   0.00000  -0.01122  -0.01122   2.33619
   R12        2.34532   0.13467   0.00000   0.02340   0.02340   2.36873
   R13        3.69026   0.01394   0.00000   0.00318   0.00318   3.69344
   R14        2.46304  -0.03484   0.00000  -0.00765  -0.00765   2.45539
   R15        3.08434  -0.41172   0.00000  -0.00144  -0.00178   3.08255
   R16        3.14340   0.85444   0.00000   0.06923   0.06943   3.21283
   R17        2.95667   0.17148   0.00000   0.03653   0.03653   2.99321
   R18        3.45663  -0.58480   0.00000  -0.01708  -0.01705   3.43958
   R19        4.03758   0.91856   0.00000   0.06077   0.06077   4.09835
   R20        2.40786  -0.02084   0.00000  -0.00455  -0.00455   2.40331
   R21        2.26317   0.18330   0.00000   0.03007   0.03007   2.29324
   R22        2.60673  -0.00064   0.00000  -0.00013  -0.00013   2.60661
   R23        2.31871  -0.05690   0.00000  -0.01229  -0.01229   2.30642
   R24        1.44158   1.11777   0.00000   0.08095   0.08198   1.52356
   R25        1.58001   3.05489   0.00000   0.14877   0.14940   1.72940
   R26        3.83901  -0.04507   0.00000  -0.01048  -0.01048   3.82852
   R27        2.55846   2.76626   0.00000   0.14514   0.14427   2.70273
    A1        1.96108   0.03945   0.00000   0.00845   0.00845   1.96953
    A2        1.65143   0.08336   0.00000   0.01807   0.01807   1.66950
    A3        2.36108  -0.04585   0.00000  -0.00995  -0.00996   2.35113
    A4        2.23512  -0.03405   0.00000  -0.00733  -0.00732   2.22780
    A5        1.61024   0.07032   0.00000   0.01545   0.01546   1.62570
    A6        1.82863   0.05321   0.00000   0.01161   0.01164   1.84027
    A7        2.53315  -0.02246   0.00000  -0.00500  -0.00502   2.52813
    A8        1.92653  -0.02879   0.00000  -0.00609  -0.00607   1.92047
    A9        1.20515  -0.01530   0.00000  -0.00308  -0.00304   1.20211
   A10        1.51733   0.04066   0.00000   0.00881   0.00880   1.52614
   A11        2.10397   0.00268   0.00000   0.00064   0.00064   2.10461
   A12        1.68786  -0.00650   0.00000  -0.00128  -0.00128   1.68658
   A13        1.24737   0.00535   0.00000   0.00123   0.00123   1.24860
   A14        1.44600   0.02846   0.00000   0.00611   0.00612   1.45212
   A15        2.33517  -0.00303   0.00000  -0.00061  -0.00064   2.33453
   A16        1.76424   0.04145   0.00000   0.00914   0.00914   1.77337
   A17        1.81412   0.01962   0.00000   0.00475   0.00474   1.81886
   A18        1.49136   0.00737   0.00000   0.00167   0.00165   1.49301
   A19        1.71162   0.00892   0.00000   0.01422   0.01467   1.72629
   A20        1.91546  -0.05800   0.00000   0.00614   0.00561   1.92107
   A21        1.66753   0.18013   0.00000   0.04698   0.04681   1.71435
   A22        1.69755   0.20850   0.00000   0.04785   0.04754   1.74509
   A23        1.14803   0.05696   0.00000   0.01323   0.01318   1.16121
   A24        1.66375   0.34760   0.00000   0.02180   0.02173   1.68549
   A25        1.31951  -0.29813   0.00000  -0.00930  -0.00953   1.30998
   A26        1.60589   0.53335   0.00000   0.11424   0.11424   1.72013
   A27        2.00742  -0.00552   0.00000  -0.00128  -0.00133   2.00609
   A28        2.37866  -0.03533   0.00000  -0.00795  -0.00799   2.37067
   A29        1.84356   0.01682   0.00000   0.00364   0.00358   1.84714
   A30        1.19689   0.39152   0.00000   0.02713   0.02768   1.22458
   A31        2.73946   0.15856   0.00000   0.01267   0.01146   2.75092
   A32        2.52124   1.12298   0.00000   0.06484   0.06353   2.58477
   A33        1.78197   0.00516   0.00000   0.00114   0.00114   1.78311
   A34        1.85772  -0.11815   0.00000  -0.01209  -0.01141   1.84631
   A35        1.61036   0.03756   0.00000   0.00810   0.00809   1.61845
   A36        1.53631  -0.48618   0.00000  -0.01337  -0.01301   1.52330
   A37        3.14159   0.00582   0.00000   0.00137   0.00137   3.14297
   A38        3.14159  -0.00330   0.00000  -0.00078  -0.00078   3.14081
    D1        2.86053   0.01084   0.00000   0.00248   0.00247   2.86301
    D2        0.00037  -0.00444   0.00000  -0.00099  -0.00098  -0.00062
    D3       -2.82922   0.01364   0.00000   0.00318   0.00320  -2.82602
    D4        2.45283   0.02052   0.00000   0.00465   0.00459   2.45743
    D5        1.15374  -0.03087   0.00000  -0.00704  -0.00702   1.14671
    D6        0.06155   0.02215   0.00000   0.00515   0.00518   0.06673
    D7       -0.93958   0.02903   0.00000   0.00662   0.00657  -0.93301
    D8       -2.23868  -0.02236   0.00000  -0.00507  -0.00504  -2.24372
    D9       -2.90938  -0.00663   0.00000  -0.00146  -0.00148  -2.91086
   D10       -1.23416   0.00975   0.00000   0.00224   0.00222  -1.23194
   D11       -0.23973   0.00268   0.00000   0.00069   0.00071  -0.23902
   D12        1.43549   0.01906   0.00000   0.00439   0.00441   1.43991
   D13        2.56464   0.02968   0.00000   0.00666   0.00665   2.57130
   D14       -1.20751  -0.00857   0.00000  -0.00181  -0.00181  -1.20933
   D15        2.90548   0.02990   0.00000   0.00683   0.00683   2.91230
   D16        1.11684  -0.02424   0.00000  -0.00554  -0.00554   1.11130
   D17        0.80389   0.02298   0.00000   0.00527   0.00526   0.80915
   D18       -0.98474  -0.03116   0.00000  -0.00711  -0.00711  -0.99185
   D19       -1.98673  -0.19588   0.00000  -0.01384  -0.01373  -2.00047
   D20       -1.55300   0.20129   0.00000   0.01501   0.01487  -1.53813
   D21       -1.19395  -0.21284   0.00000  -0.01765  -0.01753  -1.21148
   D22       -0.76021   0.18432   0.00000   0.01120   0.01107  -0.74914
   D23        0.34216  -0.19143   0.00000  -0.01281  -0.01266   0.32950
   D24        0.77590   0.20573   0.00000   0.01605   0.01594   0.79184
   D25       -2.29382   0.01659   0.00000   0.00384   0.00386  -2.28996
   D26        2.18577  -0.00330   0.00000  -0.00098  -0.00099   2.18479
   D27       -1.32886  -0.04200   0.00000  -0.01444  -0.01399  -1.34285
   D28       -0.23135   0.39507   0.00000   0.03419   0.03409  -0.19726
   D29       -0.99080  -0.31092   0.00000  -0.03417  -0.03435  -1.02516
   D30       -0.57544  -0.35643   0.00000  -0.01534  -0.01582  -0.59126
   D31       -0.17816   0.37993   0.00000   0.02029   0.02054  -0.15762
   D32        1.05400  -0.05059   0.00000  -0.01135  -0.01112   1.04288
   D33       -1.83478   0.07689   0.00000   0.00924   0.00991  -1.82486
   D34       -1.39442   0.14005   0.00000   0.01777   0.01837  -1.37604
   D35       -2.98864  -0.01360   0.00000  -0.00827  -0.00814  -2.99679
   D36       -2.54828   0.04956   0.00000   0.00027   0.00032  -2.54797
   D37       -1.49247  -0.15767   0.00000  -0.01477  -0.01601  -1.50847
   D38       -2.58557  -0.06211   0.00000  -0.00935  -0.00949  -2.59506
   D39        1.83741   0.10543   0.00000   0.02457   0.02453   1.86194
   D40       -1.71117   0.02284   0.00000   0.00528   0.00531  -1.70585
   D41        1.54274  -0.02723   0.00000  -0.00630  -0.00633   1.53641
   D42       -1.31085   0.04187   0.00000   0.00973   0.00976  -1.30109
   D43        2.81173   0.03161   0.00000  -0.00071  -0.00120   2.81052
   D44       -0.37421   0.17207   0.00000   0.00618   0.00633  -0.36788
         Item               Value     Threshold  Converged?
 Maximum Force            3.054889     0.000450     NO 
 RMS     Force            0.465922     0.000300     NO 
 Maximum Displacement     0.507648     0.001800     NO 
 RMS     Displacement     0.132704     0.001200     NO 
 Predicted change in Energy=-1.088384D+00
 GradGradGradGradGradGradGradGradGradGradGradGradGradGradGradGradGradGrad

                          Input orientation:                          
 ---------------------------------------------------------------------
 Center     Atomic      Atomic             Coordinates (Angstroms)
 Number     Number       Type             X           Y           Z
 ---------------------------------------------------------------------
      1          7           0        0.875414    0.092422    0.143719
      2          6           0        2.121846    0.097379    0.146796
      3          6           0        3.636927    0.104031    0.152727
      4          6           0        4.152504    0.281169   -1.047036
      5          6           0        5.354052    0.588102   -0.627094
      6          6           0        5.803760    1.318967   -2.149068
      7          6           0        7.705042    1.289837   -1.498272
      8          7           0        7.962945    1.541769   -2.698780
      9          6           0        9.844294    1.250354   -2.120561
     10          7           0       10.761678    1.755912   -3.308700
     11          7           0       10.759281    0.745698   -3.981097
     12          6           0        8.746510    0.163743   -3.083409
     13          6           0        9.997688    0.812952   -5.129174
     14          7           0        8.114308    0.095110   -3.579009
     15          6           0        6.375982   -0.132667   -1.671728
     16         16           0        9.166765   -0.637449   -2.945577
     17          1           0        3.774649    0.411842   -1.960973
     18          1           0        6.348859    0.170745   -0.052934
     19          1           0        5.985663    0.620586   -3.152815
     20          1           0        8.533768    0.338827   -1.186709
     21          1           0       10.901842    0.560531   -2.272702
     22          1           0       11.316066    1.562034   -6.472790
     23          1           0       11.507509   -0.206496   -4.133133
 ---------------------------------------------------------------------
                    Distance matrix (angstroms):
                    1          2          3          4          5
     1  N    0.000000
     2  C    1.246446   0.000000
     3  C    2.761552   1.515107   0.000000
     4  C    3.491825   2.362749   1.317812   0.000000
     5  C    4.571439   3.359594   1.947040   1.309305   0.000000
     6  C    5.572241   4.507744   3.386664   2.240122   1.747228
     7  C    7.125570   5.941404   4.547691   3.720424   2.603562
     8  N    7.772612   6.655975   5.377045   4.340142   3.465211
     9  C    9.322477   8.130588   6.709195   5.872670   4.778210
    10  N   10.603047   9.451871   8.091493   7.139410   6.147943
    11  N   10.729945   9.595056   8.260035   7.243895   6.363229
    12  C    8.507267   7.370535   6.048469   5.026480   4.209790
    13  C   10.561176   9.506671   8.298212   7.149323   6.471680
    14  N    8.140043   7.056289   5.828625   4.705465   4.071345
    15  C    5.796789   4.632238   3.299559   2.346350   1.629451
    16  S    8.878230   7.728753   6.381880   5.439773   4.627539
    17  H    3.596849   2.696912   2.140430   0.997562   2.074805
    18  H    5.477536   4.232365   2.720537   2.413381   1.222082
    19  H    6.104158   5.107863   4.087787   2.812470   2.603701
    20  H    7.776963   6.553570   5.082153   4.383870   3.238194
    21  H   10.324121   9.119036   7.672685   6.865411   5.786774
    22  H   12.447697  11.423563  10.246581   9.077227   8.406326
    23  H   11.463955  10.319922   8.967223   7.991115   7.126621
                    6          7          8          9         10
     6  C    0.000000
     7  C    2.009790   0.000000
     8  N    2.239175   1.253477   0.000000
     9  C    4.041217   2.228274   1.989657   0.000000
    10  N    5.110442   3.583001   2.872415   1.583937   0.000000
    11  N    5.314336   3.973524   3.177667   2.133887   1.213530
    12  C    3.296561   2.205766   1.631217   1.820146   2.578112
    13  C    5.169731   4.320544   3.252410   3.044110   2.187917
    14  N    2.980132   2.433996   1.700157   2.540573   3.136861
    15  C    1.631727   1.954483   2.525277   3.760769   5.047844
    16  S    3.971372   2.818822   2.501816   2.168755   2.898928
    17  H    2.230593   4.053758   4.400331   6.129368   7.241647
    18  H    2.451392   2.276093   3.389024   4.202226   5.708392
    19  H    1.236258   2.478240   2.228086   4.043660   4.911576
    20  H    3.056101   1.299338   2.014762   1.849442   3.387411
    21  H    5.155672   3.369149   3.127537   1.271775   1.588041
    22  H    7.009934   6.153000   5.048463   4.604905   3.218136
    23  H    6.228668   4.862125   4.204490   2.989840   2.255438
                   11         12         13         14         15
    11  N    0.000000
    12  C    2.279423   0.000000
    13  C    1.379358   2.484366   0.000000
    14  N    2.753330   0.806231   2.542721   0.000000
    15  C    5.031702   2.774906   5.095574   2.590632   0.000000
    16  S    2.349789   0.915161   2.749944   1.430225   3.109013
    17  H    7.278561   5.103020   6.994612   4.642305   2.673403
    18  H    5.934043   3.864267   6.284473   3.944076   1.647207
    19  H    4.846559   2.799249   4.476532   2.233583   1.706856
    20  H    3.595422   1.916607   4.232125   2.440992   2.261325
    21  H    1.724304   2.336695   3.006767   3.113423   4.617911
    22  H    2.680475   4.477247   2.025968   4.558189   7.094126
    23  H    1.220506   2.976930   2.076279   3.451352   5.691795
                   16         17         18         19         20
    16  S    0.000000
    17  H    5.580804   0.000000
    18  H    4.118393   3.213299   0.000000
    19  H    3.427099   2.520446   3.153337   0.000000
    20  H    2.108890   4.822243   2.467292   3.230758   0.000000
    21  H    2.213235   7.135556   5.080252   4.994699   2.614633
    22  H    4.679578   8.862979   8.235495   6.349941   6.097545
    23  H    2.659904   8.055913   6.588020   5.668851   4.221602
                   21         22         23
    21  H    0.000000
    22  H    4.337664   0.000000
    23  H    2.101515   2.939106   0.000000
 Stoichiometry    C10H7N5S
 Framework group  C1[X(C10H7N5S)]
 Deg. of freedom    63
 Full point group                 C1      NOp   1
 Largest Abelian subgroup         C1      NOp   1
 Largest concise Abelian subgroup C1      NOp   1
                         Standard orientation:                         
 ---------------------------------------------------------------------
 Center     Atomic      Atomic             Coordinates (Angstroms)
 Number     Number       Type             X           Y           Z
 ---------------------------------------------------------------------
      1          7           0        6.797329   -0.429488    0.387869
      2          6           0        5.672470   -0.085243   -0.024217
      3          6           0        4.306064    0.335095   -0.526013
      4          6           0        3.320119   -0.202335    0.163704
      5          6           0        2.396466    0.617266   -0.271495
      6          6           0        1.302329    0.231029    1.034831
      7          6           0       -0.136596    1.161728   -0.015193
      8          7           0       -0.894238    0.605646    0.814238
      9          6           0       -2.331538    1.300592   -0.373177
     10          7           0       -3.693641    1.107906    0.411937
     11          7           0       -3.921706   -0.041996    0.098305
     12          6           0       -1.689496   -0.393774   -0.200451
     13          6           0       -3.725928   -0.968266    1.101462
     14          7           0       -1.325490   -0.943832    0.263172
     15          6           0        1.068767   -0.301827   -0.489650
     16         16           0       -1.966183   -0.743297   -0.999699
     17          1           0        3.265377   -0.824121    0.941852
     18          1           0        1.765209    0.981209   -1.252589
     19          1           0        0.749577   -0.873561    1.086610
     20          1           0       -0.700059    0.935211   -1.163879
     21          1           0       -3.313412    1.008063   -1.126676
     22          1           0       -5.529855   -0.986791    2.023445
     23          1           0       -4.609625   -0.600499   -0.741026
 ---------------------------------------------------------------------
 Rotational constants (GHZ):           2.3685919           0.2026395           0.2004482
 Standard basis: 6-31G(2df,p) (6D, 7F)
 There are   535 symmetry adapted cartesian basis functions of A   symmetry.
 There are   487 symmetry adapted basis functions of A   symmetry.
   487 basis functions,   777 primitive gaussians,   535 cartesian basis functions
    59 alpha electrons       59 beta electrons
       nuclear repulsion energy      1147.5329058225 Hartrees.
 NAtoms=   23 NActive=   23 NUniq=   23 SFac= 1.00D+00 NAtFMM=   60 NAOKFM=F Big=F
 Integral buffers will be    131072 words long.
 Raffenetti 2 integral format.
 Two-electron integral symmetry is turned on.
 One-electron integrals computed using PRISM.
 PrsmSu:  requested number of processors reduced to:  12 ShMem   1 Linda.
 NBasis=   487 RedAO= T EigKep=  4.36D-05  NBF=   487
 NBsUse=   487 1.00D-06 EigRej= -1.00D+00 NBFU=   487
 Initial guess from the checkpoint file:  "NtCC1dCCdCCdNCdNNdC2CdNC12S.chk"
 B after Tr=    -0.000000    0.000000   -0.000000
         Rot=    0.999264    0.038279    0.001560    0.001993 Ang=   4.40 deg.
 ExpMin= 1.17D-01 ExpMax= 2.19D+04 ExpMxC= 3.30D+03 IAcc=2 IRadAn=         4 AccDes= 0.00D+00
 Harris functional with IExCor=  402 and IRadAn=       4 diagonalized for initial guess.
 HarFok:  IExCor=  402 AccDes= 0.00D+00 IRadAn=         4 IDoV= 1 UseB2=F ITyADJ=14
 ICtDFT=  3500011 ScaDFX=  1.000000  1.000000  1.000000  1.000000
 FoFCou: FMM=F IPFlag=           0 FMFlag=      100000 FMFlg1=           0
         NFxFlg=           0 DoJE=T BraDBF=F KetDBF=T FulRan=T
         wScrn=  0.000000 ICntrl=       500 IOpCl=  0 I1Cent=   200000004 NGrid=           0
         NMat0=    1 NMatS0=      1 NMatT0=    0 NMatD0=    1 NMtDS0=    0 NMtDT0=    0
 Petite list used in FoFCou.
 Requested convergence on RMS density matrix=1.00D-08 within 128 cycles.
 Requested convergence on MAX density matrix=1.00D-06.
 Requested convergence on             energy=1.00D-06.
 No special actions if energy rises.
 Integral accuracy reduced to 1.0D-05 until final iterations.
 Problem detected with inexpensive integrals.
 Switching to full accuracy and repeating last cycle.
 Restarting incremental Fock formation.
 SCF Done:  E(RB3LYP) =  -1053.12082890     A.U. after   31 cycles
            NFock= 31  Conv=0.94D-08     -V/T= 1.9926
 PrsmSu:  requested number of processors reduced to:  13 ShMem   1 Linda.
 Calling FoFJK, ICntrl=      2127 FMM=F ISym2X=0 I1Cent= 0 IOpClX= 0 NMat=1 NMatS=1 NMatT=0.
 ***** Axes restored to original set *****
 -------------------------------------------------------------------
 Center     Atomic                   Forces (Hartrees/Bohr)
 Number     Number              X              Y              Z
 -------------------------------------------------------------------
      1        7           0.136226343    0.001433739    0.003055973
      2        6          -0.091173929   -0.004568081    0.007419956
      3        6          -0.141345098   -0.016558961    0.056462288
      4        6          -0.041676085   -0.013390378    0.075475011
      5        6           0.144505901   -0.019127777   -0.070679937
      6        6           0.065432048   -0.057757127    0.010919213
      7        6          -0.022095596   -0.044942847    0.025796034
      8        7          -0.025755872    0.152949280    0.029206408
      9        6           0.141848110    0.068453608    0.030162140
     10        7          -0.034411252    0.104314334    0.095573353
     11        7           0.053982752   -0.149963473   -0.209378943
     12        6           0.214858798    3.869547453    0.960567613
     13        6           0.043791590    0.043902012   -0.008126879
     14        7          -2.332604241   -0.201769841   -1.861492396
     15        6           0.000831053    0.047215850   -0.005034784
     16       16           2.102447416   -3.885838410    0.774865949
     17        1          -0.029187148   -0.004325724   -0.072388124
     18        1          -0.056599970    0.028170162    0.001340209
     19        1          -0.017984274    0.033934931    0.034253544
     20        1          -0.029763689    0.037596525    0.027885086
     21        1          -0.036091713   -0.021166393    0.037977510
     22        1          -0.025794067   -0.021395478    0.024337633
     23        1          -0.019441078    0.053286595    0.031803144
 -------------------------------------------------------------------
 Cartesian Forces:  Max     3.885838410 RMS     0.810054336

 GradGradGradGradGradGradGradGradGradGradGradGradGradGradGradGradGradGrad
 Berny optimization.
 Using GEDIIS/GDIIS optimizer.
 FormGI is forming the generalized inverse of G from B-inverse, IUseBI=4.
 Internal  Forces:  Max     2.210887626 RMS     0.343006837
 Search for a local minimum.
 Step number   2 out of a maximum of  119
 All quantities printed in internal units (Hartrees-Bohrs-Radians)
 Mixed Optimization -- RFO/linear search
 Update second derivatives using D2CorX and points    1    2
 DE= -1.17D+00 DEPred=-1.09D+00 R= 1.07D+00
 TightC=F SS=  1.41D+00  RLast= 3.11D-01 DXNew= 5.0454D-01 9.3198D-01
 Trust test= 1.07D+00 RLast= 3.11D-01 DXMaxT set to 5.05D-01
 ITU=  1  0
 Use linear search instead of GDIIS.
 Linear search step of   0.600 exceeds DXMaxT=   0.505 but not scaled.
 Quartic linear search produced a step of  2.00000.
 Iteration  1 RMS(Cart)=  0.22254430 RMS(Int)=  0.01941628
 Iteration  2 RMS(Cart)=  0.04201526 RMS(Int)=  0.00187511
 Iteration  3 RMS(Cart)=  0.00140493 RMS(Int)=  0.00173941
 Iteration  4 RMS(Cart)=  0.00000227 RMS(Int)=  0.00173941
 Iteration  5 RMS(Cart)=  0.00000001 RMS(Int)=  0.00173941
 Variable       Old X    -DE/DX   Delta X   Delta X   Delta X     New X
                                 (Linear)    (Quad)   (Total)
    R1        2.35544  -0.13624  -0.05486   0.00000  -0.05486   2.30058
    R2        2.86314  -0.04508  -0.01849   0.00000  -0.01849   2.84465
    R3        2.49030   0.10126   0.04419   0.00000   0.04419   2.53450
    R4        2.47423   0.13971   0.06132   0.00000   0.06132   2.53555
    R5        1.88512   0.07681   0.03412   0.00000   0.03412   1.91923
    R6        3.30178   0.01142   0.00707   0.00000   0.00719   3.30898
    R7        3.07922   0.02298   0.01253   0.00000   0.01260   3.09182
    R8        2.30940  -0.05506  -0.02484   0.00000  -0.02484   2.28456
    R9        3.79795  -0.00398   0.00165   0.00000   0.00167   3.79963
   R10        3.08352  -0.03457  -0.01497   0.00000  -0.01519   3.06833
   R11        2.33619  -0.04963  -0.02244   0.00000  -0.02244   2.31375
   R12        2.36873   0.11003   0.04681   0.00000   0.04681   2.41554
   R13        3.69344   0.01336   0.00635   0.00000   0.00633   3.69977
   R14        2.45539  -0.03982  -0.01530   0.00000  -0.01530   2.44009
   R15        3.08255  -0.31039  -0.00357   0.00000  -0.00496   3.07760
   R16        3.21283   0.69585   0.13887   0.00000   0.13939   3.35222
   R17        2.99321   0.06947   0.07307   0.00000   0.07307   3.06627
   R18        3.43958  -0.41725  -0.03410   0.00000  -0.03346   3.40612
   R19        4.09835   0.68244   0.12155   0.00000   0.12124   4.21959
   R20        2.40331  -0.02307  -0.00910   0.00000  -0.00910   2.39420
   R21        2.29324   0.15105   0.06014   0.00000   0.06014   2.35338
   R22        2.60661  -0.02233  -0.00025   0.00000  -0.00025   2.60636
   R23        2.30642  -0.05745  -0.02458   0.00000  -0.02458   2.28184
   R24        1.52356   0.95259   0.16396   0.00000   0.16931   1.69287
   R25        1.72940   2.21089   0.29880   0.00000   0.30188   2.03129
   R26        3.82852  -0.04084  -0.02096   0.00000  -0.02096   3.80756
   R27        2.70273   2.01013   0.28854   0.00000   0.28396   2.98669
    A1        1.96953   0.03659   0.01690   0.00000   0.01690   1.98643
    A2        1.66950   0.07722   0.03614   0.00000   0.03613   1.70563
    A3        2.35113  -0.04192  -0.01991   0.00000  -0.01993   2.33120
    A4        2.22780  -0.03227  -0.01465   0.00000  -0.01464   2.21316
    A5        1.62570   0.06626   0.03091   0.00000   0.03092   1.65661
    A6        1.84027   0.04795   0.02329   0.00000   0.02346   1.86373
    A7        2.52813  -0.02273  -0.01003   0.00000  -0.01013   2.51800
    A8        1.92047  -0.02537  -0.01213   0.00000  -0.01200   1.90847
    A9        1.20211  -0.01191  -0.00608   0.00000  -0.00585   1.19626
   A10        1.52614   0.03844   0.01761   0.00000   0.01757   1.54371
   A11        2.10461   0.00272   0.00127   0.00000   0.00122   2.10583
   A12        1.68658  -0.00623  -0.00256   0.00000  -0.00258   1.68400
   A13        1.24860   0.00459   0.00246   0.00000   0.00247   1.25108
   A14        1.45212   0.02901   0.01224   0.00000   0.01229   1.46441
   A15        2.33453  -0.00097  -0.00128   0.00000  -0.00147   2.33306
   A16        1.77337   0.04114   0.01827   0.00000   0.01823   1.79160
   A17        1.81886   0.01692   0.00948   0.00000   0.00944   1.82830
   A18        1.49301   0.00872   0.00330   0.00000   0.00319   1.49620
   A19        1.72629   0.01413   0.02934   0.00000   0.03196   1.75825
   A20        1.92107  -0.05345   0.01122   0.00000   0.00820   1.92926
   A21        1.71435   0.04773   0.09363   0.00000   0.09209   1.80644
   A22        1.74509   0.07316   0.09508   0.00000   0.09299   1.83808
   A23        1.16121   0.05103   0.02636   0.00000   0.02594   1.18715
   A24        1.68549   0.22366   0.04347   0.00000   0.04301   1.72850
   A25        1.30998  -0.24188  -0.01905   0.00000  -0.02021   1.28977
   A26        1.72013   0.24638   0.22849   0.00000   0.22849   1.94862
   A27        2.00609  -0.01269  -0.00266   0.00000  -0.00298   2.00312
   A28        2.37067  -0.02786  -0.01599   0.00000  -0.01624   2.35443
   A29        1.84714   0.03394   0.00716   0.00000   0.00680   1.85395
   A30        1.22458   0.31832   0.05537   0.00000   0.05799   1.28256
   A31        2.75092   0.10945   0.02292   0.00000   0.01615   2.76707
   A32        2.58477   0.83751   0.12707   0.00000   0.11942   2.70419
   A33        1.78311   0.00606   0.00229   0.00000   0.00229   1.78540
   A34        1.84631  -0.12479  -0.02281   0.00000  -0.01921   1.82710
   A35        1.61845   0.03316   0.01618   0.00000   0.01611   1.63456
   A36        1.52330  -0.28683  -0.02602   0.00000  -0.02443   1.49887
   A37        3.14297   0.00604   0.00275   0.00000   0.00275   3.14571
   A38        3.14081  -0.00238  -0.00156   0.00000  -0.00156   3.13925
    D1        2.86301   0.00758   0.00495   0.00000   0.00489   2.86789
    D2       -0.00062  -0.00557  -0.00196   0.00000  -0.00191  -0.00252
    D3       -2.82602   0.01400   0.00640   0.00000   0.00655  -2.81947
    D4        2.45743   0.01887   0.00918   0.00000   0.00885   2.46628
    D5        1.14671  -0.02945  -0.01404   0.00000  -0.01392   1.13279
    D6        0.06673   0.02149   0.01036   0.00000   0.01055   0.07728
    D7       -0.93301   0.02636   0.01315   0.00000   0.01286  -0.92015
    D8       -2.24372  -0.02196  -0.01008   0.00000  -0.00992  -2.25364
    D9       -2.91086  -0.00570  -0.00296   0.00000  -0.00309  -2.91395
[...]
     9  C   10.815646   9.678074   8.472667   7.339807   6.022564
    10  N   11.739570  10.633418   9.467124   8.385672   7.079230
    11  N   12.602647  11.528763  10.401815   9.367918   8.089393
    12  C    9.853692   8.762467   7.658697   6.380608   5.229784
    13  C   11.924201  10.904045   9.854636   8.876645   7.678061
    14  N    9.229992   8.204766   7.228499   5.853185   4.933381
    15  C    6.234297   5.100639   3.951646   2.715692   1.671602
    16  S   10.971524   9.882211   8.777166   7.485805   6.405462
    17  H    3.657042   2.740728   2.263161   1.115471   2.174393
    18  H    5.502088   4.307556   2.963929   2.296867   1.084240
    19  H    6.544758   5.519902   4.594364   3.201346   2.486704
    20  H    8.158094   6.979365   5.695976   4.683742   3.302804
    21  H   11.791015  10.653522   9.449466   8.287999   6.992827
    22  H   11.975833  10.950174   9.864153   9.067915   7.823928
    23  H   13.520484  12.433598  11.278806  10.274332   8.963406
                    6          7          8          9         10
     6  C    0.000000
     7  C    1.891488   0.000000
     8  N    2.409225   1.315500   0.000000
     9  C    4.815642   3.164680   2.516778   0.000000
    10  N    5.783430   4.245579   3.410854   1.661533   0.000000
    11  N    6.771652   5.348344   4.473339   3.012222   1.350689
    12  C    3.838632   2.673449   1.771371   1.679913   2.935912
    13  C    6.346464   5.178809   4.282740   3.633586   2.175798
    14  N    3.470539   3.001684   2.164463   3.045009   4.179847
    15  C    1.437998   2.050025   2.908358   4.859620   6.141405
    16  S    5.222283   4.096723   3.523315   2.555658   3.918301
    17  H    2.780673   4.557730   5.145791   7.509057   8.547965
    18  H    2.293504   2.723659   3.932906   5.767513   6.901613
    19  H    1.117798   2.295672   2.414946   4.706619   5.784936
    20  H    2.699145   1.072008   2.039758   3.014158   4.343796
    21  H    5.787549   4.176857   3.513365   1.094332   1.917005
    22  H    6.744193   5.491926   4.921821   4.350361   3.035796
    23  H    7.701757   6.192286   5.393054   3.663294   2.081627
                   11         12         13         14         15
    11  N    0.000000
    12  C    4.171453   0.000000
    13  C    1.384990   4.469102   0.000000
    14  N    5.310822   1.365210   5.429158   0.000000
    15  C    7.297146   3.878537   7.118214   3.510184   0.000000
    16  S    5.156837   1.847782   5.822437   2.255570   4.829179
    17  H    9.523507   6.347567   9.016057   5.606501   2.949653
    18  H    7.961210   5.202444   7.676127   5.128199   1.797029
    19  H    6.835992   3.411400   6.524498   2.696919   1.559249
    20  H    5.557899   2.755092   5.630508   3.257594   2.258556
    21  H    3.123677   2.248253   4.070376   3.514343   5.716346
    22  H    2.321970   5.418423   1.576572   6.469244   7.503440
    23  H    1.007540   4.979551   2.144928   6.170392   8.157932
                   16         17         18         19         20
    16  S    0.000000
    17  H    7.410891   0.000000
    18  H    6.253174   3.150331   0.000000
    19  H    4.608700   2.963861   3.069247   0.000000
    20  H    3.765777   5.096380   2.832922   2.956608   0.000000
    21  H    2.326083   8.413776   6.710880   5.557399   3.901903
    22  H    6.807196   9.380073   7.698992   7.154954   5.881717
    23  H    5.741719  10.468321   8.765038   7.777815   6.297533
                   21         22         23
    21  H    0.000000
    22  H    4.887170   0.000000
    23  H    3.557351   2.662699   0.000000
 Stoichiometry    C10H7N5S
 Framework group  C1[X(C10H7N5S)]
 Deg. of freedom    63
 Full point group                 C1      NOp   1
 Largest Abelian subgroup         C1      NOp   1
 Largest concise Abelian subgroup C1      NOp   1
                         Standard orientation:                         
 ---------------------------------------------------------------------
 Center     Atomic      Atomic             Coordinates (Angstroms)
 Number     Number       Type             X           Y           Z
 ---------------------------------------------------------------------
      1          7           0        7.592857    0.691509    0.568061
      2          6           0        6.504755    0.573960    0.089164
      3          6           0        5.334734    0.522536   -0.613052
      4          6           0        4.186623   -0.051381    0.013234
      5          6           0        2.899915    0.183772   -0.591618
      6          6           0        1.550274    0.185962    0.421955
      7          6           0        0.027893    0.276612   -0.696913
      8          7           0       -0.851411    0.313857    0.280829
      9          6           0       -3.114180   -0.098401   -0.740978
     10          7           0       -4.105674    1.157958   -0.294664
     11          7           0       -4.911676    2.179273    0.068152
     12          6           0       -2.126653   -0.913841    0.346200
     13          6           0       -4.087727    3.085002    0.715422
     14          7           0       -1.331912   -1.562430    1.247042
     15          6           0        1.664990   -0.936224   -0.469884
     16         16           0       -2.868181   -2.553255   -0.074222
     17          1           0        4.171804   -0.516722    1.026897
     18          1           0        2.582159    0.091325   -1.624120
     19          1           0        1.214109   -0.706537    1.004974
     20          1           0       -0.219672   -0.320942   -1.551805
     21          1           0       -4.035062   -0.684319   -0.819962
     22          1           0       -3.823868    4.179187   -0.388532
     23          1           0       -5.787616    2.380950   -0.387032
 ---------------------------------------------------------------------
 Rotational constants (GHZ):           0.8794406           0.1471547           0.1306577
 Standard basis: 6-31G(2df,p) (6D, 7F)
 There are   535 symmetry adapted cartesian basis functions of A   symmetry.
 There are   487 symmetry adapted basis functions of A   symmetry.
   487 basis functions,   777 primitive gaussians,   535 cartesian basis functions
    59 alpha electrons       59 beta electrons
       nuclear repulsion energy       922.0191516223 Hartrees.
 NAtoms=   23 NActive=   23 NUniq=   23 SFac= 1.00D+00 NAtFMM=   60 NAOKFM=F Big=F
 Integral buffers will be    131072 words long.
 Raffenetti 2 integral format.
 Two-electron integral symmetry is turned on.
 One-electron integrals computed using PRISM.
 PrsmSu:  requested number of processors reduced to:  12 ShMem   1 Linda.
 NBasis=   487 RedAO= T EigKep=  1.72D-04  NBF=   487
 NBsUse=   487 1.00D-06 EigRej= -1.00D+00 NBFU=   487
 Initial guess from the checkpoint file:  "NtCC1dCCdCCdNCdNNdC2CdNC12S.chk"
 B after Tr=    -0.000000    0.000000    0.000000
         Rot=    0.999797   -0.000762   -0.000599    0.020138 Ang=  -2.31 deg.
 ExpMin= 1.17D-01 ExpMax= 2.19D+04 ExpMxC= 3.30D+03 IAcc=2 IRadAn=         4 AccDes= 0.00D+00
 Harris functional with IExCor=  402 and IRadAn=       4 diagonalized for initial guess.
 HarFok:  IExCor=  402 AccDes= 0.00D+00 IRadAn=         4 IDoV= 1 UseB2=F ITyADJ=14
 ICtDFT=  3500011 ScaDFX=  1.000000  1.000000  1.000000  1.000000
 FoFCou: FMM=F IPFlag=           0 FMFlag=      100000 FMFlg1=           0
         NFxFlg=           0 DoJE=T BraDBF=F KetDBF=T FulRan=T
         wScrn=  0.000000 ICntrl=       500 IOpCl=  0 I1Cent=   200000004 NGrid=           0
         NMat0=    1 NMatS0=      1 NMatT0=    0 NMatD0=    1 NMtDS0=    0 NMtDT0=    0
 Petite list used in FoFCou.
 Requested convergence on RMS density matrix=1.00D-08 within 128 cycles.
 Requested convergence on MAX density matrix=1.00D-06.
 Requested convergence on             energy=1.00D-06.
 No special actions if energy rises.
 Integral accuracy reduced to 1.0D-05 until final iterations.
 EnCoef did     3 forward-backward iterations
 Initial convergence to 1.0D-05 achieved.  Increase integral accuracy.
 SCF Done:  E(RB3LYP) =  -1056.09059652     A.U. after   23 cycles
            NFock= 23  Conv=0.69D-08     -V/T= 2.0070
 PrsmSu:  requested number of processors reduced to:  13 ShMem   1 Linda.
 Calling FoFJK, ICntrl=      2127 FMM=F ISym2X=0 I1Cent= 0 IOpClX= 0 NMat=1 NMatS=1 NMatT=0.
 ***** Axes restored to original set *****
 -------------------------------------------------------------------
 Center     Atomic                   Forces (Hartrees/Bohr)
 Number     Number              X              Y              Z
 -------------------------------------------------------------------
      1        7           0.034817492   -0.001730068   -0.000644901
      2        6          -0.044268919    0.005475742    0.000363881
      3        6           0.026207893   -0.024599542   -0.009225954
      4        6           0.009876379    0.033450387   -0.004552841
      5        6          -0.010848713   -0.075538524   -0.021802415
      6        6           0.030815374    0.025795561    0.077258881
      7        6           0.026940978   -0.049401849   -0.100728268
      8        7          -0.053956537    0.052160639    0.060272248
      9        6           0.011796145    0.016414516   -0.074478981
     10        7          -0.002602624    0.001418633   -0.012034646
     11        7          -0.047987943   -0.017858182    0.047070083
     12        6          -0.012265004   -0.039454578   -0.006320989
     13        6          -0.004847568    0.048509547    0.040785485
     14        7           0.103683628    0.050308376    0.010592026
     15        6          -0.016633308    0.003205344   -0.008700097
     16       16          -0.036452706   -0.010679874    0.001057629
     17        1           0.003340270    0.008768961    0.009838461
     18        1          -0.013204518    0.036105230    0.003354207
     19        1          -0.017850845   -0.007884897   -0.022968733
     20        1          -0.003884982    0.015685563    0.021975366
     21        1           0.000753775   -0.005993740    0.009830616
     22        1           0.000623174   -0.062704628   -0.029930497
     23        1           0.015948557   -0.001452617    0.008989440
 -------------------------------------------------------------------
 Cartesian Forces:  Max     0.103683628 RMS     0.034649186

 GradGradGradGradGradGradGradGradGradGradGradGradGradGradGradGradGradGrad
 Berny optimization.
 Using GEDIIS/GDIIS optimizer.
 FormGI is forming the generalized inverse of G from B-inverse, IUseBI=4.
 Internal  Forces:  Max     0.082524802 RMS     0.019777286
 Search for a local minimum.
 Step number   8 out of a maximum of  119
 All quantities printed in internal units (Hartrees-Bohrs-Radians)
 Mixed Optimization -- RFO/linear search
 Update second derivatives using D2CorX and points    7    8
 DE= -1.08D-01 DEPred=-9.41D-02 R= 1.15D+00
 TightC=F SS=  1.41D+00  RLast= 9.14D-01 DXNew= 1.4270D+00 2.7415D+00
 Trust test= 1.15D+00 RLast= 9.14D-01 DXMaxT set to 1.43D+00
 ITU=  1  0  1  0  0  0  1  0
 Use linear search instead of GDIIS.
     Eigenvalues ---    0.00171   0.00232   0.00488   0.00502   0.00804
     Eigenvalues ---    0.01074   0.01630   0.01805   0.02051   0.02109
     Eigenvalues ---    0.03335   0.03514   0.03528   0.03769   0.03797
     Eigenvalues ---    0.03882   0.04060   0.04461   0.04652   0.04781
     Eigenvalues ---    0.07647   0.07777   0.09073   0.09364   0.10448
     Eigenvalues ---    0.10693   0.12362   0.12584   0.13269   0.13626
     Eigenvalues ---    0.13890   0.14184   0.15429   0.15883   0.15996
     Eigenvalues ---    0.16668   0.17670   0.18500   0.19313   0.19810
     Eigenvalues ---    0.20152   0.21018   0.21518   0.21695   0.21943
     Eigenvalues ---    0.22202   0.22277   0.22341   0.23250   0.24132
     Eigenvalues ---    0.25076   0.29192   0.42784   0.48331   0.50494
     Eigenvalues ---    0.55679   0.65721   0.69642   0.83278   0.98996
     Eigenvalues ---    1.00520   1.09022  11.56004
 RFO step:  Lambda=-1.14865763D-01 EMin= 1.70641366D-03
 Quartic linear search produced a step of  1.69094.
 Iteration  1 RMS(Cart)=  0.13250465 RMS(Int)=  0.11509572
 Iteration  2 RMS(Cart)=  0.03635793 RMS(Int)=  0.09435716
 SLEqS3 Cycle:   691 Max:0.912207E-01 RMS:0.194968E-01 Conv:0.566747E-01
 SLEqS3 Cycle:    60 Max:0.177976     RMS: 9260.31     Conv:0.566747E-01
 Iteration  3 RMS(Cart)=  0.00138892 RMS(Int)=  0.09309418
 SLEqS3 Cycle:    30 Max:0.193801     RMS: 274.638     Conv:0.168065E-02
 Iteration  4 RMS(Cart)=  0.00092138 RMS(Int)=  0.09286178
 SLEqS3 Cycle:    38 Max:0.153558     RMS:0.353575E-01 Conv:0.101433E-02
 Iteration  5 RMS(Cart)=  0.01646049 RMS(Int)=  0.08879540
 SLEqS3 Cycle:   691 Max:0.135979     RMS:0.318846E-01 Conv:0.168960E-01
 SLEqS3 Cycle:    60 Max:0.187987     RMS: 2751.95     Conv:0.168960E-01
 Iteration  6 RMS(Cart)=  0.00063528 RMS(Int)=  0.08823279
 SLEqS3 Cycle:   691 Max:0.194860     RMS:0.351131E-01 Conv:0.243424E-04
 SLEqS3 Cycle:   691 Max:0.194697     RMS:0.350952E-01 Conv:0.243424E-04
 Iteration  7 RMS(Cart)=  0.05477630 RMS(Int)=  0.07447784
 Iteration  8 RMS(Cart)=  0.00757615 RMS(Int)=  0.07170758
 SLEqS3 Cycle:   691 Max:0.101847     RMS:0.201621E-01 Conv:0.247248E-01
 SLEqS3 Cycle:    60 Max:0.172411     RMS: 3983.32     Conv:0.247248E-01
 Iteration  9 RMS(Cart)=  0.02358669 RMS(Int)=  0.06363053
 SLEqS3 Cycle:    28 Max:0.158222     RMS: 2336.76     Conv:0.145748E-01
 Iteration 10 RMS(Cart)=  0.04144552 RMS(Int)=  0.06160856
 SLEqS3 Cycle:   691 Max:0.130190     RMS:0.246659E-01 Conv:0.699225E-02
 SLEqS3 Cycle:    60 Max:0.148864     RMS: 1110.31     Conv:0.699225E-02
 Iteration 11 RMS(Cart)=  0.01760838 RMS(Int)=  0.05952810
 SLEqS3 Cycle:   691 Max:0.123262     RMS:0.228837E-01 Conv:0.660887E-02
 SLEqS3 Cycle:    60 Max:0.140579     RMS: 1046.35     Conv:0.660887E-02
 Iteration 12 RMS(Cart)=  0.01268116 RMS(Int)=  0.05885561
 SLEqS3 Cycle:    15 Max:0.138328     RMS: 1877.24     Conv:0.118926E-01
 Iteration 13 RMS(Cart)=  0.00667626 RMS(Int)=  0.05920439
 SLEqS3 Cycle:    66 Max:0.120991     RMS:0.235229E-01 Conv:0.738455E-02
 New curvilinear step failed, DQL= 7.02D+00 SP=-5.24D-02.
 ITry= 1 IFail=1 DXMaxC= 8.82D-01 DCOld= 1.00D+10 DXMaxT= 1.43D+00 DXLimC= 3.00D+00 Rises=F
 Iteration  1 RMS(Cart)=  0.13153127 RMS(Int)=  0.11143325
 Iteration  2 RMS(Cart)=  0.03619323 RMS(Int)=  0.09071713
 SLEqS3 Cycle:    45 Max:0.188739     RMS: 11174.6     Conv:0.683097E-01
 Iteration  3 RMS(Cart)=  0.05923594 RMS(Int)=  0.07353688
 Iteration  4 RMS(Cart)=  0.00168353 RMS(Int)=  0.07352319
 SLEqS3 Cycle:   277 Max:0.108344     RMS:0.224598E-01 Conv:0.199563E-01
 New curvilinear step failed, DQL= 6.99D+00 SP=-3.25D-03.
 ITry= 2 IFail=1 DXMaxC= 5.07D-01 DCOld= 1.00D+10 DXMaxT= 1.43D+00 DXLimC= 3.00D+00 Rises=F
 Iteration  1 RMS(Cart)=  0.13417064 RMS(Int)=  0.12143987
 Iteration  2 RMS(Cart)=  0.06661829 RMS(Int)=  0.08847117
 SLEqS3 Cycle:   361 Max:0.104689     RMS: 6702.01     Conv:0.407875E-01
 Iteration  3 RMS(Cart)=  0.00008994 RMS(Int)=  0.67497146
 Iteration  4 RMS(Cart)=  0.00572112 RMS(Int)=  0.08764814
 Iteration  5 RMS(Cart)=  0.00264247 RMS(Int)=  0.08733509
 Iteration  6 RMS(Cart)=  0.00256357 RMS(Int)=  0.08703077
 Iteration  7 RMS(Cart)=  0.00246080 RMS(Int)=  0.08673732
 Iteration  8 RMS(Cart)=  0.00220062 RMS(Int)=  0.67476543
 Iteration  9 RMS(Cart)=  0.00536852 RMS(Int)=  0.08572061
 Iteration 10 RMS(Cart)=  0.00293846 RMS(Int)=  0.08536854
 Iteration 11 RMS(Cart)=  0.00282149 RMS(Int)=  0.08502685
 Iteration 12 RMS(Cart)=  0.00256298 RMS(Int)=  0.67462940
 Iteration 13 RMS(Cart)=  0.00506760 RMS(Int)=  0.08401546
 Iteration 14 RMS(Cart)=  0.00328288 RMS(Int)=  0.08361679
 Iteration 15 RMS(Cart)=  0.00311419 RMS(Int)=  0.08322192
 Iteration 16 RMS(Cart)=  0.00100969 RMS(Int)=  0.67385399
 Iteration 17 RMS(Cart)=  0.00479998 RMS(Int)=  0.08239607
 Iteration 18 RMS(Cart)=  0.00155385 RMS(Int)=  0.08220770
 Iteration 19 RMS(Cart)=  0.00152346 RMS(Int)=  0.08202289
 Iteration 20 RMS(Cart)=  0.00148924 RMS(Int)=  0.08184217
 Iteration 21 RMS(Cart)=  0.00144537 RMS(Int)=  0.08166702
 Iteration 22 RMS(Cart)=  0.00134830 RMS(Int)=  0.67374301
 Iteration 23 RMS(Cart)=  0.00451666 RMS(Int)=  0.08084459
 Iteration 24 RMS(Cart)=  0.00186926 RMS(Int)=  0.08061619
 Iteration 25 RMS(Cart)=  0.00182585 RMS(Int)=  0.08039275
 Iteration 26 RMS(Cart)=  0.00177278 RMS(Int)=  0.08017519
 Iteration 27 RMS(Cart)=  0.00167541 RMS(Int)=  0.67365101
 Iteration 28 RMS(Cart)=  0.00425642 RMS(Int)=  0.07935491
 Iteration 29 RMS(Cart)=  0.00219280 RMS(Int)=  0.07908443
 Iteration 30 RMS(Cart)=  0.00213170 RMS(Int)=  0.07882035
 Iteration 31 RMS(Cart)=  0.00204401 RMS(Int)=  0.67336199
 New curvilinear step failed, DQL= 6.52D+00 SP=-8.33D-02.
 ITry= 3 IFail=1 DXMaxC= 5.88D-01 DCOld= 1.00D+10 DXMaxT= 1.43D+00 DXLimC= 3.00D+00 Rises=F
 Iteration  1 RMS(Cart)=  0.13063518 RMS(Int)=  0.11250562
 Iteration  2 RMS(Cart)=  0.06077128 RMS(Int)=  0.08264537
 SLEqS3 Cycle:   691 Max:0.163905     RMS:0.382697E-01 Conv:0.134599    
 SLEqS3 Cycle:    60 Max:0.191403     RMS: 22096.5     Conv:0.134599    
 Iteration  3 RMS(Cart)=  0.02935342 RMS(Int)=  0.06907423
 SLEqS3 Cycle:    29 Max:0.183086     RMS: 954.125     Conv:0.583749E-02
 Iteration  4 RMS(Cart)=  0.02365561 RMS(Int)=  0.06085745
 New curvilinear step failed, DQL= 6.98D+00 SP=-4.69D-03.
 ITry= 4 IFail=1 DXMaxC= 6.56D-01 DCOld= 1.00D+10 DXMaxT= 1.43D+00 DXLimC= 3.00D+00 Rises=F
 Iteration  1 RMS(Cart)=  0.12980320 RMS(Int)=  0.10700650
 Iteration  2 RMS(Cart)=  0.05828230 RMS(Int)=  0.07896912
 New curvilinear step failed, DQL= 7.00D+00 SP=-3.24D-03.
 ITry= 5 IFail=1 DXMaxC= 4.24D-01 DCOld= 1.00D+10 DXMaxT= 1.43D+00 DXLimC= 3.00D+00 Rises=F
 Iteration  1 RMS(Cart)=  0.12968675 RMS(Int)=  0.10268252
 Iteration  2 RMS(Cart)=  0.05756764 RMS(Int)=  0.07540258
 SLEqS3 Cycle:   691 Max:0.157730     RMS:0.366542E-01 Conv:0.975727E-01
 SLEqS3 Cycle:    60 Max:0.189773     RMS: 16045.6     Conv:0.975727E-01
 Iteration  3 RMS(Cart)=  0.02617294 RMS(Int)=  0.06231736
 SLEqS3 Cycle:   691 Max:0.892315E-01 RMS:0.189208E-01 Conv:0.286599E-01
 SLEqS3 Cycle:    60 Max:0.174626     RMS: 4681.20     Conv:0.286599E-01
 Iteration  4 RMS(Cart)=  0.02253368 RMS(Int)=  0.05428954
 SLEqS3 Cycle:    22 Max:0.155011     RMS: 2506.88     Conv:0.154283E-01
 Iteration  5 RMS(Cart)=  0.03728460 RMS(Int)=  0.05300236
 SLEqS3 Cycle:   691 Max:0.843846E-01 RMS:0.163631E-01 Conv:0.243134E-01
 SLEqS3 Cycle:    60 Max:0.144295     RMS: 3901.51     Conv:0.243134E-01
 Iteration  6 RMS(Cart)=  0.01823374 RMS(Int)=  0.05019377
 SLEqS3 Cycle:    29 Max:0.146337     RMS:0.330739E-01 Conv:0.369813E-03
 Iteration  7 RMS(Cart)=  0.00163334 RMS(Int)=  0.05009560
 SLEqS3 Cycle:    30 Max:0.142087     RMS: 23.5954     Conv:0.147461E-03
 Iteration  8 RMS(Cart)=  0.00045811 RMS(Int)=  0.05012330
 SLEqS3 Cycle:    30 Max:0.149821     RMS: 23.2194     Conv:0.145097E-03
 Iteration  9 RMS(Cart)=  0.00016691 RMS(Int)=  0.05011323
 SLEqS3 Cycle:    30 Max:0.142133     RMS: 13.3557     Conv:0.834484E-04
 Iteration 10 RMS(Cart)=  0.00022525 RMS(Int)=  0.05012684
 SLEqS3 Cycle:   691 Max:0.152589     RMS:0.330599E-01 Conv:0.138890E-04
 SLEqS3 Cycle:   691 Max:0.152789     RMS:0.330633E-01 Conv:0.138890E-04
 Iteration 11 RMS(Cart)=  0.01410591 RMS(Int)=  0.04932500
 SLEqS3 Cycle:    15 Max:0.144643     RMS: 550.666     Conv:0.345328E-02
 Iteration 12 RMS(Cart)=  0.00482267 RMS(Int)=  0.04962986
 SLEqS3 Cycle:    30 Max:0.149673     RMS: 694.791     Conv:0.435127E-02
 Iteration 13 RMS(Cart)=  0.00333644 RMS(Int)=  0.04941944
 SLEqS3 Cycle:    15 Max:0.153298     RMS: 39.1894     Conv:0.245694E-03
 Iteration 14 RMS(Cart)=  0.00935464 RMS(Int)=  0.04884544
 SLEqS3 Cycle:    15 Max:0.152703     RMS: 176.842     Conv:0.111140E-02
 Iteration 15 RMS(Cart)=  0.00843983 RMS(Int)=  0.04834542
 SLEqS3 Cycle:    15 Max:0.151526     RMS: 385.933     Conv:0.243097E-02
 Iteration 16 RMS(Cart)=  0.00225144 RMS(Int)=  0.04847828
