### Starting Gaussian ###
 Entering Gaussian System, Link 0=g16
 Initial command:
 /cluster/software/gaussian/gaussian-16-A.03/avx2/g16/l1.exe "/local/scratch/cz9n3/Gau-20755.inp" -scrdir="/local/scratch/cz9n3/"
 Entering Link 1 = /cluster/software/gaussian/gaussian-16-A.03/avx2/g16/l1.exe PID=     20756.
  
 Copyright (c) 1988,1990,1992,1993,1995,1998,2003,2009,2016,
            Gaussian, Inc.  All Rights Reserved.
  
 This is part of the Gaussian(R) 16 program.  It is based on
 the Gaussian(R) 09 system (copyright 2009, Gaussian, Inc.),
 the Gaussian(R) 03 system (copyright 2003, Gaussian, Inc.),
 the Gaussian(R) 98 system (copyright 1998, Gaussian, Inc.),
 the Gaussian(R) 94 system (copyright 1995, Gaussian, Inc.),
 the Gaussian 92(TM) system (copyright 1992, Gaussian, Inc.),
 the Gaussian 90(TM) system (copyright 1990, Gaussian, Inc.),
 the Gaussian 88(TM) system (copyright 1988, Gaussian, Inc.),
 the Gaussian 86(TM) system (copyright 1986, Carnegie Mellon
 University), and the Gaussian 82(TM) system (copyright 1983,
 Carnegie Mellon University). Gaussian is a federally registered
 trademark of Gaussian, Inc.
  
 This software contains proprietary and confidential information,
 including trade secrets, belonging to Gaussian, Inc.
  
 This software is provided under written license and may be
 used, copied, transmitted, or stored only in accord with that
 written license.
  
 The following legend is applicable only to US Government
 contracts under FAR:
  
                    RESTRICTED RIGHTS LEGEND
  
 Use, reproduction and disclosure by the US Government is
 subject to restrictions as set forth in subparagraphs (a)
 and (c) of the Commercial Computer Software - Restricted
 Rights clause in FAR 52.227-19.
  
 Gaussian, Inc.
 340 Quinnipiac St., Bldg. 40, Wallingford CT 06492
  
  
 ---------------------------------------------------------------
 Warning -- This program may not be used in any manner that
 competes with the business of Gaussian, Inc. or will provide
 assistance to any competitor of Gaussian, Inc.  The licensee
 of this program is prohibited from giving any competitor of
 Gaussian, Inc. access to this program.  By using this program,
 the user acknowledges that Gaussian, Inc. is engaged in the
 business of creating and licensing software in the field of
 computational chemistry and represents and warrants to the
 licensee that it is not a competitor of Gaussian, Inc. and that
 it will not use this program in any manner prohibited above.
 ---------------------------------------------------------------
  

 Cite this work as:
 Gaussian 16, Revision A.03,
 M. J. Frisch, G. W. Trucks, H. B. Schlegel, G. E. Scuseria, 
 M. A. Robb, J. R. Cheeseman, G. Scalmani, V. Barone, 
 G. A. Petersson, H. Nakatsuji, X. Li, M. Caricato, A. V. Marenich, 
 J. Bloino, B. G. Janesko, R. Gomperts, B. Mennucci, H. P. Hratchian, 
 J. V. Ortiz, A. F. Izmaylov, J. L. Sonnenberg, D. Williams-Young, 
 F. Ding, F. Lipparini, F. Egidi, J. Goings, B. Peng, A. Petrone, 
 T. Henderson, D. Ranasinghe, V. G. Zakrzewski, J. Gao, N. Rega, 
 G. Zheng, W. Liang, M. Hada, M. Ehara, K. Toyota, R. Fukuda, 
 J. Hasegawa, M. Ishida, T. Nakajima, Y. Honda, O. Kitao, H. Nakai, 
 T. Vreven, K. Throssell, J. A. Montgomery, Jr., J. E. Peralta, 
 F. Ogliaro, M. J. Bearpark, J. J. Heyd, E. N. Brothers, K. N. Kudin, 
 V. N. Staroverov, T. A. Keith, R. Kobayashi, J. Normand, 
 K. Raghavachari, A. P. Rendell, J. C. Burant, S. S. Iyengar, 
 J. Tomasi, M. Cossi, J. M. Millam, M. Klene, C. Adamo, R. Cammi, 
 J. W. Ochterski, R. L. Martin, K. Morokuma, O. Farkas, 
 J. B. Foresman, and D. J. Fox, Gaussian, Inc., Wallingford CT, 2016.
 
 ******************************************
 Gaussian 16:  ES64L-G16RevA.03 25-Dec-2016
                17-May-2023 
 ******************************************
 %chk=[C]1dCCdCCdCCdNCdCCdCSCdC1.chk
 %NProcShared=20
 Will use up to   20 processors via shared memory.
 -----------------------------
 # opt freq b3lyp/6-31g(2df,p)
 -----------------------------
 1/18=20,19=15,26=3,38=1/1,3;
 2/9=110,12=2,17=6,18=5,40=1/2;
 3/5=1,6=6,7=104,11=2,25=1,30=1,71=1,74=-5/1,2,3;
 4//1;
 5/5=2,38=5/2;
 6/7=2,8=2,9=2,10=2,28=1/1;
 7//1,2,3,16;
 1/18=20,19=15,26=3/3(2);
 2/9=110/2;
 99//99;
 2/9=110/2;
 3/5=1,6=6,7=104,11=2,25=1,30=1,71=1,74=-5/1,2,3;
 4/5=5,16=3,69=1/1;
 5/5=2,38=5/2;
 7//1,2,3,16;
 1/18=20,19=15,26=3/3(-5);
 2/9=110/2;
 6/7=2,8=2,9=2,10=2,19=2,28=1/1;
 99/9=1/99;
 -------------------
 Title Card Required
 -------------------
 Symbolic Z-matrix:
 Charge =  0 Multiplicity = 2
 C                     4.79301   0.77628   0.3204 
 C                     3.05564   0.36946   0.11244 
 C                     3.29188   1.56807   0.72516 
 C                     4.86389   2.16672   1.03119 
 C                     5.54988   3.07749   1.49677 
 C                     6.96761   3.05077   1.48311 
 C                     7.01698   4.07844   2.00845 
 N                     8.1329    4.1202    2.0298 
 C                     8.69668   4.97075   2.4646 
 C                     9.85486   4.86463   2.41035 
 C                     11.3982   5.96735   2.97406 
 C                     12.80416   5.72784   2.85162 
 S                     11.33473   4.24667   2.09445 
 C                     8.92271   2.74369   1.32614 
 C                     6.99317   1.67472   0.77968 
 H                     3.01454  -0.75084  -0.46026 
 H                     2.54053   2.15318   1.02427 
 H                     6.00148   0.62477   0.24295 
 H                     4.6244    3.42889   1.67641 
 H                     8.16844   1.83684   0.86255 
 H                     6.61921   4.74676   2.3501 
 H                     8.82268   5.74953   2.86271 
 H                     10.80587   3.22059   1.56992 
 H                     10.98838   6.82414   3.41205 
 H                     13.49069   4.84957   2.40265 
 H                     10.01142   3.75038   1.84075 
 H                     5.28723   1.1886    0.53118 
 

 GradGradGradGradGradGradGradGradGradGradGradGradGradGradGradGradGradGrad
 Berny optimization.
 Initialization pass.
                           ----------------------------
                           !    Initial Parameters    !
                           ! (Angstroms and Degrees)  !
 --------------------------                            --------------------------
 ! Name  Definition              Value          Derivative Info.                !
 --------------------------------------------------------------------------------
 ! R1    R(1,2)                  1.7964         estimate D2E/DX2                !
 ! R2    R(1,3)                  1.7448         estimate D2E/DX2                !
 ! R3    R(1,4)                  1.5632         estimate D2E/DX2                !
 ! R4    R(1,18)                 1.2204         estimate D2E/DX2                !
 ! R5    R(1,27)                 0.6773         estimate D2E/DX2                !
 ! R6    R(2,3)                  1.3667         estimate D2E/DX2                !
 ! R7    R(2,16)                 1.2589         estimate D2E/DX2                !
 ! R8    R(3,4)                  1.7098         estimate D2E/DX2                !
 ! R9    R(3,17)                 0.9982         estimate D2E/DX2                !
 ! R10   R(4,5)                  1.2316         estimate D2E/DX2                !
 ! R11   R(4,27)                 1.1773         estimate D2E/DX2                !
 ! R12   R(5,6)                  1.418          estimate D2E/DX2                !
 ! R13   R(5,19)                 1.0061         estimate D2E/DX2                !
 ! R14   R(6,7)                  1.1552         estimate D2E/DX2                !
 ! R15   R(6,8)                  1.6735         estimate D2E/DX2                !
 ! R16   R(6,15)                 1.5456         estimate D2E/DX2                !
 ! R17   R(7,8)                  1.1169         estimate D2E/DX2                !
 ! R18   R(7,21)                 0.8495         estimate D2E/DX2                !
 ! R19   R(8,9)                  1.1092         estimate D2E/DX2                !
 ! R20   R(8,14)                 1.736          estimate D2E/DX2                !
 ! R21   R(9,10)                 1.1643         estimate D2E/DX2                !
 ! R22   R(9,22)                 0.8837         estimate D2E/DX2                !
 ! R23   R(10,13)                1.6345         estimate D2E/DX2                !
 ! R24   R(10,26)                1.2612         estimate D2E/DX2                !
 ! R25   R(11,12)                1.4315         estimate D2E/DX2                !
 ! R26   R(11,13)                1.9335         estimate D2E/DX2                !
 ! R27   R(11,24)                1.0459         estimate D2E/DX2                !
 ! R28   R(12,25)                1.2018         estimate D2E/DX2                !
 ! R29   R(13,23)                1.2679         estimate D2E/DX2                !
 ! R30   R(13,26)                1.4359         estimate D2E/DX2                !
 ! R31   R(14,20)                1.2674         estimate D2E/DX2                !
 ! R32   R(15,20)                1.1893         estimate D2E/DX2                !
 ! A1    A(2,1,4)              107.3328         estimate D2E/DX2                !
 ! A2    A(2,1,18)             157.2512         estimate D2E/DX2                !
 ! A3    A(2,1,27)             151.5976         estimate D2E/DX2                !
 ! A4    A(3,1,18)             157.3729         estimate D2E/DX2                !
 ! A5    A(3,1,27)             106.2217         estimate D2E/DX2                !
 ! A6    A(4,1,18)              95.416          estimate D2E/DX2                !
 ! A7    A(18,1,27)             51.1512         estimate D2E/DX2                !
 ! A8    A(1,2,16)             106.6049         estimate D2E/DX2                !
 ! A9    A(2,3,4)              123.1097         estimate D2E/DX2                !
 ! A10   A(2,3,17)             121.2192         estimate D2E/DX2                !
 ! A11   A(4,3,17)             115.6711         estimate D2E/DX2                !
 ! A12   A(1,4,5)              148.751          estimate D2E/DX2                !
 ! A13   A(3,4,5)              147.0038         estimate D2E/DX2                !
 ! A14   A(3,4,27)              87.9194         estimate D2E/DX2                !
 ! A15   A(5,4,27)             125.0767         estimate D2E/DX2                !
 ! A16   A(4,5,6)              122.6352         estimate D2E/DX2                !
 ! A17   A(4,5,19)              79.2472         estimate D2E/DX2                !
 ! A18   A(6,5,19)             158.1176         estimate D2E/DX2                !
 ! A19   A(5,6,7)               91.2368         estimate D2E/DX2                !
 ! A20   A(5,6,8)              132.9213         estimate D2E/DX2                !
 ! A21   A(5,6,15)              92.1601         estimate D2E/DX2                !
 ! A22   A(8,6,15)             134.9185         estimate D2E/DX2                !
 ! A23   A(6,7,21)             149.6294         estimate D2E/DX2                !
 ! A24   A(8,7,21)             115.5146         estimate D2E/DX2                !
 ! A25   A(6,8,14)              71.1962         estimate D2E/DX2                !
 ! A26   A(7,8,9)              122.9556         estimate D2E/DX2                !
 ! A27   A(7,8,14)             114.6556         estimate D2E/DX2                !
 ! A28   A(9,8,14)             122.3888         estimate D2E/DX2                !
 ! A29   A(8,9,10)             114.6736         estimate D2E/DX2                !
 ! A30   A(8,9,22)             157.6487         estimate D2E/DX2                !
 ! A31   A(10,9,22)             87.6777         estimate D2E/DX2                !
 ! A32   A(9,10,13)            160.7499         estimate D2E/DX2                !
 ! A33   A(9,10,26)            103.0065         estimate D2E/DX2                !
 ! A34   A(12,11,13)            81.0501         estimate D2E/DX2                !
 ! A35   A(12,11,24)           123.9001         estimate D2E/DX2                !
 ! A36   A(13,11,24)           155.0498         estimate D2E/DX2                !
 ! A37   A(11,12,25)           135.6696         estimate D2E/DX2                !
 ! A38   A(10,13,11)            66.7557         estimate D2E/DX2                !
 ! A39   A(10,13,23)            90.4736         estimate D2E/DX2                !
 ! A40   A(11,13,23)           157.2293         estimate D2E/DX2                !
 ! A41   A(11,13,26)           114.7219         estimate D2E/DX2                !
 ! A42   A(23,13,26)            42.5075         estimate D2E/DX2                !
 ! A43   A(8,14,20)            116.4146         estimate D2E/DX2                !
 ! A44   A(6,15,20)             82.1413         estimate D2E/DX2                !
 ! A45   A(14,20,15)           135.3294         estimate D2E/DX2                !
 ! A46   L(3,2,16,18,-1)       171.9172         estimate D2E/DX2                !
 ! A47   L(1,3,17,5,-1)        169.469          estimate D2E/DX2                !
 ! A48   L(7,6,15,5,-1)        183.3969         estimate D2E/DX2                !
 ! A49   L(6,8,9,14,-1)        193.585          estimate D2E/DX2                !
 ! A50   L(3,2,16,18,-2)       180.0005         estimate D2E/DX2                !
 ! A51   L(1,3,17,5,-2)        180.0002         estimate D2E/DX2                !
 ! A52   L(7,6,15,5,-2)        180.0            estimate D2E/DX2                !
 ! A53   L(6,8,9,14,-2)        180.0001         estimate D2E/DX2                !
 ! D1    D(4,1,2,16)           179.9998         estimate D2E/DX2                !
 ! D2    D(18,1,2,16)           -0.0008         estimate D2E/DX2                !
 ! D3    D(27,1,2,16)         -179.9995         estimate D2E/DX2                !
 ! D4    D(2,1,4,5)           -179.9999         estimate D2E/DX2                !
 ! D5    D(18,1,4,5)             0.0004         estimate D2E/DX2                !
 ! D6    D(2,3,4,5)            180.0            estimate D2E/DX2                !
 ! D7    D(2,3,4,27)             0.0002         estimate D2E/DX2                !
 ! D8    D(17,3,4,5)            -0.0005         estimate D2E/DX2                !
 ! D9    D(17,3,4,27)          179.9997         estimate D2E/DX2                !
 ! D10   D(1,4,5,6)             -0.0003         estimate D2E/DX2                !
 ! D11   D(1,4,5,19)           180.0            estimate D2E/DX2                !
 ! D12   D(3,4,5,6)           -179.9998         estimate D2E/DX2                !
 ! D13   D(3,4,5,19)             0.0005         estimate D2E/DX2                !
 ! D14   D(27,4,5,6)             0.0            estimate D2E/DX2                !
 ! D15   D(27,4,5,19)         -179.9997         estimate D2E/DX2                !
 ! D16   D(4,5,6,7)           -180.0            estimate D2E/DX2                !
 ! D17   D(4,5,6,8)           -179.9998         estimate D2E/DX2                !
 ! D18   D(4,5,6,15)             0.0            estimate D2E/DX2                !
 ! D19   D(19,5,6,7)            -0.0007         estimate D2E/DX2                !
 ! D20   D(19,5,6,8)            -0.0006         estimate D2E/DX2                !
 ! D21   D(19,5,6,15)          179.9993         estimate D2E/DX2                !
 ! D22   D(5,6,7,21)             0.0009         estimate D2E/DX2                !
 ! D23   D(5,6,9,10)          -179.9999         estimate D2E/DX2                !
 ! D24   D(5,6,9,22)            -0.0001         estimate D2E/DX2                !
 ! D25   D(15,6,9,10)            0.0003         estimate D2E/DX2                !
 ! D26   D(15,6,9,22)         -179.9999         estimate D2E/DX2                !
 ! D27   D(21,7,15,20)        -179.9992         estimate D2E/DX2                !
 ! D28   D(5,6,8,14)           179.9997         estimate D2E/DX2                !
 ! D29   D(15,6,8,14)           -0.0001         estimate D2E/DX2                !
 ! D30   D(5,6,15,20)          179.9998         estimate D2E/DX2                !
 ! D31   D(8,6,15,20)           -0.0003         estimate D2E/DX2                !
 ! D32   D(21,7,8,9)            -0.0005         estimate D2E/DX2                !
 ! D33   D(21,7,8,14)          179.9993         estimate D2E/DX2                !
 ! D34   D(7,8,9,10)          -179.9998         estimate D2E/DX2                !
 ! D35   D(7,8,9,22)            -0.0001         estimate D2E/DX2                !
 ! D36   D(14,8,9,10)            0.0004         estimate D2E/DX2                !
 ! D37   D(14,8,9,22)         -179.9998         estimate D2E/DX2                !
 ! D38   D(6,8,14,20)            0.0005         estimate D2E/DX2                !
 ! D39   D(7,8,14,20)            0.0006         estimate D2E/DX2                !
 ! D40   D(9,8,14,20)         -179.9996         estimate D2E/DX2                !
 ! D41   D(8,9,10,13)           -0.0003         estimate D2E/DX2                !
 ! D42   D(8,9,10,26)           -0.0002         estimate D2E/DX2                !
 ! D43   D(22,9,10,13)         179.9998         estimate D2E/DX2                !
 ! D44   D(22,9,10,26)         179.9999         estimate D2E/DX2                !
 ! D45   D(9,10,13,11)        -179.9997         estimate D2E/DX2                !
 ! D46   D(9,10,13,23)           0.0002         estimate D2E/DX2                !
 ! D47   D(13,11,12,25)         -0.0001         estimate D2E/DX2                !
 ! D48   D(24,11,12,25)        179.9999         estimate D2E/DX2                !
 ! D49   D(12,11,13,10)       -179.9999         estimate D2E/DX2                !
 ! D50   D(12,11,13,23)        180.0            estimate D2E/DX2                !
 ! D51   D(12,11,13,26)        180.0            estimate D2E/DX2                !
 ! D52   D(24,11,13,10)          0.0            estimate D2E/DX2                !
 ! D53   D(24,11,13,23)         -0.0001         estimate D2E/DX2                !
 ! D54   D(24,11,13,26)         -0.0001         estimate D2E/DX2                !
 ! D55   D(8,14,20,15)          -0.0012         estimate D2E/DX2                !
 ! D56   D(6,15,20,14)           0.0009         estimate D2E/DX2                !
 --------------------------------------------------------------------------------
 Trust Radius=3.00D-01 FncErr=1.00D-07 GrdErr=1.00D-06 EigMax=2.50D+02 EigMin=1.00D-04
 Number of steps in this run=    151 maximum allowed number of steps=    162.
 GradGradGradGradGradGradGradGradGradGradGradGradGradGradGradGradGradGrad

                          Input orientation:                          
 ---------------------------------------------------------------------
 Center     Atomic      Atomic             Coordinates (Angstroms)
 Number     Number       Type             X           Y           Z
 ---------------------------------------------------------------------
      1          6           0        4.793010    0.776280    0.320400
      2          6           0        3.055640    0.369460    0.112440
      3          6           0        3.291880    1.568070    0.725160
      4          6           0        4.863890    2.166720    1.031190
      5          6           0        5.549880    3.077490    1.496770
      6          6           0        6.967610    3.050770    1.483110
      7          6           0        7.016980    4.078440    2.008450
      8          7           0        8.132900    4.120200    2.029800
      9          6           0        8.696680    4.970750    2.464600
     10          6           0        9.854860    4.864630    2.410350
     11          6           0       11.398200    5.967350    2.974060
     12          6           0       12.804160    5.727840    2.851620
     13         16           0       11.334730    4.246670    2.094450
     14          6           0        8.922710    2.743690    1.326140
     15          6           0        6.993170    1.674720    0.779680
     16          1           0        3.014540   -0.750840   -0.460260
     17          1           0        2.540530    2.153180    1.024270
     18          1           0        6.001480    0.624770    0.242950
     19          1           0        4.624400    3.428890    1.676410
     20          1           0        8.168440    1.836840    0.862550
     21          1           0        6.619210    4.746760    2.350100
     22          1           0        8.822680    5.749530    2.862710
     23          1           0       10.805870    3.220590    1.569920
     24          1           0       10.988380    6.824140    3.412050
     25          1           0       13.490690    4.849570    2.402650
     26          1           0       10.011420    3.750380    1.840750
     27          1           0        5.287230    1.188600    0.531180
 ---------------------------------------------------------------------
                    Distance matrix (angstroms):
                    1          2          3          4          5
     1  C    0.000000
     2  C    1.796442   0.000000
     3  C    1.744750   1.366712   0.000000
     4  C    1.563192   2.709984   1.709752   0.000000
     5  C    2.693003   3.933323   2.823525   1.231604   0.000000
     6  C    3.354711   4.936767   4.035329   2.326245   1.418048
     7  C    4.324328   5.748356   4.671741   3.040643   1.848269
     8  N    5.025805   6.597188   5.625916   3.936970   2.836081
     9  C    6.117991   7.650220   6.619346   4.960598   3.797826
    10  C    6.834093   8.468550   7.535243   5.838714   4.749879
    11  C    8.810088  10.446222   9.493347   7.804918   6.688537
    12  C    9.752105  11.456395  10.597594   8.890637   7.841209
    13  S    7.614786   9.354381   8.587042   6.879570   5.932006
    14  C    4.683656   6.444575   5.783555   4.110220   3.393600
    15  C    2.420503   4.201554   3.703228   2.199808   2.136602
    16  H    2.470725   1.258867   2.619061   3.762536   4.991395
    17  H    2.732207   2.068436   0.998172   2.323410   3.183362
    18  H    1.220391   2.959762   2.909342   2.071966   2.791387
    19  H    2.983879   3.777184   2.478535   1.437615   1.006114
    20  H    3.579419   5.371833   4.885893   3.325254   2.966194
    21  H    4.818651   6.071813   4.880126   3.387813   2.158263
    22  H    6.887292   8.352717   7.255582   5.644733   4.440361
    23  H    6.609874   8.385658   7.739799   6.058713   5.258446
    24  H    9.193341  10.746101   9.699575   8.054156   6.876261
    25  H    9.827365  11.584762  10.844258   9.137848   8.186412
    26  H    6.195848   7.924680   7.152568   5.446139   4.525090
    27  H    0.677266   2.413779   2.040355   1.177262   2.137581
                    6          7          8          9         10
     6  C    0.000000
     7  C    1.155216   0.000000
     8  N    1.673455   1.116905   0.000000
     9  C    2.763934   1.955935   1.109204   0.000000
    10  C    3.533564   2.972067   1.914194   1.164296   0.000000
    11  C    5.509945   4.867800   3.868562   2.924204   1.978802
    12  C    6.565428   6.076422   5.008050   4.194563   3.104548
    13  S    4.568988   4.321882   3.204979   2.760545   1.634528
    14  C    1.985284   2.424647   1.736006   2.511370   2.557890
    15  C    1.545633   2.699687   2.973576   4.074888   4.585180
    16  H    5.818564   6.740623   7.491665   8.577769   9.303971
    17  H    4.540401   4.971302   6.012891   6.921809   7.922916
    18  H    2.890827   4.009497   4.466969   5.575605   6.125567
    19  H    2.381380   2.501321   3.593378   4.425160   5.473365
    20  H    1.816787   2.768342   2.564658   3.559072   3.795683
    21  H    1.936346   0.849469   1.669259   2.092645   3.238357
    22  H    3.553574   2.604391   1.955569   0.883666   1.432855
    23  H    3.842996   3.909463   2.857544   2.883088   2.076923
    24  H    5.841723   5.028019   4.168414   3.095901   2.475470
    25  H    6.828749   6.531382   5.420047   4.795941   3.635869
    26  H    3.143587   3.017021   1.923888   1.899219   1.261154
    27  H    2.682820   3.677708   4.351779   5.446753   6.156925
                   11         12         13         14         15
    11  C    0.000000
    12  C    1.431461   0.000000
    13  S    1.933515   2.219548   0.000000
    14  C    4.385849   5.128147   2.943992   0.000000
    15  C    6.530411   7.381621   5.214661   2.272540   0.000000
    16  H   11.278935  12.197479  10.036295   7.092915   4.821855
    17  H    9.839100  11.020867   9.103073   6.416545   4.484947
    18  H    8.070112   8.895108   6.707441   3.767852   1.540754
    19  H    7.349288   8.577573   6.772891   4.366653   3.080959
    20  H    5.652516   6.370728   4.165363   1.267366   1.189290
    21  H    4.971711   6.282328   4.748850   3.219766   3.470374
    22  H    2.587112   3.981555   3.026418   3.377296   4.928509
    23  H    3.141203   3.452857   1.267937   1.957844   4.189376
    24  H    1.045886   2.193858   2.915370   5.026737   7.029054
    25  H    2.440175   1.201772   2.259787   5.143933   7.411577
    26  H    2.850001   3.568137   1.435903   1.569566   3.813668
    27  H    8.133146   9.082587   6.954701   4.033235   1.791172
                   16         17         18         19         20
    16  H    0.000000
    17  H    3.295732   0.000000
    18  H    3.362829   3.863246   0.000000
    19  H    4.962575   2.528881   3.437186   0.000000
    20  H    5.916807   5.639113   2.559049   3.969535   0.000000
    21  H    7.149502   5.011997   4.670383   2.483930   3.616705
    22  H    9.329064   7.468534   6.409795   4.941481   4.442726
    23  H    8.977678   8.351823   5.619724   6.185895   3.061237
    24  H   11.660070   9.944120   8.564144   7.418922   6.270979
    25  H   12.219270  11.361182   8.865749   9.008710   6.306726
    26  H    8.632031   7.683221   5.329355   5.399106   2.831093
    27  H    3.147936   2.952611   0.954533   2.601883   2.971766
                   21         22         23         24         25
    21  H    0.000000
    22  H    2.474590   0.000000
    23  H    4.523936   3.464085   0.000000
    24  H    4.953069   2.479278   4.051213   0.000000
    25  H    6.872450   4.776181   3.248888   3.343557   0.000000
    26  H    3.572016   2.540493   0.992561   3.587678   3.691784
    27  H    4.212261   6.223947   5.971880   8.518323   9.176157
                   26         27
    26  H    0.000000
    27  H    5.531335   0.000000
 Stoichiometry    C13H12NS(2)
 Framework group  C1[X(C13H12NS)]
 Deg. of freedom    75
 Full point group                 C1      NOp   1
 Largest Abelian subgroup         C1      NOp   1
 Largest concise Abelian subgroup C1      NOp   1
                         Standard orientation:                         
 ---------------------------------------------------------------------
 Center     Atomic      Atomic             Coordinates (Angstroms)
 Number     Number       Type             X           Y           Z
 ---------------------------------------------------------------------
      1          6           0       -4.160365   -0.941494   -0.000001
      2          6           0       -5.891032   -0.459832    0.000003
      3          6           0       -5.008147    0.583439   -0.000001
      4          6           0       -3.311617    0.371212    0.000001
      5          6           0       -2.203397    0.908518   -0.000001
      6          6           0       -0.994300    0.167611   -0.000002
      7          6           0       -0.369599    1.139349   -0.000003
      8          7           0        0.617669    0.617065   -0.000001
      9          6           0        1.586251    1.157604    0.000001
     10          6           0        2.526251    0.470592   -0.000001
     11          6           0        4.483527    0.761673    0.000003
     12          6           0        5.561937   -0.179663   -0.000000
     13         16           0        3.454130   -0.875039   -0.000001
     14          6           0        0.520032   -1.116193    0.000006
     15          6           0       -1.751619   -1.179775   -0.000000
     16          1           0       -6.561059   -1.525576   -0.000003
     17          1           0       -5.325543    1.529804    0.000002
     18          1           0       -3.202647   -1.697886    0.000000
     19          1           0       -2.803530    1.716048    0.000003
     20          1           0       -0.644932   -1.615267   -0.000005
     21          1           0       -0.334543    1.988094    0.000003
     22          1           0        2.136153    1.849322    0.000001
     23          1           0        2.416282   -1.603418   -0.000003
     24          1           0        4.614925    1.799272    0.000004
     25          1           0        5.657316   -1.377644   -0.000001
     26          1           0        2.030335   -0.688966    0.000000
     27          1           0       -3.500061   -0.790870    0.000002
 ---------------------------------------------------------------------
 Rotational constants (GHZ):           3.1237347           0.2066211           0.1938019
 Standard basis: 6-31G(2df,p) (6D, 7F)
 There are   529 symmetry adapted cartesian basis functions of A   symmetry.
 There are   484 symmetry adapted basis functions of A   symmetry.
   484 basis functions,   768 primitive gaussians,   529 cartesian basis functions
    57 alpha electrons       56 beta electrons
       nuclear repulsion energy      1004.7117147423 Hartrees.
 NAtoms=   27 NActive=   27 NUniq=   27 SFac= 1.00D+00 NAtFMM=   60 NAOKFM=F Big=F
 Integral buffers will be    131072 words long.
 Raffenetti 2 integral format.
 Two-electron integral symmetry is turned on.
 One-electron integrals computed using PRISM.
 PrsmSu:  requested number of processors reduced to:  12 ShMem   1 Linda.
 NBasis=   484 RedAO= T EigKep=  5.86D-05  NBF=   484
 NBsUse=   484 1.00D-06 EigRej= -1.00D+00 NBFU=   484
 ExpMin= 1.17D-01 ExpMax= 2.19D+04 ExpMxC= 3.30D+03 IAcc=3 IRadAn=         5 AccDes= 0.00D+00
 Harris functional with IExCor=  402 and IRadAn=       5 diagonalized for initial guess.
 HarFok:  IExCor=  402 AccDes= 0.00D+00 IRadAn=         5 IDoV= 1 UseB2=F ITyADJ=14
 ICtDFT=  3500011 ScaDFX=  1.000000  1.000000  1.000000  1.000000
 FoFCou: FMM=F IPFlag=           0 FMFlag=      100000 FMFlg1=           0
         NFxFlg=           0 DoJE=T BraDBF=F KetDBF=T FulRan=T
         wScrn=  0.000000 ICntrl=       500 IOpCl=  0 I1Cent=   200000004 NGrid=           0
         NMat0=    1 NMatS0=      1 NMatT0=    0 NMatD0=    1 NMtDS0=    0 NMtDT0=    0
 Petite list used in FoFCou.
 Initial guess <Sx>= 0.0000 <Sy>= 0.0000 <Sz>= 0.5000 <S**2>= 0.7500 S= 0.5000
 Requested convergence on RMS density matrix=1.00D-08 within 128 cycles.
 Requested convergence on MAX density matrix=1.00D-06.
 Requested convergence on             energy=1.00D-06.
 No special actions if energy rises.
 Integral accuracy reduced to 1.0D-05 until final iterations.
 EnCoef did     4 forward-backward iterations
 EnCoef did   100 forward-backward iterations
 EnCoef did   100 forward-backward iterations
 EnCoef did     9 forward-backward iterations
 Initial convergence to 1.6D-05 achieved.  Increase integral accuracy.
 SCF Done:  E(UB3LYP) =  -953.121562171     A.U. after   39 cycles
            NFock= 39  Conv=0.91D-08     -V/T= 1.9969
 <Sx>= 0.0000 <Sy>= 0.0000 <Sz>= 0.5000 <S**2>= 1.0714 S= 0.6495
 <L.S>=  0.00000000000    
 Annihilation of the first spin contaminant:
 S**2 before annihilation     1.0714,   after     0.7718

 **********************************************************************

            Population analysis using the SCF density.

 **********************************************************************

 Orbital symmetries:
 Alpha Orbitals:
       Occupied  (A) (A) (A) (A) (A) (A) (A) (A) (A) (A) (A) (A)
                 (A) (A) (A) (A) (A) (A) (A) (A) (A) (A) (A) (A)
                 (A) (A) (A) (A) (A) (A) (A) (A) (A) (A) (A) (A)
                 (A) (A) (A) (A) (A) (A) (A) (A) (A) (A) (A) (A)
                 (A) (A) (A) (A) (A) (A) (A) (A) (A)
       Virtual   (A) (A) (A) (A) (A) (A) (A) (A) (A) (A) (A) (A)
                 (A) (A) (A) (A) (A) (A) (A) (A) (A) (A) (A) (A)
                 (A) (A) (A) (A) (A) (A) (A) (A) (A) (A) (A) (A)
                 (A) (A) (A) (A) (A) (A) (A) (A) (A) (A) (A) (A)
                 (A) (A) (A) (A) (A) (A) (A) (A) (A) (A) (A) (A)
                 (A) (A) (A) (A) (A) (A) (A) (A) (A) (A) (A) (A)
                 (A) (A) (A) (A) (A) (A) (A) (A) (A) (A) (A) (A)
                 (A) (A) (A) (A) (A) (A) (A) (A) (A) (A) (A) (A)
                 (A) (A) (A) (A) (A) (A) (A) (A) (A) (A) (A) (A)
                 (A) (A) (A) (A) (A) (A) (A) (A) (A) (A) (A) (A)
                 (A) (A) (A) (A) (A) (A) (A) (A) (A) (A) (A) (A)
                 (A) (A) (A) (A) (A) (A) (A) (A) (A) (A) (A) (A)
                 (A) (A) (A) (A) (A) (A) (A) (A) (A) (A) (A) (A)
                 (A) (A) (A) (A) (A) (A) (A) (A) (A) (A) (A) (A)
                 (A) (A) (A) (A) (A) (A) (A) (A) (A) (A) (A) (A)
                 (A) (A) (A) (A) (A) (A) (A) (A) (A) (A) (A) (A)
                 (A) (A) (A) (A) (A) (A) (A) (A) (A) (A) (A) (A)
                 (A) (A) (A) (A) (A) (A) (A) (A) (A) (A) (A) (A)
                 (A) (A) (A) (A) (A) (A) (A) (A) (A) (A) (A) (A)
                 (A) (A) (A) (A) (A) (A) (A) (A) (A) (A) (A) (A)
                 (A) (A) (A) (A) (A) (A) (A) (A) (A) (A) (A) (A)
                 (A) (A) (A) (A) (A) (A) (A) (A) (A) (A) (A) (A)
                 (A) (A) (A) (A) (A) (A) (A) (A) (A) (A) (A) (A)
                 (A) (A) (A) (A) (A) (A) (A) (A) (A) (A) (A) (A)
                 (A) (A) (A) (A) (A) (A) (A) (A) (A) (A) (A) (A)
                 (A) (A) (A) (A) (A) (A) (A) (A) (A) (A) (A) (A)
                 (A) (A) (A) (A) (A) (A) (A) (A) (A) (A) (A) (A)
                 (A) (A) (A) (A) (A) (A) (A) (A) (A) (A) (A) (A)
                 (A) (A) (A) (A) (A) (A) (A) (A) (A) (A) (A) (A)
                 (A) (A) (A) (A) (A) (A) (A) (A) (A) (A) (A) (A)
                 (A) (A) (A) (A) (A) (A) (A) (A) (A) (A) (A) (A)
                 (A) (A) (A) (A) (A) (A) (A) (A) (A) (A) (A) (A)
                 (A) (A) (A) (A) (A) (A) (A) (A) (A) (A) (A) (A)
                 (A) (A) (A) (A) (A) (A) (A) (A) (A) (A) (A) (A)
                 (A) (A) (A) (A) (A) (A) (A) (A) (A) (A) (A) (A)
                 (A) (A) (A) (A) (A) (A) (A)
 Beta  Orbitals:
       Occupied  (A) (A) (A) (A) (A) (A) (A) (A) (A) (A) (A) (A)
                 (A) (A) (A) (A) (A) (A) (A) (A) (A) (A) (A) (A)
                 (A) (A) (A) (A) (A) (A) (A) (A) (A) (A) (A) (A)
                 (A) (A) (A) (A) (A) (A) (A) (A) (A) (A) (A) (A)
                 (A) (A) (A) (A) (A) (A) (A) (A)
       Virtual   (A) (A) (A) (A) (A) (A) (A) (A) (A) (A) (A) (A)
                 (A) (A) (A) (A) (A) (A) (A) (A) (A) (A) (A) (A)
                 (A) (A) (A) (A) (A) (A) (A) (A) (A) (A) (A) (A)
                 (A) (A) (A) (A) (A) (A) (A) (A) (A) (A) (A) (A)
                 (A) (A) (A) (A) (A) (A) (A) (A) (A) (A) (A) (A)
                 (A) (A) (A) (A) (A) (A) (A) (A) (A) (A) (A) (A)
                 (A) (A) (A) (A) (A) (A) (A) (A) (A) (A) (A) (A)
                 (A) (A) (A) (A) (A) (A) (A) (A) (A) (A) (A) (A)
                 (A) (A) (A) (A) (A) (A) (A) (A) (A) (A) (A) (A)
                 (A) (A) (A) (A) (A) (A) (A) (A) (A) (A) (A) (A)
                 (A) (A) (A) (A) (A) (A) (A) (A) (A) (A) (A) (A)
                 (A) (A) (A) (A) (A) (A) (A) (A) (A) (A) (A) (A)
                 (A) (A) (A) (A) (A) (A) (A) (A) (A) (A) (A) (A)
                 (A) (A) (A) (A) (A) (A) (A) (A) (A) (A) (A) (A)
                 (A) (A) (A) (A) (A) (A) (A) (A) (A) (A) (A) (A)
                 (A) (A) (A) (A) (A) (A) (A) (A) (A) (A) (A) (A)
                 (A) (A) (A) (A) (A) (A) (A) (A) (A) (A) (A) (A)
                 (A) (A) (A) (A) (A) (A) (A) (A) (A) (A) (A) (A)
                 (A) (A) (A) (A) (A) (A) (A) (A) (A) (A) (A) (A)
                 (A) (A) (A) (A) (A) (A) (A) (A) (A) (A) (A) (A)
                 (A) (A) (A) (A) (A) (A) (A) (A) (A) (A) (A) (A)
                 (A) (A) (A) (A) (A) (A) (A) (A) (A) (A) (A) (A)
                 (A) (A) (A) (A) (A) (A) (A) (A) (A) (A) (A) (A)
                 (A) (A) (A) (A) (A) (A) (A) (A) (A) (A) (A) (A)
                 (A) (A) (A) (A) (A) (A) (A) (A) (A) (A) (A) (A)
                 (A) (A) (A) (A) (A) (A) (A) (A) (A) (A) (A) (A)
                 (A) (A) (A) (A) (A) (A) (A) (A) (A) (A) (A) (A)
                 (A) (A) (A) (A) (A) (A) (A) (A) (A) (A) (A) (A)
                 (A) (A) (A) (A) (A) (A) (A) (A) (A) (A) (A) (A)
                 (A) (A) (A) (A) (A) (A) (A) (A) (A) (A) (A) (A)
                 (A) (A) (A) (A) (A) (A) (A) (A) (A) (A) (A) (A)
                 (A) (A) (A) (A) (A) (A) (A) (A) (A) (A) (A) (A)
                 (A) (A) (A) (A) (A) (A) (A) (A) (A) (A) (A) (A)
                 (A) (A) (A) (A) (A) (A) (A) (A) (A) (A) (A) (A)
                 (A) (A) (A) (A) (A) (A) (A) (A) (A) (A) (A) (A)
                 (A) (A) (A) (A) (A) (A) (A) (A)
 The electronic state is 2-A.
 Alpha  occ. eigenvalues --  -88.91868 -14.36428 -10.26374 -10.26262 -10.25699
 Alpha  occ. eigenvalues --  -10.23412 -10.22361 -10.22006 -10.21911 -10.20380
 Alpha  occ. eigenvalues --  -10.19903 -10.18447 -10.17718 -10.17091 -10.16305
 Alpha  occ. eigenvalues --   -7.97802  -5.94250  -5.94099  -5.93231  -1.14224
 Alpha  occ. eigenvalues --   -0.99091  -0.96689  -0.90059  -0.84255  -0.80427
 Alpha  occ. eigenvalues --   -0.78694  -0.76957  -0.73572  -0.69005  -0.66022
 Alpha  occ. eigenvalues --   -0.60102  -0.59172  -0.58532  -0.54803  -0.54741
 Alpha  occ. eigenvalues --   -0.54166  -0.50463  -0.47564  -0.46854  -0.43976
 Alpha  occ. eigenvalues --   -0.42613  -0.41320  -0.39567  -0.38624  -0.36116
 Alpha  occ. eigenvalues --   -0.33565  -0.33197  -0.31563  -0.28195  -0.24684
 Alpha  occ. eigenvalues --   -0.24126  -0.23970  -0.22443  -0.21799  -0.20148
 Alpha  occ. eigenvalues --   -0.17667  -0.17539
 Alpha virt. eigenvalues --   -0.08059  -0.06507  -0.03689  -0.01667  -0.00664
 Alpha virt. eigenvalues --   -0.00376   0.01159   0.04244   0.05680   0.06779
 Alpha virt. eigenvalues --    0.08860   0.09353   0.09709   0.10970   0.11977
 Alpha virt. eigenvalues --    0.12034   0.13800   0.14341   0.15061   0.15880
 Alpha virt. eigenvalues --    0.18703   0.20887   0.22102   0.24095   0.25516
 Alpha virt. eigenvalues --    0.26627   0.29065   0.30862   0.32018   0.33185
 Alpha virt. eigenvalues --    0.35575   0.35708   0.36160   0.37147   0.37584
 Alpha virt. eigenvalues --    0.38390   0.39758   0.41402   0.42816   0.45600
 Alpha virt. eigenvalues --    0.45799   0.46677   0.47131   0.48260   0.49519
 Alpha virt. eigenvalues --    0.50425   0.50910   0.51586   0.52623   0.53762
 Alpha virt. eigenvalues --    0.55130   0.55403   0.55473   0.57275   0.57370
 Alpha virt. eigenvalues --    0.58397   0.58499   0.59842   0.60647   0.60841
 Alpha virt. eigenvalues --    0.62568   0.62892   0.63732   0.64009   0.64889
 Alpha virt. eigenvalues --    0.66294   0.68114   0.69380   0.70031   0.70298
 Alpha virt. eigenvalues --    0.70803   0.71315   0.71366   0.72586   0.73621
 Alpha virt. eigenvalues --    0.73975   0.75903   0.76393   0.76619   0.77477
 Alpha virt. eigenvalues --    0.78512   0.79430   0.79969   0.80435   0.82013
 Alpha virt. eigenvalues --    0.82340   0.84450   0.86670   0.86735   0.87552
 Alpha virt. eigenvalues --    0.88287   0.88860   0.89190   0.89931   0.92513
 Alpha virt. eigenvalues --    0.93956   0.94114   0.94223   0.95270   0.95676
 Alpha virt. eigenvalues --    0.96094   0.98039   1.01320   1.03119   1.04516
 Alpha virt. eigenvalues --    1.04901   1.06627   1.06807   1.08120   1.08182
 Alpha virt. eigenvalues --    1.09594   1.10091   1.11282   1.13265   1.14519
 Alpha virt. eigenvalues --    1.15303   1.16404   1.17721   1.20077   1.21603
 Alpha virt. eigenvalues --    1.22667   1.23496   1.25328   1.25539   1.26820
 Alpha virt. eigenvalues --    1.27737   1.29078   1.31496   1.31577   1.33489
 Alpha virt. eigenvalues --    1.33949   1.34524   1.35048   1.37312   1.37761
 Alpha virt. eigenvalues --    1.38621   1.39309   1.43675   1.44065   1.46174
 Alpha virt. eigenvalues --    1.46635   1.48421   1.49481   1.49486   1.52002
 Alpha virt. eigenvalues --    1.53479   1.54882   1.55738   1.58775   1.60102
 Alpha virt. eigenvalues --    1.60252   1.61258   1.63133   1.66319   1.66585
 Alpha virt. eigenvalues --    1.66730   1.69953   1.71992   1.73563   1.73584
 Alpha virt. eigenvalues --    1.74801   1.76839   1.78676   1.80170   1.81555
 Alpha virt. eigenvalues --    1.84845   1.88314   1.89652   1.92616   1.94847
 Alpha virt. eigenvalues --    1.95917   1.99733   2.00534   2.02852   2.04579
 Alpha virt. eigenvalues --    2.05539   2.06854   2.07030   2.08321   2.10040
 Alpha virt. eigenvalues --    2.10211   2.12456   2.15849   2.17298   2.17931
 Alpha virt. eigenvalues --    2.20435   2.21133   2.24399   2.26658   2.29173
 Alpha virt. eigenvalues --    2.30616   2.32493   2.34046   2.35008   2.38087
 Alpha virt. eigenvalues --    2.39254   2.39886   2.39912   2.43409   2.43656
 Alpha virt. eigenvalues --    2.44606   2.45497   2.46559   2.47662   2.48518
 Alpha virt. eigenvalues --    2.48963   2.52582   2.53412   2.59635   2.60259
 Alpha virt. eigenvalues --    2.62117   2.63246   2.63408   2.65235   2.65335
 Alpha virt. eigenvalues --    2.67682   2.68814   2.71813   2.77026   2.77048
 Alpha virt. eigenvalues --    2.77785   2.80139   2.81267   2.82550   2.83712
 Alpha virt. eigenvalues --    2.84959   2.86492   2.87585   2.88060   2.90078
 Alpha virt. eigenvalues --    2.90750   2.92944   2.93091   2.94678   2.95375
 Alpha virt. eigenvalues --    2.95910   2.97784   2.98750   3.00460   3.01376
 Alpha virt. eigenvalues --    3.02364   3.03689   3.03886   3.05519   3.05577
 Alpha virt. eigenvalues --    3.06054   3.06497   3.09702   3.11500   3.12204
 Alpha virt. eigenvalues --    3.12504   3.14356   3.15373   3.16319   3.17344
 Alpha virt. eigenvalues --    3.18059   3.18783   3.19849   3.20175   3.23499
 Alpha virt. eigenvalues --    3.26274   3.27017   3.27139   3.28600   3.30235
 Alpha virt. eigenvalues --    3.31506   3.32643   3.33105   3.34591   3.36304
 Alpha virt. eigenvalues --    3.37399   3.38093   3.38369   3.41086   3.41695
 Alpha virt. eigenvalues --    3.42603   3.42812   3.46439   3.46568   3.49233
 Alpha virt. eigenvalues --    3.51430   3.51686   3.53735   3.56824   3.57921
 Alpha virt. eigenvalues --    3.58965   3.59872   3.61111   3.63229   3.63722
 Alpha virt. eigenvalues --    3.64674   3.69315   3.69508   3.70775   3.73140
 Alpha virt. eigenvalues --    3.75125   3.75344   3.76780   3.79436   3.81647
 Alpha virt. eigenvalues --    3.82338   3.83106   3.85097   3.86772   3.87123
 Alpha virt. eigenvalues --    3.87800   3.89418   3.91881   3.93879   3.94716
 Alpha virt. eigenvalues --    3.96559   4.00000   4.03363   4.05546   4.06526
 Alpha virt. eigenvalues --    4.07331   4.08408   4.11333   4.13411   4.13658
 Alpha virt. eigenvalues --    4.16483   4.18289   4.20844   4.23329   4.25592
 Alpha virt. eigenvalues --    4.27281   4.29883   4.31414   4.31820   4.32423
 Alpha virt. eigenvalues --    4.32594   4.33308   4.33779   4.36879   4.39149
 Alpha virt. eigenvalues --    4.39443   4.40803   4.42591   4.43850   4.45513
 Alpha virt. eigenvalues --    4.46109   4.47109   4.47739   4.48777   4.49202
 Alpha virt. eigenvalues --    4.50253   4.52384   4.52592   4.55411   4.56496
 Alpha virt. eigenvalues --    4.57011   4.58911   4.58974   4.61255   4.63381
 Alpha virt. eigenvalues --    4.67200   4.68204   4.71208   4.72834   4.74240
 Alpha virt. eigenvalues --    4.78586   4.79585   4.81769   4.82766   4.86102
 Alpha virt. eigenvalues --    4.87322   4.91626   4.92896   4.97480   4.98995
 Alpha virt. eigenvalues --    5.00443   5.01476   5.03017   5.06666   5.07806
 Alpha virt. eigenvalues --    5.08995   5.12744   5.14199   5.15969   5.17276
 Alpha virt. eigenvalues --    5.20777   5.22140   5.22776   5.26278   5.28424
 Alpha virt. eigenvalues --    5.31813   5.35753   5.36355   5.37146   5.43083
 Alpha virt. eigenvalues --    5.47284   5.48269   5.50775   5.54479   5.61629
 Alpha virt. eigenvalues --    5.66316   5.83613   5.87874   5.88405   5.97525
 Alpha virt. eigenvalues --    6.02681   6.11096   6.25538   6.36886   6.51079
 Alpha virt. eigenvalues --    6.54137   6.68736   6.77381   6.91317   7.44034
 Alpha virt. eigenvalues --    8.50907   9.37542   9.97840  10.19460  10.39920
 Alpha virt. eigenvalues --   10.51229  10.76435  10.98301  11.09074  11.36496
 Alpha virt. eigenvalues --   11.43147  11.47934  11.75962  12.38513  12.54058
 Alpha virt. eigenvalues --   13.02303  34.08887
  Beta  occ. eigenvalues --  -88.91861 -14.36488 -10.26467 -10.26123 -10.24600
  Beta  occ. eigenvalues --  -10.22413 -10.22392 -10.22019 -10.21871 -10.20559
  Beta  occ. eigenvalues --  -10.20396 -10.18444 -10.17682 -10.16971 -10.16252
  Beta  occ. eigenvalues --   -7.97795  -5.94245  -5.94090  -5.93213  -1.14188
  Beta  occ. eigenvalues --   -0.98119  -0.96547  -0.89965  -0.84031  -0.80109
  Beta  occ. eigenvalues --   -0.78440  -0.76582  -0.73455  -0.69161  -0.66345
  Beta  occ. eigenvalues --   -0.59771  -0.58566  -0.58368  -0.54624  -0.54566
  Beta  occ. eigenvalues --   -0.54066  -0.50254  -0.47518  -0.46288  -0.43711
  Beta  occ. eigenvalues --   -0.42591  -0.40911  -0.39073  -0.37461  -0.35444
  Beta  occ. eigenvalues --   -0.33551  -0.33077  -0.31095  -0.27862  -0.24605
  Beta  occ. eigenvalues --   -0.23826  -0.23162  -0.21545  -0.20339  -0.17555
  Beta  occ. eigenvalues --   -0.17245
  Beta virt. eigenvalues --   -0.09217  -0.07517  -0.05776  -0.03077  -0.01436
  Beta virt. eigenvalues --   -0.00643  -0.00270   0.01884   0.04405   0.05796
  Beta virt. eigenvalues --    0.07070   0.08915   0.09752   0.09774   0.11184
  Beta virt. eigenvalues --    0.12169   0.12409   0.13873   0.14381   0.15087
  Beta virt. eigenvalues --    0.16086   0.18760   0.20901   0.22498   0.24191
  Beta virt. eigenvalues --    0.25563   0.26729   0.29214   0.31314   0.32061
  Beta virt. eigenvalues --    0.33219   0.35718   0.35723   0.36401   0.37270
  Beta virt. eigenvalues --    0.37884   0.38572   0.40017   0.41293   0.42906
  Beta virt. eigenvalues --    0.45792   0.45819   0.46917   0.47784   0.48477
  Beta virt. eigenvalues --    0.49695   0.50286   0.50899   0.51696   0.53586
  Beta virt. eigenvalues --    0.54302   0.55298   0.55740   0.55745   0.57403
  Beta virt. eigenvalues --    0.58720   0.58898   0.59452   0.60182   0.60725
  Beta virt. eigenvalues --    0.61119   0.62711   0.63249   0.63836   0.64498
  Beta virt. eigenvalues --    0.66180   0.66339   0.68250   0.69476   0.70164
  Beta virt. eigenvalues --    0.70504   0.70846   0.71631   0.71938   0.72793
  Beta virt. eigenvalues --    0.73864   0.74341   0.76044   0.76732   0.76874
  Beta virt. eigenvalues --    0.77693   0.78704   0.80053   0.80073   0.80512
  Beta virt. eigenvalues --    0.82298   0.82347   0.84640   0.86770   0.86884
  Beta virt. eigenvalues --    0.87571   0.88256   0.88753   0.89274   0.90649
  Beta virt. eigenvalues --    0.92744   0.93991   0.94145   0.95146   0.95282
  Beta virt. eigenvalues --    0.95878   0.96551   0.98260   1.01448   1.03310
  Beta virt. eigenvalues --    1.04313   1.05037   1.06742   1.07240   1.08313
  Beta virt. eigenvalues --    1.08640   1.09666   1.10197   1.11533   1.13378
  Beta virt. eigenvalues --    1.14589   1.15534   1.16513   1.17937   1.20278
  Beta virt. eigenvalues --    1.21822   1.23164   1.23587   1.25367   1.25768
  Beta virt. eigenvalues --    1.26896   1.27821   1.29179   1.31673   1.32449
  Beta virt. eigenvalues --    1.33944   1.33991   1.34680   1.35341   1.37577
  Beta virt. eigenvalues --    1.38221   1.39386   1.39434   1.43938   1.44127
  Beta virt. eigenvalues --    1.46346   1.46872   1.48623   1.49687   1.50121
  Beta virt. eigenvalues --    1.52122   1.53953   1.55117   1.55872   1.59175
  Beta virt. eigenvalues --    1.60340   1.60448   1.61198   1.63329   1.66317
  Beta virt. eigenvalues --    1.66759   1.67215   1.70087   1.71918   1.73513
  Beta virt. eigenvalues --    1.73579   1.74953   1.77093   1.78970   1.80423
  Beta virt. eigenvalues --    1.81865   1.85045   1.88385   1.89919   1.92534
  Beta virt. eigenvalues --    1.94732   1.95973   1.99987   2.00714   2.03003
  Beta virt. eigenvalues --    2.04630   2.05652   2.07196   2.07202   2.08534
  Beta virt. eigenvalues --    2.10192   2.10592   2.12556   2.15946   2.17593
  Beta virt. eigenvalues --    2.18131   2.20553   2.21179   2.24540   2.26880
  Beta virt. eigenvalues --    2.29480   2.30812   2.32579   2.34147   2.35503
  Beta virt. eigenvalues --    2.38673   2.39282   2.40027   2.40146   2.43459
  Beta virt. eigenvalues --    2.43881   2.44968   2.45618   2.46644   2.47843
  Beta virt. eigenvalues --    2.48747   2.49436   2.52639   2.54024   2.59630
  Beta virt. eigenvalues --    2.60620   2.62156   2.63452   2.63590   2.65322
  Beta virt. eigenvalues --    2.65664   2.67689   2.69051   2.71891   2.77163
  Beta virt. eigenvalues --    2.77313   2.78022   2.80581   2.81330   2.82644
  Beta virt. eigenvalues --    2.83907   2.85743   2.86750   2.87706   2.88120
  Beta virt. eigenvalues --    2.91110   2.91186   2.93235   2.93573   2.94933
  Beta virt. eigenvalues --    2.95557   2.96394   2.97987   2.98943   3.00851
  Beta virt. eigenvalues --    3.02041   3.02919   3.03737   3.04239   3.05661
  Beta virt. eigenvalues --    3.06232   3.06681   3.07320   3.09987   3.11706
  Beta virt. eigenvalues --    3.12730   3.12988   3.14640   3.15925   3.16357
  Beta virt. eigenvalues --    3.17431   3.18173   3.19248   3.20149   3.20387
  Beta virt. eigenvalues --    3.23652   3.26410   3.27186   3.27388   3.28603
  Beta virt. eigenvalues --    3.30316   3.31886   3.32689   3.33305   3.34782
  Beta virt. eigenvalues --    3.36946   3.38150   3.38475   3.39241   3.41214
  Beta virt. eigenvalues --    3.41761   3.42798   3.42880   3.46651   3.46819
  Beta virt. eigenvalues --    3.49654   3.51594   3.52413   3.55743   3.56874
  Beta virt. eigenvalues --    3.58072   3.59009   3.59817   3.61702   3.63334
  Beta virt. eigenvalues --    3.63734   3.64935   3.69573   3.69885   3.70924
  Beta virt. eigenvalues --    3.73797   3.75203   3.75675   3.77134   3.79479
  Beta virt. eigenvalues --    3.81767   3.83022   3.83168   3.85128   3.86931
  Beta virt. eigenvalues --    3.87268   3.87929   3.89690   3.91967   3.93839
  Beta virt. eigenvalues --    3.95291   3.96611   4.00214   4.03739   4.05770
  Beta virt. eigenvalues --    4.06583   4.07488   4.08501   4.11709   4.13582
  Beta virt. eigenvalues --    4.13751   4.16604   4.18313   4.20403   4.23399
  Beta virt. eigenvalues --    4.26975   4.27375   4.30254   4.31785   4.32090
  Beta virt. eigenvalues --    4.32160   4.32940   4.33895   4.34872   4.38710
  Beta virt. eigenvalues --    4.39007   4.40163   4.41018   4.42669   4.44054
  Beta virt. eigenvalues --    4.45642   4.47194   4.47262   4.49066   4.49108
  Beta virt. eigenvalues --    4.49638   4.50378   4.51874   4.52332   4.55496
  Beta virt. eigenvalues --    4.57203   4.58451   4.59091   4.59373   4.61374
  Beta virt. eigenvalues --    4.63334   4.67513   4.68585   4.71693   4.73265
  Beta virt. eigenvalues --    4.76008   4.78874   4.80237   4.81900   4.83193
  Beta virt. eigenvalues --    4.86420   4.88657   4.92081   4.93129   4.97814
  Beta virt. eigenvalues --    4.99141   5.00598   5.01507   5.03061   5.06370
  Beta virt. eigenvalues --    5.08194   5.09494   5.13082   5.15725   5.15913
  Beta virt. eigenvalues --    5.18508   5.20601   5.22757   5.23105   5.26254
  Beta virt. eigenvalues --    5.28446   5.31883   5.35884   5.36335   5.37132
  Beta virt. eigenvalues --    5.43210   5.47231   5.48473   5.50852   5.54518
  Beta virt. eigenvalues --    5.61685   5.66489   5.83779   5.88062   5.88452
  Beta virt. eigenvalues --    5.97589   6.02783   6.11167   6.25703   6.37027
  Beta virt. eigenvalues --    6.51068   6.54153   6.68851   6.77374   6.91341
  Beta virt. eigenvalues --    7.45176   8.50958   9.37573   9.97953  10.19547
  Beta virt. eigenvalues --   10.40001  10.52304  10.76160  10.98337  11.09217
  Beta virt. eigenvalues --   11.36546  11.44414  11.47916  11.76066  12.38614
  Beta virt. eigenvalues --   12.54116  13.02316  34.08931
          Condensed to atoms (all electrons):
               1          2          3          4          5          6
     1  C    5.775595   0.217951  -0.071524   0.233049  -0.143352  -0.014027
     2  C    0.217951   5.185979   0.615022   0.002793   0.009662  -0.000143
     3  C   -0.071524   0.615022   4.958839   0.381959  -0.053143   0.006393
     4  C    0.233049   0.002793   0.381959   4.849850   0.453687  -0.025162
     5  C   -0.143352   0.009662  -0.053143   0.453687   5.744660   0.117455
     6  C   -0.014027  -0.000143   0.006393  -0.025162   0.117455   5.643149
     7  C   -0.001245   0.000060  -0.001039  -0.024010  -0.043699   0.081464
     8  N   -0.000043  -0.000000   0.000013   0.001532   0.026293  -0.246631
     9  C   -0.000011   0.000000   0.000000  -0.000004  -0.012322   0.039698
    10  C   -0.000000   0.000000  -0.000000  -0.000020   0.000148  -0.002352
    11  C   -0.000000  -0.000000  -0.000000   0.000000  -0.000000   0.000097
    12  C    0.000000  -0.000000  -0.000000  -0.000000   0.000000   0.000000
    13  S    0.000000  -0.000000   0.000000   0.000002  -0.000011  -0.002320
    14  C    0.000343  -0.000001   0.000010  -0.000313  -0.010944   0.020600
    15  C   -0.046864   0.003998  -0.002385   0.027292  -0.118909   0.510792
    16  H   -0.004803   0.341711  -0.017267  -0.000026  -0.000089  -0.000001
    17  H    0.016612  -0.061868   0.285319  -0.068543   0.002033  -0.000669
    18  H    0.096697  -0.021213   0.023836  -0.106396   0.012292   0.001629
    19  H    0.023929   0.000089  -0.018965  -0.012929   0.227205  -0.072806
    20  H    0.001715  -0.000012  -0.000097   0.005683   0.014204  -0.128234
    21  H    0.000001   0.000002  -0.000114  -0.000046  -0.047688   0.033233
    22  H   -0.000000  -0.000000  -0.000000  -0.000002   0.000093  -0.009187
    23  H    0.000000  -0.000000  -0.000000   0.000001  -0.000016   0.002453
    24  H   -0.000000   0.000000   0.000000  -0.000000  -0.000000  -0.000004
    25  H   -0.000000  -0.000000  -0.000000  -0.000000  -0.000000  -0.000000
    26  H    0.000000  -0.000000  -0.000000  -0.000015   0.000162   0.001486
    27  H    0.189272  -0.034990  -0.009323  -0.020630  -0.010865  -0.011040
               7          8          9         10         11         12
     1  C   -0.001245  -0.000043  -0.000011  -0.000000  -0.000000   0.000000
     2  C    0.000060  -0.000000   0.000000   0.000000  -0.000000  -0.000000
     3  C   -0.001039   0.000013   0.000000  -0.000000  -0.000000  -0.000000
     4  C   -0.024010   0.001532  -0.000004  -0.000020   0.000000  -0.000000
     5  C   -0.043699   0.026293  -0.012322   0.000148  -0.000000   0.000000
     6  C    0.081464  -0.246631   0.039698  -0.002352   0.000097   0.000000
     7  C    5.680811   0.390014  -0.249999   0.025677  -0.000339   0.000006
     8  N    0.390014   6.180396   0.245620  -0.075473  -0.000110   0.000011
     9  C   -0.249999   0.245620   5.537490   0.393051  -0.012734   0.002996
    10  C    0.025677  -0.075473   0.393051   5.331132   0.094799  -0.027804
    11  C   -0.000339  -0.000110  -0.012734   0.094799   5.186988   0.772706
    12  C    0.000006   0.000011   0.002996  -0.027804   0.772706   5.303244
    13  S    0.000213   0.008012  -0.098872   0.489748  -0.188668  -0.083596
    14  C   -0.082338   0.281825  -0.018823  -0.029964   0.000394   0.000012
    15  C   -0.053782  -0.017521   0.002299  -0.000024   0.000003   0.000000
    16  H   -0.000000   0.000000  -0.000000  -0.000000  -0.000000  -0.000000
    17  H    0.000129  -0.000001   0.000000   0.000000   0.000000  -0.000000
    18  H   -0.003039   0.000171   0.000005  -0.000001  -0.000000   0.000000
    19  H    0.002057  -0.002715  -0.000276   0.000007  -0.000000  -0.000000
    20  H    0.007524   0.013995  -0.002714   0.001003   0.000005   0.000001
    21  H    0.362584  -0.061417   0.033955  -0.006248  -0.000052  -0.000000
    22  H   -0.004642   0.007155   0.323525  -0.069543   0.001650   0.000175
    23  H   -0.002350   0.003270   0.012532  -0.129709   0.026537   0.002654
    24  H    0.000001  -0.000288  -0.004855  -0.032840   0.324213  -0.030534
    25  H   -0.000000  -0.000003  -0.000121  -0.001413  -0.032396   0.337269
    26  H    0.006474  -0.028073  -0.051223   0.126768   0.013768   0.008073
    27  H    0.004710  -0.000247   0.000045   0.000003   0.000000  -0.000000
              13         14         15         16         17         18
     1  C    0.000000   0.000343  -0.046864  -0.004803   0.016612   0.096697
     2  C   -0.000000  -0.000001   0.003998   0.341711  -0.061868  -0.021213
     3  C    0.000000   0.000010  -0.002385  -0.017267   0.285319   0.023836
     4  C    0.000002  -0.000313   0.027292  -0.000026  -0.068543  -0.106396
     5  C   -0.000011  -0.010944  -0.118909  -0.000089   0.002033   0.012292
     6  C   -0.002320   0.020600   0.510792  -0.000001  -0.000669   0.001629
     7  C    0.000213  -0.082338  -0.053782  -0.000000   0.000129  -0.003039
     8  N    0.008012   0.281825  -0.017521   0.000000  -0.000001   0.000171
     9  C   -0.098872  -0.018823   0.002299  -0.000000   0.000000   0.000005
    10  C    0.489748  -0.029964  -0.000024  -0.000000   0.000000  -0.000001
    11  C   -0.188668   0.000394   0.000003  -0.000000   0.000000  -0.000000
    12  C   -0.083596   0.000012   0.000000  -0.000000  -0.000000   0.000000
    13  S   15.993483  -0.036141  -0.000262  -0.000000  -0.000000   0.000001
    14  C   -0.036141   6.163324  -0.063743  -0.000000  -0.000001   0.000644
    15  C   -0.000262  -0.063743   6.065303   0.000062   0.000289   0.024141
    16  H   -0.000000  -0.000000   0.000062   0.432298   0.001838  -0.000720
    17  H   -0.000000  -0.000001   0.000289   0.001838   0.705383  -0.002022
    18  H    0.000001   0.000644   0.024141  -0.000720  -0.002022   0.668208
    19  H   -0.000001  -0.000516   0.020087   0.000011   0.012627  -0.003307
    20  H    0.000597   0.077041   0.201649  -0.000000   0.000001  -0.000799
    21  H    0.000096   0.004271   0.002048  -0.000000   0.000028  -0.000090
    22  H    0.005086   0.003425  -0.000057  -0.000000   0.000000   0.000000
    23  H    0.155651  -0.003388   0.000604  -0.000000   0.000000  -0.000000
    24  H    0.010647   0.000004  -0.000000   0.000000   0.000000  -0.000000
    25  H   -0.021174   0.000002   0.000000  -0.000000  -0.000000   0.000000
    26  H   -0.088878   0.063001   0.002110  -0.000000   0.000000  -0.000005
    27  H   -0.000000  -0.000277  -0.042193  -0.000115   0.004765   0.137823
              19         20         21         22         23         24
     1  C    0.023929   0.001715   0.000001  -0.000000   0.000000  -0.000000
     2  C    0.000089  -0.000012   0.000002  -0.000000  -0.000000   0.000000
     3  C   -0.018965  -0.000097  -0.000114  -0.000000  -0.000000   0.000000
     4  C   -0.012929   0.005683  -0.000046  -0.000002   0.000001  -0.000000
     5  C    0.227205   0.014204  -0.047688   0.000093  -0.000016  -0.000000
     6  C   -0.072806  -0.128234   0.033233  -0.009187   0.002453  -0.000004
     7  C    0.002057   0.007524   0.362584  -0.004642  -0.002350   0.000001
     8  N   -0.002715   0.013995  -0.061417   0.007155   0.003270  -0.000288
     9  C   -0.000276  -0.002714   0.033955   0.323525   0.012532  -0.004855
    10  C    0.000007   0.001003  -0.006248  -0.069543  -0.129709  -0.032840
    11  C   -0.000000   0.000005  -0.000052   0.001650   0.026537   0.324213
    12  C   -0.000000   0.000001  -0.000000   0.000175   0.002654  -0.030534
    13  S   -0.000001   0.000597   0.000096   0.005086   0.155651   0.010647
    14  C   -0.000516   0.077041   0.004271   0.003425  -0.003388   0.000004
    15  C    0.020087   0.201649   0.002048  -0.000057   0.000604  -0.000000
    16  H    0.000011  -0.000000  -0.000000  -0.000000  -0.000000   0.000000
    17  H    0.012627   0.000001   0.000028   0.000000   0.000000   0.000000
    18  H   -0.003307  -0.000799  -0.000090   0.000000  -0.000000  -0.000000
    19  H    0.690331  -0.000933   0.002380  -0.000029  -0.000000   0.000000
    20  H   -0.000933   0.649664  -0.001113   0.000055   0.001132  -0.000000
    21  H    0.002380  -0.001113   0.525803   0.008713  -0.000074   0.000007
    22  H   -0.000029   0.000055   0.008713   0.533211  -0.001209   0.007403
    23  H   -0.000000   0.001132  -0.000074  -0.001209   0.773162  -0.001036
    24  H    0.000000  -0.000000   0.000007   0.007403  -0.001036   0.596535
    25  H   -0.000000   0.000000  -0.000000   0.000044   0.000002   0.002096
    26  H    0.000004  -0.002086   0.000140   0.008894   0.051464   0.000693
    27  H   -0.008284  -0.008218   0.000219   0.000000  -0.000001   0.000000
              25         26         27
     1  C   -0.000000   0.000000   0.189272
     2  C   -0.000000  -0.000000  -0.034990
     3  C   -0.000000  -0.000000  -0.009323
     4  C   -0.000000  -0.000015  -0.020630
     5  C   -0.000000   0.000162  -0.010865
     6  C   -0.000000   0.001486  -0.011040
     7  C   -0.000000   0.006474   0.004710
     8  N   -0.000003  -0.028073  -0.000247
     9  C   -0.000121  -0.051223   0.000045
    10  C   -0.001413   0.126768   0.000003
    11  C   -0.032396   0.013768   0.000000
    12  C    0.337269   0.008073  -0.000000
    13  S   -0.021174  -0.088878  -0.000000
    14  C    0.000002   0.063001  -0.000277
    15  C    0.000000   0.002110  -0.042193
    16  H   -0.000000  -0.000000  -0.000115
    17  H   -0.000000   0.000000   0.004765
    18  H    0.000000  -0.000005   0.137823
    19  H   -0.000000   0.000004  -0.008284
    20  H    0.000000  -0.002086  -0.008218
    21  H   -0.000000   0.000140   0.000219
    22  H    0.000044   0.008894   0.000000
    23  H    0.000002   0.051464  -0.000001
    24  H    0.002096   0.000693   0.000000
    25  H    0.526545   0.001204   0.000000
    26  H    0.001204   0.586712  -0.000001
    27  H    0.000000  -0.000001   0.710167
          Atomic-Atomic Spin Densities.
               1          2          3          4          5          6
     1  C    0.770587  -0.007760  -0.064001  -0.052772  -0.000380   0.001374
     2  C   -0.007760  -0.147374   0.015688   0.001520  -0.000629   0.000023
     3  C   -0.064001   0.015688   0.188091   0.010715   0.002338   0.000150
     4  C   -0.052772   0.001520   0.010715  -0.040419   0.060884   0.001355
     5  C   -0.000380  -0.000629   0.002338   0.060884  -0.006580  -0.023228
     6  C    0.001374   0.000023   0.000150   0.001355  -0.023228   0.101780
     7  C    0.000092  -0.000003  -0.000048  -0.000181  -0.020991  -0.009116
     8  N   -0.000003   0.000000   0.000001   0.000085   0.004005  -0.013479
     9  C    0.000000  -0.000000  -0.000000   0.000009  -0.000024   0.000421
    10  C    0.000000  -0.000000  -0.000000   0.000000  -0.000048   0.000155
    11  C    0.000000  -0.000000   0.000000   0.000000   0.000000  -0.000000
    12  C    0.000000  -0.000000   0.000000   0.000000   0.000000  -0.000000
    13  S   -0.000000   0.000000   0.000000  -0.000000   0.000006  -0.000044
    14  C    0.000002  -0.000000   0.000003   0.000151   0.000993  -0.013597
    15  C   -0.003355   0.000005  -0.000628  -0.011101   0.020389   0.032424
    16  H   -0.000543   0.001863   0.000425  -0.000011  -0.000001   0.000000
    17  H    0.002933  -0.000928  -0.004797  -0.000060  -0.000249  -0.000004
    18  H   -0.007647   0.001280   0.000936   0.003137  -0.001833  -0.000121
    19  H   -0.000046  -0.000048  -0.001042  -0.002051   0.002420   0.002131
    20  H   -0.000071   0.000001   0.000001   0.000349  -0.000439  -0.002425
    21  H   -0.000000  -0.000000  -0.000003  -0.000098   0.000622   0.000413
    22  H    0.000000   0.000000  -0.000000   0.000000   0.000019  -0.000053
    23  H    0.000000  -0.000000   0.000000   0.000000   0.000001  -0.000034
    24  H   -0.000000   0.000000  -0.000000  -0.000000  -0.000000  -0.000000
    25  H    0.000000  -0.000000   0.000000   0.000000   0.000000  -0.000000
    26  H    0.000000  -0.000000  -0.000000   0.000001  -0.000004   0.000315
    27  H   -0.002740  -0.002591   0.001303  -0.003230  -0.003737  -0.000941
               7          8          9         10         11         12
     1  C    0.000092  -0.000003   0.000000   0.000000   0.000000   0.000000
     2  C   -0.000003   0.000000  -0.000000  -0.000000  -0.000000  -0.000000
     3  C   -0.000048   0.000001  -0.000000  -0.000000   0.000000   0.000000
     4  C   -0.000181   0.000085   0.000009   0.000000   0.000000   0.000000
     5  C   -0.020991   0.004005  -0.000024  -0.000048   0.000000   0.000000
     6  C   -0.009116  -0.013479   0.000421   0.000155  -0.000000  -0.000000
     7  C    0.013279   0.018010   0.001692  -0.001318  -0.000005   0.000000
     8  N    0.018010  -0.041405   0.004388   0.004121   0.000037   0.000002
     9  C    0.001692   0.004388   0.000734  -0.003607   0.000003   0.000036
    10  C   -0.001318   0.004121  -0.003607  -0.009823   0.001661   0.000033
    11  C   -0.000005   0.000037   0.000003   0.001661  -0.013639   0.000791
    12  C    0.000000   0.000002   0.000036   0.000033   0.000791   0.032413
    13  S    0.000136  -0.000801   0.000251  -0.001040   0.000482  -0.004903
    14  C   -0.015205   0.002158  -0.003618   0.001042  -0.000045  -0.000017
    15  C    0.006337  -0.004316   0.000189   0.000054  -0.000000  -0.000000
    16  H   -0.000000   0.000000  -0.000000  -0.000000   0.000000   0.000000
    17  H    0.000001  -0.000000   0.000000   0.000000  -0.000000  -0.000000
    18  H    0.000179  -0.000007  -0.000001   0.000000   0.000000   0.000000
    19  H    0.000118   0.000016   0.000006  -0.000000  -0.000000  -0.000000
    20  H    0.002037   0.002235  -0.000157   0.000065   0.000002   0.000000
    21  H    0.000755  -0.000178   0.000102   0.000056   0.000000  -0.000000
    22  H    0.000216  -0.000268   0.001176  -0.000378   0.000313   0.000030
    23  H   -0.000037   0.000805  -0.000027   0.000639  -0.000009   0.000146
    24  H   -0.000000   0.000002  -0.000005   0.000104   0.000170  -0.000011
    25  H   -0.000000   0.000000   0.000002   0.000014  -0.000141   0.000017
    26  H   -0.000130  -0.000177   0.001282   0.002935  -0.000901  -0.000083
    27  H   -0.000107  -0.000023  -0.000000  -0.000000  -0.000000  -0.000000
              13         14         15         16         17         18
     1  C   -0.000000   0.000002  -0.003355  -0.000543   0.002933  -0.007647
     2  C    0.000000  -0.000000   0.000005   0.001863  -0.000928   0.001280
     3  C    0.000000   0.000003  -0.000628   0.000425  -0.004797   0.000936
     4  C   -0.000000   0.000151  -0.011101  -0.000011  -0.000060   0.003137
     5  C    0.000006   0.000993   0.020389  -0.000001  -0.000249  -0.001833
     6  C   -0.000044  -0.013597   0.032424   0.000000  -0.000004  -0.000121
     7  C    0.000136  -0.015205   0.006337  -0.000000   0.000001   0.000179
     8  N   -0.000801   0.002158  -0.004316   0.000000  -0.000000  -0.000007
     9  C    0.000251  -0.003618   0.000189  -0.000000   0.000000  -0.000001
    10  C   -0.001040   0.001042   0.000054  -0.000000   0.000000   0.000000
    11  C    0.000482  -0.000045  -0.000000   0.000000  -0.000000   0.000000
    12  C   -0.004903  -0.000017  -0.000000   0.000000  -0.000000   0.000000
    13  S    0.006546  -0.000402  -0.000044   0.000000  -0.000000   0.000000
    14  C   -0.000402   0.843466  -0.002812  -0.000000  -0.000000   0.000031
    15  C   -0.000044  -0.002812  -0.538400  -0.000004   0.000001   0.013078
    16  H    0.000000  -0.000000  -0.000004   0.005538  -0.000092   0.000104
    17  H   -0.000000  -0.000000   0.000001  -0.000092  -0.000486  -0.000005
    18  H    0.000000   0.000031   0.013078   0.000104  -0.000005  -0.015707
    19  H    0.000000  -0.000064  -0.000909  -0.000001   0.000130   0.000117
    20  H   -0.000073  -0.004554  -0.007929   0.000000   0.000000  -0.000189
    21  H   -0.000010  -0.000146  -0.000127  -0.000000   0.000001   0.000003
    22  H   -0.000235  -0.000108  -0.000007   0.000000   0.000000  -0.000000
    23  H    0.002489  -0.005639   0.000006  -0.000000  -0.000000   0.000000
    24  H   -0.000036   0.000002   0.000000  -0.000000   0.000000   0.000000
    25  H   -0.001402  -0.000003  -0.000000  -0.000000  -0.000000   0.000000
    26  H    0.007340  -0.003955  -0.000059  -0.000000   0.000000  -0.000000
    27  H   -0.000000  -0.000135   0.006961  -0.000035  -0.000259  -0.002025
              19         20         21         22         23         24
     1  C   -0.000046  -0.000071  -0.000000   0.000000   0.000000  -0.000000
     2  C   -0.000048   0.000001  -0.000000   0.000000  -0.000000   0.000000
     3  C   -0.001042   0.000001  -0.000003  -0.000000   0.000000  -0.000000
     4  C   -0.002051   0.000349  -0.000098   0.000000   0.000000  -0.000000
     5  C    0.002420  -0.000439   0.000622   0.000019   0.000001  -0.000000
     6  C    0.002131  -0.002425   0.000413  -0.000053  -0.000034  -0.000000
     7  C    0.000118   0.002037   0.000755   0.000216  -0.000037  -0.000000
     8  N    0.000016   0.002235  -0.000178  -0.000268   0.000805   0.000002
     9  C    0.000006  -0.000157   0.000102   0.001176  -0.000027  -0.000005
    10  C   -0.000000   0.000065   0.000056  -0.000378   0.000639   0.000104
    11  C   -0.000000   0.000002   0.000000   0.000313  -0.000009   0.000170
    12  C   -0.000000   0.000000  -0.000000   0.000030   0.000146  -0.000011
    13  S    0.000000  -0.000073  -0.000010  -0.000235   0.002489  -0.000036
    14  C   -0.000064  -0.004554  -0.000146  -0.000108  -0.005639   0.000002
    15  C   -0.000909  -0.007929  -0.000127  -0.000007   0.000006   0.000000
    16  H   -0.000001   0.000000  -0.000000   0.000000  -0.000000  -0.000000
    17  H    0.000130   0.000000   0.000001   0.000000  -0.000000   0.000000
    18  H    0.000117  -0.000189   0.000003  -0.000000   0.000000   0.000000
    19  H   -0.005073   0.000003   0.000090   0.000001  -0.000000   0.000000
    20  H    0.000003   0.011859   0.000071   0.000011   0.000400  -0.000000
    21  H    0.000090   0.000071  -0.002057  -0.000119   0.000002   0.000000
    22  H    0.000001   0.000011  -0.000119  -0.001583   0.000062  -0.000059
    23  H   -0.000000   0.000400   0.000002   0.000062   0.001775  -0.000001
    24  H    0.000000  -0.000000   0.000000  -0.000059  -0.000001   0.000042
    25  H   -0.000000   0.000000  -0.000000   0.000001   0.000034  -0.000002
    26  H    0.000000   0.000522   0.000012  -0.000142  -0.002202   0.000009
    27  H    0.000267  -0.000358  -0.000006  -0.000000  -0.000000   0.000000
              25         26         27
     1  C    0.000000   0.000000  -0.002740
     2  C   -0.000000  -0.000000  -0.002591
     3  C    0.000000  -0.000000   0.001303
     4  C    0.000000   0.000001  -0.003230
     5  C    0.000000  -0.000004  -0.003737
     6  C   -0.000000   0.000315  -0.000941
     7  C   -0.000000  -0.000130  -0.000107
     8  N    0.000000  -0.000177  -0.000023
     9  C    0.000002   0.001282  -0.000000
    10  C    0.000014   0.002935  -0.000000
    11  C   -0.000141  -0.000901  -0.000000
    12  C    0.000017  -0.000083  -0.000000
    13  S   -0.001402   0.007340  -0.000000
    14  C   -0.000003  -0.003955  -0.000135
    15  C   -0.000000  -0.000059   0.006961
    16  H   -0.000000  -0.000000  -0.000035
    17  H   -0.000000   0.000000  -0.000259
    18  H    0.000000  -0.000000  -0.002025
    19  H   -0.000000   0.000000   0.000267
    20  H    0.000000   0.000522  -0.000358
    21  H   -0.000000   0.000012  -0.000006
    22  H    0.000001  -0.000142  -0.000000
    23  H    0.000034  -0.002202  -0.000000
    24  H   -0.000002   0.000009   0.000000
    25  H    0.002047  -0.000010  -0.000000
    26  H   -0.000010  -0.015011  -0.000000
    27  H   -0.000000  -0.000000   0.001949
 Mulliken charges and spin densities:
               1          2
     1  C   -0.273293   0.635670
     2  C   -0.259039  -0.138951
     3  C   -0.097533   0.149130
     4  C    0.302252  -0.031715
     5  C   -0.166855   0.033534
     6  C    0.054125   0.077501
     7  C   -0.095241  -0.004288
     8  N    0.274215  -0.024793
     9  C   -0.139262   0.002852
    10  C   -0.086944  -0.005334
    11  C   -0.186860  -0.011282
    12  C   -0.285213   0.028453
    13  S   -0.143612   0.008261
    14  C   -0.368447   0.797548
    15  C   -0.514935  -0.490245
    16  H    0.247100   0.007243
    17  H    0.104080  -0.003814
    18  H    0.172146  -0.008670
    19  H    0.142035  -0.003936
    20  H    0.169938   0.001362
    21  H    0.143364  -0.000616
    22  H    0.185240  -0.001123
    23  H    0.108321  -0.001589
    24  H    0.127959   0.000213
    25  H    0.187947   0.000557
    26  H    0.299329  -0.010259
    27  H    0.099182  -0.005709
 Sum of Mulliken charges =  -0.00000   1.00000
 Mulliken charges and spin densities with hydrogens summed into heavy atoms:
               1          2
     1  C   -0.001965   0.621291
     2  C   -0.011939  -0.131708
     3  C    0.006547   0.145316
     4  C    0.302252  -0.031715
     5  C   -0.024820   0.029598
     6  C    0.054125   0.077501
     7  C    0.048123  -0.004904
     8  N    0.274215  -0.024793
     9  C    0.045979   0.001729
    10  C    0.212385  -0.015593
    11  C   -0.058900  -0.011069
    12  C   -0.097265   0.029010
    13  S   -0.035291   0.006672
    14  C   -0.368447   0.797548
    15  C   -0.344998  -0.488883
 Electronic spatial extent (au):  <R**2>=           5218.2326
 Charge=             -0.0000 electrons
 Dipole moment (field-independent basis, Debye):
    X=             -3.3350    Y=              2.3966    Z=             -0.0000  Tot=              4.1068
 Quadrupole moment (field-independent basis, Debye-Ang):
   XX=            -90.6239   YY=            -88.6482   ZZ=           -100.4124
   XY=              0.1943   XZ=             -0.0000   YZ=              0.0001
 Traceless Quadrupole moment (field-independent basis, Debye-Ang):
   XX=              2.6042   YY=              4.5800   ZZ=             -7.1842
   XY=              0.1943   XZ=             -0.0000   YZ=              0.0001
 Octapole moment (field-independent basis, Debye-Ang**2):
  XXX=           -219.5741  YYY=             18.3239  ZZZ=             -0.0000  XYY=              8.4059
  XXY=            -60.0370  XXZ=             -0.0002  XZZ=              5.1195  YZZ=              5.9228
  YYZ=             -0.0000  XYZ=             -0.0000
 Hexadecapole moment (field-independent basis, Debye-Ang**3):
 XXXX=          -6493.5952 YYYY=           -543.3238 ZZZZ=           -105.7164 XXXY=            106.0160
 XXXZ=              0.0009 YYYX=             -5.9361 YYYZ=              0.0002 ZZZX=             -0.0000
 ZZZY=              0.0001 XXYY=          -1033.3600 XXZZ=          -1246.2161 YYZZ=           -117.9496
 XXYZ=              0.0006 YYXZ=              0.0000 ZZXY=             -6.5357
 N-N= 1.004711714742D+03 E-N=-4.246427292648D+03  KE= 9.560654795191D+02
                          Isotropic Fermi Contact Couplings
        Atom                 a.u.       MegaHertz       Gauss      10(-4) cm-1
     1  C(13)              0.09705     109.10093      38.92992      36.39215
     2  C(13)             -0.01653     -18.58313      -6.63092      -6.19866
     3  C(13)              0.02518      28.31002      10.10172       9.44321
     4  C(13)             -0.01392     -15.65075      -5.58458      -5.22053
     5  C(13)              0.00215       2.42213       0.86428       0.80794
     6  C(13)              0.02580      29.00401      10.34935       9.67469
     7  C(13)              0.00107       1.20013       0.42824       0.40032
     8  N(14)             -0.01321      -4.26934      -1.52341      -1.42410
     9  C(13)             -0.00202      -2.27582      -0.81207      -0.75913
    10  C(13)             -0.00627      -7.04660      -2.51440      -2.35049
    11  C(13)             -0.00137      -1.53971      -0.54941      -0.51359
    12  C(13)              0.00380       4.27353       1.52490       1.42550
    13  S(33)              0.00200       0.68601       0.24478       0.22883
    14  C(13)              0.04327      48.64720      17.35853      16.22696
    15  C(13)             -0.04415     -49.63691     -17.71168     -16.55709
    16  H(1)               0.00267      11.93291       4.25796       3.98039
    17  H(1)              -0.00130      -5.81213      -2.07391      -1.93872
    18  H(1)              -0.00296     -13.22912      -4.72048      -4.41276
    19  H(1)              -0.00087      -3.88356      -1.38575      -1.29542
    20  H(1)               0.00103       4.62322       1.64968       1.54214
    21  H(1)              -0.00041      -1.84553      -0.65853      -0.61560
    22  H(1)              -0.00060      -2.67590      -0.95483      -0.89258
    23  H(1)               0.00122       5.46302       1.94934       1.82227
    24  H(1)               0.00008       0.34674       0.12372       0.11566
    25  H(1)               0.00065       2.91066       1.03860       0.97089
    26  H(1)              -0.00281     -12.54006      -4.47461      -4.18291
    27  H(1)              -0.00247     -11.06080      -3.94677      -3.68949
 --------------------------------------------------------
       Center         ----  Spin Dipole Couplings  ----
                      3XX-RR        3YY-RR        3ZZ-RR
 --------------------------------------------------------
     1   Atom       -0.364268     -0.374735      0.739003
     2   Atom        0.019603      0.027271     -0.046873
     3   Atom       -0.086461     -0.072189      0.158650
     4   Atom        0.002738     -0.003828      0.001090
     5   Atom       -0.005080     -0.040756      0.045837
     6   Atom       -0.031071     -0.047272      0.078343
     7   Atom       -0.017041     -0.000922      0.017963
     8   Atom        0.013244      0.014881     -0.028125
     9   Atom       -0.005853      0.004783      0.001070
    10   Atom        0.001781      0.006416     -0.008197
    11   Atom        0.000569      0.005640     -0.006209
    12   Atom        0.014846     -0.011517     -0.003329
    13   Atom        0.007088     -0.033809      0.026721
    14   Atom       -0.392200     -0.480466      0.872666
    15   Atom        0.181611      0.220868     -0.402479
    16   Atom        0.008772     -0.007645     -0.001127
    17   Atom       -0.011848      0.011494      0.000354
    18   Atom       -0.001547      0.000639      0.000908
    19   Atom       -0.004737      0.003653      0.001084
    20   Atom        0.002609      0.003076     -0.005685
    21   Atom       -0.003219      0.006502     -0.003282
    22   Atom       -0.000673      0.002830     -0.002158
    23   Atom        0.018834     -0.010091     -0.008744
    24   Atom        0.001181     -0.000381     -0.000800
    25   Atom        0.000701      0.001225     -0.001926
    26   Atom        0.034200     -0.021921     -0.012279
    27   Atom        0.042546     -0.106867      0.064322
 --------------------------------------------------------
                        XY            XZ            YZ
 --------------------------------------------------------
     1   Atom        0.000826      0.000000      0.000001
     2   Atom        0.052710     -0.000001      0.000001
     3   Atom       -0.014186     -0.000000      0.000000
     4   Atom        0.026651      0.000000     -0.000000
     5   Atom       -0.000501      0.000001     -0.000001
     6   Atom       -0.028094      0.000001      0.000000
     7   Atom       -0.003594     -0.000000     -0.000001
     8   Atom        0.002204      0.000000     -0.000000
     9   Atom        0.004240     -0.000000     -0.000000
    10   Atom        0.009201     -0.000000     -0.000000
    11   Atom       -0.002266      0.000000     -0.000000
[...]
 Iteration 86 RMS(Cart)=  0.00006206 RMS(Int)=  0.01722153
 Iteration 87 RMS(Cart)=  0.00006189 RMS(Int)=  0.01720694
 Iteration 88 RMS(Cart)=  0.00006171 RMS(Int)=  0.52940207
 Iteration 89 RMS(Cart)=  0.00210967 RMS(Int)=  0.01636720
 Iteration 90 RMS(Cart)=  0.00004987 RMS(Int)=  0.01635590
 Iteration 91 RMS(Cart)=  0.00004975 RMS(Int)=  0.01634462
 Iteration 92 RMS(Cart)=  0.00004963 RMS(Int)=  0.01633338
 Iteration 93 RMS(Cart)=  0.00004951 RMS(Int)=  0.01632215
 Iteration 94 RMS(Cart)=  0.00004940 RMS(Int)=  0.01631096
 Iteration 95 RMS(Cart)=  0.00004928 RMS(Int)=  0.01629979
 Iteration 96 RMS(Cart)=  0.00004916 RMS(Int)=  0.01628865
 Iteration 97 RMS(Cart)=  0.00004905 RMS(Int)=  0.01627754
 Iteration 98 RMS(Cart)=  0.00004893 RMS(Int)=  0.01626645
 Iteration 99 RMS(Cart)=  0.00004882 RMS(Int)=  0.01625539
 Iteration100 RMS(Cart)=  0.00004870 RMS(Int)=  0.01624435
 New curvilinear step not converged.
 ITry= 5 IFail=1 DXMaxC= 1.44D-01 DCOld= 1.00D+10 DXMaxT= 2.40D+00 DXLimC= 3.00D+00 Rises=F
 Iteration  1 RMS(Cart)=  0.00822519 RMS(Int)=  0.02134568
 Iteration  2 RMS(Cart)=  0.00010806 RMS(Int)=  0.02131451
 Iteration  3 RMS(Cart)=  0.00010756 RMS(Int)=  0.02128349
 Iteration  4 RMS(Cart)=  0.00010707 RMS(Int)=  0.02125260
 Iteration  5 RMS(Cart)=  0.00010658 RMS(Int)=  0.02122186
 Iteration  6 RMS(Cart)=  0.00010610 RMS(Int)=  0.02119126
 Iteration  7 RMS(Cart)=  0.00010562 RMS(Int)=  0.02116079
 Iteration  8 RMS(Cart)=  0.00010514 RMS(Int)=  0.02113047
 Iteration  9 RMS(Cart)=  0.00010467 RMS(Int)=  0.02110028
 Iteration 10 RMS(Cart)=  0.00010420 RMS(Int)=  0.02107022
 Iteration 11 RMS(Cart)=  0.00010373 RMS(Int)=  0.02104030
 Iteration 12 RMS(Cart)=  0.00010327 RMS(Int)=  0.02101052
 Iteration 13 RMS(Cart)=  0.00010281 RMS(Int)=  0.02098086
 Iteration 14 RMS(Cart)=  0.00010235 RMS(Int)=  0.02095134
 Iteration 15 RMS(Cart)=  0.00010190 RMS(Int)=  0.02092195
 Iteration 16 RMS(Cart)=  0.00010145 RMS(Int)=  0.02089268
 Iteration 17 RMS(Cart)=  0.00010101 RMS(Int)=  0.02086355
 Iteration 18 RMS(Cart)=  0.00010056 RMS(Int)=  0.02083454
 Iteration 19 RMS(Cart)=  0.00010012 RMS(Int)=  0.02080566
 Iteration 20 RMS(Cart)=  0.00009969 RMS(Int)=  0.02077691
 Iteration 21 RMS(Cart)=  0.00009925 RMS(Int)=  0.02074828
 Iteration 22 RMS(Cart)=  0.00009882 RMS(Int)=  0.02071977
 Iteration 23 RMS(Cart)=  0.00009840 RMS(Int)=  0.02069139
 Iteration 24 RMS(Cart)=  0.00009797 RMS(Int)=  0.02066313
 Iteration 25 RMS(Cart)=  0.00009755 RMS(Int)=  0.02063499
 Iteration 26 RMS(Cart)=  0.00009714 RMS(Int)=  0.02060697
 Iteration 27 RMS(Cart)=  0.00009672 RMS(Int)=  0.02057907
 Iteration 28 RMS(Cart)=  0.00009631 RMS(Int)=  0.02055129
 Iteration 29 RMS(Cart)=  0.00009590 RMS(Int)=  0.02052363
 Iteration 30 RMS(Cart)=  0.00009549 RMS(Int)=  0.02049609
 Iteration 31 RMS(Cart)=  0.00009509 RMS(Int)=  0.02046866
 Iteration 32 RMS(Cart)=  0.00009469 RMS(Int)=  0.02044134
 Iteration 33 RMS(Cart)=  0.00009429 RMS(Int)=  0.02041414
 Iteration 34 RMS(Cart)=  0.00009390 RMS(Int)=  0.02038706
 Iteration 35 RMS(Cart)=  0.00009351 RMS(Int)=  0.02036009
 Iteration 36 RMS(Cart)=  0.00009312 RMS(Int)=  0.02033323
 Iteration 37 RMS(Cart)=  0.00009273 RMS(Int)=  0.02030648
 Iteration 38 RMS(Cart)=  0.00009235 RMS(Int)=  0.02027984
 Iteration 39 RMS(Cart)=  0.00009196 RMS(Int)=  0.02025331
 Iteration 40 RMS(Cart)=  0.00009159 RMS(Int)=  0.02022689
 Iteration 41 RMS(Cart)=  0.00009121 RMS(Int)=  0.02020058
 Iteration 42 RMS(Cart)=  0.00009084 RMS(Int)=  0.02017438
 Iteration 43 RMS(Cart)=  0.00009047 RMS(Int)=  0.02014829
 Iteration 44 RMS(Cart)=  0.00009010 RMS(Int)=  0.02012230
 Iteration 45 RMS(Cart)=  0.00008973 RMS(Int)=  0.02009641
 Iteration 46 RMS(Cart)=  0.00008937 RMS(Int)=  0.02007063
 Iteration 47 RMS(Cart)=  0.00008901 RMS(Int)=  0.02004496
 Iteration 48 RMS(Cart)=  0.00008865 RMS(Int)=  0.02001939
 Iteration 49 RMS(Cart)=  0.00008829 RMS(Int)=  0.01999392
 Iteration 50 RMS(Cart)=  0.00008794 RMS(Int)=  0.01996855
 Iteration 51 RMS(Cart)=  0.00008759 RMS(Int)=  0.01994329
 Iteration 52 RMS(Cart)=  0.00008724 RMS(Int)=  0.01991812
 Iteration 53 RMS(Cart)=  0.00008689 RMS(Int)=  0.01989306
 Iteration 54 RMS(Cart)=  0.00008655 RMS(Int)=  0.01986809
 Iteration 55 RMS(Cart)=  0.00008620 RMS(Int)=  0.01984322
 Iteration 56 RMS(Cart)=  0.00008586 RMS(Int)=  0.01981845
 Iteration 57 RMS(Cart)=  0.00008553 RMS(Int)=  0.01979378
 Iteration 58 RMS(Cart)=  0.00008519 RMS(Int)=  0.01976921
 Iteration 59 RMS(Cart)=  0.00008486 RMS(Int)=  0.01974473
 Iteration 60 RMS(Cart)=  0.00008453 RMS(Int)=  0.01972035
 Iteration 61 RMS(Cart)=  0.00008420 RMS(Int)=  0.01969606
 Iteration 62 RMS(Cart)=  0.00008387 RMS(Int)=  0.01967186
 Iteration 63 RMS(Cart)=  0.00008354 RMS(Int)=  0.01964776
 Iteration 64 RMS(Cart)=  0.00008322 RMS(Int)=  0.01962376
 Iteration 65 RMS(Cart)=  0.00008290 RMS(Int)=  0.52950257
 New curvilinear step failed, DQL= 6.24D+00 SP=-1.44D-01.
 ITry= 6 IFail=1 DXMaxC= 6.82D-02 DCOld= 1.00D+10 DXMaxT= 2.40D+00 DXLimC= 3.00D+00 Rises=F
 Iteration  1 RMS(Cart)=  0.00659242 RMS(Int)=  0.01733026
 Iteration  2 RMS(Cart)=  0.00005741 RMS(Int)=  0.01731349
 Iteration  3 RMS(Cart)=  0.00005723 RMS(Int)=  0.01729677
 Iteration  4 RMS(Cart)=  0.00005706 RMS(Int)=  0.01728010
 Iteration  5 RMS(Cart)=  0.00005689 RMS(Int)=  0.01726348
 Iteration  6 RMS(Cart)=  0.00005672 RMS(Int)=  0.01724691
 Iteration  7 RMS(Cart)=  0.00005655 RMS(Int)=  0.01723039
 Iteration  8 RMS(Cart)=  0.00005638 RMS(Int)=  0.01721392
 Iteration  9 RMS(Cart)=  0.00005621 RMS(Int)=  0.01719750
 Iteration 10 RMS(Cart)=  0.00005604 RMS(Int)=  0.01718113
 Iteration 11 RMS(Cart)=  0.00005587 RMS(Int)=  0.01716481
 Iteration 12 RMS(Cart)=  0.00005571 RMS(Int)=  0.01714853
 Iteration 13 RMS(Cart)=  0.00005554 RMS(Int)=  0.01713230
 Iteration 14 RMS(Cart)=  0.00005538 RMS(Int)=  0.01711613
 Iteration 15 RMS(Cart)=  0.00005521 RMS(Int)=  0.01710000
 Iteration 16 RMS(Cart)=  0.00005505 RMS(Int)=  0.01708391
 Iteration 17 RMS(Cart)=  0.00005489 RMS(Int)=  0.01706788
 Iteration 18 RMS(Cart)=  0.00005473 RMS(Int)=  0.01705189
 Iteration 19 RMS(Cart)=  0.00005456 RMS(Int)=  0.01703595
 Iteration 20 RMS(Cart)=  0.00005441 RMS(Int)=  0.01702005
 Iteration 21 RMS(Cart)=  0.00005425 RMS(Int)=  0.01700420
 Iteration 22 RMS(Cart)=  0.00005409 RMS(Int)=  0.01698840
 Iteration 23 RMS(Cart)=  0.00005393 RMS(Int)=  0.01697265
 Iteration 24 RMS(Cart)=  0.00005377 RMS(Int)=  0.01695694
 Iteration 25 RMS(Cart)=  0.00005362 RMS(Int)=  0.01694127
 Iteration 26 RMS(Cart)=  0.00005346 RMS(Int)=  0.01692565
 Iteration 27 RMS(Cart)=  0.00005331 RMS(Int)=  0.01691008
 Iteration 28 RMS(Cart)=  0.00005315 RMS(Int)=  0.01689455
 Iteration 29 RMS(Cart)=  0.00005300 RMS(Int)=  0.01687906
 Iteration 30 RMS(Cart)=  0.00005285 RMS(Int)=  0.01686362
 Iteration 31 RMS(Cart)=  0.00005270 RMS(Int)=  0.01684823
 Iteration 32 RMS(Cart)=  0.00005255 RMS(Int)=  0.01683287
 Iteration 33 RMS(Cart)=  0.00005240 RMS(Int)=  0.01681756
 Iteration 34 RMS(Cart)=  0.00005225 RMS(Int)=  0.01680230
 Iteration 35 RMS(Cart)=  0.00005210 RMS(Int)=  0.01678708
 Iteration 36 RMS(Cart)=  0.00005195 RMS(Int)=  0.01677190
 Iteration 37 RMS(Cart)=  0.00005180 RMS(Int)=  0.01675677
 Iteration 38 RMS(Cart)=  0.00005166 RMS(Int)=  0.01674167
 Iteration 39 RMS(Cart)=  0.00005151 RMS(Int)=  0.01672662
 Iteration 40 RMS(Cart)=  0.00005137 RMS(Int)=  0.01671162
 Iteration 41 RMS(Cart)=  0.00005122 RMS(Int)=  0.01669665
 Iteration 42 RMS(Cart)=  0.00005108 RMS(Int)=  0.01668173
 Iteration 43 RMS(Cart)=  0.00005093 RMS(Int)=  0.01666685
 Iteration 44 RMS(Cart)=  0.00005079 RMS(Int)=  0.01665201
 Iteration 45 RMS(Cart)=  0.00005065 RMS(Int)=  0.01663721
 Iteration 46 RMS(Cart)=  0.00005051 RMS(Int)=  0.01662245
 Iteration 47 RMS(Cart)=  0.00005037 RMS(Int)=  0.01660773
 Iteration 48 RMS(Cart)=  0.00005023 RMS(Int)=  0.01659306
 Iteration 49 RMS(Cart)=  0.00005009 RMS(Int)=  0.01657842
 Iteration 50 RMS(Cart)=  0.00004995 RMS(Int)=  0.01656383
 Iteration 51 RMS(Cart)=  0.00004981 RMS(Int)=  0.01654928
 Iteration 52 RMS(Cart)=  0.00004968 RMS(Int)=  0.01653476
 Iteration 53 RMS(Cart)=  0.00004954 RMS(Int)=  0.01652029
 Iteration 54 RMS(Cart)=  0.00004940 RMS(Int)=  0.01650585
 Iteration 55 RMS(Cart)=  0.00004927 RMS(Int)=  0.01649146
 Iteration 56 RMS(Cart)=  0.00004913 RMS(Int)=  0.01647710
 Iteration 57 RMS(Cart)=  0.00004900 RMS(Int)=  0.01646279
 Iteration 58 RMS(Cart)=  0.00004887 RMS(Int)=  0.01644851
 Iteration 59 RMS(Cart)=  0.00004873 RMS(Int)=  0.01643427
 Iteration 60 RMS(Cart)=  0.00004860 RMS(Int)=  0.01642007
 Iteration 61 RMS(Cart)=  0.00004847 RMS(Int)=  0.01640591
 Iteration 62 RMS(Cart)=  0.00004834 RMS(Int)=  0.01639179
 Iteration 63 RMS(Cart)=  0.00004821 RMS(Int)=  0.01637770
 Iteration 64 RMS(Cart)=  0.00004808 RMS(Int)=  0.01636366
 Iteration 65 RMS(Cart)=  0.00004795 RMS(Int)=  0.01634965
 Iteration 66 RMS(Cart)=  0.00004782 RMS(Int)=  0.01633568
 Iteration 67 RMS(Cart)=  0.00004769 RMS(Int)=  0.01632174
 Iteration 68 RMS(Cart)=  0.00004756 RMS(Int)=  0.01630785
 Iteration 69 RMS(Cart)=  0.00004744 RMS(Int)=  0.01629399
 Iteration 70 RMS(Cart)=  0.00004731 RMS(Int)=  0.01628016
 Iteration 71 RMS(Cart)=  0.00004718 RMS(Int)=  0.01626638
 Iteration 72 RMS(Cart)=  0.00004706 RMS(Int)=  0.01625263
 Iteration 73 RMS(Cart)=  0.00004693 RMS(Int)=  0.01623892
 Iteration 74 RMS(Cart)=  0.00004681 RMS(Int)=  0.01622524
 Iteration 75 RMS(Cart)=  0.00004668 RMS(Int)=  0.01621160
 Iteration 76 RMS(Cart)=  0.00004656 RMS(Int)=  0.01619799
 Iteration 77 RMS(Cart)=  0.00004644 RMS(Int)=  0.01618443
 Iteration 78 RMS(Cart)=  0.00004632 RMS(Int)=  0.01617089
 Iteration 79 RMS(Cart)=  0.00004620 RMS(Int)=  0.01615740
 Iteration 80 RMS(Cart)=  0.00004607 RMS(Int)=  0.01614393
 Iteration 81 RMS(Cart)=  0.00004595 RMS(Int)=  0.01613051
 Iteration 82 RMS(Cart)=  0.00004583 RMS(Int)=  0.01611712
 Iteration 83 RMS(Cart)=  0.00004571 RMS(Int)=  0.01610376
 Iteration 84 RMS(Cart)=  0.00004560 RMS(Int)=  0.01609044
 Iteration 85 RMS(Cart)=  0.00004548 RMS(Int)=  0.01607715
 Iteration 86 RMS(Cart)=  0.00004536 RMS(Int)=  0.01606390
 Iteration 87 RMS(Cart)=  0.00004524 RMS(Int)=  0.01605068
 Iteration 88 RMS(Cart)=  0.00004512 RMS(Int)=  0.01603749
 Iteration 89 RMS(Cart)=  0.00004501 RMS(Int)=  0.01602434
 Iteration 90 RMS(Cart)=  0.00004489 RMS(Int)=  0.01601123
 Iteration 91 RMS(Cart)=  0.00004478 RMS(Int)=  0.01599814
 Iteration 92 RMS(Cart)=  0.00004466 RMS(Int)=  0.01598509
 Iteration 93 RMS(Cart)=  0.00004455 RMS(Int)=  0.01597208
 Iteration 94 RMS(Cart)=  0.00004443 RMS(Int)=  0.01595909
 Iteration 95 RMS(Cart)=  0.00004432 RMS(Int)=  0.01594615
 Iteration 96 RMS(Cart)=  0.00004421 RMS(Int)=  0.01593323
 Iteration 97 RMS(Cart)=  0.00004409 RMS(Int)=  0.01592035
 Iteration 98 RMS(Cart)=  0.00004398 RMS(Int)=  0.01590749
 Iteration 99 RMS(Cart)=  0.00004387 RMS(Int)=  0.01589468
 Iteration100 RMS(Cart)=  0.00004376 RMS(Int)=  0.01588189
 New curvilinear step not converged.
 ITry= 7 IFail=1 DXMaxC= 5.53D-02 DCOld= 1.00D+10 DXMaxT= 2.40D+00 DXLimC= 3.00D+00 Rises=F
 Iteration  1 RMS(Cart)=  0.00496041 RMS(Int)=  0.01332722
 Iteration  2 RMS(Cart)=  0.00002580 RMS(Int)=  0.01331952
 Iteration  3 RMS(Cart)=  0.00002576 RMS(Int)=  0.01331183
 Iteration  4 RMS(Cart)=  0.00002571 RMS(Int)=  0.01330415
 Iteration  5 RMS(Cart)=  0.00002566 RMS(Int)=  0.01329649
 Iteration  6 RMS(Cart)=  0.00002562 RMS(Int)=  0.01328884
 Iteration  7 RMS(Cart)=  0.00002557 RMS(Int)=  0.01328121
 Iteration  8 RMS(Cart)=  0.00002553 RMS(Int)=  0.01327358
 Iteration  9 RMS(Cart)=  0.00002548 RMS(Int)=  0.01326598
 Iteration 10 RMS(Cart)=  0.00002543 RMS(Int)=  0.01325838
 Iteration 11 RMS(Cart)=  0.00002539 RMS(Int)=  0.01325080
 Iteration 12 RMS(Cart)=  0.00002534 RMS(Int)=  0.01324324
 Iteration 13 RMS(Cart)=  0.00002530 RMS(Int)=  0.01323568
 Iteration 14 RMS(Cart)=  0.00002525 RMS(Int)=  0.01322814
 Iteration 15 RMS(Cart)=  0.00002521 RMS(Int)=  0.01322062
 Iteration 16 RMS(Cart)=  0.00002516 RMS(Int)=  0.01321311
 Iteration 17 RMS(Cart)=  0.00002512 RMS(Int)=  0.01320561
 Iteration 18 RMS(Cart)=  0.00002507 RMS(Int)=  0.01319812
 Iteration 19 RMS(Cart)=  0.00002503 RMS(Int)=  0.01319065
 Iteration 20 RMS(Cart)=  0.00002499 RMS(Int)=  0.01318319
 Iteration 21 RMS(Cart)=  0.00002494 RMS(Int)=  0.01317574
 Iteration 22 RMS(Cart)=  0.00002490 RMS(Int)=  0.01316830
 Iteration 23 RMS(Cart)=  0.00002485 RMS(Int)=  0.01316088
 Iteration 24 RMS(Cart)=  0.00002481 RMS(Int)=  0.01315348
 Iteration 25 RMS(Cart)=  0.00002477 RMS(Int)=  0.01314608
 Iteration 26 RMS(Cart)=  0.00002472 RMS(Int)=  0.01313870
 Iteration 27 RMS(Cart)=  0.00002468 RMS(Int)=  0.01313133
 Iteration 28 RMS(Cart)=  0.00002464 RMS(Int)=  0.01312397
 Iteration 29 RMS(Cart)=  0.00002459 RMS(Int)=  0.01311663
 Iteration 30 RMS(Cart)=  0.00002455 RMS(Int)=  0.01310930
 Iteration 31 RMS(Cart)=  0.00002451 RMS(Int)=  0.01310198
 Iteration 32 RMS(Cart)=  0.00002447 RMS(Int)=  0.01309468
 Iteration 33 RMS(Cart)=  0.00002442 RMS(Int)=  0.01308739
 Iteration 34 RMS(Cart)=  0.00002438 RMS(Int)=  0.01308011
 Iteration 35 RMS(Cart)=  0.00002434 RMS(Int)=  0.01307284
 Iteration 36 RMS(Cart)=  0.00002430 RMS(Int)=  0.01306559
 Iteration 37 RMS(Cart)=  0.00002426 RMS(Int)=  0.01305834
 Iteration 38 RMS(Cart)=  0.00002421 RMS(Int)=  0.01305111
 Iteration 39 RMS(Cart)=  0.00002417 RMS(Int)=  0.01304390
 Iteration 40 RMS(Cart)=  0.00002413 RMS(Int)=  0.01303669
 Iteration 41 RMS(Cart)=  0.00002409 RMS(Int)=  0.01302950
 Iteration 42 RMS(Cart)=  0.00002405 RMS(Int)=  0.01302232
 Iteration 43 RMS(Cart)=  0.00002401 RMS(Int)=  0.01301515
 Iteration 44 RMS(Cart)=  0.00002396 RMS(Int)=  0.01300800
 Iteration 45 RMS(Cart)=  0.00002392 RMS(Int)=  0.01300086
 Iteration 46 RMS(Cart)=  0.00002388 RMS(Int)=  0.01299373
 Iteration 47 RMS(Cart)=  0.00002384 RMS(Int)=  0.01298661
 Iteration 48 RMS(Cart)=  0.00002380 RMS(Int)=  0.01297950
 Iteration 49 RMS(Cart)=  0.00002376 RMS(Int)=  0.01297241
 Iteration 50 RMS(Cart)=  0.00002372 RMS(Int)=  0.01296532
 Iteration 51 RMS(Cart)=  0.00002368 RMS(Int)=  0.01295825
 Iteration 52 RMS(Cart)=  0.00002364 RMS(Int)=  0.01295120
 Iteration 53 RMS(Cart)=  0.00002360 RMS(Int)=  0.01294415
 Iteration 54 RMS(Cart)=  0.00002356 RMS(Int)=  0.01293712
 Iteration 55 RMS(Cart)=  0.00002352 RMS(Int)=  0.01293009
 Iteration 56 RMS(Cart)=  0.00002348 RMS(Int)=  0.01292308
 Iteration 57 RMS(Cart)=  0.00002344 RMS(Int)=  0.01291609
 Iteration 58 RMS(Cart)=  0.00002340 RMS(Int)=  0.01290910
 Iteration 59 RMS(Cart)=  0.00002336 RMS(Int)=  0.01290212
 Iteration 60 RMS(Cart)=  0.00002332 RMS(Int)=  0.01289516
 Iteration 61 RMS(Cart)=  0.00002328 RMS(Int)=  0.01288821
 Iteration 62 RMS(Cart)=  0.00002324 RMS(Int)=  0.01288127
 Iteration 63 RMS(Cart)=  0.00002320 RMS(Int)=  0.01287434
 Iteration 64 RMS(Cart)=  0.00002317 RMS(Int)=  0.01286743
 Iteration 65 RMS(Cart)=  0.00002313 RMS(Int)=  0.01286052
 Iteration 66 RMS(Cart)=  0.00002309 RMS(Int)=  0.01285363
 Iteration 67 RMS(Cart)=  0.00002305 RMS(Int)=  0.01284675
 Iteration 68 RMS(Cart)=  0.00002301 RMS(Int)=  0.01283987
 Iteration 69 RMS(Cart)=  0.00002297 RMS(Int)=  0.01283302
 Iteration 70 RMS(Cart)=  0.00002293 RMS(Int)=  0.01282617
 Iteration 71 RMS(Cart)=  0.00002290 RMS(Int)=  0.01281933
 Iteration 72 RMS(Cart)=  0.00002286 RMS(Int)=  0.01281251
 Iteration 73 RMS(Cart)=  0.00002282 RMS(Int)=  0.01280569
 Iteration 74 RMS(Cart)=  0.00002278 RMS(Int)=  0.01279889
 Iteration 75 RMS(Cart)=  0.00002274 RMS(Int)=  0.01279210
 Iteration 76 RMS(Cart)=  0.00002271 RMS(Int)=  0.01278532
 Iteration 77 RMS(Cart)=  0.00002267 RMS(Int)=  0.01277855
 Iteration 78 RMS(Cart)=  0.00002263 RMS(Int)=  0.01277180
 Iteration 79 RMS(Cart)=  0.00002259 RMS(Int)=  0.01276505
 Iteration 80 RMS(Cart)=  0.00002256 RMS(Int)=  0.01275832
 Iteration 81 RMS(Cart)=  0.00002252 RMS(Int)=  0.01275159
 Iteration 82 RMS(Cart)=  0.00002248 RMS(Int)=  0.01274488
 Iteration 83 RMS(Cart)=  0.00002245 RMS(Int)=  0.01273818
 Iteration 84 RMS(Cart)=  0.00002241 RMS(Int)=  0.01273149
 Iteration 85 RMS(Cart)=  0.00002237 RMS(Int)=  0.01272481
 Iteration 86 RMS(Cart)=  0.00002234 RMS(Int)=  0.01271814
 Iteration 87 RMS(Cart)=  0.00002230 RMS(Int)=  0.01271148
 Iteration 88 RMS(Cart)=  0.00002226 RMS(Int)=  0.01270483
 Iteration 89 RMS(Cart)=  0.00002223 RMS(Int)=  0.01269820
 Iteration 90 RMS(Cart)=  0.00002219 RMS(Int)=  0.01269157
 Iteration 91 RMS(Cart)=  0.00002215 RMS(Int)=  0.01268496
 Iteration 92 RMS(Cart)=  0.00002212 RMS(Int)=  0.01267835
 Iteration 93 RMS(Cart)=  0.00002208 RMS(Int)=  0.01267176
 Iteration 94 RMS(Cart)=  0.00002205 RMS(Int)=  0.01266518
 Iteration 95 RMS(Cart)=  0.00002201 RMS(Int)=  0.01265861
 Iteration 96 RMS(Cart)=  0.00002197 RMS(Int)=  0.01265204
 Iteration 97 RMS(Cart)=  0.00002194 RMS(Int)=  0.01264549
 Iteration 98 RMS(Cart)=  0.00002190 RMS(Int)=  0.01263895
 Iteration 99 RMS(Cart)=  0.00002187 RMS(Int)=  0.01263242
 Iteration100 RMS(Cart)=  0.00002183 RMS(Int)=  0.01262590
 New curvilinear step not converged.
 ITry= 8 IFail=1 DXMaxC= 3.52D-02 DCOld= 1.00D+10 DXMaxT= 2.40D+00 DXLimC= 3.00D+00 Rises=F
 Iteration  1 RMS(Cart)=  0.00333030 RMS(Int)=  0.00935283
 Iteration  2 RMS(Cart)=  0.00000870 RMS(Int)=  0.00935011
 Iteration  3 RMS(Cart)=  0.00000870 RMS(Int)=  0.00934740
 Iteration  4 RMS(Cart)=  0.00000869 RMS(Int)=  0.00934468
 Iteration  5 RMS(Cart)=  0.00000868 RMS(Int)=  0.00934198
 Iteration  6 RMS(Cart)=  0.00000867 RMS(Int)=  0.00933927
 Iteration  7 RMS(Cart)=  0.00000867 RMS(Int)=  0.00933656
 Iteration  8 RMS(Cart)=  0.00000866 RMS(Int)=  0.00933386
 Iteration  9 RMS(Cart)=  0.00000865 RMS(Int)=  0.00933116
 Iteration 10 RMS(Cart)=  0.00000864 RMS(Int)=  0.00932847
 Iteration 11 RMS(Cart)=  0.00000863 RMS(Int)=  0.00932577
 Iteration 12 RMS(Cart)=  0.00000863 RMS(Int)=  0.00932308
 Iteration 13 RMS(Cart)=  0.00000862 RMS(Int)=  0.00932039
 Iteration 14 RMS(Cart)=  0.00000861 RMS(Int)=  0.00931770
 Iteration 15 RMS(Cart)=  0.00000860 RMS(Int)=  0.00931502
 Iteration 16 RMS(Cart)=  0.00000860 RMS(Int)=  0.00931233
 Iteration 17 RMS(Cart)=  0.00000859 RMS(Int)=  0.00930965
 Iteration 18 RMS(Cart)=  0.00000858 RMS(Int)=  0.00930698
 Iteration 19 RMS(Cart)=  0.00000857 RMS(Int)=  0.00930430
 Iteration 20 RMS(Cart)=  0.00000857 RMS(Int)=  0.00930163
 Iteration 21 RMS(Cart)=  0.00000856 RMS(Int)=  0.00929896
 Iteration 22 RMS(Cart)=  0.00000855 RMS(Int)=  0.00929629
 Iteration 23 RMS(Cart)=  0.00000854 RMS(Int)=  0.00929362
 Iteration 24 RMS(Cart)=  0.00000854 RMS(Int)=  0.00929096
 Iteration 25 RMS(Cart)=  0.00000853 RMS(Int)=  0.00928830
 Iteration 26 RMS(Cart)=  0.00000852 RMS(Int)=  0.00928564
 Iteration 27 RMS(Cart)=  0.00000851 RMS(Int)=  0.00928298
 Iteration 28 RMS(Cart)=  0.00000851 RMS(Int)=  0.00928033
 Iteration 29 RMS(Cart)=  0.00000850 RMS(Int)=  0.00927768
 Iteration 30 RMS(Cart)=  0.00000849 RMS(Int)=  0.00927503
 Iteration 31 RMS(Cart)=  0.00000848 RMS(Int)=  0.00927238
 Iteration 32 RMS(Cart)=  0.00000848 RMS(Int)=  0.00926973
 Iteration 33 RMS(Cart)=  0.00000847 RMS(Int)=  0.00926709
 Iteration 34 RMS(Cart)=  0.00000846 RMS(Int)=  0.00926445
 Iteration 35 RMS(Cart)=  0.00000845 RMS(Int)=  0.00926181
 Iteration 36 RMS(Cart)=  0.00000845 RMS(Int)=  0.00925918
 Iteration 37 RMS(Cart)=  0.00000844 RMS(Int)=  0.00925655
 Iteration 38 RMS(Cart)=  0.00000843 RMS(Int)=  0.00925391
 Iteration 39 RMS(Cart)=  0.00000842 RMS(Int)=  0.00925129
 Iteration 40 RMS(Cart)=  0.00000842 RMS(Int)=  0.00924866
 Iteration 41 RMS(Cart)=  0.00000841 RMS(Int)=  0.00924604
 Iteration 42 RMS(Cart)=  0.00000840 RMS(Int)=  0.00924341
 Iteration 43 RMS(Cart)=  0.00000839 RMS(Int)=  0.00924079
 Iteration 44 RMS(Cart)=  0.00000839 RMS(Int)=  0.00923818
 Iteration 45 RMS(Cart)=  0.00000838 RMS(Int)=  0.00923556
 Iteration 46 RMS(Cart)=  0.00000837 RMS(Int)=  0.00923295
 Iteration 47 RMS(Cart)=  0.00000836 RMS(Int)=  0.00923034
slurmstepd: error: *** JOB 27447197 ON lewis4-r630-hpc4-node238 CANCELLED AT 2023-05-17T14:24:11 DUE TO TIME LIMIT ***
