### Starting Gaussian ###
 Entering Gaussian System, Link 0=g16
 Initial command:
 /cluster/software/gaussian/gaussian-16-A.03/avx2/g16/l1.exe "/local/scratch/yxie/Gau-6005.inp" -scrdir="/local/scratch/yxie/"
 Entering Link 1 = /cluster/software/gaussian/gaussian-16-A.03/avx2/g16/l1.exe PID=      6006.
  
 Copyright (c) 1988,1990,1992,1993,1995,1998,2003,2009,2016,
            Gaussian, Inc.  All Rights Reserved.
  
 This is part of the Gaussian(R) 16 program.  It is based on
 the Gaussian(R) 09 system (copyright 2009, Gaussian, Inc.),
 the Gaussian(R) 03 system (copyright 2003, Gaussian, Inc.),
 the Gaussian(R) 98 system (copyright 1998, Gaussian, Inc.),
 the Gaussian(R) 94 system (copyright 1995, Gaussian, Inc.),
 the Gaussian 92(TM) system (copyright 1992, Gaussian, Inc.),
 the Gaussian 90(TM) system (copyright 1990, Gaussian, Inc.),
 the Gaussian 88(TM) system (copyright 1988, Gaussian, Inc.),
 the Gaussian 86(TM) system (copyright 1986, Carnegie Mellon
 University), and the Gaussian 82(TM) system (copyright 1983,
 Carnegie Mellon University). Gaussian is a federally registered
 trademark of Gaussian, Inc.
  
 This software contains proprietary and confidential information,
 including trade secrets, belonging to Gaussian, Inc.
  
 This software is provided under written license and may be
 used, copied, transmitted, or stored only in accord with that
 written license.
  
 The following legend is applicable only to US Government
 contracts under FAR:
  
                    RESTRICTED RIGHTS LEGEND
  
 Use, reproduction and disclosure by the US Government is
 subject to restrictions as set forth in subparagraphs (a)
 and (c) of the Commercial Computer Software - Restricted
 Rights clause in FAR 52.227-19.
  
 Gaussian, Inc.
 340 Quinnipiac St., Bldg. 40, Wallingford CT 06492
  
  
 ---------------------------------------------------------------
 Warning -- This program may not be used in any manner that
 competes with the business of Gaussian, Inc. or will provide
 assistance to any competitor of Gaussian, Inc.  The licensee
 of this program is prohibited from giving any competitor of
 Gaussian, Inc. access to this program.  By using this program,
 the user acknowledges that Gaussian, Inc. is engaged in the
 business of creating and licensing software in the field of
 computational chemistry and represents and warrants to the
 licensee that it is not a competitor of Gaussian, Inc. and that
 it will not use this program in any manner prohibited above.
 ---------------------------------------------------------------
  

 Cite this work as:
 Gaussian 16, Revision A.03,
 M. J. Frisch, G. W. Trucks, H. B. Schlegel, G. E. Scuseria, 
 M. A. Robb, J. R. Cheeseman, G. Scalmani, V. Barone, 
 G. A. Petersson, H. Nakatsuji, X. Li, M. Caricato, A. V. Marenich, 
 J. Bloino, B. G. Janesko, R. Gomperts, B. Mennucci, H. P. Hratchian, 
 J. V. Ortiz, A. F. Izmaylov, J. L. Sonnenberg, D. Williams-Young, 
 F. Ding, F. Lipparini, F. Egidi, J. Goings, B. Peng, A. Petrone, 
 T. Henderson, D. Ranasinghe, V. G. Zakrzewski, J. Gao, N. Rega, 
 G. Zheng, W. Liang, M. Hada, M. Ehara, K. Toyota, R. Fukuda, 
 J. Hasegawa, M. Ishida, T. Nakajima, Y. Honda, O. Kitao, H. Nakai, 
 T. Vreven, K. Throssell, J. A. Montgomery, Jr., J. E. Peralta, 
 F. Ogliaro, M. J. Bearpark, J. J. Heyd, E. N. Brothers, K. N. Kudin, 
 V. N. Staroverov, T. A. Keith, R. Kobayashi, J. Normand, 
 K. Raghavachari, A. P. Rendell, J. C. Burant, S. S. Iyengar, 
 J. Tomasi, M. Cossi, J. M. Millam, M. Klene, C. Adamo, R. Cammi, 
 J. W. Ochterski, R. L. Martin, K. Morokuma, O. Farkas, 
 J. B. Foresman, and D. J. Fox, Gaussian, Inc., Wallingford CT, 2016.
 
 ******************************************
 Gaussian 16:  ES64L-G16RevA.03 25-Dec-2016
                17-May-2023 
 ******************************************
 %chk=[C][C]1CdCNdC1CCCCdS.chk
 %NProcShared=20
 Will use up to   20 processors via shared memory.
 -----------------------------
 # opt freq b3lyp/6-31g(2df,p)
 -----------------------------
 1/18=20,19=15,26=3,38=1/1,3;
 2/9=110,12=2,17=6,18=5,40=1/2;
 3/5=1,6=6,7=104,11=2,25=1,30=1,71=1,74=-5/1,2,3;
 4//1;
 5/5=2,38=5/2;
 6/7=2,8=2,9=2,10=2,28=1/1;
 7//1,2,3,16;
 1/18=20,19=15,26=3/3(2);
 2/9=110/2;
 99//99;
 2/9=110/2;
 3/5=1,6=6,7=104,11=2,25=1,30=1,71=1,74=-5/1,2,3;
 4/5=5,16=3,69=1/1;
 5/5=2,38=5/2;
 7//1,2,3,16;
 1/18=20,19=15,26=3/3(-5);
 2/9=110/2;
 6/7=2,8=2,9=2,10=2,19=2,28=1/1;
 99/9=1/99;
 -------------------
 Title Card Required
 -------------------
 Symbolic Z-matrix:
 Charge =  0 Multiplicity = 1
 C                     0.77816   0.10453   0.47798 
 C                     2.20314   0.10073   0.00056 
 C                     2.83774   1.22353  -0.6208 
 C                     3.66549   0.70509  -1.55184 
 N                     3.73096  -0.67658  -1.56535 
 C                     2.87386  -1.05689  -0.64238 
 C                     2.6173   -2.47216  -0.21172 
 C                     3.28534  -3.48403  -1.13314 
 C                     2.99236  -4.91474  -0.69667 
 C                     3.65522  -5.8916   -1.63797 
 S                     3.5118   -7.54378  -1.41378 
 H                     2.63869   2.25538  -0.41547 
 H                     4.24126   1.28527  -2.25861 
 H                     1.53644  -2.64566  -0.18716 
 H                     2.99764  -2.58757   0.8109 
 H                     4.37065  -3.31893  -1.14817 
 H                     2.93594  -3.332    -2.16231 
 H                     1.91054  -5.09372  -0.69653 
 H                     3.36708  -5.08333   0.3201 
 H                     4.23475  -5.46746  -2.47574 
 

 GradGradGradGradGradGradGradGradGradGradGradGradGradGradGradGradGradGrad
 Berny optimization.
 Initialization pass.
                           ----------------------------
                           !    Initial Parameters    !
                           ! (Angstroms and Degrees)  !
 --------------------------                            --------------------------
 ! Name  Definition              Value          Derivative Info.                !
 --------------------------------------------------------------------------------
 ! R1    R(1,2)                  1.5028         estimate D2E/DX2                !
 ! R2    R(2,3)                  1.4316         estimate D2E/DX2                !
 ! R3    R(2,6)                  1.4844         estimate D2E/DX2                !
 ! R4    R(3,4)                  1.3494         estimate D2E/DX2                !
 ! R5    R(3,12)                 1.0707         estimate D2E/DX2                !
 ! R6    R(4,5)                  1.3833         estimate D2E/DX2                !
 ! R7    R(4,13)                 1.0806         estimate D2E/DX2                !
 ! R8    R(5,6)                  1.3157         estimate D2E/DX2                !
 ! R9    R(6,7)                  1.5014         estimate D2E/DX2                !
 ! R10   R(7,8)                  1.5229         estimate D2E/DX2                !
 ! R11   R(7,14)                 1.095          estimate D2E/DX2                !
 ! R12   R(7,15)                 1.0971         estimate D2E/DX2                !
 ! R13   R(8,9)                  1.5242         estimate D2E/DX2                !
 ! R14   R(8,16)                 1.0979         estimate D2E/DX2                !
 ! R15   R(8,17)                 1.0974         estimate D2E/DX2                !
 ! R16   R(9,10)                 1.5099         estimate D2E/DX2                !
 ! R17   R(9,18)                 1.0965         estimate D2E/DX2                !
 ! R18   R(9,19)                 1.0967         estimate D2E/DX2                !
 ! R19   R(10,11)                1.6735         estimate D2E/DX2                !
 ! R20   R(10,20)                1.1035         estimate D2E/DX2                !
 ! A1    A(1,2,3)              123.7944         estimate D2E/DX2                !
 ! A2    A(1,2,6)              124.6124         estimate D2E/DX2                !
 ! A3    A(3,2,6)              102.9064         estimate D2E/DX2                !
 ! A4    A(2,3,4)              105.6681         estimate D2E/DX2                !
 ! A5    A(2,3,12)             126.169          estimate D2E/DX2                !
 ! A6    A(4,3,12)             128.0686         estimate D2E/DX2                !
 ! A7    A(3,4,5)              114.8052         estimate D2E/DX2                !
 ! A8    A(3,4,13)             124.8806         estimate D2E/DX2                !
 ! A9    A(5,4,13)             120.3103         estimate D2E/DX2                !
 ! A10   A(4,5,6)              104.5384         estimate D2E/DX2                !
 ! A11   A(2,6,5)              111.8869         estimate D2E/DX2                !
 ! A12   A(2,6,7)              122.2541         estimate D2E/DX2                !
 ! A13   A(5,6,7)              125.8023         estimate D2E/DX2                !
 ! A14   A(6,7,8)              112.198          estimate D2E/DX2                !
 ! A15   A(6,7,14)             108.9333         estimate D2E/DX2                !
 ! A16   A(6,7,15)             107.8947         estimate D2E/DX2                !
 ! A17   A(8,7,14)             109.9563         estimate D2E/DX2                !
 ! A18   A(8,7,15)             109.998          estimate D2E/DX2                !
 ! A19   A(14,7,15)            107.7354         estimate D2E/DX2                !
 ! A20   A(7,8,9)              111.4752         estimate D2E/DX2                !
 ! A21   A(7,8,16)             109.999          estimate D2E/DX2                !
 ! A22   A(7,8,17)             109.6152         estimate D2E/DX2                !
 ! A23   A(9,8,16)             109.5776         estimate D2E/DX2                !
 ! A24   A(9,8,17)             109.717          estimate D2E/DX2                !
 ! A25   A(16,8,17)            106.3232         estimate D2E/DX2                !
 ! A26   A(8,9,10)             110.144          estimate D2E/DX2                !
 ! A27   A(8,9,18)             110.0527         estimate D2E/DX2                !
 ! A28   A(8,9,19)             110.1278         estimate D2E/DX2                !
 ! A29   A(10,9,18)            109.1237         estimate D2E/DX2                !
 ! A30   A(10,9,19)            109.1806         estimate D2E/DX2                !
 ! A31   A(18,9,19)            108.1737         estimate D2E/DX2                !
 ! A32   A(9,10,11)            121.1719         estimate D2E/DX2                !
 ! A33   A(9,10,20)            117.0787         estimate D2E/DX2                !
 ! A34   A(11,10,20)           121.7494         estimate D2E/DX2                !
 ! D1    D(1,2,3,4)           -144.5231         estimate D2E/DX2                !
 ! D2    D(1,2,3,12)            32.1693         estimate D2E/DX2                !
 ! D3    D(6,2,3,4)              4.1918         estimate D2E/DX2                !
 ! D4    D(6,2,3,12)          -179.1158         estimate D2E/DX2                !
 ! D5    D(1,2,6,5)            145.3251         estimate D2E/DX2                !
 ! D6    D(1,2,6,7)            -37.2672         estimate D2E/DX2                !
 ! D7    D(3,2,6,5)             -3.0497         estimate D2E/DX2                !
 ! D8    D(3,2,6,7)            174.3581         estimate D2E/DX2                !
 ! D9    D(2,3,4,5)             -4.3769         estimate D2E/DX2                !
 ! D10   D(2,3,4,13)           174.9052         estimate D2E/DX2                !
 ! D11   D(12,3,4,5)           179.0148         estimate D2E/DX2                !
 ! D12   D(12,3,4,13)           -1.7031         estimate D2E/DX2                !
 ! D13   D(3,4,5,6)              2.4232         estimate D2E/DX2                !
 ! D14   D(13,4,5,6)          -176.8946         estimate D2E/DX2                !
 ! D15   D(4,5,6,2)              0.5863         estimate D2E/DX2                !
 ! D16   D(4,5,6,7)           -176.7106         estimate D2E/DX2                !
 ! D17   D(2,6,7,8)            172.8066         estimate D2E/DX2                !
 ! D18   D(2,6,7,14)            50.8227         estimate D2E/DX2                !
 ! D19   D(2,6,7,15)           -65.8682         estimate D2E/DX2                !
 ! D20   D(5,6,7,8)            -10.1595         estimate D2E/DX2                !
 ! D21   D(5,6,7,14)          -132.1435         estimate D2E/DX2                !
 ! D22   D(5,6,7,15)           111.1657         estimate D2E/DX2                !
 ! D23   D(6,7,8,9)           -178.9094         estimate D2E/DX2                !
 ! D24   D(6,7,8,16)            59.3301         estimate D2E/DX2                !
 ! D25   D(6,7,8,17)           -57.2355         estimate D2E/DX2                !
 ! D26   D(14,7,8,9)           -57.5104         estimate D2E/DX2                !
 ! D27   D(14,7,8,16)         -179.2709         estimate D2E/DX2                !
 ! D28   D(14,7,8,17)           64.1635         estimate D2E/DX2                !
 ! D29   D(15,7,8,9)            60.9807         estimate D2E/DX2                !
 ! D30   D(15,7,8,16)          -60.7798         estimate D2E/DX2                !
 ! D31   D(15,7,8,17)         -177.3454         estimate D2E/DX2                !
 ! D32   D(7,8,9,10)           179.3777         estimate D2E/DX2                !
 ! D33   D(7,8,9,18)            59.0221         estimate D2E/DX2                !
 ! D34   D(7,8,9,19)           -60.1478         estimate D2E/DX2                !
 ! D35   D(16,8,9,10)          -58.618          estimate D2E/DX2                !
 ! D36   D(16,8,9,18)         -178.9737         estimate D2E/DX2                !
 ! D37   D(16,8,9,19)           61.8565         estimate D2E/DX2                !
 ! D38   D(17,8,9,10)           57.7629         estimate D2E/DX2                !
 ! D39   D(17,8,9,18)          -62.5928         estimate D2E/DX2                !
 ! D40   D(17,8,9,19)          178.2374         estimate D2E/DX2                !
 ! D41   D(8,9,10,11)          179.9979         estimate D2E/DX2                !
 ! D42   D(8,9,10,20)           -0.0263         estimate D2E/DX2                !
 ! D43   D(18,9,10,11)         -59.0882         estimate D2E/DX2                !
 ! D44   D(18,9,10,20)         120.8876         estimate D2E/DX2                !
 ! D45   D(19,9,10,11)          58.955          estimate D2E/DX2                !
 ! D46   D(19,9,10,20)        -121.0692         estimate D2E/DX2                !
 --------------------------------------------------------------------------------
 Trust Radius=3.00D-01 FncErr=1.00D-07 GrdErr=1.00D-06 EigMax=2.50D+02 EigMin=1.00D-04
 Number of steps in this run=    110 maximum allowed number of steps=    120.
 GradGradGradGradGradGradGradGradGradGradGradGradGradGradGradGradGradGrad

                          Input orientation:                          
 ---------------------------------------------------------------------
 Center     Atomic      Atomic             Coordinates (Angstroms)
 Number     Number       Type             X           Y           Z
 ---------------------------------------------------------------------
      1          6           0        0.778160    0.104530    0.477980
      2          6           0        2.203140    0.100730    0.000560
      3          6           0        2.837740    1.223530   -0.620800
      4          6           0        3.665490    0.705090   -1.551840
      5          7           0        3.730960   -0.676580   -1.565350
      6          6           0        2.873860   -1.056890   -0.642380
      7          6           0        2.617300   -2.472160   -0.211720
      8          6           0        3.285340   -3.484030   -1.133140
      9          6           0        2.992360   -4.914740   -0.696670
     10          6           0        3.655220   -5.891600   -1.637970
     11         16           0        3.511800   -7.543780   -1.413780
     12          1           0        2.638690    2.255380   -0.415470
     13          1           0        4.241260    1.285270   -2.258610
     14          1           0        1.536440   -2.645660   -0.187160
     15          1           0        2.997640   -2.587570    0.810900
     16          1           0        4.370650   -3.318930   -1.148170
     17          1           0        2.935940   -3.332000   -2.162310
     18          1           0        1.910540   -5.093720   -0.696530
     19          1           0        3.367080   -5.083330    0.320100
     20          1           0        4.234750   -5.467460   -2.475740
 ---------------------------------------------------------------------
                    Distance matrix (angstroms):
                    1          2          3          4          5
     1  C    0.000000
     2  C    1.502835   0.000000
     3  C    2.588696   1.431602   0.000000
     4  C    3.580156   2.216679   1.349365   0.000000
     5  N    3.674828   2.321749   2.302267   1.383286   0.000000
     6  C    2.645007   1.484359   2.280808   2.135034   1.315724
     7  C    3.239977   2.614642   3.724791   3.604101   2.509315
     8  C    4.664700   3.912408   4.756465   4.227121   2.875267
     9  C    5.610308   5.124835   6.140686   5.724239   4.388865
    10  C    6.979133   6.379760   7.233808   6.597260   5.216076
    11  S    8.339556   7.883621   8.828867   8.251457   6.872368
    12  H    2.980936   2.237253   1.070745   2.179232   3.333417
    13  H    4.569041   3.265106   2.157800   1.080576   2.142398
    14  H    2.929325   2.832382   4.105126   4.197944   3.254628
    15  H    3.504901   2.918020   4.074287   4.107332   3.136272
    16  H    5.222109   4.208534   4.823057   4.105233   2.750501
    17  H    4.841166   4.122940   4.810275   4.147651   2.835432
    18  H    5.448262   5.249177   6.385380   6.118627   4.855914
    19  H    5.800114   5.322719   6.398592   6.090896   4.806951
    20  H    7.191630   6.423725   7.082499   6.267218   4.902565
                    6          7          8          9         10
     6  C    0.000000
     7  C    1.501426   0.000000
     8  C    2.510213   1.522883   0.000000
     9  C    3.860051   2.518341   1.524229   0.000000
    10  C    4.997614   3.847601   2.487581   1.509862   0.000000
    11  S    6.563670   5.288328   4.075735   2.774151   1.673478
    12  H    3.328352   4.731977   5.820140   7.184342   8.300670
    13  H    3.157166   4.576602   4.992663   6.514563   7.227455
    14  H    2.126054   1.094972   2.157868   2.743725   4.138865
    15  H    2.114314   1.097146   2.160024   2.772817   4.164852
    16  H    2.759172   2.160600   1.097899   2.156420   2.714843
    17  H    2.736817   2.155379   1.097444   2.157858   2.709954
    18  H    4.150532   2.758102   2.161436   1.096526   2.137014
    19  H    4.169155   2.768251   2.162487   1.096658   2.137841
    20  H    4.966524   4.088246   2.576422   2.239224   1.103453
                   11         12         13         14         15
    11  S    0.000000
    12  H    9.888502   0.000000
    13  H    8.899324   2.628024   0.000000
    14  H    5.422013   5.028645   5.201843   0.000000
    15  H    5.456884   5.008692   5.095819   1.770481   0.000000
    16  H    4.319436   5.882981   4.737982   3.067504   2.501599
    17  H    4.316365   5.861623   4.799200   2.516124   3.065609
    18  H    3.013515   7.390431   6.968778   2.528321   3.120083
    19  H    3.013486   7.411362   6.926255   3.090435   2.570251
    20  H    2.441623   8.150729   6.756223   4.525597   4.541609
                   16         17         18         19         20
    16  H    0.000000
    17  H    1.756998   0.000000
    18  H    3.066920   2.510700   0.000000
    19  H    2.505210   3.068452   1.776275   0.000000
    20  H    2.529247   2.518995   2.950800   2.952478   0.000000
 Stoichiometry    C9H9NS
 Framework group  C1[X(C9H9NS)]
 Deg. of freedom    54
 Full point group                 C1      NOp   1
 Largest Abelian subgroup         C1      NOp   1
 Largest concise Abelian subgroup C1      NOp   1
                         Standard orientation:                         
 ---------------------------------------------------------------------
 Center     Atomic      Atomic             Coordinates (Angstroms)
 Number     Number       Type             X           Y           Z
 ---------------------------------------------------------------------
      1          6           0        3.293551    2.131524   -0.431010
      2          6           0        3.082263    0.757432    0.139728
      3          6           0        4.058573   -0.287966    0.081007
      4          6           0        3.359516   -1.430804   -0.080316
      5          7           0        1.984927   -1.280436   -0.043208
      6          6           0        1.797958    0.014501    0.095751
      7          6           0        0.470994    0.697873    0.258389
      8          6           0       -0.697033   -0.244942    0.001510
      9          6           0       -2.034601    0.471759    0.144777
     10          6           0       -3.169445   -0.485298   -0.130644
     11         16           0       -4.764106    0.015691   -0.049438
     12          1           0        5.121632   -0.161760    0.102797
     13          1           0        3.797355   -2.405652   -0.240352
     14          1           0        0.422816    1.548579   -0.429318
     15          1           0        0.417588    1.091441    1.281121
     16          1           0       -0.656695   -1.091555    0.699364
     17          1           0       -0.611545   -0.671408   -1.006063
     18          1           0       -2.090554    1.308230   -0.562014
     19          1           0       -2.140543    0.873762    1.159581
     20          1           0       -2.899508   -1.524105   -0.386814
 ---------------------------------------------------------------------
 Rotational constants (GHZ):           3.4320947           0.3073004           0.2850059
 Standard basis: 6-31G(2df,p) (6D, 7F)
 There are   390 symmetry adapted cartesian basis functions of A   symmetry.
 There are   357 symmetry adapted basis functions of A   symmetry.
   357 basis functions,   571 primitive gaussians,   390 cartesian basis functions
    43 alpha electrons       43 beta electrons
       nuclear repulsion energy       573.4816902144 Hartrees.
 NAtoms=   20 NActive=   20 NUniq=   20 SFac= 1.00D+00 NAtFMM=   60 NAOKFM=F Big=F
 Integral buffers will be    131072 words long.
 Raffenetti 2 integral format.
 Two-electron integral symmetry is turned on.
 One-electron integrals computed using PRISM.
 PrsmSu:  requested number of processors reduced to:  13 ShMem   1 Linda.
 NBasis=   357 RedAO= T EigKep=  2.32D-04  NBF=   357
 NBsUse=   357 1.00D-06 EigRej= -1.00D+00 NBFU=   357
 ExpMin= 1.17D-01 ExpMax= 2.19D+04 ExpMxC= 3.30D+03 IAcc=3 IRadAn=         5 AccDes= 0.00D+00
 Harris functional with IExCor=  402 and IRadAn=       5 diagonalized for initial guess.
 HarFok:  IExCor=  402 AccDes= 0.00D+00 IRadAn=         5 IDoV= 1 UseB2=F ITyADJ=14
 ICtDFT=  3500011 ScaDFX=  1.000000  1.000000  1.000000  1.000000
 FoFCou: FMM=F IPFlag=           0 FMFlag=      100000 FMFlg1=           0
         NFxFlg=           0 DoJE=T BraDBF=F KetDBF=T FulRan=T
         wScrn=  0.000000 ICntrl=       500 IOpCl=  0 I1Cent=   200000004 NGrid=           0
         NMat0=    1 NMatS0=      1 NMatT0=    0 NMatD0=    1 NMtDS0=    0 NMtDT0=    0
 Petite list used in FoFCou.
 Requested convergence on RMS density matrix=1.00D-08 within 128 cycles.
 Requested convergence on MAX density matrix=1.00D-06.
 Requested convergence on             energy=1.00D-06.
 No special actions if energy rises.
 Integral accuracy reduced to 1.0D-05 until final iterations.
 EnCoef did     4 forward-backward iterations
 Initial convergence to 1.0D-05 achieved.  Increase integral accuracy.
 SCF Done:  E(RB3LYP) =  -801.112793211     A.U. after   19 cycles
            NFock= 19  Conv=0.64D-08     -V/T= 2.0059

 **********************************************************************

            Population analysis using the SCF density.

 **********************************************************************

 Orbital symmetries:
       Occupied  (A) (A) (A) (A) (A) (A) (A) (A) (A) (A) (A) (A)
                 (A) (A) (A) (A) (A) (A) (A) (A) (A) (A) (A) (A)
                 (A) (A) (A) (A) (A) (A) (A) (A) (A) (A) (A) (A)
                 (A) (A) (A) (A) (A) (A) (A)
       Virtual   (A) (A) (A) (A) (A) (A) (A) (A) (A) (A) (A) (A)
                 (A) (A) (A) (A) (A) (A) (A) (A) (A) (A) (A) (A)
                 (A) (A) (A) (A) (A) (A) (A) (A) (A) (A) (A) (A)
                 (A) (A) (A) (A) (A) (A) (A) (A) (A) (A) (A) (A)
                 (A) (A) (A) (A) (A) (A) (A) (A) (A) (A) (A) (A)
                 (A) (A) (A) (A) (A) (A) (A) (A) (A) (A) (A) (A)
                 (A) (A) (A) (A) (A) (A) (A) (A) (A) (A) (A) (A)
                 (A) (A) (A) (A) (A) (A) (A) (A) (A) (A) (A) (A)
                 (A) (A) (A) (A) (A) (A) (A) (A) (A) (A) (A) (A)
                 (A) (A) (A) (A) (A) (A) (A) (A) (A) (A) (A) (A)
                 (A) (A) (A) (A) (A) (A) (A) (A) (A) (A) (A) (A)
                 (A) (A) (A) (A) (A) (A) (A) (A) (A) (A) (A) (A)
                 (A) (A) (A) (A) (A) (A) (A) (A) (A) (A) (A) (A)
                 (A) (A) (A) (A) (A) (A) (A) (A) (A) (A) (A) (A)
                 (A) (A) (A) (A) (A) (A) (A) (A) (A) (A) (A) (A)
                 (A) (A) (A) (A) (A) (A) (A) (A) (A) (A) (A) (A)
                 (A) (A) (A) (A) (A) (A) (A) (A) (A) (A) (A) (A)
                 (A) (A) (A) (A) (A) (A) (A) (A) (A) (A) (A) (A)
                 (A) (A) (A) (A) (A) (A) (A) (A) (A) (A) (A) (A)
                 (A) (A) (A) (A) (A) (A) (A) (A) (A) (A) (A) (A)
                 (A) (A) (A) (A) (A) (A) (A) (A) (A) (A) (A) (A)
                 (A) (A) (A) (A) (A) (A) (A) (A) (A) (A) (A) (A)
                 (A) (A) (A) (A) (A) (A) (A) (A) (A) (A) (A) (A)
                 (A) (A) (A) (A) (A) (A) (A) (A) (A) (A) (A) (A)
                 (A) (A) (A) (A) (A) (A) (A) (A) (A) (A) (A) (A)
                 (A) (A) (A) (A) (A) (A) (A) (A) (A) (A) (A) (A)
                 (A) (A)
 The electronic state is 1-A.
 Alpha  occ. eigenvalues --  -88.86280 -14.34058 -10.31713 -10.26610 -10.25491
 Alpha  occ. eigenvalues --  -10.23537 -10.22204 -10.21166 -10.20747 -10.20217
 Alpha  occ. eigenvalues --  -10.19785  -7.92689  -5.89046  -5.88960  -5.88181
 Alpha  occ. eigenvalues --   -0.97466  -0.83696  -0.79927  -0.79402  -0.74090
 Alpha  occ. eigenvalues --   -0.69553  -0.63657  -0.61847  -0.57789  -0.56180
 Alpha  occ. eigenvalues --   -0.53052  -0.49720  -0.47079  -0.44554  -0.44146
 Alpha  occ. eigenvalues --   -0.43150  -0.40370  -0.39946  -0.39615  -0.36710
 Alpha  occ. eigenvalues --   -0.35818  -0.34519  -0.33220  -0.29200  -0.28939
 Alpha  occ. eigenvalues --   -0.28830  -0.24088  -0.22398
 Alpha virt. eigenvalues --   -0.14008  -0.10631  -0.08850   0.03486   0.05411
 Alpha virt. eigenvalues --    0.07531   0.08167   0.11436   0.12096   0.12546
 Alpha virt. eigenvalues --    0.13934   0.15343   0.15878   0.17810   0.17935
 Alpha virt. eigenvalues --    0.19090   0.19759   0.21585   0.23111   0.23921
 Alpha virt. eigenvalues --    0.25289   0.27600   0.28753   0.30983   0.34952
 Alpha virt. eigenvalues --    0.36174   0.36304   0.37812   0.39037   0.40901
 Alpha virt. eigenvalues --    0.40954   0.42892   0.43402   0.44413   0.45549
 Alpha virt. eigenvalues --    0.46640   0.47205   0.47834   0.49476   0.50039
 Alpha virt. eigenvalues --    0.51381   0.51912   0.53426   0.54615   0.55648
 Alpha virt. eigenvalues --    0.56735   0.57534   0.57974   0.58739   0.61205
 Alpha virt. eigenvalues --    0.61738   0.63274   0.64886   0.65180   0.66632
 Alpha virt. eigenvalues --    0.68865   0.70103   0.70850   0.71528   0.72207
 Alpha virt. eigenvalues --    0.72936   0.74250   0.75634   0.76296   0.77373
 Alpha virt. eigenvalues --    0.77588   0.78683   0.79485   0.80366   0.81591
 Alpha virt. eigenvalues --    0.82186   0.82804   0.84036   0.85918   0.86345
 Alpha virt. eigenvalues --    0.87536   0.90026   0.92133   0.93058   0.95577
 Alpha virt. eigenvalues --    0.99510   1.02455   1.04576   1.05731   1.05902
 Alpha virt. eigenvalues --    1.09063   1.12022   1.15091   1.17359   1.18386
 Alpha virt. eigenvalues --    1.20176   1.21505   1.22257   1.22580   1.24480
 Alpha virt. eigenvalues --    1.25092   1.27065   1.32551   1.33053   1.34952
 Alpha virt. eigenvalues --    1.35632   1.37470   1.39503   1.40578   1.41281
 Alpha virt. eigenvalues --    1.44602   1.46216   1.48886   1.51037   1.52102
 Alpha virt. eigenvalues --    1.53619   1.55990   1.59061   1.60302   1.61477
 Alpha virt. eigenvalues --    1.63948   1.65577   1.65987   1.67831   1.68863
 Alpha virt. eigenvalues --    1.69048   1.69455   1.72314   1.74108   1.76824
 Alpha virt. eigenvalues --    1.78252   1.81051   1.82203   1.85570   1.85953
 Alpha virt. eigenvalues --    1.87895   1.89475   1.92335   1.92830   1.96245
 Alpha virt. eigenvalues --    1.96786   2.00200   2.04829   2.09992   2.11296
 Alpha virt. eigenvalues --    2.12970   2.14346   2.16080   2.16364   2.17191
 Alpha virt. eigenvalues --    2.18682   2.23299   2.27712   2.29140   2.29512
 Alpha virt. eigenvalues --    2.31419   2.34475   2.36260   2.38216   2.38748
 Alpha virt. eigenvalues --    2.43868   2.48062   2.50018   2.53241   2.54034
 Alpha virt. eigenvalues --    2.60123   2.63647   2.64590   2.66718   2.69843
 Alpha virt. eigenvalues --    2.72355   2.72925   2.74788   2.76522   2.76952
 Alpha virt. eigenvalues --    2.78273   2.80631   2.81508   2.82059   2.83586
 Alpha virt. eigenvalues --    2.85231   2.85642   2.88322   2.88994   2.90607
 Alpha virt. eigenvalues --    2.92059   2.93484   2.97059   2.99976   3.01966
 Alpha virt. eigenvalues --    3.02513   3.03347   3.05810   3.07702   3.08918
 Alpha virt. eigenvalues --    3.09488   3.11485   3.15104   3.17248   3.20047
 Alpha virt. eigenvalues --    3.20607   3.21742   3.24019   3.26340   3.29730
 Alpha virt. eigenvalues --    3.30303   3.32979   3.34370   3.34832   3.35664
 Alpha virt. eigenvalues --    3.38722   3.39570   3.43047   3.44856   3.46950
 Alpha virt. eigenvalues --    3.48712   3.51210   3.52288   3.55307   3.57511
 Alpha virt. eigenvalues --    3.59240   3.61290   3.63367   3.67744   3.69953
 Alpha virt. eigenvalues --    3.71851   3.73066   3.78415   3.79298   3.80763
 Alpha virt. eigenvalues --    3.81607   3.85442   3.89862   3.93854   3.96052
 Alpha virt. eigenvalues --    3.98574   4.00046   4.02346   4.05953   4.08896
 Alpha virt. eigenvalues --    4.12944   4.16289   4.18680   4.21012   4.22655
 Alpha virt. eigenvalues --    4.24470   4.30178   4.31358   4.32949   4.36149
 Alpha virt. eigenvalues --    4.37592   4.39238   4.40530   4.43596   4.44098
 Alpha virt. eigenvalues --    4.47263   4.47504   4.47621   4.48950   4.51752
 Alpha virt. eigenvalues --    4.53402   4.54172   4.55861   4.57870   4.58841
 Alpha virt. eigenvalues --    4.60013   4.63225   4.63666   4.64479   4.66576
 Alpha virt. eigenvalues --    4.67475   4.69115   4.70143   4.70805   4.71420
 Alpha virt. eigenvalues --    4.72567   4.75033   4.76559   4.77875   4.78900
 Alpha virt. eigenvalues --    4.82286   4.84034   4.85871   4.87912   4.90057
 Alpha virt. eigenvalues --    4.93064   4.97834   4.99563   5.02951   5.09765
 Alpha virt. eigenvalues --    5.11833   5.13196   5.21577   5.22845   5.30291
 Alpha virt. eigenvalues --    5.34740   5.38641   5.42859   5.45605   5.46135
 Alpha virt. eigenvalues --    5.49235   5.56309   5.60234   5.74161   5.84287
 Alpha virt. eigenvalues --    5.94754   6.10877   6.30041   9.62002  10.22789
 Alpha virt. eigenvalues --   10.74877  10.77573  11.10234  11.38313  11.52464
 Alpha virt. eigenvalues --   11.94928  12.18601  12.55054  16.52158
          Condensed to atoms (all electrons):
               1          2          3          4          5          6
     1  C    5.590893   0.533009  -0.022985  -0.001106   0.003834  -0.022540
     2  C    0.533009   4.756253   0.419284  -0.021174  -0.075083   0.432245
     3  C   -0.022985   0.419284   4.916712   0.622812  -0.043760  -0.044557
     4  C   -0.001106  -0.021174   0.622812   4.717842   0.472581  -0.114768
     5  N    0.003834  -0.075083  -0.043760   0.472581   6.366288   0.619546
     6  C   -0.022540   0.432245  -0.044557  -0.114768   0.619546   4.513955
     7  C   -0.005189  -0.068696   0.005129   0.006514  -0.032428   0.381678
     8  C    0.000023   0.003583  -0.000094  -0.000001  -0.005073  -0.027515
     9  C   -0.000003  -0.000063   0.000004  -0.000010   0.000495   0.001146
    10  C    0.000000   0.000001  -0.000000  -0.000000   0.000009  -0.000099
    11  S   -0.000000  -0.000000   0.000000  -0.000000   0.000000   0.000005
    12  H   -0.001532  -0.033949   0.367418  -0.031560   0.004984   0.002450
    13  H   -0.000122   0.005177  -0.052586   0.371874  -0.032143   0.005532
    14  H    0.001717  -0.003081   0.000115  -0.000083   0.000451  -0.018634
    15  H    0.000207  -0.000391   0.000092   0.000036  -0.001644  -0.018283
    16  H    0.000005   0.000154  -0.000008  -0.000035   0.005128  -0.001803
    17  H    0.000017   0.000288  -0.000019  -0.000003   0.003154   0.000170
    18  H   -0.000001   0.000002  -0.000000   0.000000  -0.000005   0.000132
    19  H    0.000000   0.000003  -0.000000   0.000000  -0.000005   0.000175
    20  H   -0.000000   0.000000  -0.000000   0.000000  -0.000001   0.000019
               7          8          9         10         11         12
     1  C   -0.005189   0.000023  -0.000003   0.000000  -0.000000  -0.001532
     2  C   -0.068696   0.003583  -0.000063   0.000001  -0.000000  -0.033949
     3  C    0.005129  -0.000094   0.000004  -0.000000   0.000000   0.367418
     4  C    0.006514  -0.000001  -0.000010  -0.000000  -0.000000  -0.031560
     5  N   -0.032428  -0.005073   0.000495   0.000009   0.000000   0.004984
     6  C    0.381678  -0.027515   0.001146  -0.000099   0.000005   0.002450
     7  C    5.040671   0.398086  -0.038362   0.001672  -0.000122  -0.000087
     8  C    0.398086   4.822467   0.383436  -0.028026   0.003353   0.000001
     9  C   -0.038362   0.383436   4.933931   0.413638  -0.055686  -0.000000
    10  C    0.001672  -0.028026   0.413638   4.778320   0.510873   0.000000
    11  S   -0.000122   0.003353  -0.055686   0.510873  15.846277  -0.000000
    12  H   -0.000087   0.000001  -0.000000   0.000000  -0.000000   0.569552
    13  H   -0.000319  -0.000002  -0.000000   0.000000  -0.000000  -0.000476
    14  H    0.352931  -0.024427  -0.004054   0.000136  -0.000003  -0.000000
    15  H    0.351223  -0.026555  -0.003236   0.000091   0.000001  -0.000001
    16  H   -0.030758   0.375197  -0.036514  -0.001429   0.000272  -0.000000
    17  H   -0.033435   0.373165  -0.036381  -0.001544   0.000290  -0.000000
    18  H   -0.002986  -0.031104   0.359604  -0.023296  -0.002388   0.000000
    19  H   -0.002471  -0.031361   0.360093  -0.023279  -0.002382   0.000000
    20  H    0.000245   0.000569  -0.066024   0.366904  -0.051112  -0.000000
              13         14         15         16         17         18
     1  C   -0.000122   0.001717   0.000207   0.000005   0.000017  -0.000001
     2  C    0.005177  -0.003081  -0.000391   0.000154   0.000288   0.000002
     3  C   -0.052586   0.000115   0.000092  -0.000008  -0.000019  -0.000000
     4  C    0.371874  -0.000083   0.000036  -0.000035  -0.000003   0.000000
     5  N   -0.032143   0.000451  -0.001644   0.005128   0.003154  -0.000005
     6  C    0.005532  -0.018634  -0.018283  -0.001803   0.000170   0.000132
     7  C   -0.000319   0.352931   0.351223  -0.030758  -0.033435  -0.002986
     8  C   -0.000002  -0.024427  -0.026555   0.375197   0.373165  -0.031104
     9  C   -0.000000  -0.004054  -0.003236  -0.036514  -0.036381   0.359604
    10  C    0.000000   0.000136   0.000091  -0.001429  -0.001544  -0.023296
    11  S   -0.000000  -0.000003   0.000001   0.000272   0.000290  -0.002388
    12  H   -0.000476  -0.000000  -0.000001  -0.000000  -0.000000   0.000000
    13  H    0.584617   0.000006   0.000006   0.000004   0.000004   0.000000
    14  H    0.000006   0.603053  -0.038507   0.005650  -0.005154   0.004862
    15  H    0.000006  -0.038507   0.601454  -0.005810   0.005812  -0.000544
    16  H    0.000004   0.005650  -0.005810   0.600273  -0.038573   0.005392
    17  H    0.000004  -0.005154   0.005812  -0.038573   0.609762  -0.004943
    18  H    0.000000   0.004862  -0.000544   0.005392  -0.004943   0.581246
    19  H    0.000000  -0.000568   0.004508  -0.005025   0.005476  -0.030545
    20  H    0.000000   0.000012   0.000011   0.002917   0.003050   0.004123
              19         20
     1  C    0.000000  -0.000000
     2  C    0.000003   0.000000
     3  C   -0.000000  -0.000000
     4  C    0.000000   0.000000
     5  N   -0.000005  -0.000001
     6  C    0.000175   0.000019
     7  C   -0.002471   0.000245
     8  C   -0.031361   0.000569
     9  C    0.360093  -0.066024
    10  C   -0.023279   0.366904
    11  S   -0.002382  -0.051112
    12  H    0.000000  -0.000000
    13  H    0.000000   0.000000
    14  H   -0.000568   0.000012
    15  H    0.004508   0.000011
    16  H   -0.005025   0.002917
    17  H    0.005476   0.003050
    18  H   -0.030545   0.004123
    19  H    0.580641   0.004107
    20  H    0.004107   0.585018
 Mulliken charges:
               1
     1  C   -0.076226
     2  C    0.052440
     3  C   -0.167556
     4  C   -0.022919
     5  N   -0.286330
     6  C    0.291149
     7  C   -0.323294
     8  C   -0.185722
     9  C   -0.212014
    10  C    0.006030
    11  S   -0.249376
    12  H    0.123203
    13  H    0.118429
    14  H    0.125580
    15  H    0.131530
    16  H    0.124965
    17  H    0.118866
    18  H    0.140451
    19  H    0.140632
    20  H    0.150162
 Sum of Mulliken charges =  -0.00000
 Mulliken charges with hydrogens summed into heavy atoms:
               1
     1  C   -0.076226
     2  C    0.052440
     3  C   -0.044353
     4  C    0.095509
     5  N   -0.286330
     6  C    0.291149
     7  C   -0.066184
     8  C    0.058110
     9  C    0.069069
    10  C    0.156192
    11  S   -0.249376
 Electronic spatial extent (au):  <R**2>=           3497.8947
 Charge=             -0.0000 electrons
 Dipole moment (field-independent basis, Debye):
    X=              3.1236    Y=              0.0055    Z=              0.4152  Tot=              3.1511
 Quadrupole moment (field-independent basis, Debye-Ang):
   XX=            -83.9183   YY=            -75.2078   ZZ=            -72.0801
   XY=             -3.0045   XZ=              0.5717   YZ=              1.1546
 Traceless Quadrupole moment (field-independent basis, Debye-Ang):
   XX=             -6.8496   YY=              1.8609   ZZ=              4.9886
   XY=             -3.0045   XZ=              0.5717   YZ=              1.1546
 Octapole moment (field-independent basis, Debye-Ang**2):
  XXX=            133.2147  YYY=            -24.1809  ZZZ=              3.0280  XYY=            -10.8710
  XXY=            -18.5603  XXZ=              4.3215  XZZ=            -11.4673  YZZ=             -2.5082
  YYZ=              2.1337  XYZ=              5.7892
 Hexadecapole moment (field-independent basis, Debye-Ang**3):
 XXXX=          -4543.7771 YYYY=           -513.0429 ZZZZ=           -109.4780 XXXY=           -128.1465
 XXXZ=             -6.3947 YYYX=            -86.8935 YYYZ=             15.5594 ZZZX=              3.5587
 ZZZY=              5.9142 XXYY=           -840.0445 XXZZ=           -761.5760 YYZZ=           -101.9865
 XXYZ=             10.5647 YYXZ=             11.7377 ZZXY=            -13.3759
 N-N= 5.734816902144D+02 E-N=-3.026795934671D+03  KE= 7.963826005288D+02
 PrsmSu:  requested number of processors reduced to:  13 ShMem   1 Linda.
 Calling FoFJK, ICntrl=      2127 FMM=F ISym2X=0 I1Cent= 0 IOpClX= 0 NMat=1 NMatS=1 NMatT=0.
 ***** Axes restored to original set *****
 -------------------------------------------------------------------
 Center     Atomic                   Forces (Hartrees/Bohr)
 Number     Number              X              Y              Z
 -------------------------------------------------------------------
      1        6           0.123085860   -0.002778717   -0.035866759
      2        6          -0.120956329   -0.005092172    0.034988967
      3        6          -0.001667105    0.020176426   -0.000649867
      4        6           0.011461779    0.018856170   -0.010209619
      5        7          -0.021388721   -0.012320880    0.021974087
      6        6           0.005022555   -0.019527640   -0.002665230
      7        6           0.006219689    0.005952098   -0.010636839
      8        6           0.000042507    0.001016224    0.001109358
      9        6           0.008566860    0.004544502   -0.012397763
     10        6          -0.008615548   -0.039222595    0.012969436
     11       16           0.007249487    0.033437896   -0.010793381
     12        1          -0.002164211    0.005700158   -0.000905842
     13        1           0.003896337   -0.000629845   -0.000397504
     14        1          -0.001549957   -0.000614032    0.002979028
     15        1          -0.002332347   -0.001021996    0.001870102
     16        1          -0.002108544    0.001272401   -0.000251551
     17        1           0.000672737    0.000731352    0.001115307
     18        1           0.000658691   -0.002891822    0.002567680
     19        1          -0.002640056   -0.002755654    0.000163086
     20        1          -0.003453682   -0.004831875    0.005037305
 -------------------------------------------------------------------
 Cartesian Forces:  Max     0.123085860 RMS     0.025335001

 GradGradGradGradGradGradGradGradGradGradGradGradGradGradGradGradGradGrad
 Berny optimization.
 FormGI is forming the generalized inverse of G from B-inverse, IUseBI=4.
 Internal  Forces:  Max     0.128110412 RMS     0.014490248
 Search for a local minimum.
 Step number   1 out of a maximum of  110
 All quantities printed in internal units (Hartrees-Bohrs-Radians)
 Mixed Optimization -- RFO/linear search
 Second derivative matrix not updated -- first step.
 ITU=  0
     Eigenvalues ---    0.00445   0.00463   0.00635   0.00635   0.00747
     Eigenvalues ---    0.01190   0.01470   0.02146   0.02351   0.02524
     Eigenvalues ---    0.02900   0.03695   0.04251   0.04433   0.04914
     Eigenvalues ---    0.05459   0.05494   0.08203   0.09017   0.09391
     Eigenvalues ---    0.12095   0.12560   0.12804   0.15951   0.15999
     Eigenvalues ---    0.16000   0.19616   0.21869   0.21944   0.21973
     Eigenvalues ---    0.22000   0.22611   0.24726   0.24973   0.29963
     Eigenvalues ---    0.30091   0.31364   0.32082   0.32228   0.32811
     Eigenvalues ---    0.33303   0.33916   0.33966   0.34000   0.34054
     Eigenvalues ---    0.34069   0.34244   0.35925   0.37136   0.39147
     Eigenvalues ---    0.39281   0.46473   0.51900   0.60616
 RFO step:  Lambda=-5.67621062D-02 EMin= 4.45442566D-03
 Linear search not attempted -- first point.
 Maximum step size (   0.300) exceeded in Quadratic search.
    -- Step size scaled by   0.778
 Iteration  1 RMS(Cart)=  0.03801587 RMS(Int)=  0.00653827
 Iteration  2 RMS(Cart)=  0.00627369 RMS(Int)=  0.00014104
 Iteration  3 RMS(Cart)=  0.00001100 RMS(Int)=  0.00014059
 Iteration  4 RMS(Cart)=  0.00000000 RMS(Int)=  0.00014059
 Variable       Old X    -DE/DX   Delta X   Delta X   Delta X     New X
                                 (Linear)    (Quad)   (Total)
    R1        2.83995  -0.12811   0.00000  -0.26389  -0.26389   2.57605
    R2        2.70534   0.02238   0.00000   0.03868   0.03865   2.74399
    R3        2.80503   0.00806   0.00000   0.01267   0.01257   2.81761
    R4        2.54993   0.00701   0.00000   0.01136   0.01142   2.56135
    R5        2.02342   0.00572   0.00000   0.01039   0.01039   2.03381
    R6        2.61403   0.01933   0.00000   0.02866   0.02875   2.64278
    R7        2.04199   0.00200   0.00000   0.00374   0.00374   2.04573
    R8        2.48636  -0.01640   0.00000  -0.02035  -0.02037   2.46599
    R9        2.83728   0.00187   0.00000   0.00384   0.00384   2.84112
   R10        2.87783   0.00623   0.00000   0.01356   0.01356   2.89139
   R11        2.06920   0.00169   0.00000   0.00330   0.00330   2.07250
   R12        2.07331   0.00104   0.00000   0.00204   0.00204   2.07535
   R13        2.88038   0.00996   0.00000   0.02173   0.02173   2.90211
   R14        2.07473  -0.00189   0.00000  -0.00371  -0.00371   2.07102
   R15        2.07387  -0.00116   0.00000  -0.00227  -0.00227   2.07160
   R16        2.85323   0.00026   0.00000   0.00054   0.00054   2.85376
   R17        2.07213  -0.00018   0.00000  -0.00035  -0.00035   2.07179
   R18        2.07238  -0.00033   0.00000  -0.00064  -0.00064   2.07174
   R19        3.16242  -0.03508   0.00000  -0.06069  -0.06069   3.10173
   R20        2.08522  -0.00750   0.00000  -0.01496  -0.01496   2.07027
    A1        2.16062  -0.00173   0.00000   0.00209   0.00215   2.16277
    A2        2.17490  -0.00715   0.00000  -0.01553  -0.01592   2.15898
    A3        1.79606   0.01114   0.00000   0.03052   0.03019   1.82625
    A4        1.84426  -0.00901   0.00000  -0.01766  -0.01770   1.82655
    A5        2.20207   0.00530   0.00000   0.01194   0.01185   2.21392
    A6        2.23522   0.00380   0.00000   0.00684   0.00678   2.24200
    A7        2.00373  -0.00926   0.00000  -0.01962  -0.01953   1.98420
    A8        2.17958   0.00681   0.00000   0.01764   0.01759   2.19717
    A9        2.09981   0.00244   0.00000   0.00196   0.00192   2.10173
   A10        1.82454   0.01958   0.00000   0.04656   0.04662   1.87116
   A11        1.95280  -0.01226   0.00000  -0.03769  -0.03781   1.91499
   A12        2.13374   0.01245   0.00000   0.03482   0.03488   2.16861
   A13        2.19566  -0.00019   0.00000   0.00283   0.00290   2.19856
   A14        1.95822   0.00570   0.00000   0.01874   0.01869   1.97691
   A15        1.90125  -0.00157   0.00000  -0.00250  -0.00256   1.89869
   A16        1.88312  -0.00135   0.00000  -0.00205  -0.00209   1.88103
   A17        1.91910  -0.00078   0.00000  -0.00044  -0.00049   1.91861
   A18        1.91983  -0.00119   0.00000  -0.00264  -0.00268   1.91715
   A19        1.88034  -0.00109   0.00000  -0.01237  -0.01240   1.86794
   A20        1.94561   0.00469   0.00000   0.01425   0.01425   1.95986
   A21        1.91984  -0.00234   0.00000  -0.00866  -0.00870   1.91114
   A22        1.91315  -0.00171   0.00000  -0.00550  -0.00554   1.90760
   A23        1.91249  -0.00047   0.00000   0.00122   0.00125   1.91374
   A24        1.91492  -0.00086   0.00000  -0.00011  -0.00010   1.91483
   A25        1.85569   0.00046   0.00000  -0.00202  -0.00206   1.85363
   A26        1.92238   0.01138   0.00000   0.03556   0.03546   1.95783
   A27        1.92078  -0.00085   0.00000   0.00336   0.00341   1.92419
   A28        1.92209  -0.00101   0.00000   0.00248   0.00254   1.92464
   A29        1.90457  -0.00456   0.00000  -0.01409  -0.01438   1.89019
   A30        1.90556  -0.00458   0.00000  -0.01438  -0.01465   1.89091
   A31        1.88799  -0.00069   0.00000  -0.01416  -0.01435   1.87364
   A32        2.11485   0.01439   0.00000   0.04043   0.04043   2.15528
   A33        2.04341  -0.00499   0.00000  -0.01231  -0.01231   2.03110
   A34        2.12493  -0.00940   0.00000  -0.02812  -0.02812   2.09680
    D1       -2.52240  -0.00348   0.00000  -0.04470  -0.04501  -2.56742
    D2        0.56146  -0.00178   0.00000  -0.02507  -0.02537   0.53609
    D3        0.07316  -0.00158   0.00000  -0.02102  -0.02133   0.05183
    D4       -3.12616   0.00012   0.00000  -0.00138  -0.00169  -3.12785
    D5        2.53640   0.00503   0.00000   0.04469   0.04441   2.58081
    D6       -0.65043   0.00486   0.00000   0.04373   0.04348  -0.60696
    D7       -0.05323   0.00078   0.00000   0.01322   0.01333  -0.03990
    D8        3.04312   0.00061   0.00000   0.01226   0.01240   3.05552
    D9       -0.07639   0.00316   0.00000   0.02693   0.02643  -0.04996
   D10        3.05267   0.00255   0.00000   0.02457   0.02434   3.07702
   D11        3.12440   0.00136   0.00000   0.00659   0.00616   3.13056
   D12       -0.02972   0.00075   0.00000   0.00423   0.00407  -0.02566
   D13        0.04229  -0.00175   0.00000  -0.01656  -0.01670   0.02560
   D14       -3.08739  -0.00121   0.00000  -0.01445  -0.01487  -3.10226
   D15        0.01023   0.00043   0.00000   0.00062   0.00069   0.01092
   D16       -3.08418   0.00023   0.00000   0.00069   0.00067  -3.08352
   D17        3.01604   0.00039   0.00000   0.00202   0.00199   3.01804
   D18        0.88702  -0.00129   0.00000  -0.00803  -0.00806   0.87896
   D19       -1.14962   0.00157   0.00000   0.00907   0.00905  -1.14056
   D20       -0.17732  -0.00005   0.00000   0.00003   0.00005  -0.17727
   D21       -2.30634  -0.00173   0.00000  -0.01003  -0.01000  -2.31634
   D22        1.94021   0.00113   0.00000   0.00708   0.00711   1.94732
   D23       -3.12256  -0.00008   0.00000  -0.00175  -0.00176  -3.12432
   D24        1.03551  -0.00103   0.00000  -0.00690  -0.00688   1.02863
   D25       -0.99895   0.00077   0.00000   0.00379   0.00376  -0.99519
   D26       -1.00374   0.00122   0.00000   0.00741   0.00741  -0.99634
   D27       -3.12887   0.00027   0.00000   0.00225   0.00229  -3.12658
   D28        1.11986   0.00207   0.00000   0.01294   0.01293   1.13279
   D29        1.06431  -0.00132   0.00000  -0.00966  -0.00967   1.05464
   D30       -1.06081  -0.00227   0.00000  -0.01482  -0.01479  -1.07560
   D31       -3.09526  -0.00047   0.00000  -0.00413  -0.00415  -3.09941
   D32        3.13073   0.00024   0.00000   0.00177   0.00178   3.13251
   D33        1.03013  -0.00081   0.00000  -0.00555  -0.00564   1.02449
   D34       -1.04978   0.00120   0.00000   0.00828   0.00835  -1.04142
   D35       -1.02308   0.00009   0.00000   0.00114   0.00116  -1.02191
   D36       -3.12368  -0.00096   0.00000  -0.00619  -0.00626  -3.12994
   D37        1.07960   0.00105   0.00000   0.00765   0.00774   1.08734
   D38        1.00815  -0.00012   0.00000  -0.00065  -0.00066   1.00749
   D39       -1.09245  -0.00118   0.00000  -0.00798  -0.00808  -1.10053
   D40        3.11083   0.00084   0.00000   0.00585   0.00592   3.11675
   D41        3.14156  -0.00006   0.00000  -0.00033  -0.00033   3.14122
   D42       -0.00046  -0.00005   0.00000  -0.00031  -0.00031  -0.00077
   D43       -1.03128   0.00310   0.00000   0.01704   0.01687  -1.01441
   D44        2.10989   0.00310   0.00000   0.01707   0.01690   2.12679
   D45        1.02896  -0.00302   0.00000  -0.01652  -0.01634   1.01261
   D46       -2.11306  -0.00302   0.00000  -0.01649  -0.01632  -2.12937
         Item               Value     Threshold  Converged?
 Maximum Force            0.128110     0.000450     NO 
 RMS     Force            0.014490     0.000300     NO 
 Maximum Displacement     0.246517     0.001800     NO 
 RMS     Displacement     0.041226     0.001200     NO 
 Predicted change in Energy=-2.985433D-02
 GradGradGradGradGradGradGradGradGradGradGradGradGradGradGradGradGradGrad

                          Input orientation:                          
 ---------------------------------------------------------------------
 Center     Atomic      Atomic             Coordinates (Angstroms)
 Number     Number       Type             X           Y           Z
 ---------------------------------------------------------------------
      1          6           0        0.908611    0.120659    0.468258
      2          6           0        2.189578    0.130495    0.002093
      3          6           0        2.813434    1.279984   -0.628735
      4          6           0        3.659789    0.750631   -1.545577
      5          7           0        3.698039   -0.647293   -1.533708
      6          6           0        2.850193   -1.049042   -0.626715
      7          6           0        2.606889   -2.474424   -0.215046
      8          6           0        3.281296   -3.493129   -1.136184
      9          6           0        2.998376   -4.941058   -0.709658
     10          6           0        3.654805   -5.944355   -1.627829
     11         16           0        3.534034   -7.569074   -1.428387
     12          1           0        2.608048    2.317131   -0.427614
     13          1           0        4.260565    1.309437   -2.251781
     14          1           0        1.525380   -2.654276   -0.187051
     15          1           0        2.979630   -2.595380    0.810886
     16          1           0        4.362896   -3.316788   -1.146991
     17          1           0        2.935464   -3.336324   -2.164560
     18          1           0        1.918749   -5.131748   -0.706970
     19          1           0        3.363693   -5.115211    0.309229
     20          1           0        4.234890   -5.534156   -2.461761
 ---------------------------------------------------------------------
                    Distance matrix (angstroms):
                    1          2          3          4          5
     1  C    0.000000
     2  C    1.363188   0.000000
     3  C    2.485111   1.452055   0.000000
     4  C    3.467185   2.222920   1.355408   0.000000
     5  N    3.518313   2.288908   2.305624   1.398498   0.000000
     6  C    2.517321   1.491013   2.329317   2.176827   1.304945
     7  C    3.175769   2.647056   3.782775   3.644159   2.503575
     8  C    4.611217   3.951984   4.822759   4.280229   2.903530
     9  C    5.601390   5.184727   6.224316   5.790643   4.427754
    10  C    6.979939   6.458123   7.341470   6.695494   5.298075
    11  S    8.343985   7.945892   8.914288   8.321481   6.924525
    12  H    2.918075   2.267408   1.076246   2.193153   3.346540
    13  H    4.477432   3.280067   2.174703   1.082552   2.158902
    14  H    2.917207   2.869126   4.163240   4.242014   3.249910
    15  H    3.432692   2.951054   4.137460   4.148653   3.131817
    16  H    5.133921   4.234084   4.878497   4.146942   2.778090
    17  H    4.794850   4.155667   4.866616   4.196545   2.865377
    18  H    5.476250   5.316702   6.474326   6.191677   4.894866
    19  H    5.785071   5.384266   6.486993   6.159227   4.844636
    20  H    7.185128   6.507085   7.198126   6.377200   5.003091
                    6          7          8          9         10
     6  C    0.000000
     7  C    1.503457   0.000000
     8  C    2.533569   1.530058   0.000000
     9  C    3.895719   2.546013   1.535729   0.000000
    10  C    5.061000   3.890309   2.527793   1.510147   0.000000
    11  S    6.604630   5.318576   4.094214   2.776683   1.641363
    12  H    3.380738   4.796268   5.891897   7.274146   8.413582
    13  H    3.192555   4.604404   5.026745   6.560484   7.305735
    14  H    2.127254   1.096719   2.165125   2.769875   4.175514
    15  H    2.115328   1.098227   2.165188   2.795463   4.197479
    16  H    2.775181   2.159087   1.095934   2.165970   2.763460
    17  H    2.757517   2.156719   1.096241   2.166995   2.758144
    18  H    4.188379   2.788708   2.173897   1.096342   2.126547
    19  H    4.203975   2.796671   2.174202   1.096319   2.127068
    20  H    5.039943   4.130384   2.613864   2.224994   1.095538
                   11         12         13         14         15
    11  S    0.000000
    12  H    9.979781   0.000000
    13  H    8.946161   2.659669   0.000000
    14  H    5.452600   5.093616   5.239787   0.000000
    15  H    5.482640   5.079834   5.125263   1.764707   0.000000
    16  H    4.341444   5.944580   4.757414   3.067882   2.503425
    17  H    4.337788   5.923321   4.831832   2.522710   3.066631
    18  H    3.011668   7.485918   7.025625   2.561820   3.140465
    19  H    3.011606   7.506906   6.974185   3.111574   2.597829
    20  H    2.387457   8.272065   6.846862   4.561738   4.574090
                   16         17         18         19         20
    16  H    0.000000
    17  H    1.753109   0.000000
    18  H    3.075964   2.526227   0.000000
    19  H    2.520577   3.076922   1.766578   0.000000
    20  H    2.581032   2.570467   2.933553   2.934771   0.000000
 Stoichiometry    C9H9NS
 Framework group  C1[X(C9H9NS)]
 Deg. of freedom    54
 Full point group                 C1      NOp   1
 Largest Abelian subgroup         C1      NOp   1
 Largest concise Abelian subgroup C1      NOp   1
                         Standard orientation:                         
 ---------------------------------------------------------------------
 Center     Atomic      Atomic             Coordinates (Angstroms)
 Number     Number       Type             X           Y           Z
 ---------------------------------------------------------------------
      1          6           0        3.292501    2.023913   -0.390439
      2          6           0        3.112457    0.770764    0.115014
      3          6           0        4.115559   -0.277589    0.058384
      4          6           0        3.405210   -1.425749   -0.061044
      5          7           0        2.020143   -1.235828   -0.024761
      6          6           0        1.809159    0.047034    0.087630
      7          6           0        0.468759    0.711942    0.234638
      8          6           0       -0.706667   -0.238600   -0.001837
      9          6           0       -2.063442    0.468699    0.129899
     10          6           0       -3.221336   -0.468949   -0.116358
     11         16           0       -4.793926   -0.004137   -0.045762
     12          1           0        5.184120   -0.149746    0.070156
     13          1           0        3.819292   -2.417830   -0.188444
     14          1           0        0.414165    1.555107   -0.464565
     15          1           0        0.411558    1.130602    1.248321
     16          1           0       -0.653813   -1.069989    0.710252
     17          1           0       -0.617266   -0.684109   -0.999471
     18          1           0       -2.131524    1.295447   -0.586912
     19          1           0       -2.173123    0.896200    1.133457
     20          1           0       -2.964797   -1.507496   -0.352606
 ---------------------------------------------------------------------
 Rotational constants (GHZ):           3.6243073           0.3019527           0.2813216
 Standard basis: 6-31G(2df,p) (6D, 7F)
 There are   390 symmetry adapted cartesian basis functions of A   symmetry.
 There are   357 symmetry adapted basis functions of A   symmetry.
   357 basis functions,   571 primitive gaussians,   390 cartesian basis functions
    43 alpha electrons       43 beta electrons
       nuclear repulsion energy       573.8402280763 Hartrees.
 NAtoms=   20 NActive=   20 NUniq=   20 SFac= 1.00D+00 NAtFMM=   60 NAOKFM=F Big=F
 Integral buffers will be    131072 words long.
 Raffenetti 2 integral format.
 Two-electron integral symmetry is turned on.
 One-electron integrals computed using PRISM.
 PrsmSu:  requested number of processors reduced to:  13 ShMem   1 Linda.
 NBasis=   357 RedAO= T EigKep=  2.36D-04  NBF=   357
 NBsUse=   357 1.00D-06 EigRej= -1.00D+00 NBFU=   357
 Initial guess from the checkpoint file:  "[C][C]1CdCNdC1CCCCdS.chk"
 B after Tr=    -0.000000    0.000000    0.000000
         Rot=    0.999987    0.005012   -0.000089   -0.000717 Ang=   0.58 deg.
 ExpMin= 1.17D-01 ExpMax= 2.19D+04 ExpMxC= 3.30D+03 IAcc=2 IRadAn=         4 AccDes= 0.00D+00
 Harris functional with IExCor=  402 and IRadAn=       4 diagonalized for initial guess.
 HarFok:  IExCor=  402 AccDes= 0.00D+00 IRadAn=         4 IDoV= 1 UseB2=F ITyADJ=14
 ICtDFT=  3500011 ScaDFX=  1.000000  1.000000  1.000000  1.000000
 FoFCou: FMM=F IPFlag=           0 FMFlag=      100000 FMFlg1=           0
         NFxFlg=           0 DoJE=T BraDBF=F KetDBF=T FulRan=T
         wScrn=  0.000000 ICntrl=       500 IOpCl=  0 I1Cent=   200000004 NGrid=           0
         NMat0=    1 NMatS0=      1 NMatT0=    0 NMatD0=    1 NMtDS0=    0 NMtDT0=    0
 Petite list used in FoFCou.
 Requested convergence on RMS density matrix=1.00D-08 within 128 cycles.
 Requested convergence on MAX density matrix=1.00D-06.
 Requested convergence on             energy=1.00D-06.
 No special actions if energy rises.
 Integral accuracy reduced to 1.0D-05 until final iterations.
 Initial convergence to 1.0D-05 achieved.  Increase integral accuracy.
 SCF Done:  E(RB3LYP) =  -801.145453476     A.U. after   15 cycles
            NFock= 15  Conv=0.30D-08     -V/T= 2.0057
 PrsmSu:  requested number of processors reduced to:  13 ShMem   1 Linda.
 Calling FoFJK, ICntrl=      2127 FMM=F ISym2X=0 I1Cent= 0 IOpClX= 0 NMat=1 NMatS=1 NMatT=0.
 ***** Axes restored to original set *****
 -------------------------------------------------------------------
 Center     Atomic                   Forces (Hartrees/Bohr)
 Number     Number              X              Y              Z
 -------------------------------------------------------------------
      1        6           0.052103631   -0.001752617   -0.012682739
      2        6          -0.060210309   -0.000421563    0.017896433
      3        6           0.005151427    0.006754175   -0.004477831
      4        6           0.002916294    0.004907644   -0.002726264
      5        7          -0.009229765   -0.003655317    0.009237098
      6        6           0.009478760   -0.006230564   -0.004342721
      7        6           0.002136940    0.003107589   -0.006431971
      8        6           0.000075573   -0.000680499    0.000399914
      9        6           0.005336685    0.005822465   -0.007750864
     10        6          -0.004998340   -0.017636391    0.007553615
     11       16           0.003208977    0.014594213   -0.004817154
     12        1          -0.002265754    0.000801429   -0.000325791
     13        1           0.002191510   -0.001781675    0.000911933
     14        1          -0.000541620   -0.000208771    0.002291843
     15        1          -0.002037812   -0.000632062    0.001041452
     16        1          -0.000725011    0.000633155   -0.000374022
     17        1           0.000381771    0.000279176    0.000325818
     18        1          -0.000102944   -0.001496135    0.002359551
     19        1          -0.002180039   -0.001465475    0.000904129
     20        1          -0.000689975   -0.000938778    0.001007570
 -------------------------------------------------------------------
 Cartesian Forces:  Max     0.060210309 RMS     0.011655870

 GradGradGradGradGradGradGradGradGradGradGradGradGradGradGradGradGradGrad
 Berny optimization.
 Using GEDIIS/GDIIS optimizer.
 FormGI is forming the generalized inverse of G from B-inverse, IUseBI=4.
 Internal  Forces:  Max     0.053285471 RMS     0.006001826
 Search for a local minimum.
 Step number   2 out of a maximum of  110
 All quantities printed in internal units (Hartrees-Bohrs-Radians)
 Mixed Optimization -- RFO/linear search
 Update second derivatives using D2CorX and points    1    2
 DE= -3.27D-02 DEPred=-2.99D-02 R= 1.09D+00
 TightC=F SS=  1.41D+00  RLast= 3.18D-01 DXNew= 5.0454D-01 9.5533D-01
 Trust test= 1.09D+00 RLast= 3.18D-01 DXMaxT set to 5.05D-01
 ITU=  1  0
 Use linear search instead of GDIIS.
     Eigenvalues ---    0.00445   0.00463   0.00635   0.00635   0.00747
     Eigenvalues ---    0.01170   0.01473   0.02143   0.02341   0.02521
     Eigenvalues ---    0.02737   0.03619   0.04119   0.04196   0.04897
     Eigenvalues ---    0.05402   0.05433   0.08339   0.09383   0.09566
     Eigenvalues ---    0.12195   0.12795   0.12930   0.15939   0.15989
     Eigenvalues ---    0.16011   0.20133   0.21571   0.21909   0.21964
     Eigenvalues ---    0.22127   0.22573   0.24758   0.25177   0.28511
     Eigenvalues ---    0.30064   0.30514   0.31386   0.32397   0.33142
     Eigenvalues ---    0.33572   0.33918   0.33967   0.34000   0.34060
     Eigenvalues ---    0.34086   0.34245   0.35957   0.37177   0.38707
     Eigenvalues ---    0.39265   0.47072   0.51962   0.60461
 RFO step:  Lambda=-1.81072275D-03 EMin= 4.45443164D-03
 Quartic linear search produced a step of  0.42494.
 Iteration  1 RMS(Cart)=  0.02152890 RMS(Int)=  0.00034457
 Iteration  2 RMS(Cart)=  0.00039081 RMS(Int)=  0.00011213
 Iteration  3 RMS(Cart)=  0.00000022 RMS(Int)=  0.00011213
 Variable       Old X    -DE/DX   Delta X   Delta X   Delta X     New X
                                 (Linear)    (Quad)   (Total)
    R1        2.57605  -0.05329  -0.11214  -0.02533  -0.13747   2.43859
    R2        2.74399   0.01065   0.01642   0.01023   0.02665   2.77064
    R3        2.81761   0.00589   0.00534   0.01350   0.01887   2.83647
    R4        2.56135   0.00146   0.00485  -0.00266   0.00216   2.56351
    R5        2.03381   0.00114   0.00442  -0.00348   0.00093   2.03474
    R6        2.64278   0.00274   0.01222  -0.01213   0.00006   2.64284
    R7        2.04573  -0.00030   0.00159  -0.00403  -0.00244   2.04328
    R8        2.46599  -0.00975  -0.00866  -0.01003  -0.01867   2.44732
    R9        2.84112  -0.00224   0.00163  -0.01290  -0.01127   2.82985
   R10        2.89139   0.00096   0.00576  -0.00653  -0.00077   2.89062
   R11        2.07250   0.00063   0.00140   0.00003   0.00143   2.07393
   R12        2.07535   0.00035   0.00087  -0.00013   0.00074   2.07609
   R13        2.90211   0.00074   0.00923  -0.01423  -0.00500   2.89711
   R14        2.07102  -0.00061  -0.00158   0.00035  -0.00123   2.06978
   R15        2.07160  -0.00039  -0.00097   0.00016  -0.00081   2.07079
   R16        2.85376  -0.00071   0.00023  -0.00364  -0.00341   2.85036
   R17        2.07179   0.00037  -0.00015   0.00180   0.00165   2.07344
   R18        2.07174   0.00035  -0.00027   0.00194   0.00167   2.07341
   R19        3.10173  -0.01527  -0.02579  -0.01013  -0.03592   3.06580
   R20        2.07027  -0.00148  -0.00636   0.00542  -0.00093   2.06934
    A1        2.16277   0.00383   0.00091   0.02887   0.02961   2.19238
    A2        2.15898  -0.00078  -0.00676   0.01362   0.00638   2.16536
    A3        1.82625  -0.00179   0.01283  -0.03055  -0.01794   1.80831
    A4        1.82655  -0.00135  -0.00752   0.01226   0.00467   1.83123
    A5        2.21392  -0.00040   0.00504  -0.01901  -0.01404   2.19988
    A6        2.24200   0.00178   0.00288   0.00586   0.00869   2.25069
    A7        1.98420  -0.00247  -0.00830   0.00342  -0.00499   1.97921
    A8        2.19717   0.00327   0.00747   0.00782   0.01523   2.21240
    A9        2.10173  -0.00080   0.00082  -0.01094  -0.01018   2.09155
   A10        1.87116   0.00655   0.01981  -0.01077   0.00907   1.88023
   A11        1.91499  -0.00087  -0.01607   0.02349   0.00725   1.92224
   A12        2.16861   0.00280   0.01482  -0.01172   0.00285   2.17146
   A13        2.19856  -0.00191   0.00123  -0.01008  -0.00911   2.18945
   A14        1.97691   0.00004   0.00794  -0.01603  -0.00809   1.96882
   A15        1.89869   0.00004  -0.00109   0.00199   0.00089   1.89958
   A16        1.88103   0.00022  -0.00089   0.00289   0.00200   1.88303
   A17        1.91861   0.00070  -0.00021   0.00759   0.00736   1.92597
   A18        1.91715   0.00032  -0.00114   0.00589   0.00474   1.92189
   A19        1.86794  -0.00143  -0.00527  -0.00175  -0.00704   1.86089
   A20        1.95986  -0.00020   0.00606  -0.01572  -0.00967   1.95019
   A21        1.91114  -0.00032  -0.00370   0.00497   0.00125   1.91239
   A22        1.90760  -0.00000  -0.00236   0.00463   0.00225   1.90985
   A23        1.91374   0.00049   0.00053   0.00188   0.00242   1.91616
   A24        1.91483   0.00029  -0.00004   0.00135   0.00131   1.91614
   A25        1.85363  -0.00026  -0.00088   0.00404   0.00314   1.85677
   A26        1.95783   0.00336   0.01507  -0.00885   0.00616   1.96399
   A27        1.92419   0.00025   0.00145   0.00100   0.00247   1.92666
   A28        1.92464   0.00019   0.00108   0.00132   0.00243   1.92706
   A29        1.89019  -0.00136  -0.00611   0.00522  -0.00103   1.88915
   A30        1.89091  -0.00140  -0.00622   0.00503  -0.00132   1.88959
   A31        1.87364  -0.00130  -0.00610  -0.00340  -0.00958   1.86406
   A32        2.15528   0.00728   0.01718   0.00912   0.02630   2.18158
   A33        2.03110  -0.00321  -0.00523  -0.00943  -0.01466   2.01644
   A34        2.09680  -0.00407  -0.01195   0.00031  -0.01164   2.08516
    D1       -2.56742  -0.00271  -0.01913   0.01219  -0.00726  -2.57468
    D2        0.53609  -0.00173  -0.01078  -0.01086  -0.02181   0.51428
    D3        0.05183  -0.00109  -0.00906   0.03428   0.02507   0.07691
    D4       -3.12785  -0.00010  -0.00072   0.01124   0.01053  -3.11732
    D5        2.58081   0.00390   0.01887  -0.00158   0.01698   2.59779
    D6       -0.60696   0.00406   0.01848   0.03632   0.05477  -0.55219
    D7       -0.03990   0.00050   0.00566  -0.02952  -0.02381  -0.06371
    D8        3.05552   0.00067   0.00527   0.00838   0.01398   3.06950
    D9       -0.04996   0.00142   0.01123  -0.03118  -0.02032  -0.07028
   D10        3.07702   0.00166   0.01034  -0.00716   0.00314   3.08015
   D11        3.13056   0.00048   0.00262  -0.00689  -0.00452   3.12604
   D12       -0.02566   0.00072   0.00173   0.01713   0.01894  -0.00671
   D13        0.02560  -0.00104  -0.00710   0.01228   0.00516   0.03076
   D14       -3.10226  -0.00131  -0.00632  -0.01046  -0.01674  -3.11900
   D15        0.01092   0.00033   0.00029   0.01217   0.01266   0.02358
   D16       -3.08352   0.00000   0.00028  -0.02650  -0.02601  -3.10952
   D17        3.01804   0.00001   0.00085  -0.01970  -0.01882   2.99922
   D18        0.87896  -0.00094  -0.00342  -0.02000  -0.02340   0.85556
   D19       -1.14056   0.00060   0.00385  -0.02051  -0.01664  -1.15720
   D20       -0.17727   0.00026   0.00002   0.02524   0.02524  -0.15203
   D21       -2.31634  -0.00069  -0.00425   0.02493   0.02065  -2.29569
   D22        1.94732   0.00086   0.00302   0.02443   0.02742   1.97474
   D23       -3.12432  -0.00010  -0.00075  -0.00103  -0.00178  -3.12610
   D24        1.02863  -0.00036  -0.00292   0.00367   0.00076   1.02939
   D25       -0.99519   0.00014   0.00160  -0.00658  -0.00499  -1.00018
   D26       -0.99634   0.00050   0.00315  -0.00405  -0.00091  -0.99725
   D27       -3.12658   0.00023   0.00097   0.00066   0.00164  -3.12494
   D28        1.13279   0.00073   0.00549  -0.00959  -0.00411   1.12868
   D29        1.05464  -0.00064  -0.00411   0.00186  -0.00225   1.05240
   D30       -1.07560  -0.00090  -0.00628   0.00656   0.00030  -1.07530
   D31       -3.09941  -0.00041  -0.00176  -0.00369  -0.00545  -3.10486
   D32        3.13251   0.00015   0.00075  -0.00069   0.00006   3.13257
   D33        1.02449  -0.00055  -0.00240  -0.00208  -0.00452   1.01997
   D34       -1.04142   0.00077   0.00355   0.00067   0.00426  -1.03716
   D35       -1.02191  -0.00006   0.00049  -0.00368  -0.00317  -1.02509
   D36       -3.12994  -0.00076  -0.00266  -0.00506  -0.00776  -3.13769
   D37        1.08734   0.00057   0.00329  -0.00231   0.00102   1.08836
   D38        1.00749   0.00008  -0.00028   0.00307   0.00278   1.01028
   D39       -1.10053  -0.00062  -0.00343   0.00168  -0.00180  -1.10233
   D40        3.11675   0.00070   0.00251   0.00443   0.00698   3.12373
   D41        3.14122  -0.00003  -0.00014  -0.00080  -0.00094   3.14028
   D42       -0.00077  -0.00003  -0.00013  -0.00050  -0.00063  -0.00140
   D43       -1.01441   0.00151   0.00717  -0.00165   0.00545  -1.00897
   D44        2.12679   0.00152   0.00718  -0.00135   0.00575   2.13254
   D45        1.01261  -0.00149  -0.00695  -0.00021  -0.00708   1.00554
   D46       -2.12937  -0.00148  -0.00693   0.00009  -0.00677  -2.13614
         Item               Value     Threshold  Converged?
 Maximum Force            0.053285     0.000450     NO 
 RMS     Force            0.006002     0.000300     NO 
 Maximum Displacement     0.103121     0.001800     NO 
 RMS     Displacement     0.021581     0.001200     NO 
 Predicted change in Energy=-6.275920D-03
 GradGradGradGradGradGradGradGradGradGradGradGradGradGradGradGradGradGrad

                          Input orientation:                          
 ---------------------------------------------------------------------
 Center     Atomic      Atomic             Coordinates (Angstroms)
 Number     Number       Type             X           Y           Z
 ---------------------------------------------------------------------
      1          6           0        0.963181    0.111914    0.473115
      2          6           0        2.167117    0.131063    0.008985
      3          6           0        2.814114    1.275949   -0.639286
      4          6           0        3.650198    0.730644   -1.557894
      5          7           0        3.683993   -0.666903   -1.517745
      6          6           0        2.849945   -1.055538   -0.606416
      7          6           0        2.601147   -2.476930   -0.206123
      8          6           0        3.285596   -3.482548   -1.133538
      9          6           0        2.997159   -4.928823   -0.714680
     10          6           0        3.653882   -5.936111   -1.625278
     11         16           0        3.549684   -7.546664   -1.460072
     12          1           0        2.607901    2.314519   -0.443796
     13          1           0        4.262993    1.263289   -2.271961
     14          1           0        1.518343   -2.654338   -0.183401
     15          1           0        2.962374   -2.605778    0.823380
     16          1           0        4.366399   -3.305045   -1.133524
     17          1           0        2.945572   -3.319491   -2.162424
     18          1           0        1.916493   -5.118666   -0.715182
     19          1           0        3.350296   -5.108583    0.308469
     20          1           0        4.237974   -5.515881   -2.450729
 ---------------------------------------------------------------------
                    Distance matrix (angstroms):
                    1          2          3          4          5
     1  C    0.000000
     2  C    1.290444   0.000000
     3  C    2.453237   1.466160   0.000000
     4  C    3.424600   2.239226   1.356552   0.000000
     5  N    3.460188   2.295336   2.302836   1.398532   0.000000
     6  C    2.467430   1.500998   2.331994   2.176272   1.295065
     7  C    3.137899   2.652599   3.783792   3.635425   2.483768
     8  C    4.571117   3.951524   4.807274   4.250176   2.869528
     9  C    5.563898   5.178331   6.207930   5.759083   4.390970
    10  C    6.944187   6.456925   7.327428   6.667096   5.270391
    11  S    8.311500   7.938332   8.891190   8.278496   6.881313
    12  H    2.897809   2.273056   1.076740   2.199149   3.346673
    13  H    4.444082   3.298082   2.182896   1.081259   2.151679
    14  H    2.896786   2.866423   4.163414   4.229910   3.228066
    15  H    3.391948   2.964114   4.150804   4.156353   3.124233
    16  H    5.083188   4.236627   4.862033   4.120658   2.751926
    17  H    4.759252   4.150582   4.843067   4.155183   2.827914
    18  H    5.447919   5.305364   6.457754   6.158759   4.856578
    19  H    5.742736   5.379916   6.476727   6.137575   4.814035
    20  H    7.137592   6.498202   7.172006   6.337327   4.968897
                    6          7          8          9         10
     6  C    0.000000
     7  C    1.497494   0.000000
     8  C    2.521513   1.529653   0.000000
     9  C    3.877594   2.535200   1.533085   0.000000
    10  C    5.050187   3.884351   2.529310   1.508344   0.000000
    11  S    6.584306   5.307948   4.085756   2.777406   1.622354
    12  H    3.382649   4.797345   5.877160   7.258850   8.400171
    13  H    3.185546   4.584611   4.977377   6.509202   7.254004
    14  H    2.123268   1.097476   2.170685   2.764496   4.172477
    15  H    2.111918   1.098619   2.168577   2.786284   4.191089
    16  H    2.763650   2.159158   1.095283   2.164926   2.769839
    17  H    2.748780   2.157696   1.095815   2.165312   2.763499
    18  H    4.170392   2.776088   2.174016   1.097215   2.124856
    19  H    4.185038   2.784175   2.174296   1.097203   2.125170
    20  H    5.022229   4.117364   2.603163   2.213171   1.095046
                   11         12         13         14         15
    11  S    0.000000
    12  H    9.958047   0.000000
    13  H    8.875993   2.680784   0.000000
    14  H    5.448953   5.093573   5.219482   0.000000
    15  H    5.474618   5.093202   5.122736   1.761020   0.000000
    16  H    4.331857   5.928537   4.709184   3.072064   2.507934
    17  H    4.327498   5.899981   4.769640   2.529020   3.069966
    18  H    3.019495   7.470203   6.975598   2.552298   3.126603
    19  H    3.018564   7.497967   6.934868   3.101823   2.584502
    20  H    2.362038   8.246217   6.781573   4.552538   4.562417
                   16         17         18         19         20
    16  H    0.000000
    17  H    1.754308   0.000000
    18  H    3.076731   2.527952   0.000000
    19  H    2.522808   3.077331   1.761748   0.000000
    20  H    2.576688   2.564675   2.925608   2.926951   0.000000
 Stoichiometry    C9H9NS
 Framework group  C1[X(C9H9NS)]
 Deg. of freedom    54
 Full point group                 C1      NOp   1
 Largest Abelian subgroup         C1      NOp   1
 Largest concise Abelian subgroup C1      NOp   1
                         Standard orientation:                         
 ---------------------------------------------------------------------
 Center     Atomic      Atomic             Coordinates (Angstroms)
 Number     Number       Type             X           Y           Z
 ---------------------------------------------------------------------
      1          6           0        3.284122    1.976258   -0.375982
      2          6           0        3.118132    0.785481    0.092786
      3          6           0        4.108122   -0.295078    0.048784
      4          6           0        3.378412   -1.432930   -0.065453
      5          7           0        1.997981   -1.215264   -0.011385
      6          6           0        1.803938    0.060333    0.099939
      7          6           0        0.469689    0.727770    0.229539
      8          6           0       -0.698586   -0.234258    0.007114
      9          6           0       -2.050988    0.478313    0.123735
     10          6           0       -3.216011   -0.452022   -0.104958
     11         16           0       -4.778170   -0.017496   -0.051297
     12          1           0        5.178092   -0.174601    0.052949
     13          1           0        3.760464   -2.437891   -0.180395
     14          1           0        0.419325    1.560604   -0.483417
     15          1           0        0.409446    1.169559    1.233609
     16          1           0       -0.645519   -1.050505    0.735515
     17          1           0       -0.606878   -0.696389   -0.982247
     18          1           0       -2.116314    1.296039   -0.604920
     19          1           0       -2.161284    0.929630    1.117717
     20          1           0       -2.953461   -1.492863   -0.321388
 ---------------------------------------------------------------------
 Rotational constants (GHZ):           3.6834092           0.3040606           0.2834143
 Standard basis: 6-31G(2df,p) (6D, 7F)
 There are   390 symmetry adapted cartesian basis functions of A   symmetry.
 There are   357 symmetry adapted basis functions of A   symmetry.
   357 basis functions,   571 primitive gaussians,   390 cartesian basis functions
    43 alpha electrons       43 beta electrons
       nuclear repulsion energy       576.3308485672 Hartrees.
 NAtoms=   20 NActive=   20 NUniq=   20 SFac= 1.00D+00 NAtFMM=   60 NAOKFM=F Big=F
 Integral buffers will be    131072 words long.
 Raffenetti 2 integral format.
 Two-electron integral symmetry is turned on.
 One-electron integrals computed using PRISM.
 PrsmSu:  requested number of processors reduced to:  13 ShMem   1 Linda.
 NBasis=   357 RedAO= T EigKep=  2.32D-04  NBF=   357
 NBsUse=   357 1.00D-06 EigRej= -1.00D+00 NBFU=   357
 Initial guess from the checkpoint file:  "[C][C]1CdCNdC1CCCCdS.chk"
 B after Tr=    -0.000000    0.000000   -0.000000
[...]
 650,-0.00021889,-0.00125672,-0.00131374,-0.00028712,0.00563674,0.00016
 001,-0.00664700,-0.10978407,0.03532402,0.03129535,0.55868099,-0.001083
 73,-0.00030507,0.00116045,0.00021474,-0.00261793,-0.00017963,0.0001528
 8,-0.00027509,-0.00019961,0.00047087,0.00015664,-0.00049933,0.00134986
 ,-0.00010143,-0.00147185,0.01596439,-0.02933120,-0.01638963,0.03642653
 ,-0.11451653,-0.03627001,0.01135544,0.43588305,0.00086546,0.00002675,-
 0.00089039,-0.00000725,0.00324217,0.00143388,0.00020068,0.00041008,-0.
 00008628,-0.00017947,0.00059502,-0.00016815,-0.00045049,0.00110465,-0.
 00130687,-0.00643157,-0.00072175,0.00582301,0.03195813,-0.03579870,-0.
 11027468,0.03716976,-0.01119441,0.55723058,0.00033268,0.00027960,-0.00
 034498,-0.00025244,0.00108290,0.00049298,-0.00001023,0.00009445,0.0000
 1902,0.00017773,0.00011250,0.00006578,0.00034340,-0.00037909,-0.000012
 15,-0.00217505,0.00111773,0.00211778,0.00368040,0.01584544,-0.00400951
 ,-0.07540695,-0.03212926,0.00449576,0.50752961,-0.00035047,-0.00012822
 ,0.00036651,-0.00005715,-0.00071055,0.00007123,0.00004703,-0.00038655,
 -0.00005892,0.00005182,-0.00006188,-0.00003129,0.00008566,0.00019501,-
 0.00013084,0.00266281,-0.00101581,-0.00253574,-0.00529679,-0.03021918,
 0.00517132,-0.02040855,-0.14599077,0.01667831,-0.01612674,0.41243964,-
 0.00038797,-0.00029059,0.00041510,0.00049307,-0.00129630,-0.00028255,0
 .00002253,-0.00007143,-0.00001826,0.00006130,-0.00018505,0.00026488,-0
 .00007600,0.00065157,0.00034845,0.00280655,-0.00146099,-0.00299670,-0.
 00548369,-0.01849596,0.00470254,0.00579919,0.02808735,-0.08796991,0.03
 688135,-0.00795550,0.58537379,-0.00026705,-0.00028805,0.00027554,0.000
 36923,-0.00057918,-0.00038741,0.00006465,-0.00030195,-0.00006888,0.000
 16299,0.00022063,-0.00015539,-0.00017220,-0.00052537,0.00007637,0.0008
 4461,0.00055124,-0.00022939,-0.00207886,-0.00207657,0.00183720,0.00385
 752,0.00405900,-0.00925217,-0.09679941,0.03688400,0.03798303,0.3208992
 0,0.00008332,0.00018616,-0.00005550,-0.00022879,-0.00004763,0.00020205
 ,-0.00003939,0.00022577,0.00005823,-0.00017954,-0.00025699,0.00014895,
 0.00017212,0.00070223,-0.00007078,0.00070807,-0.00104869,-0.00090552,-
 0.00093839,-0.00421902,0.00019444,0.01437709,-0.03384167,-0.01255362,0
 .03979127,-0.11834976,-0.05260844,-0.20225707,0.40750458,0.00016120,0.
 00018242,-0.00016526,-0.00021240,0.00050629,0.00019512,-0.00003001,0.0
 0017495,0.00004117,-0.00012064,-0.00008765,0.00008621,0.00009325,0.000
 25583,-0.00020130,-0.00040837,-0.00008174,0.00096142,0.00112894,0.0029
 7275,-0.00187685,-0.00572552,-0.00158084,0.00720802,0.03851590,-0.0505
 7428,-0.13653362,0.05803062,-0.03624366,0.54094770,0.00016080,0.000185
 35,-0.00014587,-0.00020262,0.00031804,0.00018134,-0.00004230,0.0001872
 8,0.00005363,-0.00009926,-0.00012362,0.00008556,0.00018838,0.00033432,
 -0.00010759,-0.00044571,-0.00042434,0.00047079,0.00172589,0.00116109,-
 0.00128890,-0.00422732,-0.00160110,0.00384954,-0.00485225,0.02468845,-
 0.00805205,-0.15776969,0.14522230,-0.06857745,0.16406502,-0.00015765,-
 0.00020118,0.00014695,0.00025346,-0.00027723,-0.00024219,0.00003619,-0
 .00017946,-0.00004433,0.00010080,0.00014382,-0.00008228,-0.00014852,-0
 .00039419,0.00009854,0.00013291,0.00059548,-0.00019182,-0.00075236,-0.
 00059428,0.00088622,0.00242832,0.00238102,-0.00198149,0.02494514,-0.01
 542864,0.00882050,0.14443647,-0.20762947,0.07982876,-0.18309639,0.2273
 4553,0.00002463,-0.00000068,-0.00001130,-0.00003729,-0.00001773,0.0000
 2206,-0.00000151,0.00000740,0.00000317,-0.00000002,-0.00001222,-0.0000
 1164,-0.00000421,0.00000303,0.00007913,0.00002848,-0.00003394,-0.00013
 051,0.00011626,-0.00041261,0.00017033,0.00114609,-0.00154822,0.0002722
 0,0.00440767,-0.00677900,0.00888264,-0.06806880,0.07956526,-0.08667722
 ,0.07773705,-0.08981498,0.07544042,0.00055420,-0.00023162,-0.00179580,
 0.00130879,-0.01385890,-0.00226352,-0.04690765,0.04827148,0.02386779,0
 .00182455,0.01594869,-0.00300400,0.00379299,0.00306817,0.00549003,-0.0
 0181662,-0.00141434,0.00330902,0.00083560,-0.00034610,-0.00020212,0.00
 003905,-0.00010640,0.00020762,-0.00001079,-0.00005291,-0.00011749,-0.0
 0002122,-0.00000977,0.00001150,0.00000594,-0.00000506,0.00000035,0.041
 67644,0.00091047,0.00016283,-0.00094490,0.00323504,-0.00950118,-0.0035
 9421,0.04841516,-0.34063754,-0.05680371,-0.00300129,-0.00403540,0.0031
 3880,0.00117584,-0.00009409,-0.00140661,-0.00031788,-0.00054096,0.0002
 9376,0.00041427,-0.00025301,-0.00042384,-0.00012417,-0.00014349,0.0001
 0580,0.00005185,-0.00003596,-0.00004912,-0.00005259,0.00002456,0.00003
 228,0.00003326,-0.00002974,0.00000158,-0.05097483,0.35482167,-0.001775
 52,0.00025594,0.00075916,-0.00198285,0.01458734,0.00175932,0.02387360,
 -0.05669596,-0.05152062,-0.00332738,-0.01697996,0.00197032,0.00546073,
 -0.00339939,0.00306487,0.00331683,0.00146748,-0.00217866,-0.00016263,0
 .00035341,0.00079316,0.00020068,0.00009252,0.00002936,-0.00008270,0.00
 004398,-0.00000862,-0.00000207,0.00001618,-0.00000688,-0.00000884,0.00
 000298,0.00000030,-0.02390646,0.05986364,0.04639670,-0.00003708,0.0000
 9111,-0.00040188,0.00246209,-0.00019071,0.00676118,-0.00282394,-0.0101
 1582,0.00770028,-0.15829544,-0.08156827,0.12799741,0.00211959,0.001668
 05,-0.00189049,0.00100497,0.00090319,0.00024771,0.00075893,0.00010524,
 0.00039680,-0.00004315,-0.00006481,0.00002461,0.00002776,-0.00002267,-
 0.00001204,-0.00002717,0.00001152,0.00001626,0.00001220,-0.00001470,-0
 .00000237,-0.00140191,0.00025823,-0.00156152,0.15628302,-0.00015764,-0
 .00041425,0.00016585,0.00290006,0.00221378,-0.00319939,0.00799251,0.00
 983731,-0.00838795,-0.07875819,-0.11186061,0.08223018,-0.01944173,-0.0
 1365631,0.02038249,0.00008092,-0.00763114,-0.00025858,-0.00092755,0.00
 047080,0.00099256,-0.00004134,0.00020751,0.00003780,0.00003837,-0.0000
 3897,-0.00003704,-0.00006527,0.00005756,0.00004537,0.00004586,-0.00004
 434,-0.00000357,-0.00041734,0.00010182,0.00049506,0.08891245,0.1213721
 3,-0.00039004,-0.00009435,-0.00000593,0.00680316,0.00012825,0.00162498
 ,0.00803834,0.01082816,-0.00373078,0.12799139,0.08519511,-0.17052442,-
 0.00225015,-0.00203537,0.00267166,0.00025524,-0.00109814,0.00093661,0.
 00037296,-0.00015274,0.00073215,0.00002385,0.00006958,-0.00003554,-0.0
 0001349,0.00002013,0.00002658,0.00002846,-0.00002498,-0.00001099,-0.00
 002162,0.00002028,-0.00000471,-0.00157528,-0.00022351,-0.00121372,-0.1
 3921730,-0.09259891,0.16958149,-0.00038901,0.00103349,0.00039390,0.000
 28396,-0.00104886,0.00014932,0.00013949,-0.00015978,0.00029267,0.00051
 278,-0.00017889,0.00048722,0.00005412,-0.00106377,-0.00172801,-0.00770
 258,-0.00228771,0.00081146,-0.28574638,-0.03362581,-0.04037275,-0.0178
 1894,-0.00121400,-0.00211650,0.00076228,-0.00088075,-0.00041311,0.0003
 8715,-0.00000566,0.00016724,0.00002394,-0.00013365,-0.00003332,0.00009
 338,0.00000900,0.00000754,-0.00004145,-0.00009097,-0.00004505,0.314856
 41,-0.00061983,-0.00034397,0.00064584,0.00278906,-0.00000190,-0.001362
 79,-0.00130991,-0.00074592,0.00098971,0.00107965,-0.00158101,0.0008058
 5,0.00056340,-0.00154043,-0.00146064,-0.03432252,-0.00658936,-0.001549
 99,-0.03500740,-0.05017809,-0.00724067,0.02259038,0.00146154,0.0036100
 1,0.00112037,0.00165845,0.00038172,-0.00008262,0.00018791,-0.00005597,
 -0.00007613,-0.00000853,0.00000996,0.00005484,0.00006398,-0.00007615,0
 .00023779,-0.00030304,0.00020538,0.03741628,0.05958474,-0.00066465,-0.
 00015772,0.00094147,0.00099344,-0.00090901,-0.00078009,-0.00031254,-0.
 00013573,0.00022248,-0.00044226,-0.00001922,-0.00093330,0.00053754,0.0
 0162673,0.00006922,0.01016980,0.00355402,0.00008259,-0.04059327,-0.006
 98764,-0.04985014,0.01895398,0.00162822,0.00241365,-0.00009778,0.00089
 422,0.00028758,0.00001073,0.00031229,-0.00007672,-0.00005186,-0.000002
 60,0.00000243,0.00001380,0.00002259,0.00003867,0.00001245,0.00008628,0
 .00000921,0.04157444,0.00670394,0.05416067,0.00092116,0.00010076,-0.00
 069485,-0.00066039,0.00096110,0.00099250,0.00011841,0.00013851,-0.0002
 8307,-0.00093045,-0.00010158,-0.00035884,0.00019629,-0.00165751,0.0005
 3000,-0.00000114,-0.00365598,0.01044387,-0.04984223,0.00742410,-0.0403
 4241,0.00244858,-0.00196471,0.01856305,0.00021688,-0.00089755,-0.00019
 523,-0.00006520,-0.00021634,0.00018516,-0.00006753,0.00002071,-0.00007
 049,0.00003059,-0.00002662,0.00000065,0.00000901,-0.00009322,0.0000097
 3,-0.00629203,0.00481769,-0.03172041,0.05420638,-0.00061191,-0.0003572
 7,0.00062861,0.00121876,0.00007454,-0.00284023,-0.00083464,-0.00069271
 ,0.00128996,-0.00097098,-0.00140330,-0.00089257,0.00131993,-0.00201366
 ,-0.00068828,0.00165900,-0.00664702,0.03462571,0.00763066,-0.05125083,
 0.03691052,-0.00375653,0.00199944,-0.02244849,-0.00027767,0.00163505,-
 0.00119871,-0.00003006,0.00012173,-0.00008815,0.00008073,-0.00004317,0
 .00011785,0.00009070,0.00006382,-0.00005209,-0.00022049,-0.00031724,-0
 .00023267,-0.00075854,0.00097512,-0.00461500,-0.00691616,0.06065928,0.
 00037263,-0.00107518,-0.00053544,0.00008632,0.00115560,0.00043654,0.00
 033239,0.00013631,0.00015128,0.00054558,0.00005748,0.00047058,-0.00173
 264,0.00129133,0.00005355,0.00068660,0.00175382,-0.00742031,-0.0398782
 3,0.03625055,-0.28729432,-0.00206340,0.00122032,-0.01746164,-0.0003747
 8,0.00100972,0.00048928,0.00011469,0.00000631,0.00032003,0.00011109,-0
 .00005666,0.00003573,0.00001426,-0.00001497,0.00011000,-0.00005805,0.0
 0009193,-0.00004729,-0.00168083,0.00083594,-0.00622711,0.04122511,-0.0
 3982559,0.31603910,-0.00013865,0.00011999,0.00015742,0.00022573,-0.000
 14486,-0.00017126,0.00003607,-0.00014220,-0.00001907,0.00023906,0.0002
 4947,-0.00014494,0.00084341,-0.00059367,-0.00012100,-0.00050945,-0.000
 94733,0.00056570,-0.01765064,-0.00059491,-0.00247171,-0.29708276,-0.03
 387092,-0.04453613,-0.00598319,-0.00250112,-0.00135132,-0.00001580,0.0
 0097503,0.00040979,0.00056323,-0.00065287,0.00002058,0.00000462,-0.000
 01199,-0.00005911,-0.00001675,0.00001574,0.00000139,-0.00040308,0.0022
 9761,0.00221368,0.00067973,-0.00032007,0.00015272,0.32329043,0.0001523
 6,-0.00018611,-0.00023312,-0.00036148,0.00025980,0.00011693,-0.0000025
 9,0.00015292,-0.00000430,-0.00017635,-0.00017414,0.00001542,-0.0003796
 5,-0.00028477,0.00029703,0.00125617,0.00116185,-0.00030829,0.02274550,
 0.00166216,0.00404464,-0.03517780,-0.05042390,-0.00677323,-0.02925964,
 -0.00831602,-0.00620109,-0.00278386,0.00201957,0.00043077,0.00074417,-
 0.00009884,0.00032040,0.00000352,0.00001850,0.00004547,0.00001267,-0.0
 0000540,0.00000062,0.00230787,-0.00297796,-0.00254965,-0.00073382,0.00
 067834,0.00021406,0.03791169,0.06061229,0.00000926,-0.00003550,-0.0000
 3231,0.00001652,-0.00004331,-0.00027021,0.00004971,0.00000812,-0.00008
 970,0.00005426,0.00010433,-0.00000481,-0.00005894,-0.00055836,0.000234
 64,-0.00041922,0.00057395,0.00064339,0.01947128,0.00162663,0.00236083,
 -0.04516256,-0.00670831,-0.05757778,0.00800950,0.00180622,0.00113485,-
 0.00024609,-0.00033496,-0.00000620,0.00010589,-0.00012640,-0.00010365,
 0.00001131,-0.00001262,-0.00001320,-0.00000799,-0.00000747,0.00001465,
 0.00238930,-0.00267626,-0.00124890,-0.00006370,0.00091057,0.00082445,0
 .04560349,0.00857537,0.05872207,-0.00003992,0.00002593,0.00002781,-0.0
 0024598,0.00003333,0.00003522,-0.00009032,-0.00001237,0.00006369,-0.00
 001064,-0.00011617,0.00005036,0.00016925,0.00055146,-0.00011876,0.0006
 9655,-0.00048751,-0.00048282,0.00213017,-0.00192811,0.01924193,-0.0563
 9023,0.00677029,-0.04301417,0.00053418,-0.00180891,0.00919963,0.000254
 36,0.00021917,-0.00060069,-0.00001124,-0.00002677,0.00003111,-0.000013
 95,0.00001212,0.00001353,0.00001413,0.00000650,-0.00000823,0.00083259,
 -0.00092133,-0.00007447,-0.00119027,0.00260116,0.00228971,-0.00519248,
 0.00477128,-0.03112777,0.05750470,0.00025084,-0.00018523,-0.00020670,-
 0.00017454,0.00033924,0.00043179,0.00000461,0.00015297,0.00002876,-0.0
 0000640,-0.00019923,0.00017128,-0.00028252,-0.00038700,0.00034937,0.00
 027476,0.00105584,-0.00120916,-0.00382096,0.00210913,-0.02300676,0.006
 93895,-0.05195929,0.03984536,0.00568814,-0.00756081,0.03093742,0.00019
 088,0.00136094,0.00238699,-0.00014611,-0.00003615,-0.00070475,-0.00004
 788,0.00002285,0.00000058,0.00000050,-0.00000156,-0.00001313,-0.000231
 57,0.00066524,0.00074513,0.00253659,-0.00303617,-0.00229832,-0.0007044
 9,0.00053563,-0.00426151,-0.00874858,0.06169374,0.00016618,-0.00012877
 ,-0.00017029,-0.00018940,0.00017463,0.00026346,-0.00000178,0.00015335,
 0.00003176,-0.00016477,-0.00024430,0.00026474,-0.00007208,0.00068820,0
 .00089138,0.00051838,0.00100472,-0.00057745,-0.00251569,0.00097408,-0.
 01816078,-0.04257075,0.03788285,-0.29338312,-0.00097285,0.00274373,-0.
 00675223,0.00038403,-0.00103763,0.00003604,-0.00002419,0.00007348,0.00
 023709,-0.00006192,0.00001576,0.00001331,0.00000057,-0.00002000,-0.000
 01683,0.00017601,0.00032325,0.00069985,0.00230482,-0.00236016,-0.00048
 611,-0.00102732,0.00085613,-0.00566816,0.04331208,-0.04237020,0.320794
 51,-0.00001853,-0.00001128,0.00004165,0.00003690,-0.00005999,-0.000078
 06,0.00002300,-0.00000413,-0.00001253,-0.00000620,0.00004946,-0.000043
 42,0.00012070,-0.00000115,-0.00001967,0.00017410,-0.00003982,0.0002670
 9,0.00086305,0.00120656,0.00007518,-0.00992260,-0.00294663,-0.00129091
 ,-0.27949806,-0.02851602,-0.04261939,-0.01937006,0.00154689,-0.0028301
 7,0.00035384,0.00112049,0.00205739,-0.00000496,-0.00000665,-0.00000906
 ,-0.00000669,0.00000482,-0.00000253,0.00049085,-0.00063400,-0.00036121
 ,-0.00005902,-0.00004623,0.00001721,0.00087253,-0.00153478,0.00092679,
 0.00051057,0.00000472,0.00029799,0.30881076,0.00000529,0.00004786,0.00
 001319,0.00002267,0.00000943,-0.00004225,0.00003016,-0.00001464,-0.000
 01759,0.00007587,0.00010140,-0.00001625,0.00015769,-0.00026492,-0.0000
 2107,-0.00018028,0.00013506,0.00054598,-0.00128597,0.00218720,-0.00021
 722,-0.03367055,-0.00838814,-0.00438577,-0.02227615,-0.03875443,-0.005
 89260,0.02333236,-0.00050972,0.00340044,0.00000124,-0.00334178,-0.0013
 5338,-0.00000172,-0.00000100,-0.00002620,-0.00000536,0.00001001,-0.000
 00279,0.00089964,-0.00029789,-0.00011553,0.00008943,-0.00005181,-0.000
 03843,-0.00086853,-0.00592635,0.00170229,0.00064023,0.00144881,-0.0000
 4440,0.02971050,0.05362285,-0.00005334,0.00001271,0.00006147,0.0000491
 4,-0.00006956,-0.00006297,-0.00000250,-0.00003421,0.00000302,0.0000079
 7,0.00002423,-0.00002897,0.00001860,0.00001615,-0.00006983,0.00010128,
 -0.00000391,-0.00009599,-0.00054912,-0.00034136,0.00002483,0.00791908,
 0.00336603,0.00113732,-0.03827098,-0.00669181,-0.05768827,0.01734821,0
 .00348942,0.00358044,0.00039869,-0.00235460,0.00045893,0.00000519,-0.0
 0000339,0.00000708,-0.00000211,-0.00000052,0.00000178,-0.00004235,-0.0
 0016756,0.00025092,-0.00016323,0.00000233,-0.00004045,0.00052551,0.001
 23458,0.00068562,0.00046241,-0.00055055,0.00047760,0.04367592,0.005797
 38,0.05474510,0.00003513,-0.00003579,-0.00003328,-0.00002746,0.0000268
 7,0.00001592,0.00001389,-0.00000213,-0.00001318,-0.00000866,0.00001400
 ,-0.00001722,-0.00007926,-0.00012124,0.00002614,-0.00008258,0.00011435
 ,0.00012698,-0.00004672,0.00039371,-0.00029162,0.00133390,-0.00230870,
 0.00926481,-0.05895153,0.00839019,-0.05016528,0.00189592,-0.00192796,0
 .01819083,0.00022703,-0.00164273,0.00007224,0.00000814,-0.00000273,0.0
 0000339,-0.00000161,-0.00000595,0.00000051,-0.00000261,-0.00002790,-0.
 00017275,0.00023505,0.00020803,-0.00004406,0.00035909,0.00062995,0.000
 44007,0.00048398,-0.00189736,0.00078021,-0.00494304,0.00505713,-0.0297
 5529,0.05932535,-0.00006776,0.00002207,0.00005123,0.00009030,-0.000096
 16,-0.00008922,0.00001665,-0.00005723,-0.00003424,0.00003581,0.0001065
 9,-0.00009961,0.00003163,-0.00028985,-0.00015043,-0.00041295,0.0001322
 4,0.00000198,-0.00018042,0.00168707,0.00142495,0.00636110,-0.00681850,
 0.03019415,0.00831938,-0.05540074,0.04744961,-0.00400903,0.00230200,-0
 .02467239,-0.00138922,0.00076759,0.00047415,0.00002595,-0.00000936,0.0
 0000439,0.00000078,0.00000435,0.00000928,0.00005026,-0.00007935,-0.000
 05333,0.00013483,-0.00037069,-0.00087543,-0.00004842,0.00148266,-0.000
 62033,-0.00161756,-0.00560635,0.00083562,-0.00077021,0.00009637,-0.003
 77641,-0.00999019,0.06395638,0.00003365,-0.00000008,-0.00002480,-0.000
 05855,0.00006703,0.00003081,-0.00000829,-0.00001065,0.00001861,-0.0000
 3660,-0.00002750,-0.00002871,-0.00002584,-0.00005792,0.00012252,0.0001
 2735,0.00015530,0.00017911,0.00002648,-0.00053218,0.00060402,-0.000754
 14,0.00152413,-0.00625300,-0.04655105,0.04320432,-0.29262331,-0.004031
 34,0.00293610,-0.02147069,-0.00030533,0.00081532,0.00290929,-0.0000004
 8,0.00000472,0.00000110,-0.00000205,-0.00000778,-0.00000485,0.00001110
 ,0.00004212,-0.00003791,-0.00025499,0.00051135,0.00041419,0.00028595,0
 .00000099,0.00039073,0.00067142,0.00070512,0.00089996,-0.00053939,0.00
 058552,-0.00382929,0.04955688,-0.04768303,0.31971935,0.00002732,0.0000
 2210,-0.00003373,-0.00004966,0.00006030,0.00006658,-0.00000281,0.00001
 748,-0.00000177,0.00000013,-0.00001335,0.00000905,-0.00001187,0.000048
 04,0.00000159,-0.00005926,-0.00007351,-0.00006024,-0.00004129,0.000255
 93,-0.00014892,-0.00032742,0.00052627,0.00067924,0.01033497,0.00410968
 ,0.01562690,-0.05214895,0.00269613,-0.03840543,0.00039165,0.01315621,-
 0.01742382,0.00000281,0.00000351,0.00000118,0.00000349,0.00000197,-0.0
 0000136,-0.00004086,0.00003457,0.00001135,0.00004617,-0.00006569,-0.00
 011632,-0.00012106,-0.00012520,-0.00000110,0.00005456,0.00017041,-0.00
 033952,0.00157287,-0.00173364,-0.00167309,0.00022598,0.00341907,0.0018
 5522,0.04014324,0.00002543,0.00000780,-0.00003413,-0.00003651,0.000054
 53,0.00002501,-0.00000575,0.00000746,0.00000533,-0.00000528,-0.0000119
 5,0.00000240,-0.00001364,-0.00001050,0.00003589,-0.00006691,-0.0000023
 5,0.00009172,0.00017940,0.00025616,-0.00011259,-0.00069130,0.00262377,
 0.00000735,0.00196138,0.00647014,-0.02058534,0.00337702,-0.04879004,0.
 02316782,0.01385485,-0.00292648,0.02018148,0.00000349,0.00000169,0.000
 00081,0.00000131,-0.00000241,-0.00000018,-0.00003657,0.00005048,-0.000
 02796,0.00003979,-0.00002344,0.00016120,-0.00016815,-0.00019023,0.0000
 7755,0.00003584,-0.00041262,0.00047968,0.00092745,-0.00010833,0.000051
 04,0.00312845,-0.00182910,-0.00223286,-0.02251031,0.04483542,0.0000160
 3,-0.00001821,-0.00000558,-0.00002526,-0.00001458,0.00000929,0.0000010
 8,-0.00000831,0.00000394,-0.00000157,-0.00001345,-0.00000675,-0.000021
 40,-0.00002430,0.00007489,0.00009849,-0.00003550,-0.00005824,0.0000068
 7,-0.00040703,0.00045698,-0.00000997,0.00101038,-0.00014066,-0.0042754
 6,0.00274769,-0.01705224,-0.03364734,0.01690585,-0.30635043,-0.0044098
 8,0.00420431,-0.00157469,-0.00000382,-0.00000205,-0.00000166,-0.000001
 47,-0.00000631,-0.00000405,-0.00002830,0.00003632,-0.00002457,-0.00010
 767,0.00024507,0.00016796,-0.00003436,-0.00008273,0.00000368,0.0000280
 1,-0.00098070,0.00060526,0.00044713,0.00012869,0.00038167,0.00201470,-
 0.00239093,-0.00101711,0.03995419,-0.02129421,0.32453231\\0.00000039,-
 0.00000025,-0.00000140,0.00000187,0.00000567,-0.00000103,-0.00000358,-
 0.00000647,0.00000770,-0.00000106,0.00000507,-0.00000131,-0.00000461,-
 0.00000674,0.00000186,0.00000745,-0.00000373,-0.00000243,-0.00000212,0
 .00000391,-0.00000135,-0.00000118,-0.00000594,0.00000510,0.00000774,0.
 00000490,-0.00000925,-0.00000328,-0.00000063,0.00000805,-0.00000036,0.
 00000056,-0.00000175,0.00000053,0.00000201,-0.00000275,-0.00000005,-0.
 00000112,0.00000093,-0.00000116,0.00000091,-0.00000048,0.00000045,0.00
 000068,0.00000081,0.00000150,0.00000050,-0.00000194,0.00000043,0.00000
 033,-0.00000152,-0.00000276,-0.00000100,-0.00000009,0.00000062,0.00000
 044,0.00000050,-0.00000083,0.00000092,0.00000036\\\@


 THE ... SCIENTISTS WERE WRONG ... THE MOST PERSISTENT PRINCIPLES 
 OF THE UNIVERSE WERE ACCIDENT AND ERROR.

                          -- FRANK HERBERT IN DUNE
 Job cpu time:       0 days  2 hours 21 minutes 51.5 seconds.
 Elapsed time:       0 days  0 hours 35 minutes 28.8 seconds.
 File lengths (MBytes):  RWF=    206 Int=      0 D2E=      0 Chk=     11 Scr=      1
 Normal termination of Gaussian 16 at Wed May 17 09:04:31 2023.
### All Done ###
