### Starting Gaussian ###
 Entering Gaussian System, Link 0=g16
 Initial command:
 /cluster/software/gaussian/gaussian-16-A.03/avx2/g16/l1.exe "/local/scratch/cz9n3/Gau-17718.inp" -scrdir="/local/scratch/cz9n3/"
 Entering Link 1 = /cluster/software/gaussian/gaussian-16-A.03/avx2/g16/l1.exe PID=     17719.
  
 Copyright (c) 1988,1990,1992,1993,1995,1998,2003,2009,2016,
            Gaussian, Inc.  All Rights Reserved.
  
 This is part of the Gaussian(R) 16 program.  It is based on
 the Gaussian(R) 09 system (copyright 2009, Gaussian, Inc.),
 the Gaussian(R) 03 system (copyright 2003, Gaussian, Inc.),
 the Gaussian(R) 98 system (copyright 1998, Gaussian, Inc.),
 the Gaussian(R) 94 system (copyright 1995, Gaussian, Inc.),
 the Gaussian 92(TM) system (copyright 1992, Gaussian, Inc.),
 the Gaussian 90(TM) system (copyright 1990, Gaussian, Inc.),
 the Gaussian 88(TM) system (copyright 1988, Gaussian, Inc.),
 the Gaussian 86(TM) system (copyright 1986, Carnegie Mellon
 University), and the Gaussian 82(TM) system (copyright 1983,
 Carnegie Mellon University). Gaussian is a federally registered
 trademark of Gaussian, Inc.
  
 This software contains proprietary and confidential information,
 including trade secrets, belonging to Gaussian, Inc.
  
 This software is provided under written license and may be
 used, copied, transmitted, or stored only in accord with that
 written license.
  
 The following legend is applicable only to US Government
 contracts under FAR:
  
                    RESTRICTED RIGHTS LEGEND
  
 Use, reproduction and disclosure by the US Government is
 subject to restrictions as set forth in subparagraphs (a)
 and (c) of the Commercial Computer Software - Restricted
 Rights clause in FAR 52.227-19.
  
 Gaussian, Inc.
 340 Quinnipiac St., Bldg. 40, Wallingford CT 06492
  
  
 ---------------------------------------------------------------
 Warning -- This program may not be used in any manner that
 competes with the business of Gaussian, Inc. or will provide
 assistance to any competitor of Gaussian, Inc.  The licensee
 of this program is prohibited from giving any competitor of
 Gaussian, Inc. access to this program.  By using this program,
 the user acknowledges that Gaussian, Inc. is engaged in the
 business of creating and licensing software in the field of
 computational chemistry and represents and warrants to the
 licensee that it is not a competitor of Gaussian, Inc. and that
 it will not use this program in any manner prohibited above.
 ---------------------------------------------------------------
  

 Cite this work as:
 Gaussian 16, Revision A.03,
 M. J. Frisch, G. W. Trucks, H. B. Schlegel, G. E. Scuseria, 
 M. A. Robb, J. R. Cheeseman, G. Scalmani, V. Barone, 
 G. A. Petersson, H. Nakatsuji, X. Li, M. Caricato, A. V. Marenich, 
 J. Bloino, B. G. Janesko, R. Gomperts, B. Mennucci, H. P. Hratchian, 
 J. V. Ortiz, A. F. Izmaylov, J. L. Sonnenberg, D. Williams-Young, 
 F. Ding, F. Lipparini, F. Egidi, J. Goings, B. Peng, A. Petrone, 
 T. Henderson, D. Ranasinghe, V. G. Zakrzewski, J. Gao, N. Rega, 
 G. Zheng, W. Liang, M. Hada, M. Ehara, K. Toyota, R. Fukuda, 
 J. Hasegawa, M. Ishida, T. Nakajima, Y. Honda, O. Kitao, H. Nakai, 
 T. Vreven, K. Throssell, J. A. Montgomery, Jr., J. E. Peralta, 
 F. Ogliaro, M. J. Bearpark, J. J. Heyd, E. N. Brothers, K. N. Kudin, 
 V. N. Staroverov, T. A. Keith, R. Kobayashi, J. Normand, 
 K. Raghavachari, A. P. Rendell, J. C. Burant, S. S. Iyengar, 
 J. Tomasi, M. Cossi, J. M. Millam, M. Klene, C. Adamo, R. Cammi, 
 J. W. Ochterski, R. L. Martin, K. Morokuma, O. Farkas, 
 J. B. Foresman, and D. J. Fox, Gaussian, Inc., Wallingford CT, 2016.
 
 ******************************************
 Gaussian 16:  ES64L-G16RevA.03 25-Dec-2016
                15-May-2023 
 ******************************************
 %chk=[C]SC1dCCdCCdC2CdCCdCCdC21.chk
 %NProcShared=20
 Will use up to   20 processors via shared memory.
 -----------------------------
 # opt freq b3lyp/6-31g(2df,p)
 -----------------------------
 1/18=20,19=15,26=3,38=1/1,3;
 2/9=110,12=2,17=6,18=5,40=1/2;
 3/5=1,6=6,7=104,11=2,25=1,30=1,71=1,74=-5/1,2,3;
 4//1;
 5/5=2,38=5/2;
 6/7=2,8=2,9=2,10=2,28=1/1;
 7//1,2,3,16;
 1/18=20,19=15,26=3/3(2);
 2/9=110/2;
 99//99;
 2/9=110/2;
 3/5=1,6=6,7=104,11=2,25=1,30=1,71=1,74=-5/1,2,3;
 4/5=5,16=3,69=1/1;
 5/5=2,38=5/2;
 7//1,2,3,16;
 1/18=20,19=15,26=3/3(-5);
 2/9=110/2;
 6/7=2,8=2,9=2,10=2,19=2,28=1/1;
 99/9=1/99;
 -------------------
 Title Card Required
 -------------------
 Symbolic Z-matrix:
 Charge =  0 Multiplicity = 2
 C                     1.06187  -0.01038   0.07021 
 S                     2.85076  -0.27149  -0.05016 
 C                     3.36341  -0.39532   1.67925 
 C                     3.57138   0.88425   2.22014 
 C                     4.08964   1.33425   3.50968 
 C                     4.4684    0.55796   4.52125 
 C                     4.36747  -0.82814   4.63613 
 C                     3.88692  -1.78866   3.84936 
 C                     3.29786  -2.94991   4.50688 
 C                     3.99997  -3.68882   5.42149 
 C                     4.13641  -5.05083   4.60449 
 C                     4.76193  -4.71183   3.53152 
 C                     4.17018  -3.31318   2.29544 
 C                     3.90945  -1.88155   2.45139 
 H                     3.39493   1.83252   1.64933 
 H                     4.18769   2.40476   3.72532 
 H                     4.77088   0.9738    5.47951 
 H                     4.64715  -1.19061   5.59656 
 H                     2.79001  -3.69323   3.81996 
 H                     4.85281  -3.18827   5.99478 
 H                     3.84403  -6.15043   4.40628 
 H                     5.334    -4.85239   4.64717 
 H                     3.46773  -3.64579   1.52559 
 

 GradGradGradGradGradGradGradGradGradGradGradGradGradGradGradGradGradGrad
 Berny optimization.
 Initialization pass.
                           ----------------------------
                           !    Initial Parameters    !
                           ! (Angstroms and Degrees)  !
 --------------------------                            --------------------------
 ! Name  Definition              Value          Derivative Info.                !
 --------------------------------------------------------------------------------
 ! R1    R(1,2)                  1.8118         estimate D2E/DX2                !
 ! R2    R(2,3)                  1.808          estimate D2E/DX2                !
 ! R3    R(3,4)                  1.4047         estimate D2E/DX2                !
 ! R4    R(3,14)                 1.7616         estimate D2E/DX2                !
 ! R5    R(4,5)                  1.4608         estimate D2E/DX2                !
 ! R6    R(4,15)                 1.1208         estimate D2E/DX2                !
 ! R7    R(5,6)                  1.3302         estimate D2E/DX2                !
 ! R8    R(5,16)                 1.0964         estimate D2E/DX2                !
 ! R9    R(6,7)                  1.3945         estimate D2E/DX2                !
 ! R10   R(6,17)                 1.0875         estimate D2E/DX2                !
 ! R11   R(7,8)                  1.3314         estimate D2E/DX2                !
 ! R12   R(7,18)                 1.064          estimate D2E/DX2                !
 ! R13   R(8,9)                  1.4587         estimate D2E/DX2                !
 ! R14   R(8,14)                 1.4012         estimate D2E/DX2                !
 ! R15   R(9,10)                 1.3695         estimate D2E/DX2                !
 ! R16   R(9,19)                 1.1324         estimate D2E/DX2                !
 ! R17   R(10,11)                1.5941         estimate D2E/DX2                !
 ! R18   R(10,20)                1.143          estimate D2E/DX2                !
 ! R19   R(11,12)                1.2874         estimate D2E/DX2                !
 ! R20   R(11,21)                1.1549         estimate D2E/DX2                !
 ! R21   R(11,22)                1.2147         estimate D2E/DX2                !
 ! R22   R(12,22)                1.2616         estimate D2E/DX2                !
 ! R23   R(13,14)                1.4635         estimate D2E/DX2                !
 ! R24   R(13,23)                1.094          estimate D2E/DX2                !
 ! A1    A(1,2,3)              103.0776         estimate D2E/DX2                !
 ! A2    A(2,3,4)              110.3595         estimate D2E/DX2                !
 ! A3    A(2,3,14)             124.3972         estimate D2E/DX2                !
 ! A4    A(4,3,14)             123.6327         estimate D2E/DX2                !
 ! A5    A(3,4,5)              132.3029         estimate D2E/DX2                !
 ! A6    A(3,4,15)             123.4561         estimate D2E/DX2                !
 ! A7    A(5,4,15)             104.1701         estimate D2E/DX2                !
 ! A8    A(4,5,6)              126.3387         estimate D2E/DX2                !
 ! A9    A(4,5,16)             120.4054         estimate D2E/DX2                !
 ! A10   A(6,5,16)             113.2524         estimate D2E/DX2                !
 ! A11   A(5,6,7)              128.4712         estimate D2E/DX2                !
 ! A12   A(5,6,17)             121.745          estimate D2E/DX2                !
 ! A13   A(7,6,17)             109.124          estimate D2E/DX2                !
 ! A14   A(6,7,8)              133.991          estimate D2E/DX2                !
 ! A15   A(6,7,18)             113.2012         estimate D2E/DX2                !
 ! A16   A(8,7,18)             112.491          estimate D2E/DX2                !
 ! A17   A(7,8,9)              116.9827         estimate D2E/DX2                !
 ! A18   A(7,8,14)             129.168          estimate D2E/DX2                !
 ! A19   A(9,8,14)             113.7925         estimate D2E/DX2                !
 ! A20   A(8,9,10)             121.5698         estimate D2E/DX2                !
 ! A21   A(8,9,19)             115.4825         estimate D2E/DX2                !
 ! A22   A(10,9,19)            106.3129         estimate D2E/DX2                !
 ! A23   A(9,10,11)             99.3576         estimate D2E/DX2                !
 ! A24   A(9,10,20)            118.7641         estimate D2E/DX2                !
 ! A25   A(11,10,20)           124.565          estimate D2E/DX2                !
 ! A26   A(10,11,12)           104.1078         estimate D2E/DX2                !
 ! A27   A(10,11,21)           151.6123         estimate D2E/DX2                !
 ! A28   A(10,11,22)            85.8019         estimate D2E/DX2                !
 ! A29   A(12,11,21)           103.3364         estimate D2E/DX2                !
 ! A30   A(21,11,22)           114.2782         estimate D2E/DX2                !
 ! A31   A(14,13,23)           104.9522         estimate D2E/DX2                !
 ! A32   A(3,14,8)             112.1098         estimate D2E/DX2                !
 ! A33   A(3,14,13)            146.4929         estimate D2E/DX2                !
 ! A34   A(8,14,13)            100.0218         estimate D2E/DX2                !
 ! D1    D(1,2,3,4)            -84.3819         estimate D2E/DX2                !
 ! D2    D(1,2,3,14)           109.6805         estimate D2E/DX2                !
 ! D3    D(2,3,4,5)           -174.0787         estimate D2E/DX2                !
 ! D4    D(2,3,4,15)             2.3493         estimate D2E/DX2                !
 ! D5    D(14,3,4,5)            -8.0124         estimate D2E/DX2                !
 ! D6    D(14,3,4,15)          168.4155         estimate D2E/DX2                !
 ! D7    D(2,3,14,8)          -163.3876         estimate D2E/DX2                !
 ! D8    D(2,3,14,13)           -0.8563         estimate D2E/DX2                !
 ! D9    D(4,3,14,8)            32.4908         estimate D2E/DX2                !
 ! D10   D(4,3,14,13)         -164.9779         estimate D2E/DX2                !
 ! D11   D(3,4,5,6)             -1.8603         estimate D2E/DX2                !
 ! D12   D(3,4,5,16)           178.8783         estimate D2E/DX2                !
 ! D13   D(15,4,5,6)          -178.7871         estimate D2E/DX2                !
 ! D14   D(15,4,5,16)            1.9515         estimate D2E/DX2                !
 ! D15   D(4,5,6,7)             -5.4771         estimate D2E/DX2                !
 ! D16   D(4,5,6,17)          -175.1152         estimate D2E/DX2                !
 ! D17   D(16,5,6,7)           173.8295         estimate D2E/DX2                !
 ! D18   D(16,5,6,17)            4.1914         estimate D2E/DX2                !
 ! D19   D(5,6,7,8)             -0.6748         estimate D2E/DX2                !
 ! D20   D(5,6,7,18)          -173.5521         estimate D2E/DX2                !
 ! D21   D(17,6,7,8)           170.0085         estimate D2E/DX2                !
 ! D22   D(17,6,7,18)           -2.8688         estimate D2E/DX2                !
 ! D23   D(6,7,8,9)           -147.7983         estimate D2E/DX2                !
 ! D24   D(6,7,8,14)            35.1394         estimate D2E/DX2                !
 ! D25   D(18,7,8,9)            25.1163         estimate D2E/DX2                !
 ! D26   D(18,7,8,14)         -151.946          estimate D2E/DX2                !
 ! D27   D(7,8,9,10)           -55.6879         estimate D2E/DX2                !
 ! D28   D(7,8,9,19)           173.1599         estimate D2E/DX2                !
 ! D29   D(14,8,9,10)          121.8233         estimate D2E/DX2                !
 ! D30   D(14,8,9,19)           -9.3289         estimate D2E/DX2                !
 ! D31   D(7,8,14,3)           -48.5484         estimate D2E/DX2                !
 ! D32   D(7,8,14,13)          141.1395         estimate D2E/DX2                !
 ! D33   D(9,8,14,3)           134.3126         estimate D2E/DX2                !
 ! D34   D(9,8,14,13)          -35.9995         estimate D2E/DX2                !
 ! D35   D(8,9,10,11)         -113.0736         estimate D2E/DX2                !
 ! D36   D(8,9,10,20)           25.2048         estimate D2E/DX2                !
 ! D37   D(19,9,10,11)          21.8357         estimate D2E/DX2                !
 ! D38   D(19,9,10,20)         160.1142         estimate D2E/DX2                !
 ! D39   D(9,10,11,12)          59.2541         estimate D2E/DX2                !
 ! D40   D(9,10,11,21)        -105.6127         estimate D2E/DX2                !
 ! D41   D(9,10,11,22)         117.3896         estimate D2E/DX2                !
 ! D42   D(20,10,11,12)        -75.6375         estimate D2E/DX2                !
 ! D43   D(20,10,11,21)        119.4958         estimate D2E/DX2                !
 ! D44   D(20,10,11,22)        -17.5019         estimate D2E/DX2                !
 ! D45   D(23,13,14,3)         -29.0802         estimate D2E/DX2                !
 ! D46   D(23,13,14,8)         134.5151         estimate D2E/DX2                !
 --------------------------------------------------------------------------------
 Trust Radius=3.00D-01 FncErr=1.00D-07 GrdErr=1.00D-06 EigMax=2.50D+02 EigMin=1.00D-04
 Number of steps in this run=    114 maximum allowed number of steps=    138.
 GradGradGradGradGradGradGradGradGradGradGradGradGradGradGradGradGradGrad

                          Input orientation:                          
 ---------------------------------------------------------------------
 Center     Atomic      Atomic             Coordinates (Angstroms)
 Number     Number       Type             X           Y           Z
 ---------------------------------------------------------------------
      1          6           0        1.061870   -0.010380    0.070210
      2         16           0        2.850760   -0.271490   -0.050160
      3          6           0        3.363410   -0.395320    1.679250
      4          6           0        3.571380    0.884250    2.220140
      5          6           0        4.089640    1.334250    3.509680
      6          6           0        4.468400    0.557960    4.521250
      7          6           0        4.367470   -0.828140    4.636130
      8          6           0        3.886920   -1.788660    3.849360
      9          6           0        3.297860   -2.949910    4.506880
     10          6           0        3.999970   -3.688820    5.421490
     11          6           0        4.136410   -5.050830    4.604490
     12          6           0        4.761930   -4.711830    3.531520
     13          6           0        4.170180   -3.313180    2.295440
     14          6           0        3.909450   -1.881550    2.451390
     15          1           0        3.394930    1.832520    1.649330
     16          1           0        4.187690    2.404760    3.725320
     17          1           0        4.770880    0.973800    5.479510
     18          1           0        4.647150   -1.190610    5.596560
     19          1           0        2.790010   -3.693230    3.819960
     20          1           0        4.852810   -3.188270    5.994780
     21          1           0        3.844030   -6.150430    4.406280
     22          1           0        5.334000   -4.852390    4.647170
     23          1           0        3.467730   -3.645790    1.525590
 ---------------------------------------------------------------------
                    Distance matrix (angstroms):
                    1          2          3          4          5
     1  C    0.000000
     2  S    1.811848   0.000000
     3  C    2.834480   1.808038   0.000000
     4  C    3.423478   2.647506   1.404675   0.000000
     5  C    4.775497   4.097034   2.620934   1.460824   0.000000
     6  C    5.633757   4.919607   3.194794   2.491228   1.330173
     7  C    5.695906   4.956973   3.152556   3.066439   2.453978
     8  C    5.042337   4.310648   2.631508   3.146168   3.147864
     9  C    5.772740   5.304757   3.811262   4.472670   4.469379
    10  C    7.127380   6.552693   5.025606   5.598687   5.375341
    11  C    7.444369   6.794171   5.552327   6.421025   6.478429
    12  C    6.911928   6.016446   4.900920   5.869688   6.083382
    13  C    5.051903   4.061353   3.089413   4.240595   4.804110
    14  C    4.156923   3.157668   1.761601   2.795965   3.390253
    15  H    3.366462   2.758849   2.228264   1.120792   2.047388
    16  H    5.381773   4.817047   3.564588   2.226512   1.096406
    17  H    6.632186   5.984552   4.277550   3.474235   2.115240
    18  H    6.692363   5.996436   4.198308   4.106402   3.322770
    19  H    5.532674   5.166220   3.973366   4.911546   5.202006
    20  H    7.718208   7.004078   5.351886   5.698718   5.216449
    21  H    8.015119   7.443680   6.386625   7.371585   7.542191
    22  H    7.914842   7.015414   5.705896   6.473511   6.412241
    23  H    4.595922   3.774856   3.255772   4.584147   5.396683
                    6          7          8          9         10
     6  C    0.000000
     7  C    1.394510   0.000000
     8  C    2.509219   1.331365   0.000000
     9  C    3.698043   2.379638   1.458707   0.000000
    10  C    4.366348   2.989203   2.468802   1.369474   0.000000
    11  C    5.619223   4.229125   3.357710   2.264191   1.594107
    12  C    5.369955   4.056946   3.067831   2.489817   2.280158
    13  C    4.475365   3.419529   2.195237   2.404865   3.153136
    14  C    3.247761   2.468308   1.401234   2.395929   3.477918
    15  H    3.320356   4.116542   4.265575   5.571952   6.714198
    16  H    2.030511   3.363560   4.206022   5.484079   6.328029
    17  H    1.087511   2.030029   3.327155   4.302476   4.726277
    18  H    2.060519   1.063970   1.997078   2.470450   2.586609
    19  H    4.624004   3.370943   2.198059   1.132385   2.007217
    20  H    4.043921   2.766170   2.737641   2.165302   1.143043
    21  H    6.738364   5.352905   4.397390   3.248346   2.667301
    22  H    5.480603   4.138706   3.480946   2.790157   1.932124
    23  H    5.258026   4.292335   3.004090   3.066137   3.932323
                   11         12         13         14         15
    11  C    0.000000
    12  C    1.287424   0.000000
    13  C    2.890031   1.958133   0.000000
    14  C    3.838188   3.147044   1.463511   0.000000
    15  H    7.527501   6.945491   5.243730   3.834364   0.000000
    16  H    7.507422   7.142350   5.894039   4.480264   2.294703
    17  H    6.120815   6.010086   5.373764   4.250247   4.159437
    18  H    4.018253   4.083694   3.953504   3.303588   5.127182
    19  H    2.066726   2.238127   2.091284   2.531465   5.967535
    20  H    2.432132   2.897783   3.763868   3.892693   6.798285
    21  H    1.154943   1.917633   3.551339   4.695659   8.457538
    22  H    1.214669   1.261624   3.042085   3.959379   7.578592
    23  H    3.449767   2.614412   1.093954   2.040776   5.480191
                   16         17         18         19         20
    16  H    0.000000
    17  H    2.337721   0.000000
    18  H    4.079133   2.171101   0.000000
    19  H    6.256832   5.334709   3.587253   0.000000
    20  H    6.072464   4.194644   2.047320   3.039732   0.000000
    21  H    8.589126   7.263988   5.163486   2.737254   3.509325
    22  H    7.404732   5.912223   3.844702   2.915444   2.194742
    23  H    6.478141   6.218705   4.898136   2.392841   4.701216
                   21         22         23
    21  H    0.000000
    22  H    1.990715   0.000000
    23  H    3.835779   3.831855   0.000000
 Stoichiometry    C13H9S(2)
 Framework group  C1[X(C13H9S)]
 Deg. of freedom    63
 Full point group                 C1      NOp   1
 Largest Abelian subgroup         C1      NOp   1
 Largest concise Abelian subgroup C1      NOp   1
                         Standard orientation:                         
 ---------------------------------------------------------------------
 Center     Atomic      Atomic             Coordinates (Angstroms)
 Number     Number       Type             X           Y           Z
 ---------------------------------------------------------------------
      1          6           0       -3.479701   -1.639367    1.414155
      2         16           0       -2.927828   -1.418463   -0.297403
      3          6           0       -1.627228   -0.171165   -0.150135
      4          6           0       -2.184645    1.118172   -0.147578
      5          6           0       -1.583260    2.449362   -0.164192
      6          6           0       -0.282396    2.726788   -0.152098
      7          6           0        0.791092    1.846934   -0.017412
      8          6           0        0.892020    0.529432    0.145483
      9          6           0        2.020932    0.044302    0.931634
     10          6           0        3.311789    0.366646    0.607223
     11          6           0        3.840646   -1.076297    0.183667
     12          6           0        3.068642   -1.420925   -0.787262
     13          6           0        1.114653   -1.491843   -0.681527
     14          6           0        0.089547   -0.491471   -0.381064
     15          1           0       -3.287300    1.314709   -0.188807
     16          1           0       -2.216584    3.344262   -0.176900
     17          1           0        0.084160    3.748611   -0.087339
     18          1           0        1.729549    2.340784    0.068852
     19          1           0        2.017091   -1.065578    1.156236
     20          1           0        3.507774    1.327363    0.019720
     21          1           0        4.459275   -2.030825    0.383839
     22          1           0        4.011144   -0.592391   -0.917327
     23          1           0        0.707592   -2.434929   -0.305195
 ---------------------------------------------------------------------
 Rotational constants (GHZ):           1.0250378           0.4301648           0.3268021
 Standard basis: 6-31G(2df,p) (6D, 7F)
 There are   483 symmetry adapted cartesian basis functions of A   symmetry.
 There are   441 symmetry adapted basis functions of A   symmetry.
   441 basis functions,   703 primitive gaussians,   483 cartesian basis functions
    52 alpha electrons       51 beta electrons
       nuclear repulsion energy       839.4138582610 Hartrees.
 NAtoms=   23 NActive=   23 NUniq=   23 SFac= 1.00D+00 NAtFMM=   60 NAOKFM=F Big=F
 Integral buffers will be    131072 words long.
 Raffenetti 2 integral format.
 Two-electron integral symmetry is turned on.
 One-electron integrals computed using PRISM.
 PrsmSu:  requested number of processors reduced to:  13 ShMem   1 Linda.
 NBasis=   441 RedAO= T EigKep=  2.59D-04  NBF=   441
 NBsUse=   441 1.00D-06 EigRej= -1.00D+00 NBFU=   441
 ExpMin= 1.17D-01 ExpMax= 2.19D+04 ExpMxC= 3.30D+03 IAcc=3 IRadAn=         5 AccDes= 0.00D+00
 Harris functional with IExCor=  402 and IRadAn=       5 diagonalized for initial guess.
 HarFok:  IExCor=  402 AccDes= 0.00D+00 IRadAn=         5 IDoV= 1 UseB2=F ITyADJ=14
 ICtDFT=  3500011 ScaDFX=  1.000000  1.000000  1.000000  1.000000
 FoFCou: FMM=F IPFlag=           0 FMFlag=      100000 FMFlg1=           0
         NFxFlg=           0 DoJE=T BraDBF=F KetDBF=T FulRan=T
         wScrn=  0.000000 ICntrl=       500 IOpCl=  0 I1Cent=   200000004 NGrid=           0
         NMat0=    1 NMatS0=      1 NMatT0=    0 NMatD0=    1 NMtDS0=    0 NMtDT0=    0
 Petite list used in FoFCou.
 Initial guess <Sx>= 0.0000 <Sy>= 0.0000 <Sz>= 0.5000 <S**2>= 0.7500 S= 0.5000
 Requested convergence on RMS density matrix=1.00D-08 within 128 cycles.
 Requested convergence on MAX density matrix=1.00D-06.
 Requested convergence on             energy=1.00D-06.
 No special actions if energy rises.
 Integral accuracy reduced to 1.0D-05 until final iterations.
 EnCoef did    10 forward-backward iterations
 EnCoef did     6 forward-backward iterations
 EnCoef did     8 forward-backward iterations
 EnCoef did     4 forward-backward iterations
 Problem detected with inexpensive integrals.
 Switching to full accuracy and repeating last cycle.
 Restarting incremental Fock formation.
 SCF Done:  E(UB3LYP) =  -898.258664438     A.U. after   47 cycles
            NFock= 47  Conv=0.91D-08     -V/T= 2.0059
 <Sx>= 0.0000 <Sy>= 0.0000 <Sz>= 0.5000 <S**2>= 0.7593 S= 0.5047
 <L.S>=  0.00000000000    
 Annihilation of the first spin contaminant:
 S**2 before annihilation     0.7593,   after     0.7501

 **********************************************************************

            Population analysis using the SCF density.

 **********************************************************************

 Orbital symmetries:
 Alpha Orbitals:
       Occupied  (A) (A) (A) (A) (A) (A) (A) (A) (A) (A) (A) (A)
                 (A) (A) (A) (A) (A) (A) (A) (A) (A) (A) (A) (A)
                 (A) (A) (A) (A) (A) (A) (A) (A) (A) (A) (A) (A)
                 (A) (A) (A) (A) (A) (A) (A) (A) (A) (A) (A) (A)
                 (A) (A) (A) (A)
       Virtual   (A) (A) (A) (A) (A) (A) (A) (A) (A) (A) (A) (A)
                 (A) (A) (A) (A) (A) (A) (A) (A) (A) (A) (A) (A)
                 (A) (A) (A) (A) (A) (A) (A) (A) (A) (A) (A) (A)
                 (A) (A) (A) (A) (A) (A) (A) (A) (A) (A) (A) (A)
                 (A) (A) (A) (A) (A) (A) (A) (A) (A) (A) (A) (A)
                 (A) (A) (A) (A) (A) (A) (A) (A) (A) (A) (A) (A)
                 (A) (A) (A) (A) (A) (A) (A) (A) (A) (A) (A) (A)
                 (A) (A) (A) (A) (A) (A) (A) (A) (A) (A) (A) (A)
                 (A) (A) (A) (A) (A) (A) (A) (A) (A) (A) (A) (A)
                 (A) (A) (A) (A) (A) (A) (A) (A) (A) (A) (A) (A)
                 (A) (A) (A) (A) (A) (A) (A) (A) (A) (A) (A) (A)
                 (A) (A) (A) (A) (A) (A) (A) (A) (A) (A) (A) (A)
                 (A) (A) (A) (A) (A) (A) (A) (A) (A) (A) (A) (A)
                 (A) (A) (A) (A) (A) (A) (A) (A) (A) (A) (A) (A)
                 (A) (A) (A) (A) (A) (A) (A) (A) (A) (A) (A) (A)
                 (A) (A) (A) (A) (A) (A) (A) (A) (A) (A) (A) (A)
                 (A) (A) (A) (A) (A) (A) (A) (A) (A) (A) (A) (A)
                 (A) (A) (A) (A) (A) (A) (A) (A) (A) (A) (A) (A)
                 (A) (A) (A) (A) (A) (A) (A) (A) (A) (A) (A) (A)
                 (A) (A) (A) (A) (A) (A) (A) (A) (A) (A) (A) (A)
                 (A) (A) (A) (A) (A) (A) (A) (A) (A) (A) (A) (A)
                 (A) (A) (A) (A) (A) (A) (A) (A) (A) (A) (A) (A)
                 (A) (A) (A) (A) (A) (A) (A) (A) (A) (A) (A) (A)
                 (A) (A) (A) (A) (A) (A) (A) (A) (A) (A) (A) (A)
                 (A) (A) (A) (A) (A) (A) (A) (A) (A) (A) (A) (A)
                 (A) (A) (A) (A) (A) (A) (A) (A) (A) (A) (A) (A)
                 (A) (A) (A) (A) (A) (A) (A) (A) (A) (A) (A) (A)
                 (A) (A) (A) (A) (A) (A) (A) (A) (A) (A) (A) (A)
                 (A) (A) (A) (A) (A) (A) (A) (A) (A) (A) (A) (A)
                 (A) (A) (A) (A) (A) (A) (A) (A) (A) (A) (A) (A)
                 (A) (A) (A) (A) (A) (A) (A) (A) (A) (A) (A) (A)
                 (A) (A) (A) (A) (A) (A) (A) (A) (A) (A) (A) (A)
                 (A) (A) (A) (A) (A)
 Beta  Orbitals:
       Occupied  (A) (A) (A) (A) (A) (A) (A) (A) (A) (A) (A) (A)
                 (A) (A) (A) (A) (A) (A) (A) (A) (A) (A) (A) (A)
                 (A) (A) (A) (A) (A) (A) (A) (A) (A) (A) (A) (A)
                 (A) (A) (A) (A) (A) (A) (A) (A) (A) (A) (A) (A)
                 (A) (A) (A)
       Virtual   (A) (A) (A) (A) (A) (A) (A) (A) (A) (A) (A) (A)
                 (A) (A) (A) (A) (A) (A) (A) (A) (A) (A) (A) (A)
                 (A) (A) (A) (A) (A) (A) (A) (A) (A) (A) (A) (A)
                 (A) (A) (A) (A) (A) (A) (A) (A) (A) (A) (A) (A)
                 (A) (A) (A) (A) (A) (A) (A) (A) (A) (A) (A) (A)
                 (A) (A) (A) (A) (A) (A) (A) (A) (A) (A) (A) (A)
                 (A) (A) (A) (A) (A) (A) (A) (A) (A) (A) (A) (A)
                 (A) (A) (A) (A) (A) (A) (A) (A) (A) (A) (A) (A)
                 (A) (A) (A) (A) (A) (A) (A) (A) (A) (A) (A) (A)
                 (A) (A) (A) (A) (A) (A) (A) (A) (A) (A) (A) (A)
                 (A) (A) (A) (A) (A) (A) (A) (A) (A) (A) (A) (A)
                 (A) (A) (A) (A) (A) (A) (A) (A) (A) (A) (A) (A)
                 (A) (A) (A) (A) (A) (A) (A) (A) (A) (A) (A) (A)
                 (A) (A) (A) (A) (A) (A) (A) (A) (A) (A) (A) (A)
                 (A) (A) (A) (A) (A) (A) (A) (A) (A) (A) (A) (A)
                 (A) (A) (A) (A) (A) (A) (A) (A) (A) (A) (A) (A)
                 (A) (A) (A) (A) (A) (A) (A) (A) (A) (A) (A) (A)
                 (A) (A) (A) (A) (A) (A) (A) (A) (A) (A) (A) (A)
                 (A) (A) (A) (A) (A) (A) (A) (A) (A) (A) (A) (A)
                 (A) (A) (A) (A) (A) (A) (A) (A) (A) (A) (A) (A)
                 (A) (A) (A) (A) (A) (A) (A) (A) (A) (A) (A) (A)
                 (A) (A) (A) (A) (A) (A) (A) (A) (A) (A) (A) (A)
                 (A) (A) (A) (A) (A) (A) (A) (A) (A) (A) (A) (A)
                 (A) (A) (A) (A) (A) (A) (A) (A) (A) (A) (A) (A)
                 (A) (A) (A) (A) (A) (A) (A) (A) (A) (A) (A) (A)
                 (A) (A) (A) (A) (A) (A) (A) (A) (A) (A) (A) (A)
                 (A) (A) (A) (A) (A) (A) (A) (A) (A) (A) (A) (A)
                 (A) (A) (A) (A) (A) (A) (A) (A) (A) (A) (A) (A)
                 (A) (A) (A) (A) (A) (A) (A) (A) (A) (A) (A) (A)
                 (A) (A) (A) (A) (A) (A) (A) (A) (A) (A) (A) (A)
                 (A) (A) (A) (A) (A) (A) (A) (A) (A) (A) (A) (A)
                 (A) (A) (A) (A) (A) (A) (A) (A) (A) (A) (A) (A)
                 (A) (A) (A) (A) (A) (A)
 The electronic state is 2-A.
 Alpha  occ. eigenvalues --  -88.91987 -10.26907 -10.26319 -10.26043 -10.22942
 Alpha  occ. eigenvalues --  -10.22924 -10.22514 -10.22113 -10.20955 -10.20927
 Alpha  occ. eigenvalues --  -10.20913 -10.20367 -10.19959 -10.19669  -7.97939
 Alpha  occ. eigenvalues --   -5.94280  -5.93916  -5.93810  -0.91726  -0.86917
 Alpha  occ. eigenvalues --   -0.82816  -0.80986  -0.75206  -0.74838  -0.70425
 Alpha  occ. eigenvalues --   -0.64895  -0.60530  -0.59368  -0.56164  -0.54548
 Alpha  occ. eigenvalues --   -0.52535  -0.51645  -0.48981  -0.47638  -0.46193
 Alpha  occ. eigenvalues --   -0.43583  -0.42374  -0.41293  -0.39596  -0.38044
 Alpha  occ. eigenvalues --   -0.37010  -0.35863  -0.34670  -0.34619  -0.31756
 Alpha  occ. eigenvalues --   -0.30249  -0.29135  -0.26393  -0.24358  -0.22301
 Alpha  occ. eigenvalues --   -0.19417  -0.17015
 Alpha virt. eigenvalues --   -0.10434  -0.08736  -0.07173  -0.04974  -0.02979
 Alpha virt. eigenvalues --    0.02295   0.03429   0.04473   0.04682   0.06958
 Alpha virt. eigenvalues --    0.08173   0.08632   0.09876   0.11439   0.12570
 Alpha virt. eigenvalues --    0.14715   0.15290   0.16401   0.17125   0.21019
 Alpha virt. eigenvalues --    0.22891   0.23327   0.25990   0.26760   0.28584
 Alpha virt. eigenvalues --    0.29715   0.31250   0.31435   0.32620   0.33215
 Alpha virt. eigenvalues --    0.34078   0.37798   0.38079   0.39620   0.40666
 Alpha virt. eigenvalues --    0.41558   0.43013   0.44097   0.44492   0.45281
 Alpha virt. eigenvalues --    0.45849   0.46574   0.47218   0.48051   0.48622
 Alpha virt. eigenvalues --    0.48962   0.49858   0.50361   0.52353   0.52701
 Alpha virt. eigenvalues --    0.53754   0.54759   0.55625   0.56197   0.56570
 Alpha virt. eigenvalues --    0.57480   0.59209   0.60221   0.61409   0.61615
 Alpha virt. eigenvalues --    0.62410   0.64823   0.65199   0.65367   0.67242
 Alpha virt. eigenvalues --    0.67694   0.68805   0.69512   0.70128   0.70967
 Alpha virt. eigenvalues --    0.71450   0.72040   0.73722   0.74023   0.74371
 Alpha virt. eigenvalues --    0.75100   0.76090   0.76180   0.77584   0.78313
 Alpha virt. eigenvalues --    0.79602   0.80287   0.80857   0.81743   0.82517
 Alpha virt. eigenvalues --    0.83348   0.84742   0.86243   0.86552   0.87906
 Alpha virt. eigenvalues --    0.87983   0.88864   0.90652   0.91553   0.92238
 Alpha virt. eigenvalues --    0.94562   0.95030   0.97930   0.99284   1.00422
 Alpha virt. eigenvalues --    1.01747   1.03488   1.04173   1.06139   1.07713
 Alpha virt. eigenvalues --    1.08425   1.08842   1.11415   1.11828   1.14381
 Alpha virt. eigenvalues --    1.15044   1.16741   1.19010   1.20268   1.21818
 Alpha virt. eigenvalues --    1.22256   1.26469   1.27952   1.30112   1.31479
 Alpha virt. eigenvalues --    1.33408   1.35076   1.35984   1.37674   1.40769
 Alpha virt. eigenvalues --    1.41029   1.41695   1.42512   1.43256   1.44570
 Alpha virt. eigenvalues --    1.47680   1.48909   1.50582   1.51317   1.51985
 Alpha virt. eigenvalues --    1.52380   1.53885   1.56281   1.57947   1.58942
 Alpha virt. eigenvalues --    1.59040   1.62140   1.63729   1.65614   1.66729
 Alpha virt. eigenvalues --    1.67225   1.68782   1.70570   1.72234   1.73320
 Alpha virt. eigenvalues --    1.74024   1.75160   1.79079   1.79794   1.80936
 Alpha virt. eigenvalues --    1.82773   1.84082   1.85795   1.86197   1.87234
 Alpha virt. eigenvalues --    1.88379   1.89641   1.91229   1.94404   1.96539
 Alpha virt. eigenvalues --    1.97853   2.00073   2.02891   2.04140   2.06283
 Alpha virt. eigenvalues --    2.09261   2.09595   2.11646   2.14747   2.16180
 Alpha virt. eigenvalues --    2.17800   2.20034   2.23170   2.23958   2.27072
 Alpha virt. eigenvalues --    2.27842   2.28114   2.31756   2.32534   2.34974
 Alpha virt. eigenvalues --    2.35481   2.36017   2.38186   2.40563   2.42280
 Alpha virt. eigenvalues --    2.43586   2.45446   2.45778   2.48869   2.50272
 Alpha virt. eigenvalues --    2.54257   2.57584   2.59387   2.63048   2.64639
 Alpha virt. eigenvalues --    2.66304   2.68654   2.69374   2.70475   2.74147
 Alpha virt. eigenvalues --    2.76903   2.77455   2.78397   2.80157   2.81007
 Alpha virt. eigenvalues --    2.81739   2.82961   2.84898   2.86345   2.88520
 Alpha virt. eigenvalues --    2.89102   2.90158   2.91313   2.91875   2.93687
 Alpha virt. eigenvalues --    2.94153   2.95235   2.97236   2.98300   2.99538
 Alpha virt. eigenvalues --    3.00680   3.01089   3.02095   3.04844   3.06799
 Alpha virt. eigenvalues --    3.07631   3.09176   3.11258   3.13221   3.13674
 Alpha virt. eigenvalues --    3.15155   3.15958   3.17252   3.18871   3.21309
 Alpha virt. eigenvalues --    3.22320   3.22612   3.23767   3.24459   3.25237
 Alpha virt. eigenvalues --    3.25918   3.27267   3.27955   3.28188   3.30546
 Alpha virt. eigenvalues --    3.31549   3.32709   3.34751   3.35945   3.36771
 Alpha virt. eigenvalues --    3.38942   3.39499   3.40643   3.41094   3.44521
 Alpha virt. eigenvalues --    3.44799   3.46046   3.48390   3.49513   3.52157
 Alpha virt. eigenvalues --    3.53580   3.53995   3.55960   3.57382   3.58708
 Alpha virt. eigenvalues --    3.60017   3.60700   3.63530   3.64159   3.68938
 Alpha virt. eigenvalues --    3.70825   3.73449   3.73940   3.75727   3.78848
 Alpha virt. eigenvalues --    3.79771   3.83053   3.83536   3.85562   3.89301
 Alpha virt. eigenvalues --    3.91077   3.94544   3.97314   3.99519   4.02976
 Alpha virt. eigenvalues --    4.03332   4.07625   4.11087   4.14013   4.17236
 Alpha virt. eigenvalues --    4.18065   4.19607   4.21197   4.22636   4.23678
 Alpha virt. eigenvalues --    4.25908   4.27933   4.29577   4.32190   4.33698
 Alpha virt. eigenvalues --    4.36511   4.37150   4.38704   4.39410   4.40262
 Alpha virt. eigenvalues --    4.40999   4.43717   4.44517   4.44913   4.46100
 Alpha virt. eigenvalues --    4.47946   4.49508   4.51264   4.52654   4.54267
 Alpha virt. eigenvalues --    4.54589   4.56372   4.57687   4.58699   4.61894
 Alpha virt. eigenvalues --    4.62638   4.64057   4.66121   4.67679   4.69368
 Alpha virt. eigenvalues --    4.70468   4.73058   4.74684   4.74869   4.76562
 Alpha virt. eigenvalues --    4.77996   4.79019   4.80477   4.84952   4.87337
 Alpha virt. eigenvalues --    4.89303   4.90241   4.92470   4.95539   4.96455
 Alpha virt. eigenvalues --    4.97715   4.99000   5.00612   5.02936   5.05259
 Alpha virt. eigenvalues --    5.07297   5.11449   5.12268   5.15597   5.19181
 Alpha virt. eigenvalues --    5.22206   5.26375   5.28148   5.30156   5.31400
 Alpha virt. eigenvalues --    5.34774   5.39516   5.39787   5.42644   5.44773
 Alpha virt. eigenvalues --    5.49034   5.53442   5.59733   5.63109   5.66118
 Alpha virt. eigenvalues --    5.74553   5.79855   5.85716   6.00490   6.04233
 Alpha virt. eigenvalues --    6.85734   9.75976   9.95025  10.34798  10.43274
 Alpha virt. eigenvalues --   10.61906  10.86372  11.13899  11.47412  11.57182
 Alpha virt. eigenvalues --   11.66660  11.96083  12.11054  12.31934
  Beta  occ. eigenvalues --  -88.92035 -10.26722 -10.26050 -10.24986 -10.22935
  Beta  occ. eigenvalues --  -10.22930 -10.22538 -10.22100 -10.20945 -10.20927
  Beta  occ. eigenvalues --  -10.20910 -10.20365 -10.19921 -10.19679  -7.97978
  Beta  occ. eigenvalues --   -5.94343  -5.93956  -5.93908  -0.91718  -0.86895
  Beta  occ. eigenvalues --   -0.82650  -0.80744  -0.75001  -0.74702  -0.70133
  Beta  occ. eigenvalues --   -0.64486  -0.60420  -0.59167  -0.55304  -0.54152
  Beta  occ. eigenvalues --   -0.52462  -0.50663  -0.48590  -0.47573  -0.46164
  Beta  occ. eigenvalues --   -0.43526  -0.42353  -0.40725  -0.39382  -0.37993
  Beta  occ. eigenvalues --   -0.36892  -0.35647  -0.34625  -0.34431  -0.31303
  Beta  occ. eigenvalues --   -0.29571  -0.28885  -0.25910  -0.24343  -0.19564
  Beta  occ. eigenvalues --   -0.17039
  Beta virt. eigenvalues --   -0.10275  -0.07362  -0.07083  -0.06743  -0.04885
  Beta virt. eigenvalues --   -0.02838   0.02375   0.03628   0.05016   0.05525
  Beta virt. eigenvalues --    0.07182   0.08522   0.09004   0.09938   0.11527
  Beta virt. eigenvalues --    0.12644   0.14747   0.15310   0.16458   0.17164
  Beta virt. eigenvalues --    0.21059   0.22898   0.23341   0.26038   0.26823
  Beta virt. eigenvalues --    0.28687   0.29736   0.31337   0.31546   0.32586
  Beta virt. eigenvalues --    0.33408   0.34112   0.37844   0.38151   0.39677
  Beta virt. eigenvalues --    0.40734   0.42359   0.43472   0.44146   0.44528
  Beta virt. eigenvalues --    0.45590   0.45980   0.46646   0.47426   0.48148
  Beta virt. eigenvalues --    0.48926   0.49054   0.50107   0.50404   0.52452
  Beta virt. eigenvalues --    0.52910   0.53786   0.54949   0.56044   0.56429
  Beta virt. eigenvalues --    0.56752   0.59096   0.59827   0.60823   0.61504
  Beta virt. eigenvalues --    0.61677   0.64032   0.64967   0.65237   0.65634
  Beta virt. eigenvalues --    0.67337   0.68025   0.68878   0.69762   0.70203
  Beta virt. eigenvalues --    0.71341   0.71486   0.72074   0.73844   0.74253
  Beta virt. eigenvalues --    0.74661   0.75139   0.76158   0.76310   0.77771
  Beta virt. eigenvalues --    0.78674   0.79703   0.80744   0.81560   0.82224
  Beta virt. eigenvalues --    0.82977   0.83728   0.84833   0.86526   0.87931
  Beta virt. eigenvalues --    0.88241   0.88351   0.90470   0.90773   0.91627
  Beta virt. eigenvalues --    0.92474   0.94920   0.96180   0.98053   0.99541
  Beta virt. eigenvalues --    1.01355   1.02412   1.03567   1.04388   1.06664
  Beta virt. eigenvalues --    1.07934   1.08588   1.09490   1.11451   1.11951
  Beta virt. eigenvalues --    1.14839   1.15685   1.16883   1.19058   1.20316
  Beta virt. eigenvalues --    1.22089   1.22418   1.26567   1.27991   1.30149
  Beta virt. eigenvalues --    1.31493   1.33470   1.35216   1.36023   1.37801
  Beta virt. eigenvalues --    1.41014   1.41040   1.41768   1.42532   1.43306
  Beta virt. eigenvalues --    1.44646   1.47704   1.49156   1.51034   1.51561
  Beta virt. eigenvalues --    1.52219   1.52736   1.53907   1.56328   1.58010
  Beta virt. eigenvalues --    1.58958   1.59088   1.62224   1.63750   1.65742
  Beta virt. eigenvalues --    1.66807   1.67273   1.68830   1.70750   1.72267
  Beta virt. eigenvalues --    1.73291   1.74110   1.75190   1.79057   1.79837
  Beta virt. eigenvalues --    1.80931   1.82796   1.84158   1.85858   1.86343
  Beta virt. eigenvalues --    1.87294   1.88451   1.89674   1.91585   1.94731
  Beta virt. eigenvalues --    1.96606   1.97907   2.00170   2.02905   2.04318
  Beta virt. eigenvalues --    2.06750   2.09302   2.09822   2.11661   2.14763
  Beta virt. eigenvalues --    2.16245   2.17837   2.20086   2.23214   2.24090
  Beta virt. eigenvalues --    2.27094   2.27928   2.28189   2.31786   2.32597
  Beta virt. eigenvalues --    2.35060   2.35508   2.36089   2.38611   2.40594
  Beta virt. eigenvalues --    2.42470   2.43730   2.45721   2.45814   2.48997
  Beta virt. eigenvalues --    2.50347   2.54291   2.57612   2.59442   2.63057
  Beta virt. eigenvalues --    2.64666   2.66321   2.68660   2.69391   2.70523
  Beta virt. eigenvalues --    2.74271   2.77002   2.77586   2.78591   2.80302
  Beta virt. eigenvalues --    2.82121   2.84926   2.86351   2.87361   2.87556
  Beta virt. eigenvalues --    2.89040   2.89483   2.90560   2.92183   2.93358
  Beta virt. eigenvalues --    2.94006   2.94953   2.96394   2.97382   2.98395
  Beta virt. eigenvalues --    2.99789   3.00753   3.01114   3.02249   3.04906
  Beta virt. eigenvalues --    3.06932   3.07771   3.09293   3.11393   3.13480
  Beta virt. eigenvalues --    3.14320   3.15811   3.16151   3.17273   3.19347
  Beta virt. eigenvalues --    3.21354   3.22562   3.22860   3.24018   3.24833
  Beta virt. eigenvalues --    3.25350   3.26183   3.27415   3.28032   3.28413
  Beta virt. eigenvalues --    3.30673   3.31586   3.33818   3.35082   3.36650
  Beta virt. eigenvalues --    3.37541   3.39238   3.39560   3.40709   3.41157
  Beta virt. eigenvalues --    3.44680   3.44864   3.46220   3.48560   3.49568
  Beta virt. eigenvalues --    3.52265   3.53616   3.54135   3.56005   3.57427
  Beta virt. eigenvalues --    3.58789   3.60055   3.60753   3.63559   3.64190
  Beta virt. eigenvalues --    3.68964   3.70846   3.73489   3.73958   3.75744
  Beta virt. eigenvalues --    3.78892   3.79786   3.83080   3.83607   3.85599
  Beta virt. eigenvalues --    3.89402   3.91102   3.94566   3.97371   3.99601
  Beta virt. eigenvalues --    4.03101   4.03462   4.07853   4.11210   4.14127
  Beta virt. eigenvalues --    4.17343   4.18509   4.22371   4.23450   4.25692
  Beta virt. eigenvalues --    4.26872   4.27115   4.28321   4.29652   4.32299
  Beta virt. eigenvalues --    4.34044   4.36770   4.37503   4.38769   4.39778
  Beta virt. eigenvalues --    4.40924   4.43358   4.44131   4.44578   4.45096
  Beta virt. eigenvalues --    4.46505   4.47999   4.49590   4.51638   4.53368
  Beta virt. eigenvalues --    4.54446   4.55846   4.56511   4.57763   4.58992
  Beta virt. eigenvalues --    4.62409   4.62880   4.65411   4.66439   4.67863
  Beta virt. eigenvalues --    4.69383   4.70688   4.73091   4.74716   4.74994
  Beta virt. eigenvalues --    4.76618   4.78044   4.79090   4.80560   4.85045
  Beta virt. eigenvalues --    4.87402   4.89421   4.90273   4.92515   4.95618
  Beta virt. eigenvalues --    4.96493   4.97820   4.99100   5.00635   5.02975
  Beta virt. eigenvalues --    5.05281   5.07353   5.11536   5.12277   5.15698
  Beta virt. eigenvalues --    5.19225   5.22234   5.26413   5.28195   5.30171
  Beta virt. eigenvalues --    5.31454   5.34800   5.39532   5.39839   5.42668
  Beta virt. eigenvalues --    5.44803   5.49063   5.53463   5.59761   5.63132
  Beta virt. eigenvalues --    5.66173   5.74592   5.79886   5.85748   6.00504
  Beta virt. eigenvalues --    6.04243   6.85754   9.76063   9.97503  10.34822
  Beta virt. eigenvalues --   10.43408  10.61909  10.86418  11.13947  11.47425
  Beta virt. eigenvalues --   11.57190  11.66722  11.96100  12.11083  12.31944
          Condensed to atoms (all electrons):
               1          2          3          4          5          6
     1  C    5.819602   0.335076  -0.028220   0.000389   0.000106  -0.000006
     2  S    0.335076  15.499612   0.229250  -0.045274   0.005001   0.000016
     3  C   -0.028220   0.229250   5.081688   0.526499   0.007785  -0.021526
     4  C    0.000389  -0.045274   0.526499   4.870381   0.412235   0.024333
     5  C    0.000106   0.005001   0.007785   0.412235   4.894313   0.548941
     6  C   -0.000006   0.000016  -0.021526   0.024333   0.548941   4.735225
     7  C    0.000009  -0.000036  -0.005907  -0.024543   0.019121   0.438238
     8  C   -0.000124   0.001596  -0.007912  -0.008134  -0.028756   0.033571
     9  C    0.000001  -0.000011   0.002504  -0.000291   0.000267   0.005001
    10  C   -0.000000   0.000005   0.000005  -0.000004  -0.000018   0.000280
    11  C   -0.000000   0.000004  -0.000050  -0.000001   0.000001  -0.000027
    12  C    0.000000  -0.000041   0.000504   0.000006  -0.000003  -0.000005
    13  C   -0.000003  -0.000948  -0.025893   0.002109  -0.000308   0.000535
    14  C    0.000158  -0.024423   0.313459  -0.014546   0.000991  -0.021511
    15  H    0.000399  -0.006949  -0.046763   0.369509  -0.045444   0.004272
    16  H    0.000002  -0.000292   0.004798  -0.046155   0.363073  -0.035663
    17  H   -0.000000   0.000008  -0.000034   0.006646  -0.055865   0.373399
    18  H    0.000000   0.000010   0.000106  -0.000289   0.010603  -0.054483
    19  H    0.000001  -0.000002   0.000002   0.000041  -0.000024  -0.000080
    20  H   -0.000000   0.000000  -0.000002  -0.000000   0.000002   0.000070
    21  H   -0.000000  -0.000000   0.000000   0.000000  -0.000000   0.000000
    22  H   -0.000000  -0.000000   0.000001   0.000000  -0.000000  -0.000003
    23  H    0.000038   0.002828  -0.003172  -0.000182   0.000010  -0.000007
               7          8          9         10         11         12
     1  C    0.000009  -0.000124   0.000001  -0.000000  -0.000000   0.000000
     2  S   -0.000036   0.001596  -0.000011   0.000005   0.000004  -0.000041
     3  C   -0.005907  -0.007912   0.002504   0.000005  -0.000050   0.000504
     4  C   -0.024543  -0.008134  -0.000291  -0.000004  -0.000001   0.000006
     5  C    0.019121  -0.028756   0.000267  -0.000018   0.000001  -0.000003
     6  C    0.438238   0.033571   0.005001   0.000280  -0.000027  -0.000005
     7  C    4.953206   0.489792  -0.039040  -0.013263   0.000314   0.000621
     8  C    0.489792   4.529291   0.477613  -0.040842   0.002666  -0.009871
     9  C   -0.039040   0.477613   4.969692   0.560249  -0.025105  -0.031879
    10  C   -0.013263  -0.040842   0.560249   5.266634   0.294947  -0.088808
    11  C    0.000314   0.002666  -0.025105   0.294947   5.128924   0.386851
    12  C    0.000621  -0.009871  -0.031879  -0.088808   0.386851   5.632058
    13  C    0.003366  -0.086207  -0.071578  -0.036949  -0.054983   0.261190
    14  C   -0.007956   0.390314  -0.049889   0.001648   0.001385  -0.005929
    15  H    0.000556  -0.000505  -0.000002   0.000000  -0.000000   0.000000
    16  H    0.006043   0.000644   0.000006   0.000000   0.000000  -0.000000
    17  H   -0.047446   0.007592  -0.000227   0.000009  -0.000000   0.000000
    18  H    0.357288  -0.069029  -0.022152   0.004637   0.000385   0.000005
    19  H    0.002763  -0.032522   0.364229  -0.047662  -0.025020  -0.018250
    20  H    0.000379  -0.012202  -0.041217   0.367214  -0.035766  -0.006625
    21  H   -0.000007  -0.000276   0.002313  -0.010307   0.334054  -0.063397
    22  H   -0.000128  -0.000744   0.002996  -0.001299   0.130782   0.106509
    23  H   -0.000158   0.003644   0.003878   0.001474   0.001814  -0.016696
              13         14         15         16         17         18
     1  C   -0.000003   0.000158   0.000399   0.000002  -0.000000   0.000000
     2  S   -0.000948  -0.024423  -0.006949  -0.000292   0.000008   0.000010
     3  C   -0.025893   0.313459  -0.046763   0.004798  -0.000034   0.000106
     4  C    0.002109  -0.014546   0.369509  -0.046155   0.006646  -0.000289
     5  C   -0.000308   0.000991  -0.045444   0.363073  -0.055865   0.010603
     6  C    0.000535  -0.021511   0.004272  -0.035663   0.373399  -0.054483
     7  C    0.003366  -0.007956   0.000556   0.006043  -0.047446   0.357288
     8  C   -0.086207   0.390314  -0.000505   0.000644   0.007592  -0.069029
     9  C   -0.071578  -0.049889  -0.000002   0.000006  -0.000227  -0.022152
    10  C   -0.036949   0.001648   0.000000   0.000000   0.000009   0.004637
    11  C   -0.054983   0.001385  -0.000000   0.000000  -0.000000   0.000385
    12  C    0.261190  -0.005929   0.000000  -0.000000   0.000000   0.000005
    13  C    5.577312   0.483308  -0.000012   0.000000   0.000007  -0.001046
    14  C    0.483308   5.021205   0.002263  -0.000044  -0.000169   0.010132
    15  H   -0.000012   0.002263   0.598153  -0.008026  -0.000265   0.000002
    16  H    0.000000  -0.000044  -0.008026   0.617154  -0.010722  -0.000295
    17  H    0.000007  -0.000169  -0.000265  -0.010722   0.644563  -0.016472
    18  H   -0.001046   0.010132   0.000002  -0.000295  -0.016472   0.695594
    19  H    0.003969  -0.009614   0.000000  -0.000000   0.000006   0.000134
    20  H   -0.001081  -0.000236  -0.000000  -0.000000   0.000030   0.006645
    21  H    0.002135  -0.000022   0.000000  -0.000000   0.000000   0.000003
    22  H    0.002500  -0.000056   0.000000  -0.000000   0.000000  -0.000004
    23  H    0.296574  -0.018202  -0.000001   0.000000  -0.000000   0.000017
              19         20         21         22         23
     1  C    0.000001  -0.000000  -0.000000  -0.000000   0.000038
     2  S   -0.000002   0.000000  -0.000000  -0.000000   0.002828
     3  C    0.000002  -0.000002   0.000000   0.000001  -0.003172
     4  C    0.000041  -0.000000   0.000000   0.000000  -0.000182
     5  C   -0.000024   0.000002  -0.000000  -0.000000   0.000010
     6  C   -0.000080   0.000070   0.000000  -0.000003  -0.000007
     7  C    0.002763   0.000379  -0.000007  -0.000128  -0.000158
     8  C   -0.032522  -0.012202  -0.000276  -0.000744   0.003644
     9  C    0.364229  -0.041217   0.002313   0.002996   0.003878
    10  C   -0.047662   0.367214  -0.010307  -0.001299   0.001474
    11  C   -0.025020  -0.035766   0.334054   0.130782   0.001814
    12  C   -0.018250  -0.006625  -0.063397   0.106509  -0.016696
    13  C    0.003969  -0.001081   0.002135   0.002500   0.296574
    14  C   -0.009614  -0.000236  -0.000022  -0.000056  -0.018202
    15  H    0.000000  -0.000000   0.000000   0.000000  -0.000001
    16  H   -0.000000  -0.000000  -0.000000  -0.000000   0.000000
    17  H    0.000006   0.000030   0.000000   0.000000  -0.000000
    18  H    0.000134   0.006645   0.000003  -0.000004   0.000017
    19  H    0.615212   0.007116   0.002066   0.004035   0.000414
    20  H    0.007116   0.584133   0.000794   0.001098   0.000005
    21  H    0.002066   0.000794   0.524591   0.014156  -0.000233
    22  H    0.004035   0.001098   0.014156   0.503465   0.000063
    23  H    0.000414   0.000005  -0.000233   0.000063   0.603811
          Atomic-Atomic Spin Densities.
               1          2          3          4          5          6
     1  C    0.965303   0.019068  -0.024624   0.000330  -0.000040  -0.000002
     2  S    0.019068  -0.053344  -0.021790   0.003621  -0.000565  -0.000028
     3  C   -0.024624  -0.021790   0.128985  -0.006718   0.000439   0.000040
     4  C    0.000330   0.003621  -0.006718  -0.000191   0.000526  -0.000408
     5  C   -0.000040  -0.000565   0.000439   0.000526  -0.002904   0.001739
     6  C   -0.000002  -0.000028   0.000040  -0.000408   0.001739  -0.000155
     7  C    0.000005   0.000045   0.000166   0.000414  -0.000209  -0.000173
     8  C   -0.000166  -0.000781   0.000045  -0.000979   0.000234   0.000092
     9  C   -0.000000   0.000004   0.000013   0.000006  -0.000003   0.000012
    10  C   -0.000000  -0.000001  -0.000004  -0.000001  -0.000000   0.000004
    11  C   -0.000000  -0.000001   0.000000  -0.000000  -0.000000   0.000000
    12  C    0.000000   0.000005  -0.000002   0.000000   0.000000  -0.000001
    13  C    0.000034  -0.000009  -0.000152   0.000035  -0.000000  -0.000008
    14  C    0.000802   0.003444  -0.006177   0.002032  -0.000359  -0.000179
    15  H    0.000788   0.001554  -0.002050  -0.000293  -0.000650  -0.000064
    16  H    0.000005   0.000034  -0.000025  -0.000177  -0.000482  -0.000028
    17  H   -0.000000  -0.000001  -0.000004  -0.000010   0.000050  -0.000052
    18  H   -0.000000  -0.000002  -0.000011  -0.000001  -0.000041   0.000120
    19  H    0.000001   0.000002  -0.000001   0.000001  -0.000000   0.000000
    20  H   -0.000000  -0.000000  -0.000000  -0.000000  -0.000000   0.000002
    21  H   -0.000000  -0.000000   0.000000  -0.000000  -0.000000   0.000000
    22  H    0.000000  -0.000000   0.000000   0.000000  -0.000000  -0.000000
    23  H    0.000000  -0.000155   0.000157   0.000001  -0.000000   0.000000
               7          8          9         10         11         12
     1  C    0.000005  -0.000166  -0.000000  -0.000000  -0.000000   0.000000
     2  S    0.000045  -0.000781   0.000004  -0.000001  -0.000001   0.000005
     3  C    0.000166   0.000045   0.000013  -0.000004   0.000000  -0.000002
     4  C    0.000414  -0.000979   0.000006  -0.000001  -0.000000   0.000000
     5  C   -0.000209   0.000234  -0.000003  -0.000000  -0.000000   0.000000
     6  C   -0.000173   0.000092   0.000012   0.000004   0.000000  -0.000001
     7  C   -0.006422  -0.001770   0.000139  -0.000078  -0.000003   0.000019
     8  C   -0.001770   0.019081  -0.000064  -0.000329  -0.000010   0.000007
     9  C    0.000139  -0.000064  -0.002621   0.000349   0.000360  -0.000481
    10  C   -0.000078  -0.000329   0.000349   0.011214   0.000400  -0.002449
    11  C   -0.000003  -0.000010   0.000360   0.000400  -0.006719   0.002163
    12  C    0.000019   0.000007  -0.000481  -0.002449   0.002163   0.004162
    13  C    0.000126  -0.001846  -0.000406  -0.000538  -0.000237   0.001442
    14  C    0.001528  -0.005948   0.000400   0.000033   0.000040  -0.000206
    15  H    0.000019  -0.000046   0.000000  -0.000000  -0.000000   0.000000
    16  H    0.000023  -0.000024   0.000000  -0.000000  -0.000000   0.000000
    17  H    0.000002   0.000013  -0.000001  -0.000000   0.000000  -0.000000
    18  H   -0.000322   0.000385  -0.000186   0.000039  -0.000002  -0.000001
    19  H    0.000001  -0.000097  -0.000157  -0.000108  -0.000129   0.000211
    20  H   -0.000006  -0.000080  -0.000145  -0.000015  -0.000026  -0.000089
    21  H   -0.000000  -0.000002  -0.000004  -0.000089   0.000355  -0.000380
    22  H    0.000001   0.000002  -0.000025  -0.000276  -0.000129   0.000195
    23  H   -0.000003  -0.000102  -0.000031  -0.000012  -0.000049   0.000029
              13         14         15         16         17         18
     1  C    0.000034   0.000802   0.000788   0.000005  -0.000000  -0.000000
     2  S   -0.000009   0.003444   0.001554   0.000034  -0.000001  -0.000002
     3  C   -0.000152  -0.006177  -0.002050  -0.000025  -0.000004  -0.000011
     4  C    0.000035   0.002032  -0.000293  -0.000177  -0.000010  -0.000001
     5  C   -0.000000  -0.000359  -0.000650  -0.000482   0.000050  -0.000041
     6  C   -0.000008  -0.000179  -0.000064  -0.000028  -0.000052   0.000120
     7  C    0.000126   0.001528   0.000019   0.000023   0.000002  -0.000322
     8  C   -0.001846  -0.005948  -0.000046  -0.000024   0.000013   0.000385
     9  C   -0.000406   0.000400   0.000000   0.000000  -0.000001  -0.000186
    10  C   -0.000538   0.000033  -0.000000  -0.000000  -0.000000   0.000039
    11  C   -0.000237   0.000040  -0.000000  -0.000000   0.000000  -0.000002
    12  C    0.001442  -0.000206   0.000000   0.000000  -0.000000  -0.000001
    13  C    0.028674   0.000310   0.000001   0.000000  -0.000000  -0.000010
    14  C    0.000310  -0.011590   0.000107   0.000016  -0.000008  -0.000082
    15  H    0.000001   0.000107   0.002328   0.000259  -0.000003  -0.000000
    16  H    0.000000   0.000016   0.000259   0.001272  -0.000044  -0.000004
    17  H   -0.000000  -0.000008  -0.000003  -0.000044  -0.000048   0.000052
    18  H   -0.000010  -0.000082  -0.000000  -0.000004   0.000052   0.000454
    19  H    0.000643   0.000051   0.000000   0.000000  -0.000000  -0.000006
    20  H   -0.000014  -0.000004  -0.000000  -0.000000   0.000001   0.000079
    21  H    0.000031   0.000001  -0.000000  -0.000000   0.000000   0.000000
    22  H    0.000079  -0.000002   0.000000   0.000000   0.000000  -0.000002
    23  H    0.000769   0.000178  -0.000000  -0.000000   0.000000  -0.000000
              19         20         21         22         23
     1  C    0.000001  -0.000000  -0.000000   0.000000   0.000000
     2  S    0.000002  -0.000000  -0.000000  -0.000000  -0.000155
     3  C   -0.000001  -0.000000   0.000000   0.000000   0.000157
     4  C    0.000001  -0.000000  -0.000000   0.000000   0.000001
     5  C   -0.000000  -0.000000  -0.000000  -0.000000  -0.000000
     6  C    0.000000   0.000002   0.000000  -0.000000   0.000000
     7  C    0.000001  -0.000006  -0.000000   0.000001  -0.000003
     8  C   -0.000097  -0.000080  -0.000002   0.000002  -0.000102
     9  C   -0.000157  -0.000145  -0.000004  -0.000025  -0.000031
    10  C   -0.000108  -0.000015  -0.000089  -0.000276  -0.000012
    11  C   -0.000129  -0.000026   0.000355  -0.000129  -0.000049
    12  C    0.000211  -0.000089  -0.000380   0.000195   0.000029
    13  C    0.000643  -0.000014   0.000031   0.000079   0.000769
    14  C    0.000051  -0.000004   0.000001  -0.000002   0.000178
    15  H    0.000000  -0.000000  -0.000000   0.000000  -0.000000
    16  H    0.000000  -0.000000  -0.000000   0.000000  -0.000000
    17  H   -0.000000   0.000001   0.000000   0.000000   0.000000
    18  H   -0.000006   0.000079   0.000000  -0.000002  -0.000000
    19  H   -0.000400  -0.000017  -0.000021  -0.000002  -0.000035
    20  H   -0.000017   0.000360   0.000002  -0.000044  -0.000000
    21  H   -0.000021   0.000002   0.000395   0.000002  -0.000004
    22  H   -0.000002  -0.000044   0.000002   0.000805  -0.000003
    23  H   -0.000035  -0.000000  -0.000004  -0.000003  -0.002833
 Mulliken charges and spin densities:
               1          2
     1  C   -0.127429   0.961504
     2  S    0.004571  -0.048901
     3  C   -0.027123   0.068286
     4  C   -0.072731  -0.001812
     5  C   -0.132031  -0.002267
     6  C   -0.030571   0.000910
     7  C   -0.133214  -0.006496
     8  C    0.360400   0.007615
     9  C   -0.107358  -0.002841
    10  C   -0.257951   0.008140
    11  C   -0.141174  -0.003988
    12  C   -0.146241   0.004625
    13  C   -0.353997   0.028924
    14  C   -0.072267  -0.015611
    15  H    0.132814   0.001950
    16  H    0.109480   0.000826
    17  H    0.098941  -0.000052
    18  H    0.078208   0.000457
    19  H    0.133187  -0.000064
    20  H    0.129643   0.000002
    21  H    0.194131   0.000286
    22  H    0.236629   0.000601
    23  H    0.124083  -0.002094
 Sum of Mulliken charges =  -0.00000   1.00000
 Mulliken charges and spin densities with hydrogens summed into heavy atoms:
               1          2
     1  C   -0.127429   0.961504
     2  S    0.004571  -0.048901
     3  C   -0.027123   0.068286
     4  C    0.060083   0.000138
     5  C   -0.022552  -0.001441
     6  C    0.068370   0.000859
     7  C   -0.055006  -0.006040
     8  C    0.360400   0.007615
     9  C    0.025829  -0.002904
    10  C   -0.128307   0.008141
    11  C    0.289587  -0.003100
    12  C   -0.146241   0.004625
    13  C   -0.229914   0.026830
    14  C   -0.072267  -0.015611
 Electronic spatial extent (au):  <R**2>=           3279.9307
 Charge=             -0.0000 electrons
 Dipole moment (field-independent basis, Debye):
    X=              2.9927    Y=              3.1164    Z=             -0.0784  Tot=              4.3214
 Quadrupole moment (field-independent basis, Debye-Ang):
   XX=            -82.2560   YY=            -83.4164   ZZ=            -98.1324
   XY=             -7.0500   XZ=              7.0402   YZ=             -3.9384
 Traceless Quadrupole moment (field-independent basis, Debye-Ang):
   XX=              5.6790   YY=              4.5185   ZZ=            -10.1975
   XY=             -7.0500   XZ=              7.0402   YZ=             -3.9384
 Octapole moment (field-independent basis, Debye-Ang**2):
  XXX=             62.3040  YYY=             33.5082  ZZZ=             -5.8727  XYY=              5.3890
  XXY=             18.6567  XXZ=            -19.8546  XZZ=              1.3494  YZZ=              9.3209
  YYZ=              5.6152  XYZ=            -25.8169
 Hexadecapole moment (field-independent basis, Debye-Ang**3):
 XXXX=          -3011.6623 YYYY=          -1208.0094 ZZZZ=           -308.0669 XXXY=           -164.9288
 XXXZ=             85.8600 YYYX=            -35.4333 YYYZ=            -16.5322 ZZZX=             52.2732
 ZZZY=              1.5273 XXYY=           -711.3717 XXZZ=           -654.0225 YYZZ=           -293.7970
 XXYZ=            -21.7420 YYXZ=             54.9067 ZZXY=             -5.5633
 N-N= 8.394138582610D+02 E-N=-3.782816605835D+03  KE= 8.929774160337D+02
                          Isotropic Fermi Contact Couplings
        Atom                 a.u.       MegaHertz       Gauss      10(-4) cm-1
     1  C(13)              0.03416      38.40605      13.70423      12.81088
     2  S(33)              0.03530      12.12310       4.32582       4.04383
     3  C(13)              0.06394      71.87730      25.64761      23.97569
     4  C(13)             -0.00317      -3.56716      -1.27285      -1.18988
     5  C(13)              0.00224       2.51816       0.89854       0.83997
     6  C(13)              0.00023       0.26228       0.09359       0.08749
     7  C(13)             -0.00116      -1.30647      -0.46618      -0.43579
     8  C(13)              0.00416       4.68183       1.67059       1.56169
     9  C(13)             -0.00101      -1.13389      -0.40460      -0.37822
    10  C(13)              0.00151       1.69799       0.60588       0.56639
    11  C(13)             -0.00109      -1.22374      -0.43666      -0.40819
    12  C(13)             -0.00259      -2.90630      -1.03704      -0.96944
    13  C(13)              0.00107       1.20498       0.42997       0.40194
    14  C(13)             -0.00135      -1.52000      -0.54237      -0.50702
    15  H(1)               0.00020       0.88451       0.31561       0.29504
    16  H(1)               0.00030       1.34601       0.48029       0.44898
    17  H(1)              -0.00003      -0.12255      -0.04373      -0.04088
    18  H(1)               0.00018       0.80359       0.28674       0.26805
    19  H(1)              -0.00012      -0.53899      -0.19233      -0.17979
    20  H(1)               0.00005       0.23626       0.08430       0.07881
    21  H(1)               0.00022       0.96872       0.34566       0.32313
    22  H(1)               0.00027       1.20704       0.43070       0.40263
    23  H(1)              -0.00077      -3.42080      -1.22063      -1.14106
 --------------------------------------------------------
       Center         ----  Spin Dipole Couplings  ----
                      3XX-RR        3YY-RR        3ZZ-RR
 --------------------------------------------------------
     1   Atom        0.282396      0.124862     -0.407258
     2   Atom       -0.066895     -0.090687      0.157581
     3   Atom        0.010039      0.027829     -0.037869
     4   Atom       -0.001230      0.006968     -0.005738
     5   Atom       -0.000046      0.005653     -0.005607
     6   Atom       -0.000778      0.000809     -0.000032
     7   Atom        0.004173      0.003066     -0.007238
     8   Atom        0.007943     -0.005137     -0.002807
     9   Atom        0.002437      0.000467     -0.002904
    10   Atom       -0.001367     -0.002455      0.003822
    11   Atom        0.002251      0.001598     -0.003849
    12   Atom       -0.000748      0.012339     -0.011591
    13   Atom       -0.015915     -0.015984      0.031899
    14   Atom        0.019411      0.001018     -0.020429
    15   Atom       -0.003378      0.004682     -0.001304
    16   Atom       -0.000728      0.001610     -0.000883
    17   Atom       -0.000094      0.000558     -0.000464
    18   Atom        0.000095      0.000527     -0.000622
    19   Atom        0.001537     -0.001019     -0.000518
    20   Atom        0.000086      0.000311     -0.000398
    21   Atom        0.000854     -0.000602     -0.000252
    22   Atom        0.001120      0.000155     -0.001275
    23   Atom        0.000731     -0.000490     -0.000241
 --------------------------------------------------------
                        XY            XZ            YZ
 --------------------------------------------------------
     1   Atom        0.733562      0.386959      0.340719
     2   Atom        0.087033     -0.016516      0.029935
     3   Atom        0.075085     -0.022488     -0.027805
     4   Atom       -0.001785     -0.007507      0.000654
     5   Atom        0.002129      0.000357      0.001094
     6   Atom        0.001283      0.000202     -0.000757
     7   Atom        0.001643      0.000929     -0.003715
     8   Atom        0.004718     -0.006017     -0.001492
     9   Atom        0.000648      0.001049     -0.002920
    10   Atom        0.002112      0.004640      0.004496
    11   Atom       -0.000299      0.003297      0.001456
    12   Atom       -0.002900     -0.000961      0.007530
    13   Atom       -0.000030      0.008939      0.007695
    14   Atom        0.002817     -0.003167      0.012534
    15   Atom       -0.000652      0.000075     -0.004555
    16   Atom        0.000589     -0.000042     -0.000748
    17   Atom        0.000820     -0.000176     -0.000234
    18   Atom        0.000399     -0.000209     -0.000314
    19   Atom        0.000538      0.000311      0.000422
    20   Atom        0.000720     -0.000113     -0.000311
    21   Atom       -0.000005      0.000188      0.000234
    22   Atom        0.000097     -0.001239      0.000146
    23   Atom        0.000558     -0.001772     -0.000540
 --------------------------------------------------------


 ---------------------------------------------------------------------------------
              Anisotropic Spin Dipole Couplings in Principal Axis System
 ---------------------------------------------------------------------------------

       Atom             a.u.   MegaHertz   Gauss  10(-4) cm-1        Axes

              Baa    -0.5823   -78.133   -27.880   -26.062 -0.3046 -0.1382  0.9424
     1 C(13)  Bbb    -0.5337   -71.612   -25.553   -23.887 -0.6402  0.7623 -0.0951
              Bcc     1.1159   149.745    53.433    49.950  0.7053  0.6323  0.3206
 
              Baa    -0.1700    -6.972    -2.488    -2.325 -0.6510  0.7523 -0.1016
     2 S(33)  Bbb     0.0087     0.357     0.127     0.119  0.7585  0.6501 -0.0466
              Bcc     0.1613     6.614     2.360     2.206 -0.0310  0.1073  0.9937
 
              Baa    -0.0569    -7.640    -2.726    -2.548  0.7141 -0.6830 -0.1538
     3 C(13)  Bbb    -0.0466    -6.258    -2.233    -2.087  0.2790  0.0761  0.9573
              Bcc     0.1036    13.898     4.959     4.636  0.6421  0.7265 -0.2449
 
              Baa    -0.0113    -1.522    -0.543    -0.508  0.5994  0.0299  0.7999
     4 C(13)  Bbb     0.0034     0.459     0.164     0.153  0.7044  0.4550 -0.5448
              Bcc     0.0079     1.062     0.379     0.354 -0.3803  0.8900  0.2517
 
              Baa    -0.0057    -0.767    -0.274    -0.256 -0.0287 -0.0904  0.9955
     5 C(13)  Bbb    -0.0008    -0.101    -0.036    -0.034  0.9490 -0.3152 -0.0013
              Bcc     0.0065     0.868     0.310     0.290  0.3139  0.9447  0.0949
 
              Baa    -0.0017    -0.226    -0.081    -0.075  0.7947 -0.5092 -0.3305
     6 C(13)  Bbb    -0.0000    -0.004    -0.002    -0.001  0.4454  0.1191  0.8874
              Bcc     0.0017     0.230     0.082     0.077  0.4125  0.8524 -0.3214
 
              Baa    -0.0086    -1.153    -0.411    -0.385 -0.1093  0.3158  0.9425
     7 C(13)  Bbb     0.0030     0.406     0.145     0.135  0.6942 -0.6544  0.2998
              Bcc     0.0056     0.747     0.267     0.249  0.7115  0.6870 -0.1477
 
              Baa    -0.0068    -0.909    -0.324    -0.303 -0.3884  0.8851 -0.2562
     8 C(13)  Bbb    -0.0053    -0.707    -0.252    -0.236  0.2699  0.3751  0.8868
              Bcc     0.0120     1.616     0.577     0.539  0.8810  0.2753 -0.3846
 
              Baa    -0.0048    -0.644    -0.230    -0.215 -0.1679  0.4937  0.8533
     9 C(13)  Bbb     0.0022     0.289     0.103     0.096 -0.0708  0.8573 -0.5099
              Bcc     0.0026     0.356     0.127     0.119  0.9833  0.1460  0.1090
 
              Baa    -0.0049    -0.653    -0.233    -0.218  0.2300  0.8087 -0.5415
    10 C(13)  Bbb    -0.0039    -0.519    -0.185    -0.173  0.8628 -0.4269 -0.2710
              Bcc     0.0087     1.172     0.418     0.391  0.4502  0.4048  0.7959
 
              Baa    -0.0056    -0.749    -0.267    -0.250 -0.3865 -0.1987  0.9006
    11 C(13)  Bbb     0.0018     0.247     0.088     0.082 -0.2271  0.9669  0.1159
              Bcc     0.0037     0.502     0.179     0.168  0.8939  0.1598  0.4188
 
              Baa    -0.0138    -1.847    -0.659    -0.616  0.0094 -0.2762  0.9611
    12 C(13)  Bbb    -0.0013    -0.179    -0.064    -0.060  0.9819  0.1844  0.0433
              Bcc     0.0151     2.026     0.723     0.676 -0.1892  0.9433  0.2729
 
              Baa    -0.0187    -2.512    -0.896    -0.838  0.7292  0.6455 -0.2269
    13 C(13)  Bbb    -0.0159    -2.137    -0.763    -0.713 -0.6623  0.7493  0.0032
              Bcc     0.0346     4.649     1.659     1.551  0.1721  0.1479  0.9739
 
              Baa    -0.0266    -3.564    -1.272    -1.189  0.0880 -0.4196  0.9034
    14 C(13)  Bbb     0.0067     0.896     0.320     0.299 -0.0928  0.8995  0.4268
              Bcc     0.0199     2.668     0.952     0.890  0.9918  0.1214 -0.0402
 
              Baa    -0.0039    -2.074    -0.740    -0.692  0.4565  0.4445  0.7708
    15 H(1)   Bbb    -0.0033    -1.755    -0.626    -0.585  0.8879 -0.1714 -0.4270
              Bcc     0.0072     3.828     1.366     1.277 -0.0576  0.8792 -0.4729
 
              Baa    -0.0011    -0.606    -0.216    -0.202 -0.3664  0.3169  0.8748
    16 H(1)   Bbb    -0.0008    -0.431    -0.154    -0.144  0.9060 -0.0928  0.4131
              Bcc     0.0019     1.037     0.370     0.346  0.2121  0.9439 -0.2531
 
              Baa    -0.0007    -0.348    -0.124    -0.116  0.8325 -0.5445  0.1020
    17 H(1)   Bbb    -0.0005    -0.275    -0.098    -0.092  0.0131  0.2034  0.9790
              Bcc     0.0012     0.623     0.222     0.208  0.5538  0.8137 -0.1765
 
              Baa    -0.0007    -0.383    -0.137    -0.128  0.1533  0.1955  0.9686
    18 H(1)   Bbb    -0.0001    -0.076    -0.027    -0.025  0.8522 -0.5224 -0.0294
              Bcc     0.0009     0.459     0.164     0.153  0.5002  0.8300 -0.2467
 
              Baa    -0.0013    -0.692    -0.247    -0.231 -0.1219  0.8927 -0.4338
    19 H(1)   Bbb    -0.0004    -0.222    -0.079    -0.074 -0.2496  0.3954  0.8839
              Bcc     0.0017     0.915     0.326     0.305  0.9606  0.2160  0.1747
 
              Baa    -0.0006    -0.329    -0.117    -0.110 -0.5283  0.6087  0.5920
    20 H(1)   Bbb    -0.0004    -0.203    -0.073    -0.068  0.5781 -0.2528  0.7758
              Bcc     0.0010     0.532     0.190     0.177  0.6219  0.7521 -0.2183
 
              Baa    -0.0007    -0.386    -0.138    -0.129  0.0576  0.8851 -0.4618
    21 H(1)   Bbb    -0.0002    -0.086    -0.031    -0.029 -0.1590  0.4648  0.8710
              Bcc     0.0009     0.472     0.169     0.158  0.9856  0.0232  0.1676
 
              Baa    -0.0018    -0.969    -0.346    -0.323  0.3897 -0.0871  0.9168
    22 H(1)   Bbb     0.0002     0.090     0.032     0.030  0.0137  0.9960  0.0888
              Bcc     0.0016     0.878     0.313     0.293  0.9208  0.0220 -0.3893
 
              Baa    -0.0016    -0.854    -0.305    -0.285  0.5875  0.0957  0.8035
    23 H(1)   Bbb    -0.0007    -0.371    -0.132    -0.124 -0.2709  0.9590  0.0838
              Bcc     0.0023     1.225     0.437     0.409  0.7625  0.2669 -0.5893
 

 ---------------------------------------------------------------------------------

 PrsmSu:  requested number of processors reduced to:  13 ShMem   1 Linda.
 Calling FoFJK, ICntrl=      2127 FMM=F ISym2X=0 I1Cent= 0 IOpClX= 1 NMat=1 NMatS=1 NMatT=0.
 ***** Axes restored to original set *****
 -------------------------------------------------------------------
 Center     Atomic                   Forces (Hartrees/Bohr)
 Number     Number              X              Y              Z
 -------------------------------------------------------------------
      1        6           0.052269083   -0.007355321   -0.005395613
      2       16          -0.057394447   -0.007693824    0.008867987
      3        6           0.041278489   -0.018764332    0.022498908
      4        6           0.007497487    0.006527893    0.013426329
      5        6          -0.008482492    0.007208173   -0.025469197
      6        6           0.015076210   -0.015000168    0.027488595
      7        6           0.011099411    0.013369688    0.023698146
      8        6          -0.034266877    0.019557614    0.024111424
      9        6           0.011106603   -0.025612257    0.003964358
     10        6          -0.033956587    0.009897432    0.005285393
     11        6          -0.036978399   -0.009121060    0.108508687
     12        6           0.058975923    0.026535568   -0.207679277
     13        6          -0.029858646    0.062514815   -0.009225653
     14        6          -0.006145271   -0.013846268   -0.031604157
     15        1          -0.007192906   -0.028521881   -0.005139033
     16        1          -0.005244459   -0.003912532   -0.013266993
     17        1           0.003728751    0.011418887   -0.005578730
     18        1          -0.003987015   -0.001020650    0.023894902
     19        1          -0.012798527    0.039135459    0.016392981
     20        1          -0.017888675   -0.029636455   -0.014167074
     21        1           0.009924727    0.020658032    0.039694816
     22        1           0.020605101   -0.028834196    0.013042785
     23        1           0.022632515   -0.027504619   -0.013349583
 -------------------------------------------------------------------
 Cartesian Forces:  Max     0.207679277 RMS     0.036714006

 GradGradGradGradGradGradGradGradGradGradGradGradGradGradGradGradGradGrad
 Berny optimization.
 FormGI is forming the generalized inverse of G from B-inverse, IUseBI=4.
 Internal  Forces:  Max     0.180500833 RMS     0.032456047
 Search for a local minimum.
 Step number   1 out of a maximum of  114
 All quantities printed in internal units (Hartrees-Bohrs-Radians)
 Mixed Optimization -- RFO/linear search
 Second derivative matrix not updated -- first step.
 ITU=  0
     Eigenvalues ---    0.00230   0.00264   0.00707   0.01028   0.01075
     Eigenvalues ---    0.01249   0.01312   0.01427   0.01675   0.01885
     Eigenvalues ---    0.02095   0.02244   0.02493   0.02507   0.02530
     Eigenvalues ---    0.02627   0.02707   0.02955   0.03229   0.11918
     Eigenvalues ---    0.13687   0.13964   0.15599   0.15842   0.15949
     Eigenvalues ---    0.15984   0.15999   0.16000   0.16000   0.17571
     Eigenvalues ---    0.20702   0.21696   0.21904   0.22052   0.22436
     Eigenvalues ---    0.22919   0.23146   0.23291   0.24134   0.24217
     Eigenvalues ---    0.24455   0.24985   0.25000   0.25205   0.25494
     Eigenvalues ---    0.28270   0.29338   0.30340   0.31484   0.34083
     Eigenvalues ---    0.34360   0.35102   0.36081   0.36528   0.37127
     Eigenvalues ---    0.38003   0.43293   0.44326   0.45896   0.51078
     Eigenvalues ---    0.57669   0.58173   0.67502
 RFO step:  Lambda=-2.28984617D-01 EMin= 2.30000000D-03
 Linear search not attempted -- first point.
 Maximum step size (   0.300) exceeded in Quadratic search.
    -- Step size scaled by   0.513
 Iteration  1 RMS(Cart)=  0.15968302 RMS(Int)=  0.00570676
 Iteration  2 RMS(Cart)=  0.01388433 RMS(Int)=  0.00038078
 Iteration  3 RMS(Cart)=  0.00006372 RMS(Int)=  0.00037813
 Iteration  4 RMS(Cart)=  0.00000003 RMS(Int)=  0.00037813
 Variable       Old X    -DE/DX   Delta X   Delta X   Delta X     New X
                                 (Linear)    (Quad)   (Total)
    R1        3.42390  -0.05303   0.00000  -0.05658  -0.05658   3.36732
    R2        3.41670  -0.00290   0.00000  -0.00307  -0.00307   3.41362
    R3        2.65445  -0.03300   0.00000  -0.02620  -0.02636   2.62809
    R4        3.32894  -0.08660   0.00000  -0.11779  -0.11778   3.21116
    R5        2.76056  -0.00720   0.00000  -0.00695  -0.00712   2.75343
    R6        2.11799  -0.02038   0.00000  -0.01924  -0.01924   2.09875
    R7        2.51366   0.04336   0.00000   0.02734   0.02730   2.54096
    R8        2.07191  -0.00690   0.00000  -0.00621  -0.00621   2.06569
    R9        2.63524   0.01798   0.00000   0.01433   0.01448   2.64972
   R10        2.05510   0.00049   0.00000   0.00043   0.00043   2.05553
   R11        2.51592   0.04475   0.00000   0.02880   0.02902   2.54493
   R12        2.01061   0.02087   0.00000   0.01759   0.01759   2.02820
   R13        2.75656  -0.01776   0.00000  -0.01518  -0.01518   2.74137
   R14        2.64795   0.02600   0.00000   0.02017   0.02020   2.66815
   R15        2.58793  -0.03093   0.00000  -0.02146  -0.02146   2.56647
   R16        2.13990  -0.02989   0.00000  -0.02882  -0.02882   2.11108
   R17        3.01243   0.02040   0.00000   0.02222   0.02222   3.03465
   R18        2.16004  -0.03343   0.00000  -0.03285  -0.03285   2.12719
   R19        2.43288   0.18050   0.00000   0.10173   0.10234   2.53521
   R20        2.18253  -0.02899   0.00000  -0.02908  -0.02908   2.15344
   R21        2.29539  -0.00771   0.00000  -0.00365  -0.00320   2.29219
   R22        2.38412   0.05169   0.00000   0.04962   0.04856   2.43269
   R23        2.76564  -0.03313   0.00000  -0.02861  -0.02861   2.73702
   R24        2.06727   0.00322   0.00000   0.00289   0.00289   2.07016
    A1        1.79904   0.00645   0.00000   0.00691   0.00691   1.80596
    A2        1.92614   0.02200   0.00000   0.02603   0.02611   1.95225
    A3        2.17114  -0.02414   0.00000  -0.02408  -0.02409   2.14705
    A4        2.15780   0.00277   0.00000  -0.00092  -0.00094   2.15685
    A5        2.30912   0.00991   0.00000   0.00770   0.00742   2.31654
[...]
     Eigenvalues ---    0.01620   0.01805   0.01950   0.02081   0.02169
     Eigenvalues ---    0.02446   0.02614   0.02754   0.02817   0.03489
     Eigenvalues ---    0.03897   0.05307   0.06743   0.07191   0.10277
     Eigenvalues ---    0.14154   0.15013   0.15836   0.15933   0.15972
     Eigenvalues ---    0.16003   0.16362   0.17400   0.18254   0.20839
     Eigenvalues ---    0.21771   0.22145   0.22347   0.23329   0.23621
     Eigenvalues ---    0.24697   0.25058   0.25144   0.25518   0.26491
     Eigenvalues ---    0.28178   0.29409   0.30305   0.30775   0.31545
     Eigenvalues ---    0.34076   0.34342   0.35096   0.35180   0.37262
     Eigenvalues ---    0.38057   0.40802   0.41679   0.45124   0.45335
     Eigenvalues ---    0.47067   0.48573   0.53573   0.57876   0.58176
     Eigenvalues ---    1.71560   4.45598  74.92967
 RFO step:  Lambda=-9.93827591D-03 EMin= 2.37401049D-03
 Quartic linear search produced a step of  1.09962.
 Iteration  1 RMS(Cart)=  0.08872068 RMS(Int)=  0.02020097
 Iteration  2 RMS(Cart)=  0.02015583 RMS(Int)=  0.00251331
 Iteration  3 RMS(Cart)=  0.00058428 RMS(Int)=  0.00245077
 Iteration  4 RMS(Cart)=  0.00000389 RMS(Int)=  0.00245077
 Iteration  5 RMS(Cart)=  0.00000007 RMS(Int)=  0.00245077
 Variable       Old X    -DE/DX   Delta X   Delta X   Delta X     New X
                                 (Linear)    (Quad)   (Total)
    R1        3.06323  -0.00051  -0.00904  -0.00080  -0.00984   3.05338
    R2        3.61039   0.00463   0.03472   0.03283   0.06755   3.67795
    R3        2.59842   0.00009  -0.00326   0.00403   0.00095   2.59937
    R4        2.66020   0.00280  -0.00040  -0.00866  -0.00892   2.65128
    R5        2.68237   0.00499   0.00852   0.00688   0.01549   2.69786
    R6        2.05012   0.00046  -0.00097   0.00480   0.00383   2.05395
    R7        2.58587   0.00115  -0.00328  -0.01012  -0.01350   2.57237
    R8        2.05335   0.00020   0.00044   0.00207   0.00251   2.05586
    R9        2.68462   0.00435   0.01421   0.00672   0.02071   2.70533
   R10        2.05364   0.00004  -0.00011  -0.00025  -0.00036   2.05328
   R11        2.57927  -0.00229  -0.00662  -0.00832  -0.01508   2.56418
   R12        2.05695  -0.00035   0.00033  -0.00627  -0.00594   2.05101
   R13        2.81090  -0.01544   0.01245  -0.01679  -0.00434   2.80656
   R14        2.79017  -0.01751  -0.01242  -0.02946  -0.04182   2.74836
   R15        2.57027  -0.01024   0.00153   0.01393   0.01546   2.58573
   R16        2.05842   0.00147   0.00121   0.01161   0.01282   2.07124
   R17        2.86909  -0.00599   0.03281  -0.04036  -0.00755   2.86154
   R18        2.05662   0.00073  -0.00088   0.01077   0.00989   2.06651
   R19        2.78183   0.00796   0.00492  -0.02660  -0.01379   2.76805
   R20        2.06759   0.00039   0.00035   0.00387   0.00422   2.07181
   R21        2.04980  -0.00333   0.00807  -0.00290   0.01218   2.06198
   R22        3.73177   0.02031   0.21139   0.16204   0.36456   4.09633
   R23        2.77313   0.01046   0.03257   0.00975   0.04232   2.81545
   R24        2.06367  -0.00163   0.00094  -0.00480  -0.00386   2.05981
    A1        1.84245  -0.00217  -0.01279  -0.01200  -0.02480   1.81765
    A2        1.94357   0.00058  -0.00508  -0.00191  -0.00762   1.93595
    A3        2.05458   0.00355  -0.00166  -0.00406  -0.00634   2.04824
    A4        2.28503  -0.00414   0.00687   0.00577   0.01169   2.29671
    A5        2.23341  -0.00170  -0.01369  -0.01557  -0.02946   2.20394
    A6        2.02827   0.00125   0.01109   0.01280   0.02398   2.05225
    A7        2.02063   0.00049   0.00274   0.00300   0.00582   2.02645
    A8        2.22187   0.00174   0.00019  -0.00311  -0.00363   2.21824
    A9        2.01596  -0.00077  -0.00075   0.00462   0.00418   2.02015
   A10        2.04290  -0.00094  -0.00004  -0.00101  -0.00070   2.04220
   A11        2.22237   0.00035   0.00050   0.00775   0.00714   2.22951
   A12        2.03161   0.00060   0.00429   0.00332   0.00804   2.03964
   A13        2.02270  -0.00076  -0.00437  -0.00914  -0.01304   2.00967
   A14        2.25327  -0.00778  -0.00147  -0.00435  -0.00732   2.24596
   A15        2.02248   0.00344  -0.00052   0.00050   0.00022   2.02271
   A16        2.00568   0.00442   0.00317   0.00525   0.00868   2.01436
   A17        2.17424   0.02722  -0.01086   0.02288   0.01216   2.18640
   A18        2.22306   0.00913   0.00329   0.00014   0.00228   2.22534
   A19        1.86874  -0.03701   0.01538  -0.02662  -0.01110   1.85764
   A20        2.00206  -0.02230   0.01517  -0.00109   0.01378   2.01584
   A21        1.96173   0.00701  -0.00064   0.01349   0.01253   1.97426
   A22        2.02590   0.00205  -0.00131   0.00452   0.00280   2.02870
   A23        2.07519  -0.02438   0.00824   0.01541   0.02343   2.09862
   A24        2.05366   0.01198  -0.00884   0.03733   0.02844   2.08210
   A25        2.00295   0.00692  -0.01783  -0.02292  -0.04113   1.96182
   A26        1.78153  -0.01305  -0.05493  -0.04402  -0.11028   1.67125
   A27        2.10637  -0.00079  -0.01549  -0.02361  -0.04551   2.06086
   A28        1.91231   0.00048  -0.01825  -0.01560  -0.03893   1.87338
   A29        2.03688   0.00199  -0.01035  -0.01681  -0.03973   1.99715
   A30        1.84747   0.00319   0.00220   0.00454   0.00319   1.85066
   A31        1.95892   0.00697   0.00728  -0.01991  -0.01263   1.94630
   A32        2.07144   0.00381   0.00854   0.01370   0.02179   2.09323
   A33        2.07260   0.02441   0.00899   0.00228   0.01128   2.08388
   A34        2.13659  -0.02815  -0.01815  -0.01328  -0.03144   2.10516
    D1       -1.01062   0.00431   0.11093   0.15606   0.26660  -0.74402
    D2        2.12588   0.00191   0.08783   0.11931   0.20752   2.33340
    D3       -3.11509  -0.00177  -0.00636  -0.01461  -0.02120  -3.13629
    D4       -0.02075  -0.00061  -0.00254  -0.00836  -0.01088  -0.03163
    D5        0.03247   0.00102   0.02057   0.02849   0.04906   0.08153
    D6        3.12681   0.00217   0.02440   0.03474   0.05939  -3.09699
    D7       -2.60407   0.00032   0.02276   0.02849   0.05101  -2.55306
    D8        0.46271   0.00010   0.01239   0.06737   0.08008   0.54278
    D9        0.53126  -0.00262  -0.00556  -0.01685  -0.02290   0.50836
   D10       -2.68516  -0.00284  -0.01592   0.02203   0.00617  -2.67898
   D11       -0.27142   0.00026  -0.03986  -0.02844  -0.06805  -0.33947
   D12        2.94815  -0.00020  -0.02969  -0.03640  -0.06575   2.88240
   D13        2.91726  -0.00091  -0.04388  -0.03490  -0.07868   2.83857
   D14       -0.14637  -0.00137  -0.03371  -0.04285  -0.07637  -0.22274
   D15       -0.06169   0.00134   0.01722   0.01433   0.03200  -0.02969
   D16       -3.07512  -0.00050   0.01343  -0.00395   0.00973  -3.06540
   D17        3.00089   0.00181   0.00689   0.02261   0.02985   3.03074
   D18       -0.01255  -0.00002   0.00310   0.00433   0.00758  -0.00497
   D19        0.22096  -0.00066   0.04238   0.01481   0.05742   0.27837
   D20       -2.85319  -0.00243   0.02231  -0.01225   0.01031  -2.84289
   D21       -3.04823   0.00125   0.04672   0.03379   0.08067  -2.96756
   D22        0.16080  -0.00051   0.02664   0.00673   0.03356   0.19437
   D23       -3.12649  -0.00854  -0.02056  -0.05605  -0.07664   3.08006
   D24        0.23910  -0.00002  -0.06864  -0.02973  -0.09827   0.14083
   D25       -0.05180  -0.00682  -0.00079  -0.02935  -0.02999  -0.08178
   D26       -2.96939   0.00171  -0.04887  -0.00304  -0.05162  -3.02101
   D27       -1.54498  -0.01299  -0.03638  -0.02829  -0.06443  -1.60941
   D28        2.37364  -0.00010  -0.04948  -0.04854  -0.09801   2.27563
   D29        1.41088  -0.01657   0.00274  -0.04844  -0.04571   1.36517
   D30       -0.95368  -0.00369  -0.01037  -0.06869  -0.07930  -1.03298
   D31       -0.69225  -0.00060   0.03679   0.02161   0.05850  -0.63375
   D32        2.52706  -0.00281   0.04643  -0.01953   0.02710   2.55415
   D33        2.64186   0.00082  -0.00145   0.03946   0.03791   2.67977
   D34       -0.42202  -0.00139   0.00818  -0.00168   0.00651  -0.41551
   D35       -1.83326   0.01221   0.02104  -0.11202  -0.09127  -1.92453
   D36        0.71586   0.00503  -0.01838  -0.06701  -0.08512   0.63074
   D37        0.50204   0.00052   0.03536  -0.08706  -0.05197   0.45007
   D38        3.05116  -0.00666  -0.00406  -0.04206  -0.04582   3.00534
   D39        0.88797  -0.00664   0.00629   0.04053   0.04666   0.93463
   D40       -1.40540   0.00397   0.09411   0.12655   0.21669  -1.18871
   D41        2.72698  -0.00037   0.12178   0.15402   0.27943   3.00641
   D42       -1.67766  -0.00172   0.04211  -0.02247   0.01982  -1.65784
   D43        2.31215   0.00888   0.12993   0.06355   0.18984   2.50199
   D44        0.16135   0.00455   0.15760   0.09102   0.25258   0.41394
   D45       -0.05540   0.00244   0.02378   0.01162   0.03555  -0.01985
   D46        3.00843   0.00376   0.01413   0.05327   0.06724   3.07567
         Item               Value     Threshold  Converged?
 Maximum Force            0.037009     0.000450     NO 
 RMS     Force            0.008619     0.000300     NO 
 Maximum Displacement     0.436817     0.001800     NO 
 RMS     Displacement     0.099232     0.001200     NO 
 Predicted change in Energy=-1.296576D-02
 GradGradGradGradGradGradGradGradGradGradGradGradGradGradGradGradGradGrad

                          Input orientation:                          
 ---------------------------------------------------------------------
 Center     Atomic      Atomic             Coordinates (Angstroms)
 Number     Number       Type             X           Y           Z
 ---------------------------------------------------------------------
      1          6           0        1.515158   -0.004051    0.194938
      2         16           0        2.690928   -1.104085    0.329998
      3          6           0        3.502616   -0.722974    2.057408
      4          6           0        3.654330    0.631828    2.240640
      5          6           0        4.218370    1.271453    3.385591
      6          6           0        4.372065    0.741203    4.629852
      7          6           0        3.976704   -0.557669    5.083824
      8          6           0        3.639151   -1.646779    4.348233
      9          6           0        3.309995   -2.985832    4.899875
     10          6           0        4.361872   -3.854685    5.004342
     11          6           0        4.443667   -5.065621    4.098839
     12          6           0        4.306496   -4.320950    2.844945
     13          6           0        4.068403   -3.142104    2.318029
     14          6           0        3.750355   -1.811276    2.907483
     15          1           0        3.348199    1.286875    1.429122
     16          1           0        4.487497    2.317769    3.257737
     17          1           0        4.756925    1.402551    5.401277
     18          1           0        3.922068   -0.687284    6.160020
     19          1           0        2.377911   -3.399501    4.498094
     20          1           0        5.348808   -3.469887    5.275887
     21          1           0        3.704021   -5.863229    4.235723
     22          1           0        5.418741   -5.527696    4.261111
     23          1           0        4.050601   -3.111348    1.228602
 ---------------------------------------------------------------------
                    Distance matrix (angstroms):
                    1          2          3          4          5
     1  C    0.000000
     2  S    1.615781   0.000000
     3  C    2.817026   1.946285   0.000000
     4  C    3.027424   2.755374   1.375528   0.000000
     5  C    4.372018   4.160878   2.500823   1.427647   0.000000
     6  C    5.327832   4.971927   3.085000   2.497087   1.361239
     7  C    5.501537   4.954861   3.067781   3.098793   2.507606
     8  C    4.945681   4.164115   2.473851   3.103905   3.127020
     9  C    5.852255   4.980762   3.638303   4.503060   4.608978
    10  C    6.786865   5.675152   4.385243   5.316715   5.377568
    11  C    7.031081   5.741954   4.889950   6.044574   6.381065
    12  C    5.783574   4.391269   3.769864   5.031949   5.619167
    13  C    4.568802   3.162788   2.498045   3.797368   4.543310
    14  C    3.952224   2.875054   1.402998   2.534296   3.154496
    15  H    2.559247   2.712336   2.111417   1.086906   2.141310
    16  H    4.858641   4.848546   3.414220   2.138002   1.087912
    17  H    6.292341   6.022411   4.156032   3.435019   2.090506
    18  H    6.468557   5.973155   4.124153   4.144065   3.409091
    19  H    5.548926   4.768641   3.792850   4.793429   5.142253
    20  H    7.247409   6.092878   4.616553   5.376620   5.227945
    21  H    7.446411   6.239431   5.586399   6.794747   7.203539
    22  H    7.891919   6.516360   5.622562   6.718272   6.959587
    23  H    4.141525   2.585596   2.586801   3.897771   4.887709
                    6          7          8          9         10
     6  C    0.000000
     7  C    1.431598   0.000000
     8  C    2.513749   1.356907   0.000000
     9  C    3.884803   2.524739   1.485165   0.000000
    10  C    4.611132   3.320389   2.414053   1.368307   0.000000
    11  C    5.831493   4.637874   3.521069   2.500478   1.514263
    12  C    5.368015   4.391312   3.139492   2.645428   2.209856
    13  C    4.529549   3.786467   2.557730   2.695465   2.794669
    14  C    3.141374   2.521750   1.454367   2.354384   2.991035
    15  H    3.404516   4.141764   4.148757   5.504871   6.343924
    16  H    2.093224   3.444365   4.198394   5.675501   6.416043
    17  H    1.086551   2.133538   3.414196   4.647893   5.286979
    18  H    2.141141   1.085349   2.069600   2.691825   3.400213
    19  H    4.597766   3.312888   2.164537   1.096053   2.097518
    20  H    4.370888   3.224991   2.665931   2.128955   1.093548
    21  H    6.649823   5.379832   4.218450   2.979223   2.248954
    22  H    6.366365   5.239990   4.270369   3.363911   2.113843
    23  H    5.149174   4.624875   3.470785   3.747331   3.860784
                   11         12         13         14         15
    11  C    0.000000
    12  C    1.464787   0.000000
    13  C    2.648023   1.313014   0.000000
    14  C    3.534229   2.571316   1.489871   0.000000
    15  H    6.977224   5.862644   4.574353   3.456273   0.000000
    16  H    7.431274   6.654003   5.555980   4.208927   2.388425
    17  H    6.605431   6.284598   5.534832   4.190569   4.216148
    18  H    4.867275   4.933663   4.561628   3.445553   5.158296
    19  H    2.683786   2.702112   2.770686   2.633649   5.685260
    20  H    2.179700   2.778525   3.239723   3.303843   6.436367
    21  H    1.096354   2.162374   3.348857   4.264352   7.689448
    22  H    1.091153   2.167683   3.360064   4.292738   7.664573
    23  H    3.494560   2.034990   1.090006   2.144523   4.458469
                   16         17         18         19         20
    16  H    0.000000
    17  H    2.346269   0.000000
    18  H    4.215839   2.374886   0.000000
    19  H    6.219005   5.434625   3.535893   0.000000
    20  H    6.189648   4.909857   3.249639   3.071831   0.000000
    21  H    8.276414   7.433618   5.526380   2.810224   3.084697
    22  H    7.964000   7.054523   5.410681   3.719142   2.295483
    23  H    5.812365   6.187519   5.496498   3.683816   4.265490
                   21         22         23
    21  H    0.000000
    22  H    1.747424   0.000000
    23  H    4.090934   4.111771   0.000000
 Stoichiometry    C13H9S(2)
 Framework group  C1[X(C13H9S)]
 Deg. of freedom    63
 Full point group                 C1      NOp   1
 Largest Abelian subgroup         C1      NOp   1
 Largest concise Abelian subgroup C1      NOp   1
                         Standard orientation:                         
 ---------------------------------------------------------------------
 Center     Atomic      Atomic             Coordinates (Angstroms)
 Number     Number       Type             X           Y           Z
 ---------------------------------------------------------------------
      1          6           0       -3.355396   -1.560862    0.998256
      2         16           0       -2.135349   -1.873026   -0.014062
      3          6           0       -1.231013   -0.160909   -0.211192
      4          6           0       -2.140339    0.861677   -0.350907
      5          6           0       -1.835290    2.245710   -0.522871
      6          6           0       -0.663771    2.871463   -0.224628
      7          6           0        0.512386    2.298623    0.356734
      8          6           0        0.849399    0.989416    0.473334
      9          6           0        2.129608    0.479429    1.027131
     10          6           0        3.122040    0.260418    0.110955
     11          6           0        3.557461   -1.151904   -0.218816
     12          6           0        2.217780   -1.646225   -0.545163
     13          6           0        0.937959   -1.352902   -0.550230
     14          6           0        0.168330   -0.155536   -0.110116
     15          1           0       -3.194921    0.598967   -0.365244
     16          1           0       -2.656783    2.871781   -0.864539
     17          1           0       -0.636075    3.949804   -0.355042
     18          1           0        1.224245    3.002039    0.776787
     19          1           0        1.990408   -0.299000    1.786080
     20          1           0        3.221488    0.937169   -0.742254
     21          1           0        4.076116   -1.726559    0.557560
     22          1           0        4.248625   -1.090803   -1.060941
     23          1           0        0.277556   -2.145370   -0.902332
 ---------------------------------------------------------------------
 Rotational constants (GHZ):           0.9151733           0.5466728           0.3673365
 Standard basis: 6-31G(2df,p) (6D, 7F)
 There are   483 symmetry adapted cartesian basis functions of A   symmetry.
 There are   441 symmetry adapted basis functions of A   symmetry.
   441 basis functions,   703 primitive gaussians,   483 cartesian basis functions
    52 alpha electrons       51 beta electrons
       nuclear repulsion energy       865.5542971874 Hartrees.
 NAtoms=   23 NActive=   23 NUniq=   23 SFac= 1.00D+00 NAtFMM=   60 NAOKFM=F Big=F
 Integral buffers will be    131072 words long.
 Raffenetti 2 integral format.
 Two-electron integral symmetry is turned on.
 One-electron integrals computed using PRISM.
 PrsmSu:  requested number of processors reduced to:  12 ShMem   1 Linda.
 NBasis=   441 RedAO= T EigKep=  2.29D-04  NBF=   441
 NBsUse=   441 1.00D-06 EigRej= -1.00D+00 NBFU=   441
 Initial guess from the checkpoint file:  "[C]SC1dCCdCCdC2CdCCdCCdC21.chk"
 B after Tr=    -0.000000   -0.000000   -0.000000
         Rot=    0.999932    0.003059    0.003690   -0.010634 Ang=   1.34 deg.
 Initial guess <Sx>= 0.0000 <Sy>= 0.0000 <Sz>= 0.5000 <S**2>= 1.3991 S= 0.7842
 ExpMin= 1.17D-01 ExpMax= 2.19D+04 ExpMxC= 3.30D+03 IAcc=2 IRadAn=         4 AccDes= 0.00D+00
 Harris functional with IExCor=  402 and IRadAn=       4 diagonalized for initial guess.
 HarFok:  IExCor=  402 AccDes= 0.00D+00 IRadAn=         4 IDoV= 1 UseB2=F ITyADJ=14
 ICtDFT=  3500011 ScaDFX=  1.000000  1.000000  1.000000  1.000000
 FoFCou: FMM=F IPFlag=           0 FMFlag=      100000 FMFlg1=           0
         NFxFlg=           0 DoJE=T BraDBF=F KetDBF=T FulRan=T
         wScrn=  0.000000 ICntrl=       500 IOpCl=  0 I1Cent=   200000004 NGrid=           0
         NMat0=    1 NMatS0=      1 NMatT0=    0 NMatD0=    1 NMtDS0=    0 NMtDT0=    0
 Petite list used in FoFCou.
 Requested convergence on RMS density matrix=1.00D-08 within 128 cycles.
 Requested convergence on MAX density matrix=1.00D-06.
 Requested convergence on             energy=1.00D-06.
 No special actions if energy rises.
 Integral accuracy reduced to 1.0D-05 until final iterations.
slurmstepd: error: *** JOB 27447062 ON lewis4-r630-hpc4-node672 CANCELLED AT 2023-05-16T04:10:33 DUE TO TIME LIMIT ***
