### Starting Gaussian ###
 Entering Gaussian System, Link 0=g16
 Initial command:
 /cluster/software/gaussian/gaussian-16-A.03/avx2/g16/l1.exe "/local/scratch/linjian/Gau-8990.inp" -scrdir="/local/scratch/linjian/"
 Entering Link 1 = /cluster/software/gaussian/gaussian-16-A.03/avx2/g16/l1.exe PID=      9010.
  
 Copyright (c) 1988,1990,1992,1993,1995,1998,2003,2009,2016,
            Gaussian, Inc.  All Rights Reserved.
  
 This is part of the Gaussian(R) 16 program.  It is based on
 the Gaussian(R) 09 system (copyright 2009, Gaussian, Inc.),
 the Gaussian(R) 03 system (copyright 2003, Gaussian, Inc.),
 the Gaussian(R) 98 system (copyright 1998, Gaussian, Inc.),
 the Gaussian(R) 94 system (copyright 1995, Gaussian, Inc.),
 the Gaussian 92(TM) system (copyright 1992, Gaussian, Inc.),
 the Gaussian 90(TM) system (copyright 1990, Gaussian, Inc.),
 the Gaussian 88(TM) system (copyright 1988, Gaussian, Inc.),
 the Gaussian 86(TM) system (copyright 1986, Carnegie Mellon
 University), and the Gaussian 82(TM) system (copyright 1983,
 Carnegie Mellon University). Gaussian is a federally registered
 trademark of Gaussian, Inc.
  
 This software contains proprietary and confidential information,
 including trade secrets, belonging to Gaussian, Inc.
  
 This software is provided under written license and may be
 used, copied, transmitted, or stored only in accord with that
 written license.
  
 The following legend is applicable only to US Government
 contracts under FAR:
  
                    RESTRICTED RIGHTS LEGEND
  
 Use, reproduction and disclosure by the US Government is
 subject to restrictions as set forth in subparagraphs (a)
 and (c) of the Commercial Computer Software - Restricted
 Rights clause in FAR 52.227-19.
  
 Gaussian, Inc.
 340 Quinnipiac St., Bldg. 40, Wallingford CT 06492
  
  
 ---------------------------------------------------------------
 Warning -- This program may not be used in any manner that
 competes with the business of Gaussian, Inc. or will provide
 assistance to any competitor of Gaussian, Inc.  The licensee
 of this program is prohibited from giving any competitor of
 Gaussian, Inc. access to this program.  By using this program,
 the user acknowledges that Gaussian, Inc. is engaged in the
 business of creating and licensing software in the field of
 computational chemistry and represents and warrants to the
 licensee that it is not a competitor of Gaussian, Inc. and that
 it will not use this program in any manner prohibited above.
 ---------------------------------------------------------------
  

 Cite this work as:
 Gaussian 16, Revision A.03,
 M. J. Frisch, G. W. Trucks, H. B. Schlegel, G. E. Scuseria, 
 M. A. Robb, J. R. Cheeseman, G. Scalmani, V. Barone, 
 G. A. Petersson, H. Nakatsuji, X. Li, M. Caricato, A. V. Marenich, 
 J. Bloino, B. G. Janesko, R. Gomperts, B. Mennucci, H. P. Hratchian, 
 J. V. Ortiz, A. F. Izmaylov, J. L. Sonnenberg, D. Williams-Young, 
 F. Ding, F. Lipparini, F. Egidi, J. Goings, B. Peng, A. Petrone, 
 T. Henderson, D. Ranasinghe, V. G. Zakrzewski, J. Gao, N. Rega, 
 G. Zheng, W. Liang, M. Hada, M. Ehara, K. Toyota, R. Fukuda, 
 J. Hasegawa, M. Ishida, T. Nakajima, Y. Honda, O. Kitao, H. Nakai, 
 T. Vreven, K. Throssell, J. A. Montgomery, Jr., J. E. Peralta, 
 F. Ogliaro, M. J. Bearpark, J. J. Heyd, E. N. Brothers, K. N. Kudin, 
 V. N. Staroverov, T. A. Keith, R. Kobayashi, J. Normand, 
 K. Raghavachari, A. P. Rendell, J. C. Burant, S. S. Iyengar, 
 J. Tomasi, M. Cossi, J. M. Millam, M. Klene, C. Adamo, R. Cammi, 
 J. W. Ochterski, R. L. Martin, K. Morokuma, O. Farkas, 
 J. B. Foresman, and D. J. Fox, Gaussian, Inc., Wallingford CT, 2016.
 
 ******************************************
 Gaussian 16:  ES64L-G16RevA.03 25-Dec-2016
                16-May-2023 
 ******************************************
 %chk=[N][C]C1dCCdNCdCC1.chk
 %NProcShared=20
 Will use up to   20 processors via shared memory.
 -----------------------------
 # opt freq b3lyp/6-31g(2df,p)
 -----------------------------
 1/18=20,19=15,26=3,38=1/1,3;
 2/9=110,12=2,17=6,18=5,40=1/2;
 3/5=1,6=6,7=104,11=2,25=1,30=1,71=1,74=-5/1,2,3;
 4//1;
 5/5=2,38=5/2;
 6/7=2,8=2,9=2,10=2,28=1/1;
 7//1,2,3,16;
 1/18=20,19=15,26=3/3(2);
 2/9=110/2;
 99//99;
 2/9=110/2;
 3/5=1,6=6,7=104,11=2,25=1,30=1,71=1,74=-5/1,2,3;
 4/5=5,16=3,69=1/1;
 5/5=2,38=5/2;
 7//1,2,3,16;
 1/18=20,19=15,26=3/3(-5);
 2/9=110/2;
 6/7=2,8=2,9=2,10=2,19=2,28=1/1;
 99/9=1/99;
 -------------------
 Title Card Required
 -------------------
 Symbolic Z-matrix:
 Charge =  0 Multiplicity = 1
 N                     1.05601   0.69627  -0.06382 
 C                     2.14874  -0.19633   0.27826 
 C                     2.84633  -1.41311   0.54178 
 C                     3.83963  -1.44845   1.43811 
 C                     4.41927  -2.67665   2.02827 
 N                     4.16641  -3.93833   1.92019 
 C                     3.22436  -4.48081   1.11649 
 C                     2.38937  -3.93515   0.22867 
 C                     2.17909  -2.53872  -0.17872 
 H                     4.24038  -0.53247   1.86952 
 H                     5.21072  -2.44908   2.7655 
 H                     3.15936  -5.56487   1.20588 
 H                     1.72954  -4.61632  -0.30559 
 H                     1.09594  -2.37114  -0.0875 
 H                     2.4242   -2.45161  -1.24504 
 

 GradGradGradGradGradGradGradGradGradGradGradGradGradGradGradGradGradGrad
 Berny optimization.
 Initialization pass.
                           ----------------------------
                           !    Initial Parameters    !
                           ! (Angstroms and Degrees)  !
 --------------------------                            --------------------------
 ! Name  Definition              Value          Derivative Info.                !
 --------------------------------------------------------------------------------
 ! R1    R(1,2)                  1.4518         estimate D2E/DX2                !
 ! R2    R(2,3)                  1.4271         estimate D2E/DX2                !
 ! R3    R(3,4)                  1.3384         estimate D2E/DX2                !
 ! R4    R(3,9)                  1.4938         estimate D2E/DX2                !
 ! R5    R(4,5)                  1.4808         estimate D2E/DX2                !
 ! R6    R(4,10)                 1.0889         estimate D2E/DX2                !
 ! R7    R(5,6)                  1.2913         estimate D2E/DX2                !
 ! R8    R(5,11)                 1.1053         estimate D2E/DX2                !
 ! R9    R(6,7)                  1.3519         estimate D2E/DX2                !
 ! R10   R(7,8)                  1.3354         estimate D2E/DX2                !
 ! R11   R(7,12)                 1.0897         estimate D2E/DX2                !
 ! R12   R(8,9)                  1.4698         estimate D2E/DX2                !
 ! R13   R(8,13)                 1.0885         estimate D2E/DX2                !
 ! R14   R(9,14)                 1.0998         estimate D2E/DX2                !
 ! R15   R(9,15)                 1.0976         estimate D2E/DX2                !
 ! A1    A(1,2,3)              159.3282         estimate D2E/DX2                !
 ! A2    A(2,3,4)              120.5942         estimate D2E/DX2                !
 ! A3    A(2,3,9)              109.577          estimate D2E/DX2                !
 ! A4    A(4,3,9)              129.3931         estimate D2E/DX2                !
 ! A5    A(3,4,5)              125.4025         estimate D2E/DX2                !
 ! A6    A(3,4,10)             121.081          estimate D2E/DX2                !
 ! A7    A(5,4,10)             113.3122         estimate D2E/DX2                !
 ! A8    A(4,5,6)              134.4581         estimate D2E/DX2                !
 ! A9    A(4,5,11)             112.0458         estimate D2E/DX2                !
 ! A10   A(6,5,11)             113.4038         estimate D2E/DX2                !
 ! A11   A(5,6,7)              125.3291         estimate D2E/DX2                !
 ! A12   A(6,7,8)              131.8362         estimate D2E/DX2                !
 ! A13   A(6,7,12)             113.0788         estimate D2E/DX2                !
 ! A14   A(8,7,12)             115.0721         estimate D2E/DX2                !
 ! A15   A(7,8,9)              131.4513         estimate D2E/DX2                !
 ! A16   A(7,8,13)             116.722          estimate D2E/DX2                !
 ! A17   A(9,8,13)             111.8264         estimate D2E/DX2                !
 ! A18   A(3,9,8)              121.221          estimate D2E/DX2                !
 ! A19   A(3,9,14)             106.5642         estimate D2E/DX2                !
 ! A20   A(3,9,15)             108.0014         estimate D2E/DX2                !
 ! A21   A(8,9,14)             105.2291         estimate D2E/DX2                !
 ! A22   A(8,9,15)             108.2244         estimate D2E/DX2                !
 ! A23   A(14,9,15)            106.7631         estimate D2E/DX2                !
 ! D1    D(1,2,3,4)           -147.5524         estimate D2E/DX2                !
 ! D2    D(1,2,3,9)             25.5568         estimate D2E/DX2                !
 ! D3    D(2,3,4,5)            164.8563         estimate D2E/DX2                !
 ! D4    D(2,3,4,10)            -9.5935         estimate D2E/DX2                !
 ! D5    D(9,3,4,5)             -6.7327         estimate D2E/DX2                !
 ! D6    D(9,3,4,10)           178.8176         estimate D2E/DX2                !
 ! D7    D(2,3,9,8)           -160.077          estimate D2E/DX2                !
 ! D8    D(2,3,9,14)           -40.0278         estimate D2E/DX2                !
 ! D9    D(2,3,9,15)            74.3681         estimate D2E/DX2                !
 ! D10   D(4,3,9,8)             12.2432         estimate D2E/DX2                !
 ! D11   D(4,3,9,14)           132.2924         estimate D2E/DX2                !
 ! D12   D(4,3,9,15)          -113.3117         estimate D2E/DX2                !
 ! D13   D(3,4,5,6)             -2.2846         estimate D2E/DX2                !
 ! D14   D(3,4,5,11)          -178.4527         estimate D2E/DX2                !
 ! D15   D(10,4,5,6)           172.5405         estimate D2E/DX2                !
 ! D16   D(10,4,5,11)           -3.6277         estimate D2E/DX2                !
 ! D17   D(4,5,6,7)              2.2018         estimate D2E/DX2                !
 ! D18   D(11,5,6,7)           178.3317         estimate D2E/DX2                !
 ! D19   D(5,6,7,8)              3.2519         estimate D2E/DX2                !
 ! D20   D(5,6,7,12)          -178.1476         estimate D2E/DX2                !
 ! D21   D(6,7,8,9)             -1.1741         estimate D2E/DX2                !
 ! D22   D(6,7,8,13)           179.0332         estimate D2E/DX2                !
 ! D23   D(12,7,8,9)          -179.7526         estimate D2E/DX2                !
 ! D24   D(12,7,8,13)            0.4546         estimate D2E/DX2                !
 ! D25   D(7,8,9,3)             -7.6847         estimate D2E/DX2                !
 ! D26   D(7,8,9,14)          -128.3827         estimate D2E/DX2                !
 ! D27   D(7,8,9,15)           117.7679         estimate D2E/DX2                !
 ! D28   D(13,8,9,3)           172.1158         estimate D2E/DX2                !
 ! D29   D(13,8,9,14)           51.4178         estimate D2E/DX2                !
 ! D30   D(13,8,9,15)          -62.4315         estimate D2E/DX2                !
 --------------------------------------------------------------------------------
 Trust Radius=3.00D-01 FncErr=1.00D-07 GrdErr=1.00D-06 EigMax=2.50D+02 EigMin=1.00D-04
 Number of steps in this run=     78 maximum allowed number of steps=    100.
 GradGradGradGradGradGradGradGradGradGradGradGradGradGradGradGradGradGrad

                          Input orientation:                          
 ---------------------------------------------------------------------
 Center     Atomic      Atomic             Coordinates (Angstroms)
 Number     Number       Type             X           Y           Z
 ---------------------------------------------------------------------
      1          7           0        1.056010    0.696270   -0.063820
      2          6           0        2.148740   -0.196330    0.278260
      3          6           0        2.846330   -1.413110    0.541780
      4          6           0        3.839630   -1.448450    1.438110
      5          6           0        4.419270   -2.676650    2.028270
      6          7           0        4.166410   -3.938330    1.920190
      7          6           0        3.224360   -4.480810    1.116490
      8          6           0        2.389370   -3.935150    0.228670
      9          6           0        2.179090   -2.538720   -0.178720
     10          1           0        4.240380   -0.532470    1.869520
     11          1           0        5.210720   -2.449080    2.765500
     12          1           0        3.159360   -5.564870    1.205880
     13          1           0        1.729540   -4.616320   -0.305590
     14          1           0        1.095940   -2.371140   -0.087500
     15          1           0        2.424200   -2.451610   -1.245040
 ---------------------------------------------------------------------
                    Distance matrix (angstroms):
                    1          2          3          4          5
     1  N    0.000000
     2  C    1.451831   0.000000
     3  C    2.832222   1.427105   0.000000
     4  C    3.821539   2.402533   1.338395   0.000000
     5  C    5.202398   3.790756   2.506058   1.480793   0.000000
     6  N    5.923715   4.557356   3.165337   2.557086   1.291300
     7  C    5.735593   4.496260   3.143880   3.110820   2.348222
     8  C    4.828400   3.746884   2.582157   3.122447   2.990464
     9  C    3.426320   2.386743   1.493763   2.561293   3.147735
    10  H    3.922731   2.649539   2.117025   1.088914   2.157478
    11  H    5.929578   4.542793   3.407126   2.154788   1.105301
    12  H    6.725927   5.541034   4.216175   4.178709   3.256611
    13  H    5.360570   4.478049   3.496543   4.186690   4.055104
    14  H    3.067761   2.443761   2.092291   3.272106   3.951499
    15  H    3.629927   2.735436   2.109360   3.195163   3.839988
                    6          7          8          9         10
     6  N    0.000000
     7  C    1.351916   0.000000
     8  C    2.453390   1.335357   0.000000
     9  C    3.211506   2.557708   1.469762   0.000000
    10  H    3.407040   4.145930   4.206763   3.531181   0.000000
    11  H    2.005741   3.285238   4.074792   4.226967   2.327603
    12  H    2.042063   1.089680   2.050320   3.469241   5.189805
    13  H    3.369288   2.067646   1.088486   2.129463   5.264338
    14  H    3.989322   3.229624   2.054033   1.099826   4.134989
    15  H    3.906957   3.214768   2.091393   1.097591   4.084372
                   11         12         13         14         15
    11  H    0.000000
    12  H    4.043345   0.000000
    13  H    5.123196   2.286629   0.000000
    14  H    5.007704   4.016273   2.343042   0.000000
    15  H    4.883557   4.029871   2.459896   1.763703   0.000000
 Stoichiometry    C7H6N2
 Framework group  C1[X(C7H6N2)]
 Deg. of freedom    39
 Full point group                 C1      NOp   1
 Largest Abelian subgroup         C1      NOp   1
 Largest concise Abelian subgroup C1      NOp   1
                         Standard orientation:                         
 ---------------------------------------------------------------------
 Center     Atomic      Atomic             Coordinates (Angstroms)
 Number     Number       Type             X           Y           Z
 ---------------------------------------------------------------------
      1          7           0        3.588871   -0.131888   -0.342724
      2          6           0        2.254289    0.292589    0.040059
      3          6           0        0.837947    0.252757    0.210400
      4          6           0        0.113582    1.376933    0.157257
      5          6           0       -1.357483    1.442989    0.001209
      6          7           0       -2.290787    0.564307   -0.154736
      7          6           0       -2.108079   -0.775053   -0.174985
      8          6           0       -1.020141   -1.528386    0.004060
      9          6           0        0.380355   -1.168076    0.266716
     10          1           0        0.593177    2.354375    0.139080
     11          1           0       -1.723601    2.484947   -0.043195
     12          1           0       -3.029614   -1.329255   -0.351153
     13          1           0       -1.157172   -2.606835   -0.050449
     14          1           0        0.965710   -1.716074   -0.486063
     15          1           0        0.662095   -1.576620    1.245705
 ---------------------------------------------------------------------
 Rotational constants (GHZ):           3.6702695           1.1636847           0.9024512
 Standard basis: 6-31G(2df,p) (6D, 7F)
 There are   309 symmetry adapted cartesian basis functions of A   symmetry.
 There are   282 symmetry adapted basis functions of A   symmetry.
   282 basis functions,   438 primitive gaussians,   309 cartesian basis functions
    31 alpha electrons       31 beta electrons
       nuclear repulsion energy       372.7234985768 Hartrees.
 NAtoms=   15 NActive=   15 NUniq=   15 SFac= 1.00D+00 NAtFMM=   60 NAOKFM=F Big=F
 Integral buffers will be    131072 words long.
 Raffenetti 2 integral format.
 Two-electron integral symmetry is turned on.
 One-electron integrals computed using PRISM.
 PrsmSu:  requested number of processors reduced to:  13 ShMem   1 Linda.
 NBasis=   282 RedAO= T EigKep=  2.04D-04  NBF=   282
 NBsUse=   282 1.00D-06 EigRej= -1.00D+00 NBFU=   282
 ExpMin= 1.61D-01 ExpMax= 4.17D+03 ExpMxC= 6.27D+02 IAcc=3 IRadAn=         5 AccDes= 0.00D+00
 Harris functional with IExCor=  402 and IRadAn=       5 diagonalized for initial guess.
 HarFok:  IExCor=  402 AccDes= 0.00D+00 IRadAn=         5 IDoV= 1 UseB2=F ITyADJ=14
 ICtDFT=  3500011 ScaDFX=  1.000000  1.000000  1.000000  1.000000
 FoFCou: FMM=F IPFlag=           0 FMFlag=      100000 FMFlg1=           0
         NFxFlg=           0 DoJE=T BraDBF=F KetDBF=T FulRan=T
         wScrn=  0.000000 ICntrl=       500 IOpCl=  0 I1Cent=   200000004 NGrid=           0
         NMat0=    1 NMatS0=      1 NMatT0=    0 NMatD0=    1 NMtDS0=    0 NMtDT0=    0
 Petite list used in FoFCou.
 Requested convergence on RMS density matrix=1.00D-08 within 128 cycles.
 Requested convergence on MAX density matrix=1.00D-06.
 Requested convergence on             energy=1.00D-06.
 No special actions if energy rises.
 Integral accuracy reduced to 1.0D-05 until final iterations.
 Initial convergence to 1.0D-05 achieved.  Increase integral accuracy.
 SCF Done:  E(RB3LYP) =  -379.687929149     A.U. after   17 cycles
            NFock= 17  Conv=0.86D-08     -V/T= 2.0093

 **********************************************************************

            Population analysis using the SCF density.

 **********************************************************************

 Orbital symmetries:
       Occupied  (A) (A) (A) (A) (A) (A) (A) (A) (A) (A) (A) (A)
                 (A) (A) (A) (A) (A) (A) (A) (A) (A) (A) (A) (A)
                 (A) (A) (A) (A) (A) (A) (A)
       Virtual   (A) (A) (A) (A) (A) (A) (A) (A) (A) (A) (A) (A)
                 (A) (A) (A) (A) (A) (A) (A) (A) (A) (A) (A) (A)
                 (A) (A) (A) (A) (A) (A) (A) (A) (A) (A) (A) (A)
                 (A) (A) (A) (A) (A) (A) (A) (A) (A) (A) (A) (A)
                 (A) (A) (A) (A) (A) (A) (A) (A) (A) (A) (A) (A)
                 (A) (A) (A) (A) (A) (A) (A) (A) (A) (A) (A) (A)
                 (A) (A) (A) (A) (A) (A) (A) (A) (A) (A) (A) (A)
                 (A) (A) (A) (A) (A) (A) (A) (A) (A) (A) (A) (A)
                 (A) (A) (A) (A) (A) (A) (A) (A) (A) (A) (A) (A)
                 (A) (A) (A) (A) (A) (A) (A) (A) (A) (A) (A) (A)
                 (A) (A) (A) (A) (A) (A) (A) (A) (A) (A) (A) (A)
                 (A) (A) (A) (A) (A) (A) (A) (A) (A) (A) (A) (A)
                 (A) (A) (A) (A) (A) (A) (A) (A) (A) (A) (A) (A)
                 (A) (A) (A) (A) (A) (A) (A) (A) (A) (A) (A) (A)
                 (A) (A) (A) (A) (A) (A) (A) (A) (A) (A) (A) (A)
                 (A) (A) (A) (A) (A) (A) (A) (A) (A) (A) (A) (A)
                 (A) (A) (A) (A) (A) (A) (A) (A) (A) (A) (A) (A)
                 (A) (A) (A) (A) (A) (A) (A) (A) (A) (A) (A) (A)
                 (A) (A) (A) (A) (A) (A) (A) (A) (A) (A) (A) (A)
                 (A) (A) (A) (A) (A) (A) (A) (A) (A) (A) (A) (A)
                 (A) (A) (A) (A) (A) (A) (A) (A) (A) (A) (A)
 The electronic state is 1-A.
 Alpha  occ. eigenvalues --  -14.39828 -14.34339 -10.28576 -10.26091 -10.25048
 Alpha  occ. eigenvalues --  -10.23747 -10.22507 -10.21914 -10.21246  -0.94912
 Alpha  occ. eigenvalues --   -0.87496  -0.81102  -0.80095  -0.71872  -0.71071
 Alpha  occ. eigenvalues --   -0.61164  -0.56823  -0.54583  -0.49239  -0.47507
 Alpha  occ. eigenvalues --   -0.45671  -0.44466  -0.40991  -0.39228  -0.38649
 Alpha  occ. eigenvalues --   -0.36608  -0.35334  -0.29203  -0.28436  -0.26364
 Alpha  occ. eigenvalues --   -0.23742
 Alpha virt. eigenvalues --   -0.12244  -0.06406  -0.02822   0.03223   0.06745
 Alpha virt. eigenvalues --    0.09314   0.09947   0.12312   0.13847   0.16040
 Alpha virt. eigenvalues --    0.16716   0.18127   0.19790   0.21365   0.27307
 Alpha virt. eigenvalues --    0.30810   0.33294   0.34958   0.39253   0.41573
 Alpha virt. eigenvalues --    0.42531   0.43193   0.45624   0.46085   0.46975
 Alpha virt. eigenvalues --    0.48377   0.50285   0.50797   0.51891   0.53769
 Alpha virt. eigenvalues --    0.54500   0.54723   0.58029   0.58286   0.62017
 Alpha virt. eigenvalues --    0.63526   0.64585   0.66213   0.68168   0.68796
 Alpha virt. eigenvalues --    0.69999   0.70485   0.73518   0.74175   0.74980
 Alpha virt. eigenvalues --    0.75228   0.75653   0.77104   0.77549   0.78283
 Alpha virt. eigenvalues --    0.79010   0.79794   0.81778   0.83407   0.84405
 Alpha virt. eigenvalues --    0.87522   0.88653   0.92274   0.95347   0.95865
 Alpha virt. eigenvalues --    0.97799   0.99217   1.00709   1.02543   1.04130
 Alpha virt. eigenvalues --    1.06527   1.07917   1.11410   1.14182   1.18299
 Alpha virt. eigenvalues --    1.22085   1.22626   1.23860   1.26930   1.30004
 Alpha virt. eigenvalues --    1.32751   1.33803   1.36419   1.37412   1.41567
 Alpha virt. eigenvalues --    1.44506   1.45769   1.47902   1.50868   1.52771
 Alpha virt. eigenvalues --    1.54117   1.56716   1.59585   1.63081   1.64081
 Alpha virt. eigenvalues --    1.67250   1.69344   1.69812   1.74820   1.77635
 Alpha virt. eigenvalues --    1.85098   1.86391   1.90404   1.91381   1.93284
 Alpha virt. eigenvalues --    1.94920   1.99747   2.02222   2.06792   2.11870
 Alpha virt. eigenvalues --    2.13315   2.14865   2.17204   2.19977   2.22096
 Alpha virt. eigenvalues --    2.28889   2.32885   2.35483   2.43311   2.45014
 Alpha virt. eigenvalues --    2.47886   2.53934   2.55455   2.58919   2.68253
 Alpha virt. eigenvalues --    2.71015   2.73488   2.76268   2.77887   2.80367
 Alpha virt. eigenvalues --    2.81581   2.82318   2.84906   2.87468   2.88198
 Alpha virt. eigenvalues --    2.91475   2.92638   2.94987   2.97719   3.01998
 Alpha virt. eigenvalues --    3.02257   3.05967   3.08191   3.12370   3.14554
 Alpha virt. eigenvalues --    3.16186   3.16945   3.19708   3.20696   3.23646
 Alpha virt. eigenvalues --    3.25254   3.26006   3.27338   3.28734   3.29925
 Alpha virt. eigenvalues --    3.34311   3.36622   3.39652   3.41784   3.44607
 Alpha virt. eigenvalues --    3.47120   3.47940   3.49112   3.53412   3.56270
 Alpha virt. eigenvalues --    3.59280   3.60037   3.60704   3.61497   3.64550
 Alpha virt. eigenvalues --    3.65830   3.73610   3.74421   3.75608   3.78542
 Alpha virt. eigenvalues --    3.78803   3.83602   3.85533   3.87175   3.92219
 Alpha virt. eigenvalues --    3.94089   3.95441   4.01543   4.03885   4.08792
 Alpha virt. eigenvalues --    4.11747   4.12247   4.13552   4.15061   4.17063
 Alpha virt. eigenvalues --    4.20560   4.21824   4.24255   4.26101   4.27921
 Alpha virt. eigenvalues --    4.30587   4.31696   4.33437   4.35241   4.36300
 Alpha virt. eigenvalues --    4.38405   4.39701   4.44448   4.48126   4.48985
 Alpha virt. eigenvalues --    4.50618   4.54788   4.56198   4.57690   4.59058
 Alpha virt. eigenvalues --    4.60947   4.62715   4.64158   4.65223   4.68306
 Alpha virt. eigenvalues --    4.71492   4.74612   4.76158   4.78395   4.82902
 Alpha virt. eigenvalues --    4.85207   4.88361   4.93833   4.94784   5.00573
 Alpha virt. eigenvalues --    5.01394   5.03799   5.05151   5.06211   5.10882
 Alpha virt. eigenvalues --    5.23362   5.26690   5.28470   5.37225   5.46380
 Alpha virt. eigenvalues --    5.48295   5.59484   5.67214   5.70472   5.74936
 Alpha virt. eigenvalues --    5.86806   5.89590   6.00541   6.14402   6.69874
 Alpha virt. eigenvalues --    8.06521   9.82064  10.22312  10.50566  10.95508
 Alpha virt. eigenvalues --   11.33165  11.37680  11.55958  11.76608  12.36171
 Alpha virt. eigenvalues --   17.89989
          Condensed to atoms (all electrons):
               1          2          3          4          5          6
     1  N    6.697033   0.698503  -0.038225  -0.000947  -0.000033   0.000001
     2  C    0.698503   4.890495   0.344701  -0.027211   0.003635   0.000064
     3  C   -0.038225   0.344701   4.583133   0.638598  -0.014946  -0.012526
     4  C   -0.000947  -0.027211   0.638598   4.950917   0.373369  -0.030695
     5  C   -0.000033   0.003635  -0.014946   0.373369   4.735952   0.663623
     6  N    0.000001   0.000064  -0.012526  -0.030695   0.663623   6.238107
     7  C   -0.000001   0.000308  -0.002661  -0.011854  -0.085349   0.472596
     8  C    0.000203   0.005257  -0.011953  -0.006556  -0.006960  -0.020046
     9  C   -0.001418  -0.067585   0.398192  -0.010769  -0.015065  -0.017075
    10  H    0.000246  -0.011962  -0.034048   0.357707  -0.037003   0.003841
    11  H    0.000000  -0.000113   0.002470  -0.074793   0.368724  -0.027160
    12  H    0.000000   0.000001  -0.000233   0.000137   0.002981  -0.042857
    13  H   -0.000003  -0.000265   0.004400   0.000206  -0.000717   0.005165
    14  H    0.002730   0.001266  -0.032720   0.000571   0.000520   0.000160
    15  H    0.000500  -0.000592  -0.029305  -0.001604   0.000534   0.000239
               7          8          9         10         11         12
     1  N   -0.000001   0.000203  -0.001418   0.000246   0.000000   0.000000
     2  C    0.000308   0.005257  -0.067585  -0.011962  -0.000113   0.000001
     3  C   -0.002661  -0.011953   0.398192  -0.034048   0.002470  -0.000233
     4  C   -0.011854  -0.006556  -0.010769   0.357707  -0.074793   0.000137
     5  C   -0.085349  -0.006960  -0.015065  -0.037003   0.368724   0.002981
     6  N    0.472596  -0.020046  -0.017075   0.003841  -0.027160  -0.042857
     7  C    4.653280   0.636927  -0.016557  -0.000256   0.004650   0.382456
     8  C    0.636927   4.847269   0.366412  -0.000177   0.000111  -0.065612
     9  C   -0.016557   0.366412   5.026700   0.006233  -0.000257   0.006220
    10  H   -0.000256  -0.000177   0.006233   0.587258  -0.003291   0.000009
    11  H    0.004650   0.000111  -0.000257  -0.003291   0.615621  -0.000273
    12  H    0.382456  -0.065612   0.006220   0.000009  -0.000273   0.625855
    13  H   -0.027797   0.357041  -0.050929   0.000007   0.000014  -0.009697
    14  H    0.001004  -0.029089   0.357355  -0.000199   0.000004  -0.000192
    15  H   -0.001421  -0.027045   0.352658  -0.000170   0.000001  -0.000208
              13         14         15
     1  N   -0.000003   0.002730   0.000500
     2  C   -0.000265   0.001266  -0.000592
     3  C    0.004400  -0.032720  -0.029305
     4  C    0.000206   0.000571  -0.001604
     5  C   -0.000717   0.000520   0.000534
     6  N    0.005165   0.000160   0.000239
     7  C   -0.027797   0.001004  -0.001421
     8  C    0.357041  -0.029089  -0.027045
     9  C   -0.050929   0.357355   0.352658
    10  H    0.000007  -0.000199  -0.000170
    11  H    0.000014   0.000004   0.000001
    12  H   -0.009697  -0.000192  -0.000208
    13  H    0.617573  -0.004647  -0.000596
    14  H   -0.004647   0.588127  -0.037341
    15  H   -0.000596  -0.037341   0.599579
 Mulliken charges:
               1
     1  N   -0.358591
     2  C    0.163497
     3  C    0.205124
     4  C   -0.157075
     5  C    0.010735
     6  N   -0.233438
     7  C   -0.005327
     8  C   -0.045782
     9  C   -0.334117
    10  H    0.131803
    11  H    0.114292
    12  H    0.101413
    13  H    0.110244
    14  H    0.152451
    15  H    0.144770
 Sum of Mulliken charges =  -0.00000
 Mulliken charges with hydrogens summed into heavy atoms:
               1
     1  N   -0.358591
     2  C    0.163497
     3  C    0.205124
     4  C   -0.025272
     5  C    0.125027
     6  N   -0.233438
     7  C    0.096086
     8  C    0.064462
     9  C   -0.036895
 Electronic spatial extent (au):  <R**2>=           1211.5176
 Charge=             -0.0000 electrons
 Dipole moment (field-independent basis, Debye):
    X=             -1.9123    Y=             -0.3135    Z=              0.8047  Tot=              2.0982
 Quadrupole moment (field-independent basis, Debye-Ang):
   XX=            -71.0554   YY=            -44.2343   ZZ=            -52.5670
   XY=              2.5251   XZ=              1.5521   YZ=              0.1665
 Traceless Quadrupole moment (field-independent basis, Debye-Ang):
   XX=            -15.1032   YY=             11.7179   ZZ=              3.3852
   XY=              2.5251   XZ=              1.5521   YZ=              0.1665
 Octapole moment (field-independent basis, Debye-Ang**2):
  XXX=            -52.1850  YYY=              3.3947  ZZZ=              0.8075  XYY=             -4.8730
  XXY=             -6.8878  XXZ=              5.8719  XZZ=             -0.8689  YZZ=             -1.4108
  YYZ=              0.1209  XYZ=             -0.8961
 Hexadecapole moment (field-independent basis, Debye-Ang**3):
 XXXX=          -1424.2029 YYYY=           -381.7702 ZZZZ=            -69.2596 XXXY=             30.2248
 XXXZ=             20.6671 YYYX=             -1.7684 YYYZ=              0.8176 ZZZX=              0.7526
 ZZZY=             -2.1919 XXYY=           -257.3583 XXZZ=           -211.0555 YYZZ=            -85.1115
 XXYZ=              4.2376 YYXZ=              1.0001 ZZXY=             -3.2441
 N-N= 3.727234985768D+02 E-N=-1.625973683941D+03  KE= 3.762075168484D+02
 PrsmSu:  requested number of processors reduced to:  13 ShMem   1 Linda.
 Calling FoFJK, ICntrl=      2127 FMM=F ISym2X=0 I1Cent= 0 IOpClX= 0 NMat=1 NMatS=1 NMatT=0.
 ***** Axes restored to original set *****
 -------------------------------------------------------------------
 Center     Atomic                   Forces (Hartrees/Bohr)
 Number     Number              X              Y              Z
 -------------------------------------------------------------------
      1        7           0.204803038   -0.161245019    0.063213030
      2        6          -0.197404023    0.159769795   -0.062723134
      3        6          -0.013421337    0.021970557    0.003301879
      4        6           0.013350677   -0.019815730    0.013800484
      5        6           0.012263712    0.002922928    0.009598577
      6        7           0.018662616    0.026262884    0.014479501
      7        6          -0.017201697   -0.020890808   -0.015731762
      8        6           0.003370561   -0.011686726    0.003173111
      9        6          -0.013393555   -0.000567559   -0.013433642
     10        1          -0.003959717   -0.000305180   -0.002838459
     11        1          -0.004741385   -0.000359998   -0.006148530
     12        1           0.000933407    0.000056188    0.001735654
     13        1           0.000186727   -0.001568159    0.001666575
     14        1           0.000400160    0.003158025   -0.007066041
     15        1          -0.003849183    0.002298802   -0.003027244
 -------------------------------------------------------------------
 Cartesian Forces:  Max     0.204803038 RMS     0.056761418

 GradGradGradGradGradGradGradGradGradGradGradGradGradGradGradGradGradGrad
 Berny optimization.
 FormGI is forming the generalized inverse of G from B-inverse, IUseBI=4.
 Internal  Forces:  Max     0.268175667 RMS     0.033405722
 Search for a local minimum.
 Step number   1 out of a maximum of   78
 All quantities printed in internal units (Hartrees-Bohrs-Radians)
 Mixed Optimization -- RFO/linear search
 Second derivative matrix not updated -- first step.
 ITU=  0
     Eigenvalues ---    0.01043   0.01544   0.01700   0.01730   0.01827
     Eigenvalues ---    0.01957   0.02034   0.02395   0.02709   0.02835
     Eigenvalues ---    0.04122   0.06677   0.11355   0.12607   0.15948
     Eigenvalues ---    0.15989   0.15998   0.16000   0.21965   0.22009
     Eigenvalues ---    0.23170   0.23744   0.24813   0.25000   0.32641
     Eigenvalues ---    0.33103   0.33701   0.33729   0.33950   0.34850
     Eigenvalues ---    0.34938   0.34988   0.35393   0.38006   0.41408
     Eigenvalues ---    0.52740   0.55995   0.57826   0.68050
 RFO step:  Lambda=-1.45167410D-01 EMin= 1.04314399D-02
 Linear search not attempted -- first point.
 Maximum step size (   0.300) exceeded in Quadratic search.
    -- Step size scaled by   0.570
 Iteration  1 RMS(Cart)=  0.03482062 RMS(Int)=  0.01128007
 Iteration  2 RMS(Cart)=  0.01093422 RMS(Int)=  0.00003403
 Iteration  3 RMS(Cart)=  0.00003554 RMS(Int)=  0.00002918
 Iteration  4 RMS(Cart)=  0.00000000 RMS(Int)=  0.00002918
 Variable       Old X    -DE/DX   Delta X   Delta X   Delta X     New X
                                 (Linear)    (Quad)   (Total)
    R1        2.74356  -0.26818   0.00000  -0.29084  -0.29084   2.45273
    R2        2.69684  -0.00497   0.00000  -0.00506  -0.00506   2.69178
    R3        2.52920   0.01704   0.00000   0.01309   0.01310   2.54230
    R4        2.82280   0.02114   0.00000   0.02536   0.02538   2.84818
    R5        2.79829  -0.01051   0.00000  -0.01296  -0.01297   2.78532
    R6        2.05775  -0.00284   0.00000  -0.00327  -0.00327   2.05448
    R7        2.44020  -0.01043   0.00000  -0.00729  -0.00731   2.43289
    R8        2.08872  -0.00757   0.00000  -0.00906  -0.00906   2.07966
    R9        2.55475   0.03230   0.00000   0.02682   0.02680   2.58155
   R10        2.52346   0.00929   0.00000   0.00775   0.00775   2.53121
   R11        2.05920   0.00003   0.00000   0.00004   0.00004   2.05923
   R12        2.77745   0.02254   0.00000   0.02618   0.02619   2.80364
   R13        2.05694   0.00005   0.00000   0.00006   0.00006   2.05700
   R14        2.07837  -0.00050   0.00000  -0.00059  -0.00059   2.07778
   R15        2.07415   0.00226   0.00000   0.00266   0.00266   2.07681
    A1        2.78080   0.01279   0.00000   0.01844   0.01844   2.79924
    A2        2.10477  -0.01053   0.00000  -0.01454  -0.01459   2.09017
    A3        1.91248   0.01105   0.00000   0.01658   0.01655   1.92903
    A4        2.25834  -0.00007   0.00000  -0.00059  -0.00057   2.25777
    A5        2.18869   0.01479   0.00000   0.02106   0.02106   2.20975
    A6        2.11326  -0.01136   0.00000  -0.01789  -0.01790   2.09536
    A7        1.97767  -0.00327   0.00000  -0.00271  -0.00272   1.97495
    A8        2.34674  -0.00787   0.00000  -0.01389  -0.01392   2.33281
    A9        1.95557   0.00260   0.00000   0.00448   0.00450   1.96006
   A10        1.97927   0.00527   0.00000   0.00948   0.00950   1.98877
   A11        2.18741   0.00540   0.00000   0.00743   0.00736   2.19477
   A12        2.30098  -0.00063   0.00000   0.00033   0.00030   2.30128
   A13        1.97360  -0.00161   0.00000  -0.00375  -0.00374   1.96985
   A14        2.00839   0.00224   0.00000   0.00344   0.00345   2.01184
   A15        2.29426   0.00102   0.00000   0.00346   0.00347   2.29773
   A16        2.03718  -0.00268   0.00000  -0.00578  -0.00579   2.03139
   A17        1.95174   0.00166   0.00000   0.00232   0.00231   1.95405
   A18        2.11571  -0.01276   0.00000  -0.01811  -0.01802   2.09768
   A19        1.85990   0.00263   0.00000   0.00370   0.00375   1.86365
   A20        1.88498   0.00371   0.00000   0.00471   0.00471   1.88969
   A21        1.83659   0.00759   0.00000   0.01444   0.01445   1.85105
   A22        1.88887   0.00445   0.00000   0.00653   0.00649   1.89536
   A23        1.86337  -0.00536   0.00000  -0.01148  -0.01151   1.85186
    D1       -2.57528  -0.00201   0.00000  -0.00660  -0.00659  -2.58186
    D2        0.44605   0.00156   0.00000   0.00502   0.00502   0.45107
    D3        2.87728   0.00491   0.00000   0.01578   0.01570   2.89298
    D4       -0.16744   0.00296   0.00000   0.00983   0.00978  -0.15766
    D5       -0.11751  -0.00006   0.00000   0.00062   0.00064  -0.11686
    D6        3.12096  -0.00201   0.00000  -0.00534  -0.00528   3.11568
    D7       -2.79387  -0.00365   0.00000  -0.01208  -0.01213  -2.80600
    D8       -0.69862   0.00010   0.00000  -0.00179  -0.00183  -0.70045
    D9        1.29797  -0.00304   0.00000  -0.01098  -0.01103   1.28694
   D10        0.21368  -0.00049   0.00000  -0.00020  -0.00016   0.21352
   D11        2.30894   0.00326   0.00000   0.01008   0.01013   2.31907
   D12       -1.97766   0.00012   0.00000   0.00090   0.00093  -1.97673
   D13       -0.03987  -0.00100   0.00000  -0.00270  -0.00273  -0.04260
   D14       -3.11459  -0.00145   0.00000  -0.00477  -0.00479  -3.11938
   D15        3.01140   0.00033   0.00000   0.00198   0.00198   3.01338
   D16       -0.06331  -0.00013   0.00000  -0.00009  -0.00008  -0.06340
   D17        0.03843   0.00017   0.00000   0.00068   0.00067   0.03910
   D18        3.11248   0.00055   0.00000   0.00261   0.00260   3.11508
   D19        0.05676   0.00054   0.00000   0.00142   0.00143   0.05818
   D20       -3.10926   0.00093   0.00000   0.00217   0.00218  -3.10709
   D21       -0.02049   0.00032   0.00000   0.00009   0.00009  -0.02040
   D22        3.12472   0.00016   0.00000  -0.00041  -0.00041   3.12431
   D23       -3.13728  -0.00003   0.00000  -0.00059  -0.00059  -3.13787
   D24        0.00793  -0.00019   0.00000  -0.00110  -0.00110   0.00684
   D25       -0.13412   0.00009   0.00000  -0.00071  -0.00074  -0.13486
   D26       -2.24070  -0.00140   0.00000  -0.00597  -0.00593  -2.24664
   D27        2.05544  -0.00089   0.00000  -0.00269  -0.00271   2.05273
   D28        3.00399   0.00024   0.00000  -0.00024  -0.00026   3.00373
   D29        0.89741  -0.00125   0.00000  -0.00550  -0.00546   0.89195
   D30       -1.08964  -0.00074   0.00000  -0.00222  -0.00223  -1.09187
         Item               Value     Threshold  Converged?
 Maximum Force            0.268176     0.000450     NO 
 RMS     Force            0.033406     0.000300     NO 
 Maximum Displacement     0.266708     0.001800     NO 
 RMS     Displacement     0.042509     0.001200     NO 
 Predicted change in Energy=-6.573880D-02
 GradGradGradGradGradGradGradGradGradGradGradGradGradGradGradGradGradGrad

                          Input orientation:                          
 ---------------------------------------------------------------------
 Center     Atomic      Atomic             Coordinates (Angstroms)
 Number     Number       Type             X           Y           Z
 ---------------------------------------------------------------------
      1          7           0        1.197146    0.653704   -0.009076
      2          6           0        2.144930   -0.181862    0.287821
      3          6           0        2.820364   -1.410372    0.539913
      4          6           0        3.819009   -1.450754    1.440457
      5          6           0        4.419348   -2.659131    2.033651
      6          7           0        4.175914   -3.918492    1.923084
      7          6           0        3.229182   -4.480430    1.114292
      8          6           0        2.383816   -3.946249    0.223137
      9          6           0        2.150670   -2.542336   -0.196157
     10          1           0        4.207348   -0.528123    1.864621
     11          1           0        5.207639   -2.418881    2.763032
     12          1           0        3.179401   -5.564709    1.210753
     13          1           0        1.734087   -4.641971   -0.304775
     14          1           0        1.066765   -2.376638   -0.114751
     15          1           0        2.393730   -2.450526   -1.264001
 ---------------------------------------------------------------------
                    Distance matrix (angstroms):
                    1          2          3          4          5
     1  N    0.000000
     2  C    1.297927   0.000000
     3  C    2.682655   1.424429   0.000000
     4  C    3.661155   2.396079   1.345326   0.000000
     5  C    5.052742   3.789164   2.519405   1.473928   0.000000
     6  N    5.788893   4.556466   3.168808   2.539694   1.287429
     7  C    5.634755   4.509583   3.149968   3.103743   2.361958
     8  C    4.756225   3.772513   2.592603   3.125563   3.012975
     9  C    3.340491   2.409585   1.507194   2.579421   3.183173
    10  H    3.737482   2.619115   2.111146   1.087184   2.148188
    11  H    5.762762   4.528919   3.414444   2.148202   1.100509
    12  H    6.639727   5.558504   4.223440   4.169711   3.264508
    13  H    5.331033   4.518023   3.512368   4.192446   4.075600
    14  H    3.034985   2.478213   2.106505   3.294052   3.991897
    15  H    3.555685   2.759871   2.125569   3.216374   3.875714
                    6          7          8          9         10
     6  N    0.000000
     7  C    1.366097   0.000000
     8  C    2.470264   1.339458   0.000000
     9  C    3.238303   2.576175   1.483623   0.000000
    10  H    3.391019   4.140113   4.207531   3.540309   0.000000
    11  H    2.004695   3.298882   4.093640   4.256419   2.320063
    12  H    2.051946   1.089698   2.056150   3.488900   5.181835
    13  H    3.383681   2.067644   1.088517   2.143317   5.267546
    14  H    4.024537   3.257689   2.076649   1.099514   4.147069
    15  H    3.935558   3.236475   2.109234   1.098999   4.095500
                   11         12         13         14         15
    11  H    0.000000
    12  H    4.052104   0.000000
    13  H    5.139954   2.288494   0.000000
    14  H    5.042842   4.047714   2.369211   0.000000
    15  H    4.912849   4.054605   2.481466   1.757006   0.000000
 Stoichiometry    C7H6N2
 Framework group  C1[X(C7H6N2)]
 Deg. of freedom    39
 Full point group                 C1      NOp   1
 Largest Abelian subgroup         C1      NOp   1
 Largest concise Abelian subgroup C1      NOp   1
                         Standard orientation:                         
 ---------------------------------------------------------------------
 Center     Atomic      Atomic             Coordinates (Angstroms)
 Number     Number       Type             X           Y           Z
 ---------------------------------------------------------------------
      1          7           0        3.478164   -0.098505   -0.316507
      2          6           0        2.275928    0.256124    0.020363
      3          6           0        0.862453    0.212737    0.191253
      4          6           0        0.149604    1.352948    0.150424
      5          6           0       -1.313339    1.470574    0.014682
      6          7           0       -2.263712    0.615110   -0.135140
      7          6           0       -2.117639   -0.742782   -0.166986
      8          6           0       -1.046599   -1.530511   -0.004181
      9          6           0        0.380669   -1.214219    0.248807
     10          1           0        0.658966    2.313307    0.135219
     11          1           0       -1.647080    2.518833   -0.015128
     12          1           0       -3.058097   -1.265895   -0.338261
     13          1           0       -1.221137   -2.603194   -0.065475
     14          1           0        0.954229   -1.773504   -0.504293
     15          1           0        0.665498   -1.635008    1.223285
 ---------------------------------------------------------------------
 Rotational constants (GHZ):           3.6492411           1.1958064           0.9181756
 Standard basis: 6-31G(2df,p) (6D, 7F)
 There are   309 symmetry adapted cartesian basis functions of A   symmetry.
 There are   282 symmetry adapted basis functions of A   symmetry.
   282 basis functions,   438 primitive gaussians,   309 cartesian basis functions
    31 alpha electrons       31 beta electrons
       nuclear repulsion energy       374.8203383983 Hartrees.
 NAtoms=   15 NActive=   15 NUniq=   15 SFac= 1.00D+00 NAtFMM=   60 NAOKFM=F Big=F
 Integral buffers will be    131072 words long.
 Raffenetti 2 integral format.
 Two-electron integral symmetry is turned on.
 One-electron integrals computed using PRISM.
 PrsmSu:  requested number of processors reduced to:  13 ShMem   1 Linda.
 NBasis=   282 RedAO= T EigKep=  1.99D-04  NBF=   282
 NBsUse=   282 1.00D-06 EigRej= -1.00D+00 NBFU=   282
 Initial guess from the checkpoint file:  "[N][C]C1dCCdNCdCC1.chk"
 B after Tr=    -0.000000    0.000000    0.000000
         Rot=    0.999970   -0.004602   -0.001515    0.006038 Ang=  -0.89 deg.
 ExpMin= 1.61D-01 ExpMax= 4.17D+03 ExpMxC= 6.27D+02 IAcc=2 IRadAn=         4 AccDes= 0.00D+00
 Harris functional with IExCor=  402 and IRadAn=       4 diagonalized for initial guess.
 HarFok:  IExCor=  402 AccDes= 0.00D+00 IRadAn=         4 IDoV= 1 UseB2=F ITyADJ=14
 ICtDFT=  3500011 ScaDFX=  1.000000  1.000000  1.000000  1.000000
 FoFCou: FMM=F IPFlag=           0 FMFlag=      100000 FMFlg1=           0
         NFxFlg=           0 DoJE=T BraDBF=F KetDBF=T FulRan=T
         wScrn=  0.000000 ICntrl=       500 IOpCl=  0 I1Cent=   200000004 NGrid=           0
         NMat0=    1 NMatS0=      1 NMatT0=    0 NMatD0=    1 NMtDS0=    0 NMtDT0=    0
 Petite list used in FoFCou.
 Requested convergence on RMS density matrix=1.00D-08 within 128 cycles.
 Requested convergence on MAX density matrix=1.00D-06.
 Requested convergence on             energy=1.00D-06.
 No special actions if energy rises.
 Integral accuracy reduced to 1.0D-05 until final iterations.
 Initial convergence to 1.0D-05 achieved.  Increase integral accuracy.
 SCF Done:  E(RB3LYP) =  -379.762936084     A.U. after   14 cycles
            NFock= 14  Conv=0.64D-08     -V/T= 2.0089
 PrsmSu:  requested number of processors reduced to:  13 ShMem   1 Linda.
 Calling FoFJK, ICntrl=      2127 FMM=F ISym2X=0 I1Cent= 0 IOpClX= 0 NMat=1 NMatS=1 NMatT=0.
 ***** Axes restored to original set *****
 -------------------------------------------------------------------
 Center     Atomic                   Forces (Hartrees/Bohr)
 Number     Number              X              Y              Z
 -------------------------------------------------------------------
      1        7           0.152817576   -0.124429434    0.046739298
      2        6          -0.153004031    0.126310561   -0.049728190
      3        6          -0.001742357    0.010173087    0.008119919
      4        6           0.004451931   -0.015341758    0.005415216
      5        6           0.008138062    0.001002105    0.005767982
      6        7           0.012180581    0.016665583    0.009429054
      7        6          -0.012590599   -0.011909208   -0.012571903
      8        6           0.004263878   -0.006433914    0.003610443
      9        6          -0.007370962   -0.000254335   -0.006872754
     10        1          -0.003347735    0.000861860   -0.001971645
     11        1          -0.002603784   -0.000404178   -0.004065706
     12        1           0.001013725    0.000652263    0.001657406
     13        1           0.000052519   -0.001180634    0.001433510
     14        1           0.000419883    0.002367416   -0.005202290
     15        1          -0.002678685    0.001920588   -0.001760339
 -------------------------------------------------------------------
 Cartesian Forces:  Max     0.153004031 RMS     0.043373533

 GradGradGradGradGradGradGradGradGradGradGradGradGradGradGradGradGradGrad
 Berny optimization.
 Using GEDIIS/GDIIS optimizer.
 FormGI is forming the generalized inverse of G from B-inverse, IUseBI=4.
 Internal  Forces:  Max     0.202387253 RMS     0.025070705
 Search for a local minimum.
 Step number   2 out of a maximum of   78
 All quantities printed in internal units (Hartrees-Bohrs-Radians)
 Mixed Optimization -- RFO/linear search
 Update second derivatives using D2CorX and points    1    2
 DE= -7.50D-02 DEPred=-6.57D-02 R= 1.14D+00
 TightC=F SS=  1.41D+00  RLast= 3.02D-01 DXNew= 5.0454D-01 9.0466D-01
 Trust test= 1.14D+00 RLast= 3.02D-01 DXMaxT set to 5.05D-01
 ITU=  1  0
 Use linear search instead of GDIIS.
     Eigenvalues ---    0.01043   0.01543   0.01695   0.01730   0.01828
     Eigenvalues ---    0.01952   0.02026   0.02392   0.02708   0.02836
     Eigenvalues ---    0.04186   0.06695   0.11233   0.12494   0.15894
     Eigenvalues ---    0.15986   0.15994   0.16001   0.19972   0.21970
     Eigenvalues ---    0.22236   0.23177   0.23778   0.24906   0.27444
     Eigenvalues ---    0.33041   0.33185   0.33701   0.33838   0.33956
     Eigenvalues ---    0.34854   0.34950   0.34988   0.35534   0.41816
     Eigenvalues ---    0.52753   0.56184   0.58451   0.68039
 RFO step:  Lambda=-4.78129182D-03 EMin= 1.04346707D-02
 Quartic linear search produced a step of  0.95865.
 Iteration  1 RMS(Cart)=  0.04144182 RMS(Int)=  0.01488589
 Iteration  2 RMS(Cart)=  0.01472097 RMS(Int)=  0.00044965
 Iteration  3 RMS(Cart)=  0.00008341 RMS(Int)=  0.00044293
 Iteration  4 RMS(Cart)=  0.00000007 RMS(Int)=  0.00044293
 Variable       Old X    -DE/DX   Delta X   Delta X   Delta X     New X
                                 (Linear)    (Quad)   (Total)
    R1        2.45273  -0.20239  -0.27881  -0.03400  -0.31281   2.13992
    R2        2.69178   0.00224  -0.00485   0.02705   0.02220   2.71398
    R3        2.54230   0.00572   0.01256  -0.01803  -0.00524   2.53706
    R4        2.84818   0.01040   0.02433  -0.03254  -0.00801   2.84018
    R5        2.78532  -0.00632  -0.01244   0.00989  -0.00246   2.78286
    R6        2.05448  -0.00123  -0.00313   0.00489   0.00176   2.05624
    R7        2.43289  -0.00801  -0.00701  -0.00388  -0.01099   2.42189
    R8        2.07966  -0.00465  -0.00868   0.00631  -0.00237   2.07729
    R9        2.58155   0.01984   0.02569  -0.00643   0.01902   2.60057
   R10        2.53121   0.00333   0.00743  -0.00986  -0.00262   2.52859
   R11        2.05923  -0.00055   0.00003  -0.00317  -0.00314   2.05610
   R12        2.80364   0.01304   0.02511  -0.02080   0.00430   2.80794
   R13        2.05700   0.00003   0.00006  -0.00005   0.00000   2.05700
   R14        2.07778  -0.00044  -0.00057  -0.00038  -0.00095   2.07683
   R15        2.07681   0.00128   0.00255  -0.00241   0.00014   2.07695
    A1        2.79924   0.01894   0.01767   0.06535   0.08303   2.88227
    A2        2.09017  -0.00619  -0.01399   0.01200  -0.00429   2.08588
    A3        1.92903   0.00681   0.01586  -0.02288  -0.00924   1.91979
    A4        2.25777  -0.00027  -0.00055  -0.00207  -0.00369   2.25408
    A5        2.20975   0.01111   0.02019  -0.00586   0.01477   2.22452
    A6        2.09536  -0.00930  -0.01716   0.00026  -0.01743   2.07793
    A7        1.97495  -0.00168  -0.00261   0.00234  -0.00082   1.97413
    A8        2.33281  -0.00569  -0.01335   0.01319   0.00002   2.33283
    A9        1.96006   0.00216   0.00431  -0.00072   0.00341   1.96348
   A10        1.98877   0.00354   0.00911  -0.01359  -0.00465   1.98412
   A11        2.19477   0.00173   0.00706  -0.01891  -0.01204   2.18273
   A12        2.30128   0.00025   0.00029   0.00441   0.00450   2.30578
   A13        1.96985  -0.00207  -0.00359  -0.00435  -0.00785   1.96201
   A14        2.01184   0.00182   0.00331  -0.00017   0.00323   2.01507
   A15        2.29773   0.00128   0.00333   0.00048   0.00387   2.30161
   A16        2.03139  -0.00232  -0.00555   0.00345  -0.00213   2.02927
   A17        1.95405   0.00105   0.00222  -0.00393  -0.00174   1.95231
   A18        2.09768  -0.00850  -0.01728   0.01304  -0.00372   2.09396
   A19        1.86365   0.00157   0.00360  -0.01363  -0.01029   1.85336
   A20        1.88969   0.00234   0.00451   0.00007   0.00446   1.89415
   A21        1.85105   0.00563   0.01385  -0.02616  -0.01254   1.83851
   A22        1.89536   0.00299   0.00622  -0.00338   0.00265   1.89802
   A23        1.85186  -0.00382  -0.01103   0.03343   0.02245   1.87431
    D1       -2.58186  -0.00174  -0.00631   0.06601   0.05952  -2.52234
    D2        0.45107   0.00136   0.00481  -0.04702  -0.04203   0.40903
    D3        2.89298   0.00440   0.01505  -0.12285  -0.10784   2.78515
    D4       -0.15766   0.00267   0.00938  -0.07562  -0.06642  -0.22408
    D5       -0.11686   0.00026   0.00062   0.01535   0.01605  -0.10081
    D6        3.11568  -0.00146  -0.00506   0.06258   0.05746  -3.11004
    D7       -2.80600  -0.00342  -0.01163   0.09848   0.08664  -2.71936
    D8       -0.70045  -0.00038  -0.00176   0.06058   0.05874  -0.64171
    D9        1.28694  -0.00291  -0.01058   0.09251   0.08170   1.36863
   D10        0.21352  -0.00034  -0.00016  -0.02758  -0.02764   0.18587
   D11        2.31907   0.00270   0.00971  -0.06547  -0.05554   2.26353
   D12       -1.97673   0.00017   0.00089  -0.03355  -0.03259  -2.00932
   D13       -0.04260  -0.00098  -0.00262   0.00599   0.00341  -0.03919
   D14       -3.11938  -0.00143  -0.00460   0.03011   0.02560  -3.09378
   D15        3.01338   0.00024   0.00190  -0.03852  -0.03674   2.97664
   D16       -0.06340  -0.00021  -0.00008  -0.01440  -0.01456  -0.07795
   D17        0.03910   0.00008   0.00065  -0.00575  -0.00511   0.03399
   D18        3.11508   0.00049   0.00250  -0.02979  -0.02727   3.08781
   D19        0.05818   0.00053   0.00137  -0.00663  -0.00526   0.05293
   D20       -3.10709   0.00079   0.00209  -0.01279  -0.01071  -3.11779
   D21       -0.02040   0.00019   0.00009   0.00080   0.00086  -0.01953
   D22        3.12431  -0.00001  -0.00039  -0.00020  -0.00064   3.12366
   D23       -3.13787  -0.00004  -0.00057   0.00712   0.00656  -3.13130
   D24        0.00684  -0.00023  -0.00105   0.00612   0.00506   0.01190
   D25       -0.13486  -0.00018  -0.00071   0.01754   0.01680  -0.11806
   D26       -2.24664  -0.00127  -0.00569   0.04922   0.04344  -2.20320
   D27        2.05273  -0.00102  -0.00260   0.02518   0.02259   2.07532
   D28        3.00373   0.00000  -0.00025   0.01852   0.01826   3.02198
   D29        0.89195  -0.00108  -0.00524   0.05020   0.04489   0.93684
   D30       -1.09187  -0.00084  -0.00214   0.02617   0.02405  -1.06782
         Item               Value     Threshold  Converged?
 Maximum Force            0.202387     0.000450     NO 
 RMS     Force            0.025071     0.000300     NO 
 Maximum Displacement     0.232694     0.001800     NO 
 RMS     Displacement     0.049229     0.001200     NO 
 Predicted change in Energy=-5.198624D-02
 GradGradGradGradGradGradGradGradGradGradGradGradGradGradGradGradGradGrad

                          Input orientation:                          
 ---------------------------------------------------------------------
 Center     Atomic      Atomic             Coordinates (Angstroms)
 Number     Number       Type             X           Y           Z
 ---------------------------------------------------------------------
      1          7           0        1.291478    0.578056    0.114060
      2          6           0        2.098854   -0.192960    0.303791
      3          6           0        2.843023   -1.407802    0.485388
      4          6           0        3.825691   -1.451113    1.399134
      5          6           0        4.411646   -2.646781    2.028155
      6          7           0        4.167233   -3.901887    1.941559
      7          6           0        3.217419   -4.467612    1.122030
      8          6           0        2.384568   -3.940796    0.216898
      9          6           0        2.159129   -2.540791   -0.227007
     10          1           0        4.183388   -0.520505    1.835038
     11          1           0        5.172193   -2.395999    2.781171
     12          1           0        3.167617   -5.549167    1.229682
     13          1           0        1.737903   -4.641546   -0.308122
     14          1           0        1.079884   -2.369083   -0.110488
     15          1           0        2.389324   -2.468784   -1.299289
 ---------------------------------------------------------------------
                    Distance matrix (angstroms):
                    1          2          3          4          5
     1  N    0.000000
     2  C    1.132396   0.000000
     3  C    2.547314   1.436177   0.000000
     4  C    3.491587   2.400977   1.342552   0.000000
     5  C    4.878399   3.787304   2.525030   1.472627   0.000000
     6  N    5.628464   4.551551   3.177173   2.533213   1.281611
     7  C    5.493998   4.493701   3.147686   3.089668   2.358531
     8  C    4.650317   3.759715   2.588112   3.110151   3.010676
     9  C    3.255204   2.407839   1.502957   2.570829   3.189172
    10  H    3.540021   2.607160   2.098912   1.088114   2.147195
    11  H    5.569419   4.520642   3.416458   2.148465   1.099253
    12  H    6.504411   5.539718   4.220218   4.154013   3.257148
    13  H    5.255643   4.504957   3.508283   4.177613   4.072613
    14  H    2.963245   2.438326   2.094704   3.265131   3.968821
    15  H    3.533562   2.798860   2.125229   3.221846   3.897865
                    6          7          8          9         10
     6  N    0.000000
     7  C    1.376162   0.000000
     8  C    2.480699   1.338073   0.000000
     9  C    3.253881   2.579247   1.485897   0.000000
    10  H    3.383098   4.125668   4.189573   3.525792   0.000000
    11  H    1.995643   3.296282   4.090568   4.260123   2.321719
    12  H    2.054150   1.088039   2.055664   3.491320   5.165819
    13  H    3.392611   2.065080   1.088519   2.144105   5.249430
    14  H    4.011497   3.239132   2.068734   1.099013   4.102932
    15  H    3.964574   3.247128   2.113212   1.099075   4.103470
                   11         12         13         14         15
    11  H    0.000000
    12  H    4.045727   0.000000
    13  H    5.136201   2.287509   0.000000
    14  H    5.010928   4.033313   2.374055   0.000000
    15  H    4.939616   4.060812   2.475410   1.771389   0.000000
 Stoichiometry    C7H6N2
 Framework group  C1[X(C7H6N2)]
 Deg. of freedom    39
 Full point group                 C1      NOp   1
 Largest Abelian subgroup         C1      NOp   1
 Largest concise Abelian subgroup C1      NOp   1
                         Standard orientation:                         
 ---------------------------------------------------------------------
 Center     Atomic      Atomic             Coordinates (Angstroms)
 Number     Number       Type             X           Y           Z
 ---------------------------------------------------------------------
      1          7           0        3.345065   -0.052268   -0.351158
      2          6           0        2.291079    0.195330   -0.019301
      3          6           0        0.880291    0.178916    0.249053
      4          6           0        0.183174    1.324957    0.193709
      5          6           0       -1.271005    1.481233    0.021742
      6          7           0       -2.235232    0.655120   -0.152411
      7          6           0       -2.106371   -0.714579   -0.186197
      8          6           0       -1.053775   -1.521440   -0.008834
      9          6           0        0.377688   -1.237349    0.270620
     10          1           0        0.721624    2.269764    0.156262
     11          1           0       -1.576690    2.535466   -0.037477
     12          1           0       -3.054355   -1.216077   -0.369650
     13          1           0       -1.249057   -2.590122   -0.077074
     14          1           0        0.937885   -1.773193   -0.508405
     15          1           0        0.645280   -1.688209    1.236582
 ---------------------------------------------------------------------
 Rotational constants (GHZ):           3.6364189           1.2364212           0.9451793
 Standard basis: 6-31G(2df,p) (6D, 7F)
 There are   309 symmetry adapted cartesian basis functions of A   symmetry.
 There are   282 symmetry adapted basis functions of A   symmetry.
   282 basis functions,   438 primitive gaussians,   309 cartesian basis functions
    31 alpha electrons       31 beta electrons
       nuclear repulsion energy       378.8992815147 Hartrees.
 NAtoms=   15 NActive=   15 NUniq=   15 SFac= 1.00D+00 NAtFMM=   60 NAOKFM=F Big=F
 Integral buffers will be    131072 words long.
 Raffenetti 2 integral format.
 Two-electron integral symmetry is turned on.
 One-electron integrals computed using PRISM.
 PrsmSu:  requested number of processors reduced to:  13 ShMem   1 Linda.
 NBasis=   282 RedAO= T EigKep=  1.60D-04  NBF=   282
 NBsUse=   282 1.00D-06 EigRej= -1.00D+00 NBFU=   282
 Initial guess from the checkpoint file:  "[N][C]C1dCCdNCdCC1.chk"
 B after Tr=     0.000000   -0.000000   -0.000000
         Rot=    0.999977   -0.004551   -0.001481    0.004709 Ang=  -0.77 deg.
 ExpMin= 1.61D-01 ExpMax= 4.17D+03 ExpMxC= 6.27D+02 IAcc=2 IRadAn=         4 AccDes= 0.00D+00
 Harris functional with IExCor=  402 and IRadAn=       4 diagonalized for initial guess.
 HarFok:  IExCor=  402 AccDes= 0.00D+00 IRadAn=         4 IDoV= 1 UseB2=F ITyADJ=14
 ICtDFT=  3500011 ScaDFX=  1.000000  1.000000  1.000000  1.000000
 FoFCou: FMM=F IPFlag=           0 FMFlag=      100000 FMFlg1=           0
         NFxFlg=           0 DoJE=T BraDBF=F KetDBF=T FulRan=T
         wScrn=  0.000000 ICntrl=       500 IOpCl=  0 I1Cent=   200000004 NGrid=           0
         NMat0=    1 NMatS0=      1 NMatT0=    0 NMatD0=    1 NMtDS0=    0 NMtDT0=    0
 Petite list used in FoFCou.
 Requested convergence on RMS density matrix=1.00D-08 within 128 cycles.
 Requested convergence on MAX density matrix=1.00D-06.
 Requested convergence on             energy=1.00D-06.
 No special actions if energy rises.
 Integral accuracy reduced to 1.0D-05 until final iterations.
 Initial convergence to 1.0D-05 achieved.  Increase integral accuracy.
 SCF Done:  E(RB3LYP) =  -379.791465018     A.U. after   15 cycles
            NFock= 15  Conv=0.55D-08     -V/T= 2.0072
 PrsmSu:  requested number of processors reduced to:  13 ShMem   1 Linda.
 Calling FoFJK, ICntrl=      2127 FMM=F ISym2X=0 I1Cent= 0 IOpClX= 0 NMat=1 NMatS=1 NMatT=0.
 ***** Axes restored to original set *****
 -------------------------------------------------------------------
 Center     Atomic                   Forces (Hartrees/Bohr)
 Number     Number              X              Y              Z
 -------------------------------------------------------------------
      1        7          -0.043499334    0.053318564   -0.010254539
      2        6           0.046920695   -0.050799871    0.004302255
      3        6          -0.006146612    0.008264966    0.015232541
      4        6           0.002335727   -0.009459915    0.004408688
      5        6           0.010261126    0.003708398    0.006093459
      6        7           0.005154042    0.009360589    0.005310125
      7        6          -0.006844048   -0.010131009   -0.010184454
      8        6           0.005302554   -0.005806528    0.001986173
      9        6          -0.005280424   -0.001930832   -0.005044149
     10        1          -0.002379304    0.000034423   -0.001635981
     11        1          -0.001207432    0.000638656   -0.004266400
     12        1           0.000373954   -0.000166042    0.001824104
     13        1          -0.000339205   -0.001184186    0.001857858
     14        1          -0.000491150    0.002395567   -0.007801079
     15        1          -0.004160589    0.001757218   -0.001828601
 -------------------------------------------------------------------
 Cartesian Forces:  Max     0.053318564 RMS     0.015560239

 GradGradGradGradGradGradGradGradGradGradGradGradGradGradGradGradGradGrad
 Berny optimization.
 Using GEDIIS/GDIIS optimizer.
 FormGI is forming the generalized inverse of G from B-inverse, IUseBI=4.
 Internal  Forces:  Max     0.069035544 RMS     0.009668835
 Search for a local minimum.
 Step number   3 out of a maximum of   78
 All quantities printed in internal units (Hartrees-Bohrs-Radians)
 Mixed Optimization -- RFO/linear search
 Update second derivatives using D2CorX and points    2    3
 DE= -2.85D-02 DEPred=-5.20D-02 R= 5.49D-01
 TightC=F SS=  1.41D+00  RLast= 4.05D-01 DXNew= 8.4853D-01 1.2144D+00
 Trust test= 5.49D-01 RLast= 4.05D-01 DXMaxT set to 8.49D-01
 ITU=  1  1  0
 Use linear search instead of GDIIS.
     Eigenvalues ---    0.01041   0.01560   0.01690   0.01730   0.01837
     Eigenvalues ---    0.01963   0.02037   0.02399   0.02709   0.02837
     Eigenvalues ---    0.04234   0.06718   0.11146   0.12443   0.15903
     Eigenvalues ---    0.15985   0.15994   0.16000   0.21946   0.21987
     Eigenvalues ---    0.23157   0.23679   0.23984   0.24598   0.32983
     Eigenvalues ---    0.33154   0.33701   0.33838   0.33956   0.34850
     Eigenvalues ---    0.34946   0.34988   0.35535   0.41431   0.52542
     Eigenvalues ---    0.56148   0.58353   0.67978   0.89283
 RFO step:  Lambda=-6.30322963D-03 EMin= 1.04094068D-02
 Quartic linear search produced a step of -0.17742.
 Iteration  1 RMS(Cart)=  0.05236448 RMS(Int)=  0.00200530
 Iteration  2 RMS(Cart)=  0.00282975 RMS(Int)=  0.00018357
 Iteration  3 RMS(Cart)=  0.00001501 RMS(Int)=  0.00018173
 Iteration  4 RMS(Cart)=  0.00000000 RMS(Int)=  0.00018173
 Variable       Old X    -DE/DX   Delta X   Delta X   Delta X     New X
                                 (Linear)    (Quad)   (Total)
    R1        2.13992   0.06904   0.05550   0.00002   0.05552   2.19544
    R2        2.71398   0.00111  -0.00394   0.00691   0.00297   2.71695
    R3        2.53706   0.00463   0.00093   0.00676   0.00768   2.54473
    R4        2.84018   0.01245   0.00142   0.03398   0.03540   2.87558
    R5        2.78286  -0.00444   0.00044  -0.01514  -0.01473   2.76814
    R6        2.05624  -0.00141  -0.00031  -0.00352  -0.00383   2.05240
    R7        2.42189  -0.00180   0.00195  -0.00562  -0.00369   2.41820
    R8        2.07729  -0.00361   0.00042  -0.01167  -0.01125   2.06603
    R9        2.60057   0.01412  -0.00337   0.03030   0.02692   2.62749
   R10        2.52859   0.00334   0.00046   0.00596   0.00645   2.53504
   R11        2.05610   0.00033   0.00056  -0.00011   0.00045   2.05655
   R12        2.80794   0.01255  -0.00076   0.03624   0.03552   2.84346
   R13        2.05700   0.00007  -0.00000   0.00017   0.00017   2.05717
   R14        2.07683   0.00003   0.00017  -0.00034  -0.00017   2.07666
   R15        2.07695   0.00103  -0.00003   0.00312   0.00309   2.08004
    A1        2.88227   0.01845  -0.01473   0.09215   0.07742   2.95969
    A2        2.08588  -0.00678   0.00076  -0.02645  -0.02532   2.06056
    A3        1.91979   0.00784   0.00164   0.02897   0.03092   1.95071
    A4        2.25408   0.00016   0.00065  -0.00245  -0.00167   2.25241
    A5        2.22452   0.00910  -0.00262   0.04168   0.03889   2.26341
    A6        2.07793  -0.00703   0.00309  -0.04035  -0.03723   2.04070
    A7        1.97413  -0.00176   0.00015  -0.00006   0.00018   1.97431
    A8        2.33283  -0.00596  -0.00000  -0.02885  -0.02896   2.30387
    A9        1.96348   0.00132  -0.00061   0.00661   0.00608   1.96955
   A10        1.98412   0.00469   0.00083   0.02232   0.02322   2.00733
   A11        2.18273   0.00299   0.00214   0.00803   0.00998   2.19271
   A12        2.30578  -0.00031  -0.00080   0.00286   0.00201   2.30779
   A13        1.96201  -0.00141   0.00139  -0.01320  -0.01178   1.95023
   A14        2.01507   0.00173  -0.00057   0.01035   0.00981   2.02488
   A15        2.30161   0.00160  -0.00069   0.01086   0.01015   2.31176
   A16        2.02927  -0.00257   0.00038  -0.01606  -0.01567   2.01359
   A17        1.95231   0.00096   0.00031   0.00520   0.00552   1.95783
   A18        2.09396  -0.00768   0.00066  -0.02986  -0.02921   2.06475
   A19        1.85336   0.00193   0.00183   0.00821   0.01040   1.86376
   A20        1.89415   0.00263  -0.00079   0.00807   0.00718   1.90134
   A21        1.83851   0.00605   0.00222   0.04130   0.04352   1.88203
   A22        1.89802   0.00213  -0.00047   0.00669   0.00637   1.90439
   A23        1.87431  -0.00517  -0.00398  -0.03669  -0.04073   1.83358
    D1       -2.52234  -0.00275  -0.01056   0.01691   0.00642  -2.51592
    D2        0.40903   0.00282   0.00746   0.01746   0.02484   0.43387
    D3        2.78515   0.00764   0.01913   0.04106   0.06031   2.84545
    D4       -0.22408   0.00473   0.01178   0.02900   0.04096  -0.18312
    D5       -0.10081   0.00011  -0.00285   0.03711   0.03467  -0.06614
    D6       -3.11004  -0.00280  -0.01019   0.02505   0.01532  -3.09472
    D7       -2.71936  -0.00546  -0.01537  -0.02781  -0.04291  -2.76227
    D8       -0.64171  -0.00088  -0.01042   0.01421   0.00379  -0.63791
    D9        1.36863  -0.00462  -0.01449  -0.02025  -0.03472   1.33391
   D10        0.18587  -0.00014   0.00490  -0.03031  -0.02490   0.16098
   D11        2.26353   0.00445   0.00985   0.01171   0.02180   2.28533
   D12       -2.00932   0.00071   0.00578  -0.02276  -0.01671  -2.02603
   D13       -0.03919  -0.00108  -0.00060  -0.03367  -0.03428  -0.07347
   D14       -3.09378  -0.00223  -0.00454  -0.03624  -0.04103  -3.13481
   D15        2.97664   0.00128   0.00652  -0.02504  -0.01807   2.95857
   D16       -0.07795   0.00013   0.00258  -0.02761  -0.02482  -0.10277
   D17        0.03399   0.00068   0.00091   0.01610   0.01671   0.05070
   D18        3.08781   0.00170   0.00484   0.01807   0.02287   3.11068
   D19        0.05293   0.00008   0.00093  -0.00070  -0.00014   0.05279
   D20       -3.11779   0.00075   0.00190   0.00006   0.00171  -3.11608
   D21       -0.01953   0.00003  -0.00015  -0.00741  -0.00762  -0.02716
   D22        3.12366   0.00010   0.00011  -0.01141  -0.01118   3.11249
   D23       -3.13130  -0.00062  -0.00116  -0.00787  -0.00925  -3.14055
   D24        0.01190  -0.00055  -0.00090  -0.01188  -0.01280  -0.00090
   D25       -0.11806   0.00008  -0.00298   0.01584   0.01290  -0.10516
   D26       -2.20320  -0.00249  -0.00771  -0.00961  -0.01701  -2.22021
   D27        2.07532  -0.00055  -0.00401   0.00887   0.00503   2.08035
   D28        3.02198   0.00001  -0.00324   0.01970   0.01635   3.03833
   D29        0.93684  -0.00256  -0.00796  -0.00576  -0.01356   0.92328
   D30       -1.06782  -0.00062  -0.00427   0.01272   0.00848  -1.05934
         Item               Value     Threshold  Converged?
 Maximum Force            0.069036     0.000450     NO 
 RMS     Force            0.009669     0.000300     NO 
 Maximum Displacement     0.257277     0.001800     NO 
 RMS     Displacement     0.054026     0.001200     NO 
 Predicted change in Energy=-5.886670D-03
 GradGradGradGradGradGradGradGradGradGradGradGradGradGradGradGradGradGrad

                          Input orientation:                          
 ---------------------------------------------------------------------
 Center     Atomic      Atomic             Coordinates (Angstroms)
 Number     Number       Type             X           Y           Z
 ---------------------------------------------------------------------
      1          7           0        1.392261    0.714201    0.135496
      2          6           0        2.121400   -0.172745    0.312706
      3          6           0        2.813894   -1.420160    0.490267
      4          6           0        3.792047   -1.475769    1.414114
      5          6           0        4.422480   -2.640525    2.039926
      6          7           0        4.186651   -3.894845    1.947272
      7          6           0        3.233150   -4.481045    1.122383
      8          6           0        2.387725   -3.968447    0.215693
      9          6           0        2.119808   -2.559965   -0.240921
     10          1           0        4.116185   -0.532758    1.844516
     11          1           0        5.191652   -2.367279    2.767257
     12          1           0        3.206855   -5.562429    1.241820
     13          1           0        1.765376   -4.694450   -0.304567
     14          1           0        1.039095   -2.379007   -0.157594
     15          1           0        2.340771   -2.481547   -1.316369
 ---------------------------------------------------------------------
                    Distance matrix (angstroms):
                    1          2          3          4          5
     1  N    0.000000
     2  C    1.161775   0.000000
     3  C    2.588899   1.437748   0.000000
     4  C    3.491390   2.387893   1.346613   0.000000
     5  C    4.905432   3.790540   2.545246   1.464835   0.000000
     6  N    5.686339   4.559725   3.182985   2.508366   1.279656
     7  C    5.599411   4.522501   3.153469   3.070694   2.375691
     8  C    4.787962   3.806270   2.598226   3.101899   3.038327
     9  C    3.375082   2.450576   1.521692   2.590561   3.242075
    10  H    3.448974   2.540712   2.077843   1.086085   2.138850
    11  H    5.554913   4.501916   3.425704   2.141186   1.093298
    12  H    6.626673   5.575855   4.228196   4.131940   3.263777
    13  H    5.439336   4.577509   3.528757   4.173867   4.095785
    14  H    3.127070   2.502031   2.118732   3.296187   4.042867
    15  H    3.635986   2.834180   2.148098   3.251666   3.952657
                    6          7          8          9         10
     6  N    0.000000
     7  C    1.390409   0.000000
     8  C    2.497982   1.341486   0.000000
     9  C    3.292709   2.605509   1.504692   0.000000
    10  H    3.364395   4.109769   4.176673   3.527625   0.000000
    11  H    2.003961   3.318034   4.115364   4.303776   2.318091
    12  H    2.058761   1.088277   2.065112   3.520651   5.146621
    13  H    3.401870   2.058175   1.088609   2.164647   5.240662
    14  H    4.078644   3.297087   2.117656   1.098922   4.109205
    15  H    4.006999   3.277475   2.135484   1.100710   4.115953
                   11         12         13         14         15
    11  H    0.000000
    12  H    4.058985   0.000000
    13  H    5.156665   2.285293   0.000000
    14  H    5.079234   4.097770   2.431123   0.000000
    15  H    4.981624   4.097105   2.500352   1.745747   0.000000
 Stoichiometry    C7H6N2
 Framework group  C1[X(C7H6N2)]
 Deg. of freedom    39
 Full point group                 C1      NOp   1
 Largest Abelian subgroup         C1      NOp   1
 Largest concise Abelian subgroup C1      NOp   1
                         Standard orientation:                         
 ---------------------------------------------------------------------
 Center     Atomic      Atomic             Coordinates (Angstroms)
 Number     Number       Type             X           Y           Z
 ---------------------------------------------------------------------
      1          7           0        3.412961   -0.002101   -0.307559
      2          6           0        2.298797    0.155957   -0.018809
      3          6           0        0.881745    0.121099    0.221749
      4          6           0        0.201614    1.282165    0.169637
      5          6           0       -1.238222    1.517712    0.038747
      6          7           0       -2.224537    0.720053   -0.129900
      7          6           0       -2.145295   -0.667259   -0.178112
      8          6           0       -1.119759   -1.517710   -0.021288
      9          6           0        0.346928   -1.303425    0.237575
     10          1           0        0.788990    2.194506    0.122689
     11          1           0       -1.494363    2.580380    0.018048
     12          1           0       -3.118446   -1.120637   -0.356357
     13          1           0       -1.375047   -2.573792   -0.089028
     14          1           0        0.908254   -1.861642   -0.524616
     15          1           0        0.616796   -1.775718    1.194483
 ---------------------------------------------------------------------
 Rotational constants (GHZ):           3.6094765           1.2122142           0.9255394
 Standard basis: 6-31G(2df,p) (6D, 7F)
 There are   309 symmetry adapted cartesian basis functions of A   symmetry.
 There are   282 symmetry adapted basis functions of A   symmetry.
   282 basis functions,   438 primitive gaussians,   309 cartesian basis functions
    31 alpha electrons       31 beta electrons
       nuclear repulsion energy       376.2704869233 Hartrees.
 NAtoms=   15 NActive=   15 NUniq=   15 SFac= 1.00D+00 NAtFMM=   60 NAOKFM=F Big=F
 Integral buffers will be    131072 words long.
 Raffenetti 2 integral format.
 Two-electron integral symmetry is turned on.
 One-electron integrals computed using PRISM.
 PrsmSu:  requested number of processors reduced to:  13 ShMem   1 Linda.
 NBasis=   282 RedAO= T EigKep=  1.60D-04  NBF=   282
 NBsUse=   282 1.00D-06 EigRej= -1.00D+00 NBFU=   282
 Initial guess from the checkpoint file:  "[N][C]C1dCCdNCdCC1.chk"
 B after Tr=    -0.000000   -0.000000    0.000000
         Rot=    0.999945   -0.006679    0.000535    0.008083 Ang=  -1.20 deg.
 ExpMin= 1.61D-01 ExpMax= 4.17D+03 ExpMxC= 6.27D+02 IAcc=2 IRadAn=         4 AccDes= 0.00D+00
 Harris functional with IExCor=  402 and IRadAn=       4 diagonalized for initial guess.
 HarFok:  IExCor=  402 AccDes= 0.00D+00 IRadAn=         4 IDoV= 1 UseB2=F ITyADJ=14
 ICtDFT=  3500011 ScaDFX=  1.000000  1.000000  1.000000  1.000000
 FoFCou: FMM=F IPFlag=           0 FMFlag=      100000 FMFlg1=           0
         NFxFlg=           0 DoJE=T BraDBF=F KetDBF=T FulRan=T
         wScrn=  0.000000 ICntrl=       500 IOpCl=  0 I1Cent=   200000004 NGrid=           0
         NMat0=    1 NMatS0=      1 NMatT0=    0 NMatD0=    1 NMtDS0=    0 NMtDT0=    0
 Petite list used in FoFCou.
 Requested convergence on RMS density matrix=1.00D-08 within 128 cycles.
 Requested convergence on MAX density matrix=1.00D-06.
 Requested convergence on             energy=1.00D-06.
 No special actions if energy rises.
 Integral accuracy reduced to 1.0D-05 until final iterations.
 Initial convergence to 1.0D-05 achieved.  Increase integral accuracy.
 SCF Done:  E(RB3LYP) =  -379.797546356     A.U. after   13 cycles
            NFock= 13  Conv=0.81D-08     -V/T= 2.0079
 PrsmSu:  requested number of processors reduced to:  13 ShMem   1 Linda.
 Calling FoFJK, ICntrl=      2127 FMM=F ISym2X=0 I1Cent= 0 IOpClX= 0 NMat=1 NMatS=1 NMatT=0.
 ***** Axes restored to original set *****
 -------------------------------------------------------------------
 Center     Atomic                   Forces (Hartrees/Bohr)
 Number     Number              X              Y              Z
 -------------------------------------------------------------------
      1        7           0.007315391   -0.000897737    0.001463173
      2        6          -0.003024363   -0.000937718   -0.006991891
      3        6          -0.010247570    0.000474764    0.010453828
      4        6           0.000375991   -0.002034849    0.001560569
      5        6           0.001662303    0.001411385   -0.000412384
      6        7           0.001933232    0.000716013    0.001421063
      7        6          -0.001460852   -0.000780380   -0.004596819
      8        6           0.001938562    0.000895115    0.000354183
      9        6           0.002886890   -0.000614500   -0.000769443
     10        1          -0.000171013    0.001069127   -0.000419614
     11        1           0.000724474   -0.000123919   -0.001271350
     12        1           0.000041936    0.000526047    0.000629814
     13        1          -0.001030700   -0.000231902    0.001273997
[...]
 ! D25   D(7,8,9,3)            -62.2939         -DE/DX =    0.0                 !
 ! D26   D(7,8,9,14)           176.4641         -DE/DX =    0.0                 !
 ! D27   D(7,8,9,15)            56.3492         -DE/DX =    0.0                 !
 ! D28   D(13,8,9,3)           119.0428         -DE/DX =    0.0                 !
 ! D29   D(13,8,9,14)           -2.1992         -DE/DX =    0.0                 !
 ! D30   D(13,8,9,15)         -122.314          -DE/DX =    0.0                 !
 --------------------------------------------------------------------------------
 GradGradGradGradGradGradGradGradGradGradGradGradGradGradGradGradGradGrad


 ----------------------------------------------------------------------

 Electric dipole moment (input orientation):
 (Debye = 10**-18 statcoulomb cm , SI units = C m)
                  (au)            (Debye)         (10**-30 SI)
   Tot        0.885313D+00      0.225024D+01      0.750600D+01
   x          0.512547D+00      0.130277D+01      0.434556D+01
   y         -0.710607D+00     -0.180618D+01     -0.602478D+01
   z         -0.126932D+00     -0.322630D+00     -0.107618D+01

 Dipole polarizability, Alpha (input orientation).
 (esu units = cm**3 , SI units = C**2 m**2 J**-1)
 Alpha(0;0):
               (au)            (10**-24 esu)      (10**-40 SI)
   iso        0.836085D+02      0.123895D+02      0.137852D+02
   aniso      0.580806D+02      0.860665D+01      0.957619D+01
   xx         0.870977D+02      0.129065D+02      0.143605D+02
   yx        -0.137819D+02     -0.204226D+01     -0.227233D+01
   yy         0.103255D+03      0.153008D+02      0.170245D+02
   zx         0.213070D+02      0.315737D+01      0.351305D+01
   zy        -0.371657D+01     -0.550739D+00     -0.612780D+00
   zz         0.604728D+02      0.896115D+01      0.997062D+01

 ----------------------------------------------------------------------

 Dipole orientation:
     7          2.27424793         -0.31643594          0.17105391
     6          2.66673516         -0.12965985          2.31769441
     6          3.06849649          0.08972537          4.97425432
     6          5.38448341          0.66650668          5.89671959
     6          5.90281757          1.17713377          8.53968367
     7          4.46182632          2.28191786         10.17586195
     6          2.05255290          3.12491467          9.62708370
     6          0.33100735          2.03939472          8.10192839
     6          0.86179807         -0.40179910          6.74047662
     1          6.97636416          0.78988487          4.60513157
     1          7.81556583          0.74624220          9.18334871
     1          1.52544237          4.80141035         10.69382268
     1         -1.50539838          2.92425121          7.87747328
     1         -0.78639822         -1.05236000          5.68885457
     1          1.38997590         -1.89451501          8.07971415

 Electric dipole moment (dipole orientation):
 (Debye = 10**-18 statcoulomb cm , SI units = C m)
                  (au)            (Debye)         (10**-30 SI)
   Tot        0.885313D+00      0.225024D+01      0.750600D+01
   x          0.000000D+00      0.000000D+00      0.000000D+00
   y          0.000000D+00      0.000000D+00      0.000000D+00
   z          0.885313D+00      0.225024D+01      0.750600D+01

 Dipole polarizability, Alpha (dipole orientation).
 (esu units = cm**3 , SI units = C**2 m**2 J**-1)
 Alpha(0;0):
               (au)            (10**-24 esu)      (10**-40 SI)
   iso        0.836085D+02      0.123895D+02      0.137852D+02
   aniso      0.580806D+02      0.860665D+01      0.957619D+01
   xx         0.886138D+02      0.131312D+02      0.146104D+02
   yx        -0.190785D+01     -0.282714D+00     -0.314561D+00
   yy         0.568356D+02      0.842217D+01      0.937093D+01
   zx         0.844157D+01      0.125091D+01      0.139183D+01
   zy         0.210170D+02      0.311440D+01      0.346524D+01
   zz         0.105376D+03      0.156151D+02      0.173742D+02

 ----------------------------------------------------------------------
 1\1\GINC-LEWIS4-R630-HPC4-NODE225\Freq\RB3LYP\6-31G(2df,p)\C7H6N2\LINJ
 IAN\17-May-2023\0\\#N Geom=AllCheck Guess=TCheck SCRF=Check GenChk RB3
 LYP/6-31G(2df,p) Freq\\Title Card Required\\0,1\N,0.971144729,0.489565
 7339,0.5493642242\C,1.7354388866,-0.3809529896,0.5860733079\C,2.652409
 9015,-1.4735982591,0.6007861743\C,3.6772676273,-1.5005492777,1.4853216
 489\C,4.5710397981,-2.6296245238,1.6604849246\N,4.2956959134,-3.889710
 2783,1.5641351672\C,3.0450755301,-4.3695119593,1.225719312\C,2.1673411
 098,-3.8412033885,0.3529393842\C,2.4738134684,-2.5848578078,-0.4180483
 519\H,3.8504798327,-0.6380793229,2.1234165516\H,5.5763726928,-2.392109
 6831,2.014625851\H,2.814154679,-5.3232429944,1.6953888826\H,1.22136045
 34,-4.3452236978,0.1832029107\H,1.6750420072,-2.3423820151,-1.11953518
 53\H,3.4027133708,-2.6952895363,-0.991874802\\Version=ES64L-G16RevA.03
 \State=1-A\HF=-379.8105861\RMSD=1.979e-09\RMSF=1.130e-04\ZeroPoint=0.1
 146865\Thermal=0.1220366\Dipole=0.5125473,-0.710607,-0.1269325\DipoleD
 eriv=-0.3109028,0.0290095,-0.0074322,0.0051561,-0.348069,0.0277755,0.0
 118526,0.0276186,-0.294082,0.1848417,-0.0714915,0.0027229,-0.0220915,0
 .1808878,-0.056185,-0.0162331,-0.1232386,0.066344,0.1301918,0.0919387,
 0.0456281,0.0403171,0.1810173,0.1436041,-0.009022,0.1222992,0.06468,-0
 .3036831,-0.0378072,-0.0666082,0.0834084,-0.0573029,0.078077,0.0139745
 ,0.085076,0.0310569,0.558183,-0.1771421,0.1761805,-0.1426102,0.2816999
 ,-0.0458516,0.1601889,-0.0080338,0.0532441,-0.424166,0.2531131,-0.0933
 242,0.0666307,-0.5091101,0.0305588,-0.0702772,0.11324,-0.3203654,0.109
 3008,-0.0440141,0.0612407,0.1275016,0.3067504,-0.053358,0.0205738,-0.2
 667374,0.055859,0.0259305,0.1487535,0.0196339,-0.0014695,-0.0857899,-0
 .1414387,-0.0159118,-0.0160612,-0.1507962,0.0841266,-0.0600068,-0.0086
 923,-0.0448524,0.00683,-0.0218754,0.0603721,0.0542402,0.2324127,0.0601
 812,0.0297976,-0.0461167,-0.0158943,0.000069,-0.0613425,0.0009992,-0.0
 869608,0.0723609,-0.0874732,-0.0234321,-0.0534373,-0.030078,0.0198694,
 -0.0201276,-0.1045641,-0.0365566,0.0278601,0.0248123,-0.0648879,-0.028
 8442,-0.0201199,-0.0411709,0.0805141,0.0509979,0.091174,0.0976191,-0.0
 083083,-0.083546,-0.0219827,-0.0880641,0.0117665,0.0099223,-0.0501734,
 0.0194829,0.0721683,-0.003124,0.0216333,-0.0865815,0.0258674,0.0470442
 ,0.0353711,-0.0557899,0.0202801,0.0046788,-0.0399104,-0.0119181,0.1076
 131,0.0162985,0.0055084,-0.0056441,0.0030124,0.0041776,-0.0130404\Pola
 r=87.0977115,-13.7818848,103.2550109,21.3069901,-3.7165738,60.4728377\
 Quadrupole=-0.0837992,-4.2219175,4.3057166,9.1349893,0.6511547,2.01774
 87\PG=C01 [X(C7H6N2)]\NImag=0\\0.54248241,-0.59763589,0.70035026,0.023
 96002,-0.02879454,0.02037785,-0.54318349,0.57753757,-0.02384226,0.7227
 6688,0.57836583,-0.69583251,0.02737615,-0.71624729,0.92040185,-0.02341
 436,0.02682369,-0.03963429,0.04031199,-0.01965304,0.10945539,-0.004443
 21,0.02647153,0.00003195,-0.15141544,0.09615135,-0.00655618,0.52646221
 ,0.02093357,-0.00527185,0.00241510,0.10404122,-0.19758127,-0.00639583,
 -0.14522470,0.44141488,-0.00397632,0.00731622,0.01888049,-0.00224318,-
 0.01084171,-0.07041969,0.24476726,0.09237700,0.45001921,0.00767253,-0.
 00833160,0.00132381,-0.03275023,0.02810795,-0.02026550,-0.26943032,0.0
 1932331,-0.19748944,0.51568258,-0.00086705,-0.00092556,-0.00314359,0.0
 3086599,-0.00781101,0.02201059,0.00147522,-0.09454585,-0.01036270,-0.0
 7874216,0.54349952,0.00534616,-0.00798714,0.00022113,-0.01318070,0.011
 71578,0.00189894,-0.19080045,-0.00697121,-0.23766805,0.28060796,0.1500
 3390,0.44892092,-0.00114642,-0.00002287,0.00145130,0.00315483,0.003561
 13,-0.00827027,-0.02738929,0.01936152,-0.01260371,-0.16215973,0.078667
 18,-0.01814137,0.60322806,0.00038807,-0.00275165,0.00204464,-0.0001960
 6,0.01193602,-0.00842477,0.03696331,0.01289020,0.01340023,0.04117659,-
 0.16284825,-0.01473876,0.07373394,0.72578172,0.00108180,0.00111112,-0.
 00056718,-0.00793065,-0.00410401,0.00303058,-0.01500832,0.01730970,0.0
 0484498,-0.03275849,0.00727330,-0.08696694,0.15421218,0.05820593,0.212
 03593,0.00017818,0.00169637,-0.00096933,-0.00316117,-0.00497954,0.0040
 6028,-0.01458933,-0.00671553,-0.00146188,0.03463406,0.00395022,0.00728
 769,-0.11901560,-0.08574009,-0.02998597,0.38033643,-0.00045262,0.00144
 861,-0.00047769,0.00084686,-0.00411863,0.00173344,-0.02289443,-0.00716
 871,-0.00881419,0.03021172,-0.06295153,0.01304795,-0.08726933,-0.45810
 795,-0.03991610,0.18399144,0.64855199,-0.00046398,0.00004036,0.0003072
 3,0.00244190,0.00027273,-0.00136392,-0.00307810,-0.00556163,-0.0062115
 1,0.00799610,-0.00154423,0.03392962,-0.02814421,-0.03669822,-0.0662921
 1,0.09737860,0.05624815,0.12618231,-0.00040931,-0.00097425,0.00072456,
 0.00326434,0.00269051,-0.00314793,0.01703274,0.00990352,0.00243340,-0.
 02040142,0.01817795,-0.00718354,-0.02404054,-0.05353718,0.00077932,-0.
 21165101,-0.05676773,-0.05143314,0.54706415,-0.00036891,0.00062519,-0.
 00009586,0.00028126,-0.00129562,-0.00021258,0.00113847,0.00272973,0.00
 523776,-0.00332634,0.00159636,-0.00271749,-0.04376120,-0.03526046,-0.0
 1587868,-0.05466416,-0.11216517,0.00598473,0.05243368,0.57464081,0.000
 22763,-0.00052966,0.00004780,-0.00013723,0.00132946,0.00041120,0.00531
 334,0.00312287,-0.00070801,-0.00753769,0.00721464,-0.01270614,-0.00708
 571,-0.02071447,0.00514549,-0.02838806,0.00031690,-0.09055608,0.208101
 39,-0.23883529,0.42958371,0.00035438,0.00018688,0.00000950,-0.00067928
 ,-0.00056454,0.00051560,-0.00859517,-0.01182367,-0.00093886,0.00895718
 ,-0.00566323,0.00351837,0.00016466,0.02449425,-0.00183638,-0.05700622,
 -0.01437986,-0.03287773,-0.23624881,0.08992044,-0.16910720,0.63650734,
 0.00015749,-0.00068264,0.00056624,0.00114162,0.00165572,-0.00194433,0.
 00239170,-0.03289277,-0.00141680,-0.01205803,0.00971545,-0.00161467,-0
 .00401152,-0.01923418,0.00537310,0.01399665,0.02921616,-0.01083738,0.0
 6088416,-0.15299693,0.11136195,0.07646204,0.44307597,0.00008691,0.0009
 8666,-0.00026324,-0.00111187,-0.00416334,0.00013413,-0.00351442,-0.006
 45306,0.01044859,0.00086046,-0.00432692,-0.00175303,0.00444484,0.00927
 683,-0.00380059,-0.02846130,-0.00692805,0.00390085,-0.17355246,0.12153
 427,-0.24321978,0.23674013,-0.19740546,0.41919501,-0.00247992,0.000834
 62,-0.00286263,0.00483514,0.01586935,0.01434137,-0.06999194,0.00701691
 ,-0.01147989,-0.00864454,-0.01511184,-0.02197102,0.00040213,-0.0107462
 8,-0.00020115,0.00778833,0.00846105,0.00314017,-0.00085249,0.01407271,
 -0.01366549,-0.08657075,-0.03198009,0.00851840,0.58726386,-0.00196873,
 0.00390574,-0.00025500,0.00538025,-0.02633356,-0.01399305,-0.00258211,
 -0.11660671,-0.05868575,-0.00586515,-0.00143537,-0.00944689,0.00066882
 ,0.00023076,-0.00075697,-0.00388218,-0.00344617,-0.00194562,0.00368988
 ,-0.01840777,0.01662895,-0.02959855,-0.15272042,0.06284661,-0.04032171
 ,0.42360934,-0.00280461,0.00148640,-0.00077079,0.00256882,-0.00606129,
 0.00231508,-0.02593299,-0.06946906,-0.13299767,0.00408026,-0.02615250,
 -0.01383844,0.00077469,0.01054819,-0.00145068,-0.00484494,-0.00974613,
 -0.00081753,0.01621904,0.02331072,-0.00873919,0.00513841,0.07747457,-0
 .10933353,0.03972584,-0.02861953,0.52425769,0.00046682,0.00027383,-0.0
 0033733,-0.00197454,-0.00258495,0.00266171,0.00259983,-0.01930664,-0.0
 1514768,-0.06259719,-0.02673050,-0.03231050,0.00993179,0.01207481,0.01
 280371,-0.00083953,0.00565987,-0.00315624,-0.00255630,-0.00094080,-0.0
 0046568,0.00109400,0.00093779,-0.00009528,-0.00112364,0.00287238,-0.00
 451608,0.05389223,0.00020175,0.00017528,-0.00027600,-0.00168942,-0.000
 25836,0.00232726,0.00466765,0.00334065,0.00316123,-0.03427487,-0.22644
 461,-0.13949688,-0.00578690,-0.01839761,-0.01395399,0.00448485,-0.0009
 7866,0.00173015,-0.00000756,0.00034904,-0.00110508,0.00049800,0.000171
 73,0.00026118,0.00166164,0.00205677,-0.00118947,0.03009853,0.23959115,
 -0.00079975,0.00021421,0.00057460,0.00398565,0.00165147,-0.00314999,-0
 .00681837,-0.01879647,-0.01111878,-0.02868385,-0.13723549,-0.13666970,
 -0.00337208,0.00877720,0.00360196,-0.00132507,-0.00222169,0.00061141,0
 .00165310,0.00085154,0.00102475,-0.00082565,0.00010382,0.00015016,-0.0
 0556852,-0.00015818,0.00183939,0.04178113,0.14728650,0.14327308,-0.000
 13589,0.00034331,0.00011889,-0.00046111,-0.00051231,-0.00086491,-0.001
 95194,0.00295085,0.00107568,-0.01357612,-0.00466625,-0.00971036,-0.279
 33696,-0.03613589,-0.08172948,-0.00453842,-0.01674488,0.00127394,0.004
 62085,0.00158501,-0.00406218,-0.00089956,0.00069274,-0.00010223,0.0005
 0243,-0.00022422,-0.00042654,0.00044422,0.00019832,0.00008605,0.295639
 59,0.00024491,-0.00022116,-0.00031866,0.00007710,-0.00045435,0.0016464
 2,0.00254684,-0.00364357,-0.00052683,0.02325786,0.00608062,0.00946378,
 -0.03625418,-0.05648748,-0.01688453,-0.03824843,-0.02359752,-0.0118459
 8,-0.00111876,-0.00176390,-0.00116509,-0.00096030,-0.00083556,0.000130
 84,0.00011308,0.00001160,-0.00042652,-0.00093322,0.00031827,-0.0000426
 8,0.05226351,0.08040591,0.00005843,-0.00030403,0.00005627,-0.00014989,
 0.00181475,-0.00061149,0.00068492,0.00056443,0.00264916,-0.00894042,0.
 00097996,0.00373636,-0.08269711,-0.02352798,-0.07121276,0.00030662,0.0
 0054163,-0.00744292,-0.00359495,-0.00030726,0.01401282,0.00107656,-0.0
 0065061,-0.00056130,-0.00092186,0.00040491,0.00196936,0.00004184,0.001
 31404,-0.00037816,0.09419454,0.02038496,0.05904257,0.00005856,-0.00010
 987,0.00004277,0.00005956,0.00024736,-0.00000978,0.00031946,-0.0012833
 0,-0.00054374,-0.00077011,0.00028808,-0.00035023,-0.00325429,-0.003135
 30,-0.00119528,-0.01521298,-0.03113521,0.01106671,-0.06055419,-0.04299
 089,0.02057584,0.00772175,0.01688205,-0.01008001,-0.00059530,-0.000637
 86,-0.00488833,0.00028305,-0.00024508,0.00015420,0.00025255,-0.0007658
 7,-0.00109482,0.07188042,0.00001080,0.00003923,-0.00005316,-0.00009489
 ,-0.00016362,0.00013694,-0.00064449,0.00075068,-0.00005724,0.00112847,
 -0.00076101,0.00052594,-0.00206039,0.00457387,0.00192984,-0.01194802,-
 0.01327660,-0.00065063,-0.04172865,-0.26009322,0.11548525,-0.00578470,
 -0.00773353,0.00470752,0.00046270,0.00288278,0.00332312,0.00015418,0.0
 0013361,-0.00027585,-0.00012931,-0.00033989,0.00000328,0.05986884,0.27
 568250,-0.00004812,0.00011235,-0.00003864,-0.00014093,-0.00023639,0.00
 019744,-0.00087188,0.00027564,-0.00010513,0.00118842,-0.00089916,0.000
 72153,-0.00273726,0.00224429,0.00146931,-0.00603371,-0.01151063,0.0046
 3103,0.02471586,0.11111742,-0.09475081,0.00241907,0.02214001,-0.006674
 10,-0.00570259,0.00362268,0.00264975,0.00023259,0.00027850,-0.00039203
 ,-0.00008856,-0.00012585,-0.00004970,-0.01475578,-0.12379234,0.0945390
 3,0.00016741,-0.00003570,-0.00008732,-0.00069841,-0.00015270,0.0003558
 2,-0.00047784,-0.00083649,-0.00066956,0.00207109,-0.00097281,-0.000271
 51,-0.00101461,0.00270809,-0.00035710,0.00116254,-0.00173641,-0.005139
 69,-0.01374846,-0.01205787,-0.00111842,-0.26752881,-0.11732038,-0.0460
 3374,-0.00015148,0.00180749,-0.00299727,0.00017060,-0.00004656,-0.0001
 7049,-0.00051227,-0.00029248,0.00109463,-0.00042055,0.00113388,0.00164
 190,0.27999589,0.00015084,0.00000600,0.00010619,0.00022909,-0.00031270
 ,-0.00062452,0.00019043,0.00011736,0.00309389,-0.00210657,0.00071463,-
 0.00029110,0.00195636,-0.00272239,0.00100256,-0.00110397,0.00564235,0.
 00458942,0.01106316,0.00640965,0.00479850,-0.12085541,-0.10938815,-0.0
 1539667,-0.01986096,-0.00919031,-0.00113839,-0.00009650,0.00012202,-0.
 00002406,0.00042341,0.00030003,-0.00121144,0.00149897,-0.00056737,-0.0
 0269514,0.12829901,0.11022343,-0.00014662,-0.00001175,0.00001119,0.000
 77298,0.00021484,-0.00004873,0.00122901,0.00109854,-0.00002200,-0.0020
 3594,0.00101178,0.00076584,0.00172769,-0.00026222,0.00055936,-0.006036
 36,0.00795131,0.00272966,-0.02013974,-0.01336786,-0.00062834,-0.044931
 96,-0.01032287,-0.04870808,0.01269420,0.00672847,0.00424061,-0.0000838
 0,-0.00010434,0.00023739,0.00035526,-0.00030508,-0.00122525,0.00204999
 ,-0.00198665,-0.00274253,0.05306955,0.00802219,0.04553064,0.00014461,-
 0.00017380,0.00024398,0.00049216,0.00030629,0.00026029,-0.00234450,0.0
 0103552,0.00074497,0.00039328,-0.00034847,-0.00050556,0.00024537,0.000
 07912,0.00017109,0.00006236,-0.00015432,-0.00023671,-0.00028103,-0.001
 55024,0.00078386,0.00680978,-0.00295801,0.00782795,-0.19847670,0.04499
 589,-0.13004424,0.00022797,0.00018572,-0.00034781,-0.00000988,-0.00000
 317,-0.00002140,0.00029593,-0.00033605,0.00006898,0.00097323,0.0003735
 1,-0.00000218,0.21013373,0.00022509,-0.00023551,0.00016837,-0.00119872
 ,0.00138640,-0.00037306,-0.02074988,0.00474038,-0.01741271,0.00038292,
 -0.00412931,-0.00300386,0.00034334,-0.00045307,-0.00038462,-0.00091064
 ,-0.00021890,-0.00005767,-0.00216001,-0.00419148,0.00267705,0.02293045
 ,-0.00657507,0.01857151,0.04623325,-0.06061822,0.03870479,-0.00109097,
 0.00011649,-0.00088223,-0.00003736,0.00010251,0.00002675,0.00085893,-0
 .00052894,0.00085386,0.00005664,0.00120942,-0.00066176,-0.04704281,0.0
 7023046,0.00051508,-0.00013597,0.00016114,-0.00101768,0.00105094,0.000
 48616,-0.01551909,0.00520438,-0.01424464,0.00041492,-0.00386936,-0.001
 93491,0.00042066,-0.00056011,0.00010695,0.00012612,0.00008867,0.000529
 27,0.00203022,0.00261670,-0.00034403,-0.01168254,0.00333861,-0.0108149
 8,-0.12464723,0.03641882,-0.15711271,-0.00106746,-0.00006167,-0.000364
 12,-0.00004477,0.00002410,-0.00003761,-0.00060701,0.00040616,-0.000271
 13,0.00026026,-0.00052640,0.00094828,0.13855637,-0.04033901,0.17081173
 ,0.00027333,-0.00006013,0.00019208,-0.00024925,-0.00025845,0.00002187,
 0.00421476,0.00062390,-0.00246704,0.00091895,-0.00032232,-0.00233494,0
 .00023060,-0.00212736,0.00195472,0.00185236,0.00236385,0.00123239,-0.0
 0123849,0.00022884,-0.00343439,-0.00408049,-0.00521820,0.00447262,-0.2
 3190512,0.02566581,0.10794795,-0.00001930,0.00005393,0.00025146,-0.000
 03749,0.00007311,-0.00003710,-0.00006387,-0.00003239,0.00011201,0.0000
 1168,-0.00016136,0.00147792,-0.01866631,0.00215976,0.01226214,0.248758
 64,0.00061486,-0.00062944,0.00073779,-0.00097459,-0.00121835,-0.003057
 15,0.02009912,-0.00827316,-0.01646837,0.00111589,0.00024592,0.00148065
 ,0.00087412,0.00085048,-0.00032664,0.00007305,0.00117073,0.00027585,-0
 .00254872,-0.00017622,-0.00058599,-0.02486181,-0.00077578,0.01635807,0
 .02329557,-0.04393847,-0.01204489,-0.00038781,-0.00029577,0.00075189,-
 0.00000693,0.00012448,-0.00003336,0.00065914,-0.00059848,-0.00138524,-
 0.00055372,-0.00256397,0.00199538,0.00559083,-0.00083514,-0.00365587,-
 0.02298899,0.05691317,0.00037775,-0.00032790,0.00063643,-0.00032695,-0
 .00036634,-0.00270079,0.01607333,-0.00872040,-0.01334695,0.00123939,-0
 .00099022,0.00134287,0.00002034,0.00042923,-0.00050429,-0.00165267,-0.
 00031358,-0.00013729,0.00239488,0.00076189,0.00142661,0.01278266,0.003
 83384,-0.00870010,0.10860040,-0.01278945,-0.11221133,-0.00034094,-0.00
 017143,0.00076005,-0.00007534,-0.00000887,0.00005264,-0.00036452,0.000
 29782,0.00081598,0.00042294,0.00029497,-0.00164803,-0.01749959,0.00211
 259,0.01208060,-0.12165167,0.01595787,0.12213359\\-0.00021153,-0.00009
 865,0.00023662,0.00036413,0.00021391,-0.00044230,-0.00013776,-0.000121
 86,0.00022726,-0.00002928,-0.00000180,-0.00002006,-0.00000539,-0.00001
 050,-0.00000932,0.00001141,0.00001399,-0.00001276,-0.00000908,-0.00000
 960,-0.00000127,-0.00001107,0.00002818,0.00000186,0.00002510,0.0000038
 9,0.00000986,0.00000184,0.00000306,0.00000839,0.00000442,-0.00000539,0
 .00000512,-0.00000556,0.00000038,0.00000726,0.00000078,-0.00001371,-0.
 00001011,-0.00001194,-0.00000459,0.00000357,0.00001391,0.00000269,-0.0
 0000413\\\@


 REVOLUTIONS HAVE NEVER LIGHTENED THE BURDEN OF TYRANNY:
 THEY HAVE MERELY SHIFTED IT TO OTHER SHOULDERS.
                                   -- G. B. SHAW (1903)
 Job cpu time:       0 days  1 hours 25 minutes 12.4 seconds.
 Elapsed time:       0 days  0 hours 21 minutes 18.7 seconds.
 File lengths (MBytes):  RWF=    100 Int=      0 D2E=      0 Chk=      8 Scr=      1
 Normal termination of Gaussian 16 at Wed May 17 01:15:35 2023.
### All Done ###
