### Starting Gaussian ###
 Entering Gaussian System, Link 0=g16
 Initial command:
 /cluster/software/gaussian/gaussian-16-A.03/avx2/g16/l1.exe "/local/scratch/cz9n3/Gau-13397.inp" -scrdir="/local/scratch/cz9n3/"
 Entering Link 1 = /cluster/software/gaussian/gaussian-16-A.03/avx2/g16/l1.exe PID=     13398.
  
 Copyright (c) 1988,1990,1992,1993,1995,1998,2003,2009,2016,
            Gaussian, Inc.  All Rights Reserved.
  
 This is part of the Gaussian(R) 16 program.  It is based on
 the Gaussian(R) 09 system (copyright 2009, Gaussian, Inc.),
 the Gaussian(R) 03 system (copyright 2003, Gaussian, Inc.),
 the Gaussian(R) 98 system (copyright 1998, Gaussian, Inc.),
 the Gaussian(R) 94 system (copyright 1995, Gaussian, Inc.),
 the Gaussian 92(TM) system (copyright 1992, Gaussian, Inc.),
 the Gaussian 90(TM) system (copyright 1990, Gaussian, Inc.),
 the Gaussian 88(TM) system (copyright 1988, Gaussian, Inc.),
 the Gaussian 86(TM) system (copyright 1986, Carnegie Mellon
 University), and the Gaussian 82(TM) system (copyright 1983,
 Carnegie Mellon University). Gaussian is a federally registered
 trademark of Gaussian, Inc.
  
 This software contains proprietary and confidential information,
 including trade secrets, belonging to Gaussian, Inc.
  
 This software is provided under written license and may be
 used, copied, transmitted, or stored only in accord with that
 written license.
  
 The following legend is applicable only to US Government
 contracts under FAR:
  
                    RESTRICTED RIGHTS LEGEND
  
 Use, reproduction and disclosure by the US Government is
 subject to restrictions as set forth in subparagraphs (a)
 and (c) of the Commercial Computer Software - Restricted
 Rights clause in FAR 52.227-19.
  
 Gaussian, Inc.
 340 Quinnipiac St., Bldg. 40, Wallingford CT 06492
  
  
 ---------------------------------------------------------------
 Warning -- This program may not be used in any manner that
 competes with the business of Gaussian, Inc. or will provide
 assistance to any competitor of Gaussian, Inc.  The licensee
 of this program is prohibited from giving any competitor of
 Gaussian, Inc. access to this program.  By using this program,
 the user acknowledges that Gaussian, Inc. is engaged in the
 business of creating and licensing software in the field of
 computational chemistry and represents and warrants to the
 licensee that it is not a competitor of Gaussian, Inc. and that
 it will not use this program in any manner prohibited above.
 ---------------------------------------------------------------
  

 Cite this work as:
 Gaussian 16, Revision A.03,
 M. J. Frisch, G. W. Trucks, H. B. Schlegel, G. E. Scuseria, 
 M. A. Robb, J. R. Cheeseman, G. Scalmani, V. Barone, 
 G. A. Petersson, H. Nakatsuji, X. Li, M. Caricato, A. V. Marenich, 
 J. Bloino, B. G. Janesko, R. Gomperts, B. Mennucci, H. P. Hratchian, 
 J. V. Ortiz, A. F. Izmaylov, J. L. Sonnenberg, D. Williams-Young, 
 F. Ding, F. Lipparini, F. Egidi, J. Goings, B. Peng, A. Petrone, 
 T. Henderson, D. Ranasinghe, V. G. Zakrzewski, J. Gao, N. Rega, 
 G. Zheng, W. Liang, M. Hada, M. Ehara, K. Toyota, R. Fukuda, 
 J. Hasegawa, M. Ishida, T. Nakajima, Y. Honda, O. Kitao, H. Nakai, 
 T. Vreven, K. Throssell, J. A. Montgomery, Jr., J. E. Peralta, 
 F. Ogliaro, M. J. Bearpark, J. J. Heyd, E. N. Brothers, K. N. Kudin, 
 V. N. Staroverov, T. A. Keith, R. Kobayashi, J. Normand, 
 K. Raghavachari, A. P. Rendell, J. C. Burant, S. S. Iyengar, 
 J. Tomasi, M. Cossi, J. M. Millam, M. Klene, C. Adamo, R. Cammi, 
 J. W. Ochterski, R. L. Martin, K. Morokuma, O. Farkas, 
 J. B. Foresman, and D. J. Fox, Gaussian, Inc., Wallingford CT, 2016.
 
 ******************************************
 Gaussian 16:  ES64L-G16RevA.03 25-Dec-2016
                17-May-2023 
 ******************************************
 %chk=[N]c1sccccc2cccccc1-2.chk
 %NProcShared=20
 Will use up to   20 processors via shared memory.
 -----------------------------
 # opt freq b3lyp/6-31g(2df,p)
 -----------------------------
 1/18=20,19=15,26=3,38=1/1,3;
 2/9=110,12=2,17=6,18=5,40=1/2;
 3/5=1,6=6,7=104,11=2,25=1,30=1,71=1,74=-5/1,2,3;
 4//1;
 5/5=2,38=5/2;
 6/7=2,8=2,9=2,10=2,28=1/1;
 7//1,2,3,16;
 1/18=20,19=15,26=3/3(2);
 2/9=110/2;
 99//99;
 2/9=110/2;
 3/5=1,6=6,7=104,11=2,25=1,30=1,71=1,74=-5/1,2,3;
 4/5=5,16=3,69=1/1;
 5/5=2,38=5/2;
 7//1,2,3,16;
 1/18=20,19=15,26=3/3(-5);
 2/9=110/2;
 6/7=2,8=2,9=2,10=2,19=2,28=1/1;
 99/9=1/99;
 -------------------
 Title Card Required
 -------------------
 Symbolic Z-matrix:
 Charge =  0 Multiplicity = 1
 N                     4.74431  -0.8737   -1.12162 
 C                     6.95367  -1.29735  -1.64131 
 S                     4.47987  -1.23281  -1.56213 
 C                     6.30258  -1.01201  -1.29129 
 C                     5.63505  -2.05996  -2.57678 
 C                     7.17929  -2.24973  -2.80956 
 C                     7.88723  -2.81344  -3.50105 
 C                     8.98788  -2.71229  -3.37697 
 C                     9.2838   -3.35323  -4.16319 
 C                     10.83681  -2.29762  -2.8683 
 C                     11.0661  -3.48846  -4.32907 
 C                     12.53659  -3.55773  -4.41404 
 C                     10.74704  -3.18008  -3.95079 
 C                     8.96098  -2.05045  -2.56512 
 H                     5.73341  -0.15101  -0.23514 
 H                     4.84837  -2.46326  -3.0715 
 H                     8.2092   -1.26662  -1.60361 
 H                     7.19004  -3.15601  -3.92127 
 H                     9.3971   -3.98068  -4.93286 
 H                     12.07119  -2.50555  -3.12337 
 H                     11.44545  -4.51997  -5.59439 
 H                     13.98159  -3.44827  -4.27977 
 H                     12.25313  -3.8834   -4.81353 
 
 Add virtual bond connecting atoms H23        and H21        Dist= 2.44D+00.
 Add virtual bond connecting atoms H22        and C12        Dist= 2.75D+00.
 Add virtual bond connecting atoms H15        and N1         Dist= 2.86D+00.
 Add virtual bond connecting atoms H15        and C4         Dist= 2.79D+00.

 GradGradGradGradGradGradGradGradGradGradGradGradGradGradGradGradGradGrad
 Berny optimization.
 Initialization pass.
                           ----------------------------
                           !    Initial Parameters    !
                           ! (Angstroms and Degrees)  !
 --------------------------                            --------------------------
 ! Name  Definition              Value          Derivative Info.                !
 --------------------------------------------------------------------------------
 ! R1    R(1,3)                  0.6268         estimate D2E/DX2                !
 ! R2    R(1,4)                  1.5736         estimate D2E/DX2                !
 ! R3    R(1,15)                 1.5121         estimate D2E/DX2                !
 ! R4    R(2,4)                  0.7924         estimate D2E/DX2                !
 ! R5    R(2,5)                  1.7876         estimate D2E/DX2                !
 ! R6    R(2,6)                  1.5241         estimate D2E/DX2                !
 ! R7    R(2,17)                 1.2565         estimate D2E/DX2                !
 ! R8    R(3,4)                  1.8559         estimate D2E/DX2                !
 ! R9    R(3,5)                  1.7459         estimate D2E/DX2                !
 ! R10   R(4,5)                  1.7878         estimate D2E/DX2                !
 ! R11   R(4,15)                 1.4767         estimate D2E/DX2                !
 ! R12   R(5,6)                  1.5732         estimate D2E/DX2                !
 ! R13   R(5,16)                 1.013          estimate D2E/DX2                !
 ! R14   R(6,7)                  1.1389         estimate D2E/DX2                !
 ! R15   R(6,14)                 1.8094         estimate D2E/DX2                !
 ! R16   R(7,8)                  1.1122         estimate D2E/DX2                !
 ! R17   R(7,9)                  1.6371         estimate D2E/DX2                !
 ! R18   R(7,14)                 1.6159         estimate D2E/DX2                !
 ! R19   R(7,18)                 0.8832         estimate D2E/DX2                !
 ! R20   R(8,9)                  1.0567         estimate D2E/DX2                !
 ! R21   R(8,14)                 1.0478         estimate D2E/DX2                !
 ! R22   R(9,11)                 1.7951         estimate D2E/DX2                !
 ! R23   R(9,13)                 1.4887         estimate D2E/DX2                !
 ! R24   R(9,19)                 0.9995         estimate D2E/DX2                !
 ! R25   R(10,13)                1.3995         estimate D2E/DX2                !
 ! R26   R(10,20)                1.2775         estimate D2E/DX2                !
 ! R27   R(11,12)                1.4746         estimate D2E/DX2                !
 ! R28   R(11,13)                0.5831         estimate D2E/DX2                !
 ! R29   R(12,22)                1.4553         estimate D2E/DX2                !
 ! R30   R(12,23)                0.5882         estimate D2E/DX2                !
 ! R31   R(21,23)                1.2912         estimate D2E/DX2                !
 ! A1    A(3,1,15)             164.0987         estimate D2E/DX2                !
 ! A2    A(4,2,6)              133.2581         estimate D2E/DX2                !
 ! A3    A(4,2,17)             143.0368         estimate D2E/DX2                !
 ! A4    A(5,2,17)             139.7507         estimate D2E/DX2                !
 ! A5    A(6,2,17)              83.7051         estimate D2E/DX2                !
 ! A6    A(1,3,5)              113.6218         estimate D2E/DX2                !
 ! A7    A(1,4,2)              153.2516         estimate D2E/DX2                !
 ! A8    A(1,4,5)               76.0723         estimate D2E/DX2                !
 ! A9    A(2,4,3)              134.4025         estimate D2E/DX2                !
 ! A10   A(2,4,15)             147.415          estimate D2E/DX2                !
 ! A11   A(3,4,15)              78.1825         estimate D2E/DX2                !
 ! A12   A(5,4,15)             135.4057         estimate D2E/DX2                !
 ! A13   A(2,5,3)               88.9586         estimate D2E/DX2                !
 ! A14   A(3,5,6)              142.4321         estimate D2E/DX2                !
 ! A15   A(3,5,16)              87.628          estimate D2E/DX2                !
 ! A16   A(4,5,6)               79.0817         estimate D2E/DX2                !
 ! A17   A(4,5,16)             150.9785         estimate D2E/DX2                !
 ! A18   A(6,5,16)             129.9398         estimate D2E/DX2                !
 ! A19   A(2,6,7)              150.0805         estimate D2E/DX2                !
 ! A20   A(2,6,14)              88.4753         estimate D2E/DX2                !
 ! A21   A(5,6,7)              139.4386         estimate D2E/DX2                !
 ! A22   A(5,6,14)             158.9562         estimate D2E/DX2                !
 ! A23   A(6,7,8)              120.1574         estimate D2E/DX2                !
 ! A24   A(6,7,9)              159.887          estimate D2E/DX2                !
 ! A25   A(6,7,18)              89.4372         estimate D2E/DX2                !
 ! A26   A(8,7,18)             150.4054         estimate D2E/DX2                !
 ! A27   A(9,7,14)              79.8102         estimate D2E/DX2                !
 ! A28   A(9,7,18)             110.6758         estimate D2E/DX2                !
 ! A29   A(7,9,11)             155.393          estimate D2E/DX2                !
 ! A30   A(7,9,13)             137.9384         estimate D2E/DX2                !
 ! A31   A(7,9,19)             127.9633         estimate D2E/DX2                !
 ! A32   A(8,9,11)             113.1107         estimate D2E/DX2                !
 ! A33   A(8,9,13)              95.656          estimate D2E/DX2                !
 ! A34   A(11,9,19)             76.6436         estimate D2E/DX2                !
 ! A35   A(13,9,19)             94.0983         estimate D2E/DX2                !
 ! A36   A(13,10,20)            78.75           estimate D2E/DX2                !
 ! A37   A(12,11,13)           127.438          estimate D2E/DX2                !
 ! A38   A(11,12,23)            65.4544         estimate D2E/DX2                !
 ! A39   A(22,12,23)           125.6455         estimate D2E/DX2                !
 ! A40   A(9,13,10)            104.2852         estimate D2E/DX2                !
 ! A41   A(10,13,11)           143.1479         estimate D2E/DX2                !
 ! A42   A(6,14,8)              81.4331         estimate D2E/DX2                !
 ! A43   L(2,5,16,3,-1)        176.5866         estimate D2E/DX2                !
 ! A44   L(14,7,18,9,-1)       190.486          estimate D2E/DX2                !
 ! A45   L(9,8,14,7,-1)        194.7923         estimate D2E/DX2                !
 ! A46   L(8,9,19,13,-1)       189.7543         estimate D2E/DX2                !
 ! A47   L(9,11,12,10,-1)      177.4164         estimate D2E/DX2                !
 ! A48   L(11,12,22,23,-1)     191.0999         estimate D2E/DX2                !
 ! A49   L(12,23,21,11,-1)     170.0899         estimate D2E/DX2                !
 ! A50   L(2,5,16,3,-2)        179.9998         estimate D2E/DX2                !
 ! A51   L(14,7,18,9,-2)       180.0001         estimate D2E/DX2                !
 ! A52   L(9,8,14,7,-2)        180.0003         estimate D2E/DX2                !
 ! A53   L(8,9,19,13,-2)       179.9999         estimate D2E/DX2                !
 ! A54   L(9,11,12,10,-2)      180.0            estimate D2E/DX2                !
 ! A55   L(11,12,22,23,-2)     179.9999         estimate D2E/DX2                !
 ! A56   L(12,23,21,11,-2)     180.0001         estimate D2E/DX2                !
 ! D1    D(15,1,3,5)             0.0018         estimate D2E/DX2                !
 ! D2    D(3,1,4,15)           179.9994         estimate D2E/DX2                !
 ! D3    D(6,2,4,1)              0.0            estimate D2E/DX2                !
 ! D4    D(6,2,4,3)             -0.0001         estimate D2E/DX2                !
 ! D5    D(6,2,4,15)          -179.9996         estimate D2E/DX2                !
 ! D6    D(17,2,4,1)          -179.9994         estimate D2E/DX2                !
 ! D7    D(17,2,4,3)          -179.9995         estimate D2E/DX2                !
 ! D8    D(17,2,4,15)            0.0011         estimate D2E/DX2                !
 ! D9    D(17,2,5,3)           179.9996         estimate D2E/DX2                !
 ! D10   D(4,2,6,7)            179.9998         estimate D2E/DX2                !
 ! D11   D(4,2,6,14)          -180.0            estimate D2E/DX2                !
 ! D12   D(17,2,6,7)            -0.0006         estimate D2E/DX2                !
 ! D13   D(17,2,6,14)           -0.0003         estimate D2E/DX2                !
 ! D14   D(1,3,5,2)              0.0            estimate D2E/DX2                !
 ! D15   D(1,3,5,6)              0.0005         estimate D2E/DX2                !
 ! D16   D(1,3,5,16)          -179.9998         estimate D2E/DX2                !
 ! D17   D(1,4,5,6)           -179.9997         estimate D2E/DX2                !
 ! D18   D(1,4,5,16)             0.0005         estimate D2E/DX2                !
 ! D19   D(15,4,5,6)           179.9996         estimate D2E/DX2                !
 ! D20   D(15,4,5,16)           -0.0002         estimate D2E/DX2                !
 ! D21   D(3,5,6,7)            179.9998         estimate D2E/DX2                !
 ! D22   D(3,5,6,14)            -0.0014         estimate D2E/DX2                !
 ! D23   D(4,5,6,7)           -179.9997         estimate D2E/DX2                !
 ! D24   D(4,5,6,14)            -0.0009         estimate D2E/DX2                !
 ! D25   D(16,5,6,7)             0.0002         estimate D2E/DX2                !
 ! D26   D(16,5,6,14)          179.999          estimate D2E/DX2                !
 ! D27   D(2,6,7,8)              0.0007         estimate D2E/DX2                !
 ! D28   D(2,6,7,9)              0.0011         estimate D2E/DX2                !
 ! D29   D(2,6,7,18)          -179.9995         estimate D2E/DX2                !
 ! D30   D(5,6,7,8)            179.9998         estimate D2E/DX2                !
 ! D31   D(5,6,7,9)           -179.9997         estimate D2E/DX2                !
 ! D32   D(5,6,7,18)            -0.0003         estimate D2E/DX2                !
 ! D33   D(2,6,14,8)           179.9998         estimate D2E/DX2                !
 ! D34   D(5,6,14,8)          -179.9994         estimate D2E/DX2                !
 ! D35   D(6,7,9,11)            -0.0007         estimate D2E/DX2                !
 ! D36   D(6,7,9,13)            -0.0006         estimate D2E/DX2                !
 ! D37   D(6,7,9,19)           179.9993         estimate D2E/DX2                !
 ! D38   D(14,7,9,11)            0.0001         estimate D2E/DX2                !
 ! D39   D(14,7,9,13)            0.0001         estimate D2E/DX2                !
 ! D40   D(14,7,9,19)         -179.9999         estimate D2E/DX2                !
 ! D41   D(18,7,9,11)          180.0            estimate D2E/DX2                !
 ! D42   D(18,7,9,13)         -180.0            estimate D2E/DX2                !
 ! D43   D(18,7,9,19)           -0.0001         estimate D2E/DX2                !
 ! D44   D(7,8,9,14)           179.9989         estimate D2E/DX2                !
 ! D45   D(7,9,12,23)         -179.9999         estimate D2E/DX2                !
 ! D46   D(8,9,12,23)         -179.9999         estimate D2E/DX2                !
 ! D47   D(19,9,12,23)           0.0001         estimate D2E/DX2                !
 ! D48   D(11,9,14,6)         -179.9998         estimate D2E/DX2                !
 ! D49   D(13,9,14,6)         -179.9997         estimate D2E/DX2                !
 ! D50   D(7,9,13,10)            0.0001         estimate D2E/DX2                !
 ! D51   D(8,9,13,10)            0.0001         estimate D2E/DX2                !
 ! D52   D(19,9,13,10)        -179.9998         estimate D2E/DX2                !
 ! D53   D(20,10,13,9)        -179.9997         estimate D2E/DX2                !
 ! D54   D(20,10,13,11)          0.0004         estimate D2E/DX2                !
 ! D55   D(9,11,12,13)           0.0004         estimate D2E/DX2                !
 ! D56   D(13,11,12,23)       -180.0            estimate D2E/DX2                !
 ! D57   D(12,11,13,10)         -0.0001         estimate D2E/DX2                !
 --------------------------------------------------------------------------------
 Trust Radius=3.00D-01 FncErr=1.00D-07 GrdErr=1.00D-06 EigMax=2.50D+02 EigMin=1.00D-04
 Number of steps in this run=    138 maximum allowed number of steps=    138.
 GradGradGradGradGradGradGradGradGradGradGradGradGradGradGradGradGradGrad

                          Input orientation:                          
 ---------------------------------------------------------------------
 Center     Atomic      Atomic             Coordinates (Angstroms)
 Number     Number       Type             X           Y           Z
 ---------------------------------------------------------------------
      1          7           0        4.744310   -0.873700   -1.121620
      2          6           0        6.953670   -1.297350   -1.641310
      3         16           0        4.479870   -1.232810   -1.562130
      4          6           0        6.302580   -1.012010   -1.291290
      5          6           0        5.635050   -2.059960   -2.576780
      6          6           0        7.179290   -2.249730   -2.809560
      7          6           0        7.887230   -2.813440   -3.501050
      8          6           0        8.987880   -2.712290   -3.376970
      9          6           0        9.283800   -3.353230   -4.163190
     10          6           0       10.836810   -2.297620   -2.868300
     11          6           0       11.066100   -3.488460   -4.329070
     12          6           0       12.536590   -3.557730   -4.414040
     13          6           0       10.747040   -3.180080   -3.950790
     14          6           0        8.960980   -2.050450   -2.565120
     15          1           0        5.733410   -0.151010   -0.235140
     16          1           0        4.848370   -2.463260   -3.071500
     17          1           0        8.209200   -1.266620   -1.603610
     18          1           0        7.190040   -3.156010   -3.921270
     19          1           0        9.397100   -3.980680   -4.932860
     20          1           0       12.071190   -2.505550   -3.123370
     21          1           0       11.445450   -4.519970   -5.594390
     22          1           0       13.981590   -3.448270   -4.279770
     23          1           0       12.253130   -3.883400   -4.813530
 ---------------------------------------------------------------------
                    Distance matrix (angstroms):
                    1          2          3          4          5
     1  N    0.000000
     2  C    2.308859   0.000000
     3  S    0.626847   2.475908   0.000000
     4  C    1.573570   0.792371   1.855904   0.000000
     5  C    2.078009   1.787578   1.745890   1.787814   0.000000
     6  C    3.266761   1.524054   3.142782   2.146093   1.573174
     7  C    4.393430   2.574625   4.227044   3.261795   2.548396
     8  C    5.145377   3.025323   5.079829   3.801559   3.508177
     9  C    6.000516   4.002003   5.859986   4.755712   4.183613
    10  C    6.495921   4.193426   6.576518   4.969808   5.215340
    11  C    7.555775   5.379321   7.491484   6.168633   5.882809
    12  C    8.874890   6.630712   8.857166   7.422610   7.297266
    13  C    7.025408   4.823694   6.983908   5.614864   5.410639
    14  C    4.609635   2.334497   4.664212   3.125395   3.325964
    15  H    1.512100   2.186423   2.121923   1.476729   3.022754
    16  H    2.517849   2.799478   1.981918   2.718456   1.013047
    17  H    3.520250   1.256472   3.729714   1.948735   2.864035
    18  H    4.362175   2.951052   4.075446   3.507295   2.329586
    19  H    6.769589   4.899481   6.564432   5.625841   4.836662
    20  H    7.768726   5.463082   7.854010   6.234103   6.474659
    21  H    8.843429   6.796191   8.693897   7.567798   6.994167
    22  H   10.096022   7.808943  10.128006   8.592646   8.630893
    23  H    8.892180   6.695888   8.832938   7.487329   7.219901
                    6          7          8          9         10
     6  C    0.000000
     7  C    1.138906   0.000000
     8  C    1.951131   1.112231   0.000000
     9  C    2.734774   1.637135   1.056653   0.000000
    10  C    3.658305   3.060468   1.961948   2.280985   0.000000
    11  C    4.353235   3.353578   2.414111   1.795104   1.898558
    12  C    5.743334   4.796255   3.792575   3.268851   2.620390
    13  C    3.859637   2.918082   1.908597   1.488679   1.399492
    14  C    1.809387   1.615877   1.047786   2.086930   1.916181
    15  H    3.622545   4.732192   5.198348   6.187815   6.130755
    16  H    2.355291   3.088982   4.158229   4.653695   5.994176
    17  H    1.865887   2.469128   2.416839   3.472774   3.093014
    18  H    1.434349   0.883183   1.930124   2.116897   3.891595
    19  H    3.524666   2.385841   2.048675   0.999461   3.027848
    20  H    4.908626   4.212239   3.100622   3.093433   1.277493
    21  H    5.577579   4.467130   3.771513   2.842947   3.569433
    22  H    7.061820   6.176620   5.127753   4.700197   3.633990
    23  H    5.694614   4.682788   3.754605   3.085603   2.881767
                   11         12         13         14         15
    11  C    0.000000
    12  C    1.474571   0.000000
    13  C    0.583089   1.886719   0.000000
    14  C    3.100149   4.298300   2.527084   0.000000
    15  H    7.505759   8.680565   6.936700   4.410656   0.000000
    16  H    6.425938   7.880927   6.006770   4.164180   3.764935
    17  H    4.530627   5.645707   3.951103   1.450539   3.040860
    18  H    3.911606   5.384218   3.557204   2.489505   4.973867
    19  H    1.841848   3.210056   1.851421   3.085803   7.082201
    20  H    1.852034   1.729020   1.700879   3.192517   7.352087
    21  H    1.675993   1.873424   2.232600   4.631155   8.968655
    22  H    2.916184   1.455347   3.262279   5.486388   9.760299
    23  H    1.341536   0.588220   1.872775   4.387859   8.797678
                   16         17         18         19         20
    16  H    0.000000
    17  H    3.857697   0.000000
    18  H    2.585620   3.159118   0.000000
    19  H    5.143750   4.456583   2.564080   0.000000
    20  H    7.223130   4.331234   4.988524   3.549792   0.000000
    21  H    7.356391   6.081441   4.771607   2.219052   3.248904
    22  H    9.265305   6.726211   6.807282   4.661280   2.423966
    23  H    7.738342   5.788307   5.192312   2.860177   2.188199
                   21         22         23
    21  H    0.000000
    22  H    3.051028   0.000000
    23  H    1.291244   1.860594   0.000000
 Stoichiometry    C12H9NS
 Framework group  C1[X(C12H9NS)]
 Deg. of freedom    63
 Full point group                 C1      NOp   1
 Largest Abelian subgroup         C1      NOp   1
 Largest concise Abelian subgroup C1      NOp   1
                         Standard orientation:                         
 ---------------------------------------------------------------------
 Center     Atomic      Atomic             Coordinates (Angstroms)
 Number     Number       Type             X           Y           Z
 ---------------------------------------------------------------------
      1          7           0        3.847615    0.392003   -0.000004
      2          6           0        1.580709    0.830146    0.000003
      3         16           0        3.816238   -0.234059   -0.000003
      4          6           0        2.367301    0.925665    0.000002
      5          6           0        2.183624   -0.852689    0.000003
      6          6           0        0.677714   -0.397592    0.000000
      7          6           0       -0.364770   -0.856214    0.000003
      8          6           0       -1.263482   -0.200948    0.000001
      9          6           0       -1.998614   -0.959958    0.000000
     10          6           0       -2.592405    1.242383   -0.000004
     11          6           0       -3.674782   -0.317419   -0.000001
     12          6           0       -5.026463    0.271918   -0.000002
     13          6           0       -3.164824   -0.034690   -0.000001
     14          6           0       -0.750840    0.712865    0.000007
     15          1           0        3.506637    1.865156    0.000009
     16          1           0        2.581481   -1.784340    0.000006
     17          1           0        0.493006    1.459130    0.000000
     18          1           0       -0.001200   -1.661093    0.000003
     19          1           0       -2.562270   -1.785315   -0.000002
     20          1           0       -3.837689    1.527437    0.000002
     21          1           0       -4.772187   -1.584170   -0.000002
     22          1           0       -6.223586    1.099525   -0.000002
     23          1           0       -5.016318   -0.316214   -0.000002
 ---------------------------------------------------------------------
 Rotational constants (GHZ):           4.9945489           0.2970428           0.2803683
 Standard basis: 6-31G(2df,p) (6D, 7F)
 There are   483 symmetry adapted cartesian basis functions of A   symmetry.
 There are   441 symmetry adapted basis functions of A   symmetry.
   441 basis functions,   703 primitive gaussians,   483 cartesian basis functions
    52 alpha electrons       52 beta electrons
       nuclear repulsion energy      1023.5504447414 Hartrees.
 NAtoms=   23 NActive=   23 NUniq=   23 SFac= 1.00D+00 NAtFMM=   60 NAOKFM=F Big=F
 Integral buffers will be    131072 words long.
 Raffenetti 2 integral format.
 Two-electron integral symmetry is turned on.
 One-electron integrals computed using PRISM.
 PrsmSu:  requested number of processors reduced to:  13 ShMem   1 Linda.
 NBasis=   441 RedAO= T EigKep=  1.33D-06  NBF=   441
 NBsUse=   441 1.00D-06 EigRej= -1.00D+00 NBFU=   441
 ExpMin= 1.17D-01 ExpMax= 2.19D+04 ExpMxC= 3.30D+03 IAcc=3 IRadAn=         5 AccDes= 0.00D+00
 Harris functional with IExCor=  402 and IRadAn=       5 diagonalized for initial guess.
 HarFok:  IExCor=  402 AccDes= 0.00D+00 IRadAn=         5 IDoV= 1 UseB2=F ITyADJ=14
 ICtDFT=  3500011 ScaDFX=  1.000000  1.000000  1.000000  1.000000
 FoFCou: FMM=F IPFlag=           0 FMFlag=      100000 FMFlg1=           0
         NFxFlg=           0 DoJE=T BraDBF=F KetDBF=T FulRan=T
         wScrn=  0.000000 ICntrl=       500 IOpCl=  0 I1Cent=   200000004 NGrid=           0
         NMat0=    1 NMatS0=      1 NMatT0=    0 NMatD0=    1 NMtDS0=    0 NMtDT0=    0
 Petite list used in FoFCou.
 Requested convergence on RMS density matrix=1.00D-08 within 128 cycles.
 Requested convergence on MAX density matrix=1.00D-06.
 Requested convergence on             energy=1.00D-06.
 No special actions if energy rises.
 Integral accuracy reduced to 1.0D-05 until final iterations.
 Problem detected with inexpensive integrals.
 Switching to full accuracy and repeating last cycle.
 EnCoef did     2 forward-backward iterations
 EnCoef did     3 forward-backward iterations
 EnCoef did     3 forward-backward iterations
 EnCoef did   100 forward-backward iterations
 EnCoef did     5 forward-backward iterations
 EnCoef did   100 forward-backward iterations
 EnCoef did   100 forward-backward iterations
 EnCoef did   100 forward-backward iterations
 EnCoef did   100 forward-backward iterations
 Rare condition: small coef for last iteration: -0.475D-15
 EnCoef did   100 forward-backward iterations
 EnCoef did    75 forward-backward iterations
 EnCoef did   100 forward-backward iterations
 EnCoef did   100 forward-backward iterations
 EnCoef did   100 forward-backward iterations
 EnCoef did   100 forward-backward iterations
 Restarting incremental Fock formation.
 Rare condition: small coef for last iteration:  0.000D+00
 Rare condition: small coef for last iteration:  0.000D+00
 EnCoef did   100 forward-backward iterations
 Restarting incremental Fock formation.
 SCF Done:  E(RB3LYP) =  -901.927470903     A.U. after   47 cycles
            NFock= 47  Conv=0.26D-08     -V/T= 1.9597

 **********************************************************************

            Population analysis using the SCF density.

 **********************************************************************

 Orbital symmetries:
       Occupied  (A) (A) (A) (A) (A) (A) (A) (A) (A) (A) (A) (A)
                 (A) (A) (A) (A) (A) (A) (A) (A) (A) (A) (A) (A)
                 (A) (A) (A) (A) (A) (A) (A) (A) (A) (A) (A) (A)
                 (A) (A) (A) (A) (A) (A) (A) (A) (A) (A) (A) (A)
                 (A) (A) (A) (A)
       Virtual   (A) (A) (A) (A) (A) (A) (A) (A) (A) (A) (A) (A)
                 (A) (A) (A) (A) (A) (A) (A) (A) (A) (A) (A) (A)
                 (A) (A) (A) (A) (A) (A) (A) (A) (A) (A) (A) (A)
                 (A) (A) (A) (A) (A) (A) (A) (A) (A) (A) (A) (A)
                 (A) (A) (A) (A) (A) (A) (A) (A) (A) (A) (A) (A)
                 (A) (A) (A) (A) (A) (A) (A) (A) (A) (A) (A) (A)
                 (A) (A) (A) (A) (A) (A) (A) (A) (A) (A) (A) (A)
                 (A) (A) (A) (A) (A) (A) (A) (A) (A) (A) (A) (A)
                 (A) (A) (A) (A) (A) (A) (A) (A) (A) (A) (A) (A)
                 (A) (A) (A) (A) (A) (A) (A) (A) (A) (A) (A) (A)
                 (A) (A) (A) (A) (A) (A) (A) (A) (A) (A) (A) (A)
                 (A) (A) (A) (A) (A) (A) (A) (A) (A) (A) (A) (A)
                 (A) (A) (A) (A) (A) (A) (A) (A) (A) (A) (A) (A)
                 (A) (A) (A) (A) (A) (A) (A) (A) (A) (A) (A) (A)
                 (A) (A) (A) (A) (A) (A) (A) (A) (A) (A) (A) (A)
                 (A) (A) (A) (A) (A) (A) (A) (A) (A) (A) (A) (A)
                 (A) (A) (A) (A) (A) (A) (A) (A) (A) (A) (A) (A)
                 (A) (A) (A) (A) (A) (A) (A) (A) (A) (A) (A) (A)
                 (A) (A) (A) (A) (A) (A) (A) (A) (A) (A) (A) (A)
                 (A) (A) (A) (A) (A) (A) (A) (A) (A) (A) (A) (A)
                 (A) (A) (A) (A) (A) (A) (A) (A) (A) (A) (A) (A)
                 (A) (A) (A) (A) (A) (A) (A) (A) (A) (A) (A) (A)
                 (A) (A) (A) (A) (A) (A) (A) (A) (A) (A) (A) (A)
                 (A) (A) (A) (A) (A) (A) (A) (A) (A) (A) (A) (A)
                 (A) (A) (A) (A) (A) (A) (A) (A) (A) (A) (A) (A)
                 (A) (A) (A) (A) (A) (A) (A) (A) (A) (A) (A) (A)
                 (A) (A) (A) (A) (A) (A) (A) (A) (A) (A) (A) (A)
                 (A) (A) (A) (A) (A) (A) (A) (A) (A) (A) (A) (A)
                 (A) (A) (A) (A) (A) (A) (A) (A) (A) (A) (A) (A)
                 (A) (A) (A) (A) (A) (A) (A) (A) (A) (A) (A) (A)
                 (A) (A) (A) (A) (A) (A) (A) (A) (A) (A) (A) (A)
                 (A) (A) (A) (A) (A) (A) (A) (A) (A) (A) (A) (A)
                 (A) (A) (A) (A) (A)
 The electronic state is 1-A.
 Alpha  occ. eigenvalues --  -89.50834 -15.31232 -10.76631 -10.25664 -10.23317
 Alpha  occ. eigenvalues --  -10.22402 -10.21813 -10.21297 -10.19739 -10.19305
 Alpha  occ. eigenvalues --  -10.17195 -10.15336 -10.14828 -10.14655  -8.73851
 Alpha  occ. eigenvalues --   -6.68240  -6.53655  -6.53448  -1.21247  -1.09865
 Alpha  occ. eigenvalues --   -1.06567  -1.03728  -0.93984  -0.88890  -0.86620
 Alpha  occ. eigenvalues --   -0.81788  -0.79068  -0.74591  -0.72850  -0.63996
 Alpha  occ. eigenvalues --   -0.62907  -0.62458  -0.58723  -0.55174  -0.54809
 Alpha  occ. eigenvalues --   -0.52171  -0.49144  -0.45741  -0.43275  -0.39812
 Alpha  occ. eigenvalues --   -0.38945  -0.36019  -0.33282  -0.31958  -0.27758
 Alpha  occ. eigenvalues --   -0.26044  -0.25534  -0.22494  -0.20687  -0.18756
 Alpha  occ. eigenvalues --   -0.14887  -0.13384
 Alpha virt. eigenvalues --   -0.11529  -0.08389  -0.06578  -0.05386  -0.00315
 Alpha virt. eigenvalues --    0.00207   0.00660   0.02324   0.04544   0.07162
 Alpha virt. eigenvalues --    0.09108   0.14857   0.15224   0.15622   0.17325
 Alpha virt. eigenvalues --    0.17671   0.18322   0.21273   0.21361   0.22038
 Alpha virt. eigenvalues --    0.25560   0.26493   0.28322   0.30351   0.30544
 Alpha virt. eigenvalues --    0.32739   0.33136   0.33193   0.36016   0.37581
 Alpha virt. eigenvalues --    0.38387   0.38906   0.41278   0.41549   0.43097
 Alpha virt. eigenvalues --    0.44272   0.45695   0.46890   0.47990   0.48983
 Alpha virt. eigenvalues --    0.50265   0.50297   0.52761   0.53179   0.53306
 Alpha virt. eigenvalues --    0.54782   0.55932   0.57706   0.58873   0.60163
 Alpha virt. eigenvalues --    0.60298   0.60656   0.60971   0.62723   0.63045
 Alpha virt. eigenvalues --    0.63512   0.64380   0.65583   0.66499   0.66901
 Alpha virt. eigenvalues --    0.68848   0.70294   0.70807   0.71706   0.73582
 Alpha virt. eigenvalues --    0.74555   0.77167   0.77328   0.78821   0.79420
 Alpha virt. eigenvalues --    0.79583   0.82202   0.84221   0.84482   0.84870
 Alpha virt. eigenvalues --    0.88474   0.89226   0.90856   0.92234   0.92658
 Alpha virt. eigenvalues --    0.93846   0.95598   0.96236   0.98945   0.99167
 Alpha virt. eigenvalues --    0.99656   1.01011   1.01160   1.01939   1.03028
 Alpha virt. eigenvalues --    1.08730   1.09287   1.09951   1.10634   1.12907
 Alpha virt. eigenvalues --    1.14787   1.16769   1.17346   1.18520   1.19634
 Alpha virt. eigenvalues --    1.22076   1.23415   1.24711   1.25050   1.27186
 Alpha virt. eigenvalues --    1.28862   1.30278   1.31114   1.31342   1.34891
 Alpha virt. eigenvalues --    1.36422   1.38457   1.39389   1.39652   1.40354
 Alpha virt. eigenvalues --    1.42985   1.43721   1.43939   1.45654   1.48032
 Alpha virt. eigenvalues --    1.48970   1.49421   1.51490   1.53383   1.54983
 Alpha virt. eigenvalues --    1.56698   1.58711   1.60347   1.60764   1.63160
 Alpha virt. eigenvalues --    1.63852   1.65928   1.66097   1.68434   1.69999
 Alpha virt. eigenvalues --    1.70622   1.72261   1.74381   1.76000   1.77014
 Alpha virt. eigenvalues --    1.78849   1.79021   1.81626   1.81815   1.83556
 Alpha virt. eigenvalues --    1.86717   1.87563   1.88895   1.92169   1.93933
 Alpha virt. eigenvalues --    1.95850   1.99111   2.00282   2.00578   2.04421
 Alpha virt. eigenvalues --    2.06962   2.08838   2.10999   2.13499   2.14089
 Alpha virt. eigenvalues --    2.15262   2.17375   2.18438   2.19764   2.21696
 Alpha virt. eigenvalues --    2.23674   2.24252   2.27125   2.28738   2.29772
 Alpha virt. eigenvalues --    2.29908   2.33070   2.35230   2.35886   2.38631
 Alpha virt. eigenvalues --    2.42658   2.42799   2.44679   2.51652   2.52735
 Alpha virt. eigenvalues --    2.53876   2.55235   2.56951   2.58870   2.59895
 Alpha virt. eigenvalues --    2.60584   2.62438   2.66255   2.67997   2.68733
 Alpha virt. eigenvalues --    2.68872   2.71652   2.73819   2.76670   2.79201
 Alpha virt. eigenvalues --    2.80280   2.80786   2.81488   2.82863   2.85702
 Alpha virt. eigenvalues --    2.87272   2.87917   2.88409   2.89048   2.89961
 Alpha virt. eigenvalues --    2.90050   2.94655   2.96675   2.96891   3.00485
 Alpha virt. eigenvalues --    3.00884   3.01956   3.03309   3.04410   3.06589
 Alpha virt. eigenvalues --    3.08410   3.08436   3.10212   3.11739   3.12231
 Alpha virt. eigenvalues --    3.13496   3.15226   3.19743   3.20538   3.21006
 Alpha virt. eigenvalues --    3.21049   3.23936   3.25500   3.25571   3.28301
 Alpha virt. eigenvalues --    3.29090   3.30844   3.32326   3.33692   3.34034
 Alpha virt. eigenvalues --    3.35756   3.38668   3.39337   3.41556   3.42570
 Alpha virt. eigenvalues --    3.44330   3.46277   3.48306   3.51451   3.51689
 Alpha virt. eigenvalues --    3.52391   3.56435   3.57679   3.58070   3.59005
 Alpha virt. eigenvalues --    3.62685   3.63517   3.65450   3.68913   3.69155
 Alpha virt. eigenvalues --    3.69971   3.72229   3.73410   3.74249   3.74705
 Alpha virt. eigenvalues --    3.77218   3.77323   3.80771   3.82106   3.82810
 Alpha virt. eigenvalues --    3.84764   3.85403   3.88405   3.89680   3.90191
 Alpha virt. eigenvalues --    3.92602   3.95147   3.96597   4.00456   4.00540
 Alpha virt. eigenvalues --    4.04775   4.05276   4.07656   4.08644   4.11001
 Alpha virt. eigenvalues --    4.13443   4.15261   4.16872   4.19682   4.21458
 Alpha virt. eigenvalues --    4.25787   4.27551   4.29566   4.30261   4.32468
 Alpha virt. eigenvalues --    4.33362   4.34147   4.35933   4.37261   4.39159
 Alpha virt. eigenvalues --    4.42342   4.43163   4.43668   4.49572   4.49884
 Alpha virt. eigenvalues --    4.52700   4.52908   4.56198   4.56743   4.58563
 Alpha virt. eigenvalues --    4.59691   4.64125   4.65758   4.69210   4.69745
 Alpha virt. eigenvalues --    4.72467   4.74520   4.75931   4.77137   4.81173
 Alpha virt. eigenvalues --    4.81747   4.85616   4.87816   4.88418   4.91355
 Alpha virt. eigenvalues --    4.94238   4.97910   5.00578   5.01052   5.05921
 Alpha virt. eigenvalues --    5.10246   5.10588   5.15178   5.23167   5.25541
 Alpha virt. eigenvalues --    5.28265   5.29675   5.32153   5.33160   5.36044
 Alpha virt. eigenvalues --    5.38628   5.41602   5.47562   5.50015   5.52895
 Alpha virt. eigenvalues --    5.54801   5.57505   5.64022   5.70412   5.74370
 Alpha virt. eigenvalues --    5.75194   5.82175   5.89505   5.91774   5.95321
 Alpha virt. eigenvalues --    5.97929   6.03408   6.09267   6.16379   6.32498
 Alpha virt. eigenvalues --    6.36766   6.52091   6.69241   6.71150   6.77420
 Alpha virt. eigenvalues --    6.84082   6.92153   7.16267   7.37667   7.51628
 Alpha virt. eigenvalues --    7.74060   7.74423   8.03098   8.36645   8.45838
 Alpha virt. eigenvalues --    8.80652   9.52093   9.79397  10.07032  10.26468
 Alpha virt. eigenvalues --   10.46784  10.71572  10.86519  11.00994  11.41743
 Alpha virt. eigenvalues --   11.47819  11.60141  11.68882  12.46961  13.29760
 Alpha virt. eigenvalues --   14.67324  14.80566  15.49051  47.92714
          Condensed to atoms (all electrons):
               1          2          3          4          5          6
     1  N    8.674531  -0.733031  -1.419746   0.344024  -0.248576   0.040308
     2  C   -0.733031  16.167561   0.134240  -8.888034   0.444213  -0.232374
     3  S   -1.419746   0.134240  16.748785  -0.477139   0.544807   0.099456
     4  C    0.344024  -8.888034  -0.477139  15.196081  -0.495936   0.397635
     5  C   -0.248576   0.444213   0.544807  -0.495936   5.951151   0.088575
     6  C    0.040308  -0.232374   0.099456   0.397635   0.088575   7.609105
     7  C    0.000621  -0.436999   0.014909   0.052764  -0.146977  -1.675211
     8  C    0.000305  -0.198189   0.002878   0.225319   0.011789   0.978732
     9  C    0.000011   0.000339   0.000360   0.028230  -0.019728  -0.374775
    10  C   -0.000001  -0.004637  -0.000002  -0.003651   0.000143  -0.001332
    11  C    0.000000   0.006467   0.000013   0.001414  -0.000509   0.074618
    12  C   -0.000000  -0.000003  -0.000000  -0.000000   0.000000   0.000092
    13  C    0.000000  -0.002278  -0.000004   0.000262   0.000563  -0.007891
    14  C   -0.000120  -0.023261  -0.003184  -0.187071   0.030276  -0.700323
    15  H    0.404860  -0.348505  -0.190423   0.161834  -0.004381   0.010834
    16  H   -0.010692   0.033145  -0.086938   0.030510   0.230129  -0.071633
    17  H   -0.001693   0.146192   0.000523  -0.142913   0.039272  -0.066721
    18  H   -0.000044   0.026393  -0.003440  -0.005464  -0.013355  -0.180887
    19  H    0.000000  -0.000089   0.000002   0.000074  -0.000216  -0.021560
    20  H    0.000000  -0.000005  -0.000000   0.000000  -0.000000  -0.000249
    21  H    0.000000   0.000001   0.000000   0.000000  -0.000000  -0.000080
    22  H    0.000000   0.000000   0.000000   0.000000  -0.000000  -0.000000
    23  H    0.000000   0.000001   0.000000   0.000000  -0.000000   0.000027
               7          8          9         10         11         12
     1  N    0.000621   0.000305   0.000011  -0.000001   0.000000  -0.000000
     2  C   -0.436999  -0.198189   0.000339  -0.004637   0.006467  -0.000003
     3  S    0.014909   0.002878   0.000360  -0.000002   0.000013  -0.000000
     4  C    0.052764   0.225319   0.028230  -0.003651   0.001414  -0.000000
     5  C   -0.146977   0.011789  -0.019728   0.000143  -0.000509   0.000000
     6  C   -1.675211   0.978732  -0.374775  -0.001332   0.074618   0.000092
     7  C    9.850945  -3.243056   1.376740  -0.009497  -0.121742  -0.002770
     8  C   -3.243056  15.242240  -8.122262   1.001169 -17.652751   0.038333
     9  C    1.376740  -8.122262  18.067521  -1.196437  21.887321  -0.129971
    10  C   -0.009497   1.001169  -1.196437   6.691145  -8.297059  -0.198287
    11  C   -0.121742 -17.652751  21.887321  -8.297059 385.274638  -4.689655
    12  C   -0.002770   0.038333  -0.129971  -0.198287  -4.689655   6.083035
    13  C   -0.304212  17.584516 -23.092934   8.106013-372.091955   4.679754
    14  C    0.449243  -1.121117  -2.215763   0.034095   0.160362   0.008357
    15  H    0.000172   0.000370   0.000015  -0.000003   0.000000  -0.000000
    16  H   -0.015245  -0.002816   0.000097   0.000001  -0.000005   0.000000
    17  H   -0.117657  -0.042365  -0.031975  -0.005668  -0.003534   0.000014
    18  H    0.470128  -0.134948  -0.041991  -0.000722  -0.023323  -0.000035
    19  H   -0.002518  -0.370037   0.655603   0.013420   0.195226  -0.020854
    20  H   -0.002125  -0.002154  -0.028902   0.251791  -0.377090   0.150186
    21  H   -0.000670  -0.050277  -0.044517   0.005208   2.011078  -0.131281
    22  H   -0.000001  -0.000782   0.000791  -0.002242   0.266383   0.240864
    23  H    0.001148  -0.031510   0.099036  -0.005797   4.290636   0.021690
              13         14         15         16         17         18
     1  N    0.000000  -0.000120   0.404860  -0.010692  -0.001693  -0.000044
     2  C   -0.002278  -0.023261  -0.348505   0.033145   0.146192   0.026393
     3  S   -0.000004  -0.003184  -0.190423  -0.086938   0.000523  -0.003440
     4  C    0.000262  -0.187071   0.161834   0.030510  -0.142913  -0.005464
     5  C    0.000563   0.030276  -0.004381   0.230129   0.039272  -0.013355
     6  C   -0.007891  -0.700323   0.010834  -0.071633  -0.066721  -0.180887
     7  C   -0.304212   0.449243   0.000172  -0.015245  -0.117657   0.470128
     8  C   17.584516  -1.121117   0.000370  -0.002816  -0.042365  -0.134948
     9  C  -23.092934  -2.215763   0.000015   0.000097  -0.031975  -0.041991
    10  C    8.106013   0.034095  -0.000003   0.000001  -0.005668  -0.000722
    11  C -372.091955   0.160362   0.000000  -0.000005  -0.003534  -0.023323
    12  C    4.679754   0.008357  -0.000000   0.000000   0.000014  -0.000035
    13  C  372.481269   0.147228   0.000000   0.000002   0.005906   0.016657
    14  C    0.147228   9.954000   0.000645  -0.000352   0.381489   0.069357
    15  H    0.000000   0.000645   0.993373  -0.002024  -0.006445  -0.000021
    16  H    0.000002  -0.000352  -0.002024   0.825042  -0.001421   0.017799
    17  H    0.005906   0.381489  -0.006445  -0.001421   0.612010  -0.000218
    18  H    0.016657   0.069357  -0.000021   0.017799  -0.000218   0.587541
    19  H   -0.315697  -0.041448   0.000000  -0.000002  -0.000205  -0.004356
    20  H    0.226632   0.007634   0.000000  -0.000000   0.000239   0.000035
    21  H   -1.826726  -0.001105   0.000000  -0.000000  -0.000001  -0.000049
    22  H   -0.286249  -0.000026   0.000000  -0.000000  -0.000000  -0.000000
    23  H   -4.531433   0.000469   0.000000  -0.000000  -0.000002   0.000012
              19         20         21         22         23
     1  N    0.000000   0.000000   0.000000   0.000000   0.000000
     2  C   -0.000089  -0.000005   0.000001   0.000000   0.000001
     3  S    0.000002  -0.000000   0.000000   0.000000   0.000000
     4  C    0.000074   0.000000   0.000000   0.000000   0.000000
     5  C   -0.000216  -0.000000  -0.000000  -0.000000  -0.000000
     6  C   -0.021560  -0.000249  -0.000080  -0.000000   0.000027
     7  C   -0.002518  -0.002125  -0.000670  -0.000001   0.001148
     8  C   -0.370037  -0.002154  -0.050277  -0.000782  -0.031510
     9  C    0.655603  -0.028902  -0.044517   0.000791   0.099036
    10  C    0.013420   0.251791   0.005208  -0.002242  -0.005797
    11  C    0.195226  -0.377090   2.011078   0.266383   4.290636
    12  C   -0.020854   0.150186  -0.131281   0.240864   0.021690
    13  C   -0.315697   0.226632  -1.826726  -0.286249  -4.531433
    14  C   -0.041448   0.007634  -0.001105  -0.000026   0.000469
    15  H    0.000000   0.000000   0.000000   0.000000   0.000000
    16  H   -0.000002  -0.000000  -0.000000  -0.000000  -0.000000
    17  H   -0.000205   0.000239  -0.000001  -0.000000  -0.000002
    18  H   -0.004356   0.000035  -0.000049  -0.000000   0.000012
    19  H    0.700321  -0.000338   0.111323   0.000286  -0.007606
    20  H   -0.000338   0.718740   0.002530  -0.009314  -0.036045
    21  H    0.111323   0.002530   1.304479   0.018129  -0.087459
    22  H    0.000286  -0.009314   0.018129   0.707359  -0.000692
    23  H   -0.007606  -0.036045  -0.087459  -0.000692   1.472579
 Mulliken charges:
               1
     1  N   -0.050757
     2  C   -0.091147
     3  S    0.634904
     4  C   -0.237939
     5  C   -0.411239
     6  C    0.033655
     7  C   -0.137991
     8  C    1.886613
     9  C   -0.816808
    10  C   -0.377651
    11  C   -4.910533
    12  C   -0.049468
    13  C    5.210580
    14  C   -0.949386
    15  H   -0.020301
    16  H    0.054403
    17  H    0.235173
    18  H    0.220931
    19  H    0.108671
    20  H    0.098435
    21  H   -0.310583
    22  H    0.065494
    23  H   -0.185055
 Sum of Mulliken charges =  -0.00000
 Mulliken charges with hydrogens summed into heavy atoms:
               1
     1  N   -0.050757
     2  C    0.144026
     3  S    0.634904
     4  C   -0.258240
     5  C   -0.356837
     6  C    0.033655
     7  C    0.082940
     8  C    1.886613
     9  C   -0.708137
    10  C   -0.279216
    11  C   -5.221116
    12  C   -0.169028
    13  C    5.210580
    14  C   -0.949386
 Electronic spatial extent (au):  <R**2>=           3679.9935
 Charge=             -0.0000 electrons
 Dipole moment (field-independent basis, Debye):
    X=              9.5734    Y=              0.9288    Z=             -0.1882  Tot=              9.6201
 Quadrupole moment (field-independent basis, Debye-Ang):
   XX=            -90.5820   YY=            -90.3187   ZZ=            -83.1800
   XY=              3.1834   XZ=             -0.0918   YZ=             -0.1061
 Traceless Quadrupole moment (field-independent basis, Debye-Ang):
   XX=             -2.5551   YY=             -2.2918   ZZ=              4.8469
   XY=              3.1834   XZ=             -0.0918   YZ=             -0.1061
 Octapole moment (field-independent basis, Debye-Ang**2):
  XXX=            256.5929  YYY=             -2.4577  ZZZ=             -0.3849  XYY=             29.1403
  XXY=             72.2479  XXZ=             -1.1622  XZZ=             15.6364  YZZ=              1.9163
  YYZ=             -0.3815  XYZ=              1.5955
 Hexadecapole moment (field-independent basis, Debye-Ang**3):
 XXXX=          -4674.4905 YYYY=           -440.2128 ZZZZ=            -82.3203 XXXY=            -92.2253
 XXXZ=            -11.9242 YYYX=             -1.9195 YYYZ=             -0.3296 ZZZX=             -1.1348
 ZZZY=             -0.0404 XXYY=           -932.0194 XXZZ=           -752.3670 YYZZ=            -87.2813
 XXYZ=             -2.8897 YYXZ=             -0.2583 ZZXY=             12.4811
 N-N= 1.023550444741D+03 E-N=-4.179312565015D+03  KE= 9.398307752207D+02
 PrsmSu:  requested number of processors reduced to:  13 ShMem   1 Linda.
 Calling FoFJK, ICntrl=      2127 FMM=F ISym2X=0 I1Cent= 0 IOpClX= 0 NMat=1 NMatS=1 NMatT=0.
 ***** Axes restored to original set *****
 -------------------------------------------------------------------
 Center     Atomic                   Forces (Hartrees/Bohr)
 Number     Number              X              Y              Z
 -------------------------------------------------------------------
      1        7           6.363649377    9.068568227   11.111783893
      2        6           2.618162765   -1.143010111   -1.416361271
      3       16          -6.639278885   -9.077702389  -11.121230264
      4        6          -2.229207730    1.230023018    1.522856878
      5        6          -0.090730441   -0.052987732   -0.066336065
      6        6          -0.461270017    0.238407893    0.305089533
      7        6          -0.327998678   -0.098496658   -0.129686435
      8        6           0.245566967   -0.052308890   -0.072125641
      9        6           0.196245981   -0.378946090   -0.459134041
     10        6           0.034103769    0.029342199    0.029334815
     11        6           5.301643495   -5.065827194   -6.282985483
     12        6           1.061180818    1.005956195    1.213669060
     13        6          -5.277999256    5.084407834    6.306363503
     14        6           0.253255089    0.529058066    0.652049666
     15        1           0.015747115   -0.016845638   -0.022519322
     16        1          -0.046149922   -0.051633923   -0.068248657
     17        1           0.082214170   -0.030371965   -0.037510322
     18        1          -0.161660076   -0.142584454   -0.174634111
     19        1          -0.045124541   -0.046130586   -0.056862515
     20        1          -0.013925460    0.039858698    0.047152163
     21        1          -0.064234078    0.000264257    0.006167615
     22        1          -0.088356430   -0.013208825   -0.006291680
     23        1          -0.725834031   -1.055831932   -1.280541317
 -------------------------------------------------------------------
 Cartesian Forces:  Max    11.121230264 RMS     3.209642658

 GradGradGradGradGradGradGradGradGradGradGradGradGradGradGradGradGradGrad
 Berny optimization.
 FormGI is forming the generalized inverse of G from B-inverse, IUseBI=4.
 Internal  Forces:  Max    11.767827353 RMS     1.378621075
 Search for a local minimum.
 Step number   1 out of a maximum of  138
 All quantities printed in internal units (Hartrees-Bohrs-Radians)
 Mixed Optimization -- RFO/linear search
 Second derivative matrix not updated -- first step.
 ITU=  0
     Eigenvalues ---    0.00230   0.00230   0.00230   0.00249   0.00355
     Eigenvalues ---    0.00373   0.00435   0.00495   0.00643   0.00893
     Eigenvalues ---    0.01103   0.02095   0.02153   0.02460   0.03868
     Eigenvalues ---    0.05254   0.05487   0.06341   0.06922   0.07561
     Eigenvalues ---    0.08790   0.08967   0.09373   0.11844   0.11858
     Eigenvalues ---    0.12233   0.12466   0.12572   0.13152   0.13351
     Eigenvalues ---    0.15467   0.16000   0.16000   0.16000   0.16849
     Eigenvalues ---    0.18305   0.19775   0.19876   0.20701   0.20963
     Eigenvalues ---    0.21082   0.22425   0.22608   0.22837   0.24881
     Eigenvalues ---    0.25000   0.25000   0.28021   0.28697   0.29153
     Eigenvalues ---    0.35199   0.45466   0.45705   0.47783   0.75913
     Eigenvalues ---    0.87776   1.21235   1.55546   2.08395   3.95674
     Eigenvalues ---   12.92381  13.50385  13.79127
 RFO step:  Lambda=-1.13080741D+01 EMin= 2.30000000D-03
 Linear search not attempted -- first point.
 Maximum step size (   0.300) exceeded in Quadratic search.
    -- Step size scaled by   0.437
 Iteration  1 RMS(Cart)=  0.03033318 RMS(Int)=  0.00098958
 Iteration  2 RMS(Cart)=  0.00076041 RMS(Int)=  0.00022114
 Iteration  3 RMS(Cart)=  0.00000073 RMS(Int)=  0.00022114
 Variable       Old X    -DE/DX   Delta X   Delta X   Delta X     New X
                                 (Linear)    (Quad)   (Total)
    R1        1.18457  11.76783   0.00000   0.21168   0.21195   1.39652
    R2        2.97362  -1.30551   0.00000  -0.02059  -0.01910   2.95452
    R3        2.85745  -2.19872   0.00000  -0.03897  -0.03890   2.81856
    R4        1.49736   2.24534   0.00000   0.04159   0.04188   1.53925
    R5        3.37803   0.65870   0.00000   0.01366   0.01343   3.39146
    R6        2.88004  -0.53863   0.00000  -0.01160  -0.01153   2.86851
    R7        2.37439   0.08028   0.00000   0.00305   0.00305   2.37743
    R8        3.50715   2.82996   0.00000   0.05284   0.05193   3.55908
    R9        3.29925  -0.92677   0.00000  -0.01638  -0.01700   3.28226
   R10        3.37848   1.60179   0.00000   0.03068   0.03108   3.40956
   R11        2.79061   1.48408   0.00000   0.02633   0.02605   2.81667
   R12        2.97287   0.09041   0.00000   0.00120   0.00112   2.97399
   R13        1.91438   0.08972   0.00000   0.00333   0.00333   1.91771
   R14        2.15222   0.37558   0.00000   0.01292   0.01292   2.16514
   R15        3.41925   0.19060   0.00000   0.00715   0.00713   3.42638
   R16        2.10181   0.21194   0.00000   0.00789   0.00790   2.10971
   R17        3.09374   0.39803   0.00000   0.01422   0.01422   3.10795
   R18        3.05356   0.35965   0.00000   0.01269   0.01269   3.06626
   R19        1.66897   0.26601   0.00000   0.00963   0.00963   1.67861
   R20        1.99678   0.36096   0.00000   0.01247   0.01248   2.00926
   R21        1.98003   0.47034   0.00000   0.01586   0.01587   1.99590
   R22        3.39225   1.98653   0.00000   0.03671   0.03625   3.42851
   R23        2.81320  -1.35829   0.00000  -0.02077  -0.02027   2.79293
   R24        1.88871   0.06763   0.00000   0.00251   0.00251   1.89121
   R25        2.64466   0.10409   0.00000   0.00387   0.00387   2.64852
   R26        2.41411  -0.02936   0.00000  -0.00111  -0.00111   2.41300
   R27        2.78653   0.18906   0.00000   0.00708   0.00708   2.79362
   R28        1.10188   7.77303   0.00000   0.13532   0.13547   1.23735
   R29        2.75021  -0.08930   0.00000  -0.00341  -0.00341   2.74679
   R30        1.11157   1.83064   0.00000   0.05240   0.05240   1.16397
   R31        2.44010   0.03632   0.00000   0.00139   0.00139   2.44149
    A1        2.86406  -1.71048   0.00000  -0.03243  -0.03165   2.83241
    A2        2.32579   0.30418   0.00000   0.00513   0.00521   2.33100
    A3        2.49646  -0.17704   0.00000  -0.00224  -0.00230   2.49416
    A4        2.43911  -0.17197   0.00000  -0.00401  -0.00405   2.43506
    A5        1.46093  -0.12714   0.00000  -0.00288  -0.00291   1.45803
    A6        1.98307  -0.32243   0.00000  -0.00463  -0.00563   1.97745
    A7        2.67475   1.52134   0.00000   0.02667   0.02699   2.70174
    A8        1.32771   2.39978   0.00000   0.04256   0.04298   1.37069
    A9        2.34577  -1.90000   0.00000  -0.03477  -0.03472   2.31104
   A10        2.57288  -0.65979   0.00000  -0.01084  -0.01089   2.56199
   A11        1.36454   2.55979   0.00000   0.04562   0.04561   1.41015
   A12        2.36328   1.53823   0.00000   0.02674   0.02687   2.39014
   A13        1.55262   1.38638   0.00000   0.02533   0.02496   1.57758
   A14        2.48591   1.05207   0.00000   0.01832   0.01805   2.50396
   A15        1.52940  -0.80598   0.00000  -0.01412  -0.01387   1.51553
   A16        1.38024   0.19513   0.00000   0.00263   0.00272   1.38295
   A17        2.63507   0.05096   0.00000   0.00157   0.00146   2.63653
   A18        2.26788  -0.24609   0.00000  -0.00420  -0.00418   2.26370
   A19        2.61940  -0.19181   0.00000  -0.00430  -0.00427   2.61513
   A20        1.54419  -0.26039   0.00000  -0.00659  -0.00655   1.53764
   A21        2.43366  -0.18733   0.00000  -0.00383  -0.00379   2.42987
   A22        2.77431   0.11875   0.00000   0.00154   0.00151   2.77582
   A23        2.09714  -0.03110   0.00000  -0.00112  -0.00111   2.09603
   A24        2.79056   0.01499   0.00000   0.00034   0.00035   2.79090
   A25        1.56097   0.07255   0.00000   0.00262   0.00261   1.56359
   A26        2.62507  -0.04145   0.00000  -0.00150  -0.00150   2.62357
   A27        1.39295   0.15769   0.00000   0.00507   0.00506   1.39801
   A28        1.93166  -0.08754   0.00000  -0.00297  -0.00296   1.92869
   A29        2.71212   1.14955   0.00000   0.02005   0.02015   2.73227
   A30        2.40748  -1.15020   0.00000  -0.01989  -0.01999   2.38749
   A31        2.23338  -0.01936   0.00000  -0.00083  -0.00084   2.23254
   A32        1.97415   1.17180   0.00000   0.02071   0.02081   1.99496
   A33        1.66951  -1.12795   0.00000  -0.01922  -0.01933   1.65018
   A34        1.33768  -1.13019   0.00000  -0.01921  -0.01932   1.31837
   A35        1.64233   1.16956   0.00000   0.02072   0.02083   1.66315
   A36        1.37445   0.13534   0.00000   0.00516   0.00516   1.37960
   A37        2.22421   0.25131   0.00000   0.00640   0.00675   2.23096
   A38        1.14239  -0.01106   0.00000  -0.00042  -0.00042   1.14197
   A39        2.19293   0.00194   0.00000   0.00007   0.00007   2.19300
   A40        1.82012   0.96724   0.00000   0.01619   0.01595   1.83607
   A41        2.49840   1.06680   0.00000   0.01995   0.01971   2.51811
   A42        1.42128   0.07030   0.00000   0.00247   0.00246   1.42373
   A43        3.08202   0.58040   0.00000   0.01121   0.01109   3.09311
   A44        3.32461   0.07015   0.00000   0.00211   0.00210   3.32671
   A45        3.39977  -0.13162   0.00000  -0.00444  -0.00443   3.39534
   A46        3.31184   0.04162   0.00000   0.00150   0.00149   3.31333
   A47        3.09650  -0.01440   0.00000   0.00261   0.00226   3.09876
   A48        3.33532  -0.00912   0.00000  -0.00035  -0.00035   3.33497
   A49        2.96863  -0.12984   0.00000  -0.00502  -0.00502   2.96361
   A50        3.14159  -0.00069   0.00000  -0.00003  -0.00003   3.14156
   A51        3.14159  -0.00006   0.00000  -0.00000  -0.00000   3.14159
   A52        3.14160  -0.00029   0.00000  -0.00001  -0.00001   3.14159
   A53        3.14159  -0.00004   0.00000  -0.00000  -0.00000   3.14159
   A54        3.14159  -0.00019   0.00000  -0.00001  -0.00001   3.14159
   A55        3.14159   0.01400   0.00000   0.00054   0.00054   3.14213
   A56        3.14159   0.00885   0.00000   0.00034   0.00034   3.14194
    D1        0.00003  -0.00066   0.00000  -0.00002  -0.00002   0.00001
    D2        3.14158  -0.00015   0.00000  -0.00001  -0.00001   3.14158
    D3        0.00000  -0.00088   0.00000  -0.00003  -0.00004  -0.00004
    D4       -0.00000  -0.00043   0.00000  -0.00002  -0.00001  -0.00002
    D5       -3.14158   0.00100   0.00000   0.00004   0.00004  -3.14155
    D6       -3.14158  -0.00059   0.00000  -0.00002  -0.00003   3.14158
    D7       -3.14158  -0.00015   0.00000  -0.00001  -0.00000  -3.14159
    D8        0.00002   0.00129   0.00000   0.00005   0.00005   0.00007
    D9        3.14159   0.00018   0.00000   0.00001   0.00001   3.14159
   D10        3.14159   0.00027   0.00000   0.00001   0.00001  -3.14159
   D11       -3.14159   0.00108   0.00000   0.00004   0.00004  -3.14155
   D12       -0.00001   0.00010   0.00000   0.00000   0.00000  -0.00001
   D13       -0.00001   0.00091   0.00000   0.00003   0.00003   0.00003
   D14        0.00000   0.00102   0.00000   0.00004   0.00004   0.00004
   D15        0.00001   0.00219   0.00000   0.00008   0.00009   0.00009
   D16       -3.14159   0.00170   0.00000   0.00007   0.00007  -3.14152
   D17       -3.14159   0.00045   0.00000   0.00002   0.00002  -3.14157
   D18        0.00001   0.00131   0.00000   0.00005   0.00005   0.00006
   D19        3.14159  -0.00083   0.00000  -0.00003  -0.00003   3.14155
   D20       -0.00000   0.00003   0.00000   0.00000   0.00000  -0.00000
   D21        3.14159  -0.00100   0.00000  -0.00004  -0.00004   3.14155
   D22       -0.00002  -0.00085   0.00000  -0.00003  -0.00003  -0.00006
   D23       -3.14159   0.00017   0.00000   0.00001   0.00001  -3.14158
   D24       -0.00002   0.00032   0.00000   0.00001   0.00001  -0.00000
   D25        0.00000  -0.00038   0.00000  -0.00001  -0.00002  -0.00001
   D26        3.14158  -0.00022   0.00000  -0.00001  -0.00001   3.14157
   D27        0.00001   0.00086   0.00000   0.00003   0.00003   0.00004
   D28        0.00002   0.00124   0.00000   0.00005   0.00005   0.00007
   D29       -3.14158   0.00089   0.00000   0.00003   0.00003  -3.14155
   D30        3.14159   0.00001   0.00000   0.00000   0.00000   3.14159
   D31       -3.14159   0.00038   0.00000   0.00001   0.00001  -3.14157
   D32       -0.00001   0.00003   0.00000   0.00000   0.00000  -0.00000
   D33        3.14159   0.00051   0.00000   0.00002   0.00002  -3.14158
   D34       -3.14158  -0.00006   0.00000  -0.00000  -0.00000  -3.14158
   D35       -0.00001  -0.00212   0.00000  -0.00008  -0.00009  -0.00010
   D36       -0.00001   0.00222   0.00000   0.00009   0.00009   0.00008
   D37        3.14158  -0.00017   0.00000  -0.00001  -0.00001   3.14157
   D38        0.00000  -0.00181   0.00000  -0.00007  -0.00008  -0.00007
   D39        0.00000   0.00254   0.00000   0.00010   0.00011   0.00011
   D40       -3.14159   0.00015   0.00000   0.00001   0.00000  -3.14159
   D41        3.14159  -0.00175   0.00000  -0.00007  -0.00007   3.14152
   D42       -3.14159   0.00260   0.00000   0.00010   0.00011  -3.14148
   D43       -0.00000   0.00021   0.00000   0.00001   0.00001   0.00001
   D44        3.14157   0.00111   0.00000   0.00004   0.00004  -3.14157
   D45       -3.14159  -0.00145   0.00000  -0.00006  -0.00005   3.14154
   D46       -3.14159  -0.00229   0.00000  -0.00009  -0.00009   3.14150
   D47        0.00000  -0.00266   0.00000  -0.00010  -0.00011  -0.00010
   D48       -3.14159  -0.00071   0.00000  -0.00003  -0.00003   3.14157
   D49       -3.14159   0.00178   0.00000   0.00007   0.00008  -3.14151
   D50        0.00000   0.00069   0.00000   0.00003   0.00002   0.00002
   D51        0.00000   0.00254   0.00000   0.00010   0.00010   0.00010
   D52       -3.14159   0.00258   0.00000   0.00010   0.00010  -3.14149
   D53       -3.14159   0.00541   0.00000   0.00021   0.00021  -3.14138
   D54        0.00001  -0.00280   0.00000  -0.00011  -0.00011  -0.00010
   D55        0.00001  -0.00018   0.00000  -0.00001  -0.00001  -0.00000
   D56       -3.14159  -0.01086   0.00000  -0.00042  -0.00041   3.14118
   D57       -0.00000   0.00863   0.00000   0.00033   0.00032   0.00032
         Item               Value     Threshold  Converged?
 Maximum Force            ********     0.000450     NO 
 RMS     Force            1.378621     0.000300     NO 
 Maximum Displacement     0.098399     0.001800     NO 
 RMS     Displacement     0.030485     0.001200     NO 
 Predicted change in Energy=-4.368014D+00
 GradGradGradGradGradGradGradGradGradGradGradGradGradGradGradGradGradGrad

                          Input orientation:                          
 ---------------------------------------------------------------------
 Center     Atomic      Atomic             Coordinates (Angstroms)
 Number     Number       Type             X           Y           Z
 ---------------------------------------------------------------------
      1          7           0        4.736173   -0.837197   -1.076710
      2          6           0        6.945183   -1.298291   -1.642492
      3         16           0        4.439750   -1.264958   -1.601389
      4          6           0        6.277239   -1.003764   -1.281148
      5          6           0        5.625489   -2.066832   -2.585170
      6          6           0        7.173336   -2.246530   -2.805662
      7          6           0        7.891399   -2.810639   -3.497686
      8          6           0        8.994919   -2.703736   -3.366589
      9          6           0        9.299689   -3.347365   -4.156127
     10          6           0       10.820322   -2.267388   -2.830946
     11          6           0       11.097845   -3.499825   -4.343290
     12          6           0       12.570099   -3.584316   -4.447020
     13          6           0       10.744761   -3.151541   -3.915783
     14          6           0        8.955879   -2.036842   -2.548511
     15          1           0        5.721795   -0.129790   -0.209100
     16          1           0        4.846810   -2.478025   -3.089571
     17          1           0        8.202353   -1.267958   -1.605387
     18          1           0        7.195217   -3.159244   -3.925293
     19          1           0        9.418480   -3.975241   -4.926346
     20          1           0       12.059053   -2.462987   -3.071299
     21          1           0       11.434572   -4.548399   -5.628618
     22          1           0       14.015973   -3.490537   -4.331106
     23          1           0       12.264342   -3.922224   -4.861415
 ---------------------------------------------------------------------
                    Distance matrix (angstroms):
                    1          2          3          4          5
     1  N    0.000000
     2  C    2.326466   0.000000
     3  S    0.739009   2.505992   0.000000
     4  C    1.563465   0.814534   1.883386   0.000000
     5  C    2.139705   1.794684   1.736895   1.804263   0.000000
     6  C    3.303825   1.517951   3.144241   2.161389   1.573766
     7  C    4.439713   2.573765   4.230716   3.283801   2.553485
     8  C    5.183091   3.024765   5.092699   3.824233   3.517005
     9  C    6.050573   4.007588   5.872148   4.784682   4.196120
    10  C    6.491507   4.167526   6.574829   4.963691   5.204510
    11  C    7.630925   5.420855   7.539422   6.232598   5.923778
    12  C    8.959690   6.688121   8.920741   7.502139   7.348255
    13  C    7.037020   4.799915   6.976301   5.613644   5.399451
    14  C    4.627231   2.325774   4.678490   3.138243   3.330727
    15  H    1.491517   2.217360   2.206969   1.490515   3.067102
    16  H    2.599263   2.808733   1.962630   2.736780   1.014811
    17  H    3.532628   1.258083   3.762607   1.970024   2.870263
    18  H    4.421903   2.955815   4.072033   3.532744   2.335239
    19  H    6.825761   4.905808   6.571813   5.655487   4.848702
    20  H    7.761840   5.435961   7.851732   6.226022   6.464055
    21  H    8.908503   6.826933   8.713615   7.619909   7.011861
    22  H   10.185578   7.875954  10.203362   8.681837   8.687661
    23  H    8.973000   6.748329   8.883303   7.561821   7.259349
                    6          7          8          9         10
     6  C    0.000000
     7  C    1.145745   0.000000
     8  C    1.960061   1.116410   0.000000
     9  C    2.748995   1.644658   1.063256   0.000000
    10  C    3.647133   3.052582   1.951771   2.287964   0.000000
    11  C    4.397365   3.386934   2.451530   1.814287   1.970560
    12  C    5.797308   4.836325   3.837273   3.291860   2.721712
    13  C    3.847920   2.903910   1.887880   1.477953   1.401538
    14  C    1.813161   1.622595   1.056184   2.102405   1.899755
    15  H    3.650985   4.765389   5.225732   6.223595   6.118691
    16  H    2.355190   3.089775   4.163471   4.660625   5.982817
    17  H    1.859339   2.461170   2.406544   3.469057   3.058532
    18  H    1.444680   0.888280   1.938702   2.125436   3.890294
    19  H    3.539267   2.393604   2.056446   1.000788   3.045099
    20  H    4.897718   4.203809   3.087729   3.094037   1.276904
    21  H    5.605873   4.484947   3.804137   2.858047   3.661596
    22  H    7.120127   6.218300   5.173039   4.721699   3.736142
    23  H    5.740419   4.713599   3.795833   3.101139   2.991067
                   11         12         13         14         15
    11  C    0.000000
    12  C    1.478320   0.000000
    13  C    0.654777   1.949709   0.000000
    14  C    3.154294   4.365959   2.512387   0.000000
    15  H    7.573017   8.763161   6.935464   4.423685   0.000000
    16  H    6.456882   7.919327   5.993503   4.167953   3.817973
    17  H    4.567409   5.702421   3.917864   1.431247   3.065650
    18  H    3.939698   5.416848   3.549565   2.501049   5.015840
    19  H    1.840175   3.211741   1.859769   3.102497   7.120771
    20  H    1.901819   1.846931   1.707227   3.175625   7.334632
    21  H    1.692619   1.901329   2.315352   4.683898   9.029457
    22  H    2.918168   1.453541   3.314851   5.558365   9.852864
    23  H    1.344466   0.615948   1.948666   4.455348   8.878712
                   16         17         18         19         20
    16  H    0.000000
    17  H    3.863514   0.000000
    18  H    2.584087   3.158046   0.000000
    19  H    5.149326   4.453888   2.571158   0.000000
    20  H    7.212282   4.295478   4.987081   3.563810   0.000000
    21  H    7.357432   6.115139   4.775269   2.210503   3.358392
    22  H    9.308068   6.794673   6.840844   4.661136   2.544112
    23  H    7.761761   5.843510   5.210997   2.847097   2.318627
                   21         22         23
    21  H    0.000000
    22  H    3.076726   0.000000
    23  H    1.291981   1.880370   0.000000
 Stoichiometry    C12H9NS
 Framework group  C1[X(C12H9NS)]
 Deg. of freedom    63
 Full point group                 C1      NOp   1
 Largest Abelian subgroup         C1      NOp   1
 Largest concise Abelian subgroup C1      NOp   1
                         Standard orientation:                         
 ---------------------------------------------------------------------
 Center     Atomic      Atomic             Coordinates (Angstroms)
 Number     Number       Type             X           Y           Z
 ---------------------------------------------------------------------
      1          7           0        3.875678    0.453239   -0.000009
      2          6           0        1.580230    0.831870    0.000064
      3         16           0        3.824090   -0.283967   -0.000051
      4          6           0        2.388231    0.934825    0.000044
      5          6           0        2.184769   -0.857930   -0.000000
      6          6           0        0.681690   -0.391568    0.000020
      7          6           0       -0.368700   -0.849182    0.000023
      8          6           0       -1.267690   -0.187224    0.000042
      9          6           0       -2.010381   -0.948094    0.000025
     10          6           0       -2.564003    1.271879   -0.000199
     11          6           0       -3.715207   -0.327443    0.000097
     12          6           0       -5.081409    0.237289    0.000137
     13          6           0       -3.146546   -0.002857   -0.000062
     14          6           0       -0.743293    0.729581    0.000058
     15          1           0        3.522131    1.902247    0.000103
     16          1           0        2.572513   -1.795744   -0.000008
     17          1           0        0.488877    1.457746    0.000121
     18          1           0       -0.008057   -1.660957    0.000005
     19          1           0       -2.576764   -1.773193    0.000014
     20          1           0       -3.805074    1.572251    0.000048
     21          1           0       -4.783282   -1.640522   -0.000532
     22          1           0       -6.292964    1.040355   -0.000425
     23          1           0       -5.058714   -0.378242    0.000059
 ---------------------------------------------------------------------
 Rotational constants (GHZ):           4.8619671           0.2944060           0.2775967
 Standard basis: 6-31G(2df,p) (6D, 7F)
 There are   483 symmetry adapted cartesian basis functions of A   symmetry.
 There are   441 symmetry adapted basis functions of A   symmetry.
   441 basis functions,   703 primitive gaussians,   483 cartesian basis functions
    52 alpha electrons       52 beta electrons
       nuclear repulsion energy      1000.2424652541 Hartrees.
 NAtoms=   23 NActive=   23 NUniq=   23 SFac= 1.00D+00 NAtFMM=   60 NAOKFM=F Big=F
 Integral buffers will be    131072 words long.
 Raffenetti 2 integral format.
 Two-electron integral symmetry is turned on.
 One-electron integrals computed using PRISM.
 PrsmSu:  requested number of processors reduced to:  13 ShMem   1 Linda.
 NBasis=   441 RedAO= T EigKep=  2.90D-06  NBF=   441
 NBsUse=   441 1.00D-06 EigRej= -1.00D+00 NBFU=   441
 Initial guess from the checkpoint file:  "[N]c1sccccc2cccccc1-2.chk"
 B after Tr=    -0.000000    0.000000    0.000000
         Rot=    1.000000    0.000000    0.000000    0.000578 Ang=   0.07 deg.
 ExpMin= 1.17D-01 ExpMax= 2.19D+04 ExpMxC= 3.30D+03 IAcc=2 IRadAn=         4 AccDes= 0.00D+00
 Harris functional with IExCor=  402 and IRadAn=       4 diagonalized for initial guess.
 HarFok:  IExCor=  402 AccDes= 0.00D+00 IRadAn=         4 IDoV= 1 UseB2=F ITyADJ=14
 ICtDFT=  3500011 ScaDFX=  1.000000  1.000000  1.000000  1.000000
 FoFCou: FMM=F IPFlag=           0 FMFlag=      100000 FMFlg1=           0
         NFxFlg=           0 DoJE=T BraDBF=F KetDBF=T FulRan=T
         wScrn=  0.000000 ICntrl=       500 IOpCl=  0 I1Cent=   200000004 NGrid=           0
         NMat0=    1 NMatS0=      1 NMatT0=    0 NMatD0=    1 NMtDS0=    0 NMtDT0=    0
 Petite list used in FoFCou.
 Requested convergence on RMS density matrix=1.00D-08 within 128 cycles.
 Requested convergence on MAX density matrix=1.00D-06.
 Requested convergence on             energy=1.00D-06.
 No special actions if energy rises.
 Integral accuracy reduced to 1.0D-05 until final iterations.
 Problem detected with inexpensive integrals.
 Switching to full accuracy and repeating last cycle.
 Restarting incremental Fock formation.
 Restarting incremental Fock formation.
 SCF Done:  E(RB3LYP) =  -906.030363981     A.U. after   45 cycles
            NFock= 45  Conv=0.55D-08     -V/T= 1.9662
 PrsmSu:  requested number of processors reduced to:  13 ShMem   1 Linda.
 Calling FoFJK, ICntrl=      2127 FMM=F ISym2X=0 I1Cent= 0 IOpClX= 0 NMat=1 NMatS=1 NMatT=0.
 ***** Axes restored to original set *****
 -------------------------------------------------------------------
 Center     Atomic                   Forces (Hartrees/Bohr)
 Number     Number              X              Y              Z
 -------------------------------------------------------------------
      1        7           3.937417201    6.036334826    7.408365743
      2        6           2.271965653   -1.028509133   -1.272848844
      3       16          -4.131478166   -6.031133150   -7.412079729
      4        6          -2.007230764    1.154968782    1.428978147
      5        6          -0.081060965   -0.072399618   -0.084152500
      6        6          -0.442792930    0.223922365    0.278422410
      7        6          -0.342895001   -0.085581747   -0.112833528
      8        6           0.225620370   -0.054545932   -0.066226801
      9        6           0.220030822   -0.362659673   -0.440664345
     10        6           0.062565911    0.018631260    0.025775206
     11        6           3.761341754   -3.629958901   -4.467476268
     12        6           0.894631294    0.824831591    1.009214150
     13        6          -3.711617812    3.654942689    4.495754281
     14        6           0.242424116    0.502004869    0.615568308
     15        1           0.036914252   -0.043407614   -0.052019636
     16        1          -0.037363236   -0.059024322   -0.066941630
     17        1           0.083332239   -0.024401840   -0.030725923
     18        1          -0.151326303   -0.138131289   -0.172209263
     19        1          -0.049356973   -0.045434865   -0.055193561
     20        1          -0.024301014    0.043687086    0.052261741
     21        1          -0.061029417    0.001870210    0.009457461
     22        1          -0.091604581   -0.005054185   -0.002531228
     23        1          -0.604186448   -0.880951408   -1.087894190
 -------------------------------------------------------------------
 Cartesian Forces:  Max     7.412079729 RMS     2.192320333

 GradGradGradGradGradGradGradGradGradGradGradGradGradGradGradGradGradGrad
 Berny optimization.
 Using GEDIIS/GDIIS optimizer.
 FormGI is forming the generalized inverse of G from B-inverse, IUseBI=4.
 Internal  Forces:  Max     7.790295152 RMS     0.947532188
 Search for a local minimum.
 Step number   2 out of a maximum of  138
 All quantities printed in internal units (Hartrees-Bohrs-Radians)
 Mixed Optimization -- RFO/linear search
 Update second derivatives using D2CorX and points    1    2
 DE= -4.10D+00 DEPred=-4.37D+00 R= 9.39D-01
 TightC=F SS=  1.41D+00  RLast= 3.00D-01 DXNew= 5.0454D-01 8.9990D-01
 Trust test= 9.39D-01 RLast= 3.00D-01 DXMaxT set to 5.05D-01
 ITU=  1  0
 Use linear search instead of GDIIS.
 Linear search step of   0.600 exceeds DXMaxT=   0.505 but not scaled.
 Quartic linear search produced a step of  2.00000.
 Iteration  1 RMS(Cart)=  0.04973320 RMS(Int)=  0.01708481
 Iteration  2 RMS(Cart)=  0.01436766 RMS(Int)=  0.00114991
 Iteration  3 RMS(Cart)=  0.00015324 RMS(Int)=  0.00113971
 Iteration  4 RMS(Cart)=  0.00000006 RMS(Int)=  0.00113971
 Variable       Old X    -DE/DX   Delta X   Delta X   Delta X     New X
                                 (Linear)    (Quad)   (Total)
    R1        1.39652   7.79030   0.42391   0.00000   0.42490   1.82142
    R2        2.95452  -0.69840  -0.03819   0.00000  -0.03101   2.92351
    R3        2.81856  -1.44830  -0.07779   0.00000  -0.07730   2.74126
    R4        1.53925   2.05616   0.08376   0.00000   0.08528   1.62452
    R5        3.39146   0.48352   0.02685   0.00000   0.02551   3.41697
    R6        2.86851  -0.44724  -0.02307   0.00000  -0.02270   2.84581
    R7        2.37743   0.08178   0.00609   0.00000   0.00609   2.38352
    R8        3.55908   1.74990   0.10387   0.00000   0.09991   3.65899
    R9        3.28226  -0.56730  -0.03400   0.00000  -0.03715   3.24510
   R10        3.40956   1.17749   0.06217   0.00000   0.06448   3.47404
   R11        2.81667   0.95216   0.05210   0.00000   0.05032   2.86698
   R12        2.97399   0.09587   0.00224   0.00000   0.00183   2.97582
   R13        1.91771   0.08586   0.00667   0.00000   0.00667   1.92438
   R14        2.16514   0.35757   0.02585   0.00000   0.02589   2.19103
   R15        3.42638   0.18314   0.01426   0.00000   0.01417   3.44055
   R16        2.10971   0.20773   0.01579   0.00000   0.01584   2.12555
   R17        3.10795   0.40064   0.02843   0.00000   0.02841   3.13637
   R18        3.06626   0.34121   0.02539   0.00000   0.02540   3.09166
   R19        1.67861   0.25571   0.01926   0.00000   0.01926   1.69787
[...]
   R26        2.07579  -0.00885  -0.15101   0.03095  -0.13245   1.94335
   R27        2.37826   0.04828  -0.10169   0.11943  -0.03003   2.34823
   R28        3.81042  -0.03549   0.12630   0.03502   0.14696   3.95737
   R29        2.19014  -0.04633  -0.31687  -0.02432  -0.33146   1.85868
   R30        2.18974   0.03312   0.06350   0.01554   0.07282   2.26256
   R31        2.54289  -0.02402  -0.04016  -0.15158  -0.13111   2.41178
    A1        2.78501   0.00816   0.16006  -0.01954   0.15382   2.93884
    A2        2.39981  -0.04041  -0.03470  -0.04978  -0.06424   2.33558
    A3        2.21002   0.02699  -0.05415   0.06615  -0.01582   2.19420
    A4        2.43676   0.00693   0.01991  -0.01554   0.00821   2.44498
    A5        1.67319   0.01342   0.08874  -0.01620   0.08007   1.75326
    A6        1.69054   0.02364  -0.01034   0.03255   0.00950   1.70003
    A7        2.78329  -0.00628  -0.12389  -0.02783  -0.15184   2.63145
    A8        2.51343   0.00513   0.13743  -0.01283   0.14538   2.65880
    A9        1.78598  -0.02000  -0.02240  -0.00097  -0.02940   1.75658
   A10        2.21531  -0.00225  -0.05540  -0.02455  -0.06289   2.15241
   A11        2.28135   0.02227   0.07796   0.02597   0.09260   2.37395
   A12        3.08078   0.00111   0.06961  -0.01569   0.05711   3.13789
   A13        1.63517   0.02154  -0.07461   0.01802  -0.06223   1.57295
   A14        2.43595  -0.02113  -0.12766  -0.05452  -0.15991   2.27604
   A15        1.83074   0.00294   0.14922   0.00475   0.15143   1.98218
   A16        1.32083  -0.01002  -0.07419  -0.06444  -0.11289   1.20794
   A17        2.94549  -0.00820   0.09575   0.01494   0.10462   3.05011
   A18        2.01645   0.01821  -0.02153   0.04989   0.00853   2.02497
   A19        2.63746  -0.03608  -0.08857  -0.08729  -0.15087   2.48659
   A20        1.57161  -0.05103  -0.11462  -0.08745  -0.17486   1.39674
   A21        2.07132  -0.01317  -0.03356   0.01184  -0.02059   2.05073
   A22        3.13661   0.00245  -0.00995   0.01541   0.00383   3.14044
   A23        2.08390   0.00966  -0.04277   0.00157  -0.04586   2.03804
   A24        2.79646   0.00655  -0.06953  -0.05992  -0.10740   2.68906
   A25        1.73870   0.01689   0.11758   0.05415   0.15293   1.89163
   A26        2.45984  -0.02656  -0.07474  -0.05496  -0.10669   2.35315
   A27        1.38258   0.01958  -0.08504  -0.09959  -0.14109   1.24149
   A28        1.74801  -0.02343  -0.04806   0.00577  -0.04553   1.70249
   A29        3.09413   0.06419   0.01359  -0.00878   0.00836   3.10249
   A30        1.99401   0.10700   0.02174   0.03095   0.04001   2.03402
   A31        2.17327  -0.04298  -0.04607  -0.02904  -0.06336   2.10991
   A32        2.40810   0.09267   0.03503   0.03933   0.05893   2.46703
   A33        1.30881   0.13571   0.04354   0.07816   0.09044   1.39925
   A34        1.01578  -0.02120   0.03248   0.03782   0.05500   1.07078
   A35        2.11579  -0.06409   0.02424  -0.00174   0.02335   2.13914
   A36        2.17374  -0.01994   0.17135  -0.05117   0.14065   2.31439
   A37        2.06747  -0.02745  -0.17432  -0.08658  -0.22661   1.84086
   A38        1.65789   0.01647   0.18686   0.05446   0.21954   1.87743
   A39        1.94615  -0.00703  -0.05267   0.00430  -0.05009   1.89606
   A40        2.07537   0.12106   0.03238  -0.00122   0.03217   2.10754
   A41        2.83320  -0.14438  -0.05323  -0.05538  -0.08596   2.74724
   A42        1.30155  -0.00193  -0.08746  -0.06479  -0.12143   1.18013
   A43        3.46591   0.02448   0.07462   0.02277   0.08921   3.55512
   A44        3.13060  -0.00385  -0.13309  -0.09381  -0.18662   2.94398
   A45        3.57391   0.00893   0.15228   0.17343   0.25571   3.82963
   A46        3.42460   0.07162   0.06778   0.07642   0.11379   3.53839
   A47        2.73463  -0.00786  -0.18690  -0.10365  -0.24875   2.48589
   A48        3.60404   0.00944   0.13420   0.05876   0.16945   3.77350
   A49        3.37371   0.00898   0.12978   0.07341   0.17383   3.54754
   A50        3.11148  -0.00114   0.00141   0.01589   0.01031   3.12179
   A51        3.10872  -0.00104   0.00194   0.01800   0.01077   3.11949
   A52        3.15730   0.00043   0.00653   0.00193   0.00653   3.16383
   A53        3.12154   0.00201  -0.00003   0.00881   0.00492   3.12646
   A54        3.14868   0.00068   0.00375   0.00137   0.00457   3.15324
   A55        3.11825   0.00141   0.00489   0.01945   0.01656   3.13480
   A56        3.23476   0.00109   0.00341  -0.05015  -0.02668   3.20808
    D1        0.06728   0.00038  -0.00267  -0.02462  -0.01584   0.05144
    D2        3.11901   0.00026   0.01019   0.00698   0.01214   3.13114
    D3        3.10923   0.00060  -0.01349   0.02095   0.00430   3.11353
    D4       -0.08397   0.00270  -0.00889   0.04904   0.02227  -0.06170
    D5        3.09015   0.00169  -0.01547   0.03521   0.00990   3.10005
    D6       -0.00831  -0.00018  -0.00502   0.00773   0.00220  -0.00611
    D7        3.08168   0.00193  -0.00042   0.03581   0.02016   3.10184
    D8       -0.02738   0.00091  -0.00700   0.02198   0.00780  -0.01959
    D9       -3.06763  -0.00246   0.00343  -0.04645  -0.02406  -3.09169
   D10       -3.10299  -0.00113   0.00503  -0.01877  -0.00783  -3.11082
   D11       -3.05270  -0.00044   0.00355  -0.04451  -0.02205  -3.07476
   D12        0.01920  -0.00014  -0.00258  -0.00712  -0.00654   0.01265
   D13        0.06948   0.00055  -0.00405  -0.03286  -0.02077   0.04871
   D14       -0.01564  -0.00069  -0.00412   0.00711  -0.00024  -0.01588
   D15        0.02657  -0.00182  -0.01020  -0.02364  -0.02269   0.00388
   D16       -3.12712   0.00045  -0.00553  -0.00878  -0.01055  -3.13767
   D17       -3.11424  -0.00050   0.00129  -0.01830  -0.00923  -3.12347
   D18        0.09075  -0.00101   0.01324  -0.04534  -0.01393   0.07683
   D19        3.02051   0.00041  -0.01884   0.05919   0.01694   3.03744
   D20       -0.05768  -0.00010  -0.00689   0.03216   0.01224  -0.04544
   D21        3.11250   0.00041   0.01199   0.02343   0.02261   3.13511
   D22       -2.44378   0.00140   4.53364  -0.00561  -1.75392   2.08548
   D23        3.13915  -0.00134   0.00278   0.00128   0.00189   3.14103
   D24       -2.41714  -0.00035   4.52443  -0.02776  -1.77464   2.09140
   D25       -0.01613  -0.00191   0.00631   0.00781   0.00961  -0.00652
   D26        0.71077  -0.00092   4.52796  -0.02123  -1.76692  -1.05615
   D27        0.05775   0.00018  -0.00006  -0.02626  -0.01427   0.04348
   D28        0.02833  -0.00153   0.00077  -0.01332  -0.00719   0.02114
   D29       -3.11686  -0.00091   0.00001  -0.01077  -0.00596  -3.12282
   D30        3.13812   0.00175  -0.00530   0.01494   0.00803  -3.13703
   D31        3.10870   0.00004  -0.00447   0.02789   0.01511   3.12381
   D32       -0.03649   0.00066  -0.00523   0.03044   0.01634  -0.02015
   D33       -3.11413   0.00209   0.00143  -0.01252  -0.00594  -3.12007
   D34       -0.72899   0.00009  -4.52725   0.03199   1.77590   1.04690
   D35       -0.01583   0.00078  -0.00372   0.00504   0.00027  -0.01556
   D36       -0.01564  -0.00525  -0.01187   0.01154  -0.00353  -0.01917
   D37       -3.14073  -0.00060  -0.00497  -0.00031  -0.00409   3.13837
   D38       -0.04510  -0.00090  -0.00111   0.02047   0.00971  -0.03539
   D39       -0.04491  -0.00694  -0.00925   0.02697   0.00591  -0.03900
   D40        3.11319  -0.00229  -0.00236   0.01511   0.00534   3.11854
   D41        3.12937   0.00014  -0.00304   0.00247  -0.00106   3.12831
   D42        3.12956  -0.00590  -0.01119   0.00897  -0.00487   3.12469
   D43        0.00447  -0.00124  -0.00430  -0.00289  -0.00543  -0.00095
   D44        3.10537  -0.00052  -0.00263   0.00977   0.00403   3.10940
   D45        3.11431   0.00322  -0.00111   0.01362   0.00722   3.12153
   D46        3.06359  -0.00555  -0.00930   0.03523   0.01165   3.07524
   D47       -0.04827  -0.00246  -0.00683   0.02157   0.00608  -0.04219
   D48        3.13280   0.00309   0.00039   0.00337   0.00220   3.13500
   D49        3.08929  -0.00199  -0.01017   0.03072   0.00723   3.09652
   D50        0.01403   0.00513   0.00353  -0.00363   0.00112   0.01515
   D51       -0.02193   0.00280  -0.00372   0.01631   0.00571  -0.01622
   D52        3.13971   0.00079  -0.00370   0.00750   0.00079   3.14050
   D53       -3.08437   0.00199  -0.00898  -0.03546  -0.03034  -3.11472
   D54        0.10253  -0.00069  -0.00289  -0.05568  -0.03620   0.06633
   D55        0.00634  -0.00000   0.00011   0.00116   0.00047   0.00682
   D56        3.11155   0.00247   0.00243   0.01149   0.00940   3.12095
   D57       -0.04450   0.00531  -0.00650   0.01667   0.00333  -0.04117
         Item               Value     Threshold  Converged?
 Maximum Force            0.151753     0.000450     NO 
 RMS     Force            0.039220     0.000300     NO 
 Maximum Displacement     2.195852     0.001800     NO 
 RMS     Displacement     0.338912     0.001200     NO 
 Predicted change in Energy=-1.722337D-01
 GradGradGradGradGradGradGradGradGradGradGradGradGradGradGradGradGradGrad

                          Input orientation:                          
 ---------------------------------------------------------------------
 Center     Atomic      Atomic             Coordinates (Angstroms)
 Number     Number       Type             X           Y           Z
 ---------------------------------------------------------------------
      1          7           0        5.533862    0.060657    0.088473
      2          6           0        6.675324   -1.178909   -1.520474
      3         16           0        3.875120   -1.373453   -1.822860
      4          6           0        5.821992   -0.634452   -0.804997
      5          6           0        5.230658   -2.151992   -2.774001
      6          6           0        6.610402   -2.070799   -2.609801
      7          6           0        7.443170   -2.823948   -3.536670
      8          6           0        8.777219   -2.739134   -3.360921
      9          6           0        9.346629   -3.505586   -4.352767
     10          6           0       10.432713   -1.963704   -2.447685
     11          6           0       11.454867   -4.193361   -5.174802
     12          6           0       12.676189   -4.043952   -5.001072
     13          6           0       10.533636   -2.993169   -3.726927
     14          6           0        9.133846   -1.925209   -2.309080
     15          1           0        6.245573    0.471301    0.628233
     16          1           0        4.865810   -2.806568   -3.638068
     17          1           0        7.942714   -1.051516   -1.399933
     18          1           0        6.775131   -3.378127   -4.240000
     19          1           0        9.379434   -4.195457   -5.211325
     20          1           0       11.145108   -1.479871   -1.885586
     21          1           0       14.240321   -5.271358   -6.385307
     22          1           0       13.349082   -3.569781   -4.462752
     23          1           0       13.241879   -4.735241   -5.798337
 ---------------------------------------------------------------------
                    Distance matrix (angstroms):
                    1          2          3          4          5
     1  N    0.000000
     2  C    2.329844   0.000000
     3  S    2.908830   2.823195   0.000000
     4  C    1.168112   1.239563   2.317861   0.000000
     5  C    3.630634   2.145992   1.829830   2.555304   0.000000
     6  C    3.603155   1.409367   2.930416   2.437622   1.391850
     7  C    5.010794   2.713076   4.215692   3.857997   2.434830
     8  C    5.500592   3.199923   5.316135   4.437994   3.642431
     9  C    6.854189   4.535546   6.394047   5.766554   4.611501
    10  C    5.876128   3.948872   6.613685   5.071891   5.215679
    11  C    8.992055   6.729418   8.754426   7.968081   6.976519
    12  C    9.683188   7.505559   9.730952   8.729934   7.998456
    13  C    6.991486   4.800681   7.112299   6.025015   5.453185
    14  C    4.759392   2.687600   5.309901   3.859623   3.937316
    15  H    0.983109   2.743141   3.876858   1.859102   4.414399
    16  H    4.749146   3.226115   2.516003   3.695763   1.143764
    17  H    3.042179   1.279467   4.102174   2.241730   3.233320
    18  H    5.665833   3.498906   4.274500   4.498385   2.457226
    19  H    7.809660   5.480342   7.052863   6.689684   5.227680
    20  H    6.144610   4.494758   7.271038   5.497087   6.018451
    21  H   12.088947   9.881493  11.976936  11.113461  10.195391
    22  H    9.745327   7.675435  10.077145   8.868619   8.412539
    23  H   10.819829   8.606233  10.716446   9.838934   8.944241
                    6          7          8          9         10
     6  C    0.000000
     7  C    1.455960   0.000000
     8  C    2.388713   1.348246   0.000000
     9  C    3.547321   2.180322   1.376748   0.000000
    10  C    3.827246   3.295948   2.043515   2.680731   0.000000
    11  C    5.878209   4.544501   3.546088   2.365047   3.667879
    12  C    6.812143   5.569325   4.426581   3.434547   3.985023
    13  C    4.182165   3.100938   1.812042   1.436396   1.645127
    14  C    2.545467   2.274444   1.376963   2.592205   1.306808
    15  H    4.132825   5.444200   5.712222   7.088198   5.737827
    16  H    2.154597   2.579412   3.921795   4.590986   5.754810
    17  H    2.068278   2.820762   2.718442   4.088113   2.851309
    18  H    2.096137   1.117168   2.278036   2.577123   4.311716
    19  H    4.353118   2.904243   2.430542   1.101870   3.705107
    20  H    4.630038   4.270477   3.060925   3.664019   1.028376
    21  H    9.094707   7.765682   6.738290   5.585463   6.398697
    22  H    7.147739   6.024425   4.775556   4.004478   3.891681
    23  H    7.825759   6.511007   5.464305   4.332978   5.176843
                   11         12         13         14         15
    11  C    0.000000
    12  C    1.242631   0.000000
    13  C    2.094152   2.705204   0.000000
    14  C    4.329436   4.927889   2.260584   0.000000
    15  H    9.086861   9.665889   7.025486   4.765835   0.000000
    16  H    6.906549   8.024395   5.671593   4.556220   5.554233
    17  H    6.037884   6.657977   3.987203   1.734555   3.051675
    18  H    4.841322   5.987073   3.812847   3.376828   6.228822
    19  H    2.075755   3.306925   2.231841   3.692880   8.105563
    20  H    4.275269   4.315667   2.460590   2.103057   5.842243
    21  H    3.222755   2.422630   5.098691   7.340874  12.086516
    22  H    2.117526   0.983571   2.966590   5.011101   9.628515
    23  H    1.968715   1.197295   3.828856   6.078415  10.833152
                   16         17         18         19         20
    16  H    0.000000
    17  H    4.190083   0.000000
    18  H    2.081948   3.852577   0.000000
    19  H    4.977645   5.145409   2.897222   0.000000
    20  H    6.652887   3.267212   5.314447   4.642472   0.000000
    21  H   10.074917   9.073085   7.994732   5.115077   6.648549
    22  H    8.557365   6.704575   6.580515   4.087778   3.983341
    23  H    8.862565   7.810053   6.788888   3.943910   5.504862
                   21         22         23
    21  H    0.000000
    22  H    2.717699   0.000000
    23  H    1.276261   1.775832   0.000000
 Stoichiometry    C12H9NS
 Framework group  C1[X(C12H9NS)]
 Deg. of freedom    63
 Full point group                 C1      NOp   1
 Largest Abelian subgroup         C1      NOp   1
 Largest concise Abelian subgroup C1      NOp   1
                         Standard orientation:                         
 ---------------------------------------------------------------------
 Center     Atomic      Atomic             Coordinates (Angstroms)
 Number     Number       Type             X           Y           Z
 ---------------------------------------------------------------------
      1          7           0        3.858380    1.877059   -0.024765
      2          6           0        1.815642    0.757438    0.018188
      3         16           0        4.002607   -1.027944    0.013285
      4          6           0        3.015082    1.068882   -0.011156
      5          6           0        2.201968   -1.353485    0.012532
      6          6           0        1.125625   -0.471223   -0.005985
      7          6           0       -0.212994   -1.043855   -0.009368
      8          6           0       -1.244640   -0.176144   -0.032867
      9          6           0       -2.390773   -0.938573   -0.010121
     10          6           0       -2.015250    1.715391    0.032017
     11          6           0       -4.746791   -0.732124   -0.009073
     12          6           0       -5.661787    0.108231    0.017713
     13          6           0       -2.969828    0.375584    0.020210
     14          6           0       -0.843738    1.141132   -0.042386
     15          1           0        3.613142    2.829085   -0.027601
     16          1           0        1.938374   -2.466319    0.030338
     17          1           0        0.832453    1.575063    0.061380
     18          1           0       -0.119942   -2.157116   -0.016933
     19          1           0       -3.001444   -1.855711   -0.017721
     20          1           0       -2.227237    2.720857    0.072709
     21          1           0       -7.967501   -0.630874   -0.063209
     22          1           0       -5.853209    1.071835    0.065021
     23          1           0       -6.700104   -0.486650   -0.021417
 ---------------------------------------------------------------------
 Rotational constants (GHZ):           2.0563780           0.2498933           0.2228362
 Standard basis: 6-31G(2df,p) (6D, 7F)
 There are   483 symmetry adapted cartesian basis functions of A   symmetry.
 There are   441 symmetry adapted basis functions of A   symmetry.
   441 basis functions,   703 primitive gaussians,   483 cartesian basis functions
    52 alpha electrons       52 beta electrons
       nuclear repulsion energy       818.0767064695 Hartrees.
 NAtoms=   23 NActive=   23 NUniq=   23 SFac= 1.00D+00 NAtFMM=   60 NAOKFM=F Big=F
 Integral buffers will be    131072 words long.
 Raffenetti 2 integral format.
 Two-electron integral symmetry is turned on.
 One-electron integrals computed using PRISM.
 PrsmSu:  requested number of processors reduced to:  13 ShMem   1 Linda.
 NBasis=   441 RedAO= T EigKep=  1.16D-04  NBF=   441
 NBsUse=   441 1.00D-06 EigRej= -1.00D+00 NBFU=   441
 Initial guess from the checkpoint file:  "[N]c1sccccc2cccccc1-2.chk"
 B after Tr=    -0.000000    0.000000    0.000000
         Rot=    0.999952   -0.001409   -0.000248   -0.009704 Ang=  -1.12 deg.
 ExpMin= 1.17D-01 ExpMax= 2.19D+04 ExpMxC= 3.30D+03 IAcc=2 IRadAn=         4 AccDes= 0.00D+00
 Harris functional with IExCor=  402 and IRadAn=       4 diagonalized for initial guess.
 HarFok:  IExCor=  402 AccDes= 0.00D+00 IRadAn=         4 IDoV= 1 UseB2=F ITyADJ=14
 ICtDFT=  3500011 ScaDFX=  1.000000  1.000000  1.000000  1.000000
 FoFCou: FMM=F IPFlag=           0 FMFlag=      100000 FMFlg1=           0
         NFxFlg=           0 DoJE=T BraDBF=F KetDBF=T FulRan=T
         wScrn=  0.000000 ICntrl=       500 IOpCl=  0 I1Cent=   200000004 NGrid=           0
         NMat0=    1 NMatS0=      1 NMatT0=    0 NMatD0=    1 NMtDS0=    0 NMtDT0=    0
 Petite list used in FoFCou.
 Requested convergence on RMS density matrix=1.00D-08 within 128 cycles.
 Requested convergence on MAX density matrix=1.00D-06.
 Requested convergence on             energy=1.00D-06.
 No special actions if energy rises.
 Integral accuracy reduced to 1.0D-05 until final iterations.
 Initial convergence to 1.0D-05 achieved.  Increase integral accuracy.
 SCF Done:  E(RB3LYP) =  -914.843403262     A.U. after   27 cycles
            NFock= 27  Conv=0.59D-08     -V/T= 2.0042
 PrsmSu:  requested number of processors reduced to:  13 ShMem   1 Linda.
 Calling FoFJK, ICntrl=      2127 FMM=F ISym2X=0 I1Cent= 0 IOpClX= 0 NMat=1 NMatS=1 NMatT=0.
slurmstepd: error: *** JOB 27447178 ON lewis4-r630-hpc4-node226 CANCELLED AT 2023-05-17T08:45:36 DUE TO TIME LIMIT ***
