### Starting Gaussian ###
 Entering Gaussian System, Link 0=g16
 Initial command:
 /cluster/software/gaussian/gaussian-16-A.03/avx2/g16/l1.exe "/local/scratch/yxie/Gau-9485.inp" -scrdir="/local/scratch/yxie/"
 Entering Link 1 = /cluster/software/gaussian/gaussian-16-A.03/avx2/g16/l1.exe PID=      9486.
  
 Copyright (c) 1988,1990,1992,1993,1995,1998,2003,2009,2016,
            Gaussian, Inc.  All Rights Reserved.
  
 This is part of the Gaussian(R) 16 program.  It is based on
 the Gaussian(R) 09 system (copyright 2009, Gaussian, Inc.),
 the Gaussian(R) 03 system (copyright 2003, Gaussian, Inc.),
 the Gaussian(R) 98 system (copyright 1998, Gaussian, Inc.),
 the Gaussian(R) 94 system (copyright 1995, Gaussian, Inc.),
 the Gaussian 92(TM) system (copyright 1992, Gaussian, Inc.),
 the Gaussian 90(TM) system (copyright 1990, Gaussian, Inc.),
 the Gaussian 88(TM) system (copyright 1988, Gaussian, Inc.),
 the Gaussian 86(TM) system (copyright 1986, Carnegie Mellon
 University), and the Gaussian 82(TM) system (copyright 1983,
 Carnegie Mellon University). Gaussian is a federally registered
 trademark of Gaussian, Inc.
  
 This software contains proprietary and confidential information,
 including trade secrets, belonging to Gaussian, Inc.
  
 This software is provided under written license and may be
 used, copied, transmitted, or stored only in accord with that
 written license.
  
 The following legend is applicable only to US Government
 contracts under FAR:
  
                    RESTRICTED RIGHTS LEGEND
  
 Use, reproduction and disclosure by the US Government is
 subject to restrictions as set forth in subparagraphs (a)
 and (c) of the Commercial Computer Software - Restricted
 Rights clause in FAR 52.227-19.
  
 Gaussian, Inc.
 340 Quinnipiac St., Bldg. 40, Wallingford CT 06492
  
  
 ---------------------------------------------------------------
 Warning -- This program may not be used in any manner that
 competes with the business of Gaussian, Inc. or will provide
 assistance to any competitor of Gaussian, Inc.  The licensee
 of this program is prohibited from giving any competitor of
 Gaussian, Inc. access to this program.  By using this program,
 the user acknowledges that Gaussian, Inc. is engaged in the
 business of creating and licensing software in the field of
 computational chemistry and represents and warrants to the
 licensee that it is not a competitor of Gaussian, Inc. and that
 it will not use this program in any manner prohibited above.
 ---------------------------------------------------------------
  

 Cite this work as:
 Gaussian 16, Revision A.03,
 M. J. Frisch, G. W. Trucks, H. B. Schlegel, G. E. Scuseria, 
 M. A. Robb, J. R. Cheeseman, G. Scalmani, V. Barone, 
 G. A. Petersson, H. Nakatsuji, X. Li, M. Caricato, A. V. Marenich, 
 J. Bloino, B. G. Janesko, R. Gomperts, B. Mennucci, H. P. Hratchian, 
 J. V. Ortiz, A. F. Izmaylov, J. L. Sonnenberg, D. Williams-Young, 
 F. Ding, F. Lipparini, F. Egidi, J. Goings, B. Peng, A. Petrone, 
 T. Henderson, D. Ranasinghe, V. G. Zakrzewski, J. Gao, N. Rega, 
 G. Zheng, W. Liang, M. Hada, M. Ehara, K. Toyota, R. Fukuda, 
 J. Hasegawa, M. Ishida, T. Nakajima, Y. Honda, O. Kitao, H. Nakai, 
 T. Vreven, K. Throssell, J. A. Montgomery, Jr., J. E. Peralta, 
 F. Ogliaro, M. J. Bearpark, J. J. Heyd, E. N. Brothers, K. N. Kudin, 
 V. N. Staroverov, T. A. Keith, R. Kobayashi, J. Normand, 
 K. Raghavachari, A. P. Rendell, J. C. Burant, S. S. Iyengar, 
 J. Tomasi, M. Cossi, J. M. Millam, M. Klene, C. Adamo, R. Cammi, 
 J. W. Ochterski, R. L. Martin, K. Morokuma, O. Farkas, 
 J. B. Foresman, and D. J. Fox, Gaussian, Inc., Wallingford CT, 2016.
 
 ******************************************
 Gaussian 16:  ES64L-G16RevA.03 25-Dec-2016
                19-May-2023 
 ******************************************
 %chk=[S]N1CC1dC1NCdCCdNC1dS.chk
 %NProcShared=20
 Will use up to   20 processors via shared memory.
 -----------------------------
 # opt freq b3lyp/6-31g(2df,p)
 -----------------------------
 1/18=20,19=15,26=3,38=1/1,3;
 2/9=110,12=2,17=6,18=5,40=1/2;
 3/5=1,6=6,7=104,11=2,25=1,30=1,71=1,74=-5/1,2,3;
 4//1;
 5/5=2,38=5/2;
 6/7=2,8=2,9=2,10=2,28=1/1;
 7//1,2,3,16;
 1/18=20,19=15,26=3/3(2);
 2/9=110/2;
 99//99;
 2/9=110/2;
 3/5=1,6=6,7=104,11=2,25=1,30=1,71=1,74=-5/1,2,3;
 4/5=5,16=3,69=1/1;
 5/5=2,38=5/2;
 7//1,2,3,16;
 1/18=20,19=15,26=3/3(-5);
 2/9=110/2;
 6/7=2,8=2,9=2,10=2,19=2,28=1/1;
 99/9=1/99;
 -------------------
 Title Card Required
 -------------------
 Symbolic Z-matrix:
 Charge =  0 Multiplicity = 2
 S                     1.69847   0.18026  -0.33998 
 N                     3.10615   0.2646    0.51523 
 C                     4.31635  -0.46093   0.00062 
 C                     4.20605   0.96575   0.15419 
 C                     4.78055   2.16599   0.09784 
 N                     4.12285   3.38873   0.37002 
 C                     4.07234   4.40118  -0.5663 
 C                     5.06324   4.85331  -1.33643 
 C                     6.43502   4.46472  -1.00085 
 N                     6.94226   3.42184  -0.44978 
 C                     6.31459   2.25629  -0.03955 
 S                     7.377     1.02562   0.49788 
 H                     4.25469  -0.88875  -0.9964 
 H                     4.6141   -1.15255   0.77473 
 H                     3.22438   3.20609   0.82482 
 H                     3.08613   4.84908  -0.66926 
 H                     4.9349    5.6297   -2.08084 
 H                     7.16568   5.2531   -1.26793 
 

 GradGradGradGradGradGradGradGradGradGradGradGradGradGradGradGradGradGrad
 Berny optimization.
 Initialization pass.
                           ----------------------------
                           !    Initial Parameters    !
                           ! (Angstroms and Degrees)  !
 --------------------------                            --------------------------
 ! Name  Definition              Value          Derivative Info.                !
 --------------------------------------------------------------------------------
 ! R1    R(1,2)                  1.6493         estimate D2E/DX2                !
 ! R2    R(2,3)                  1.5019         estimate D2E/DX2                !
 ! R3    R(2,4)                  1.3534         estimate D2E/DX2                !
 ! R4    R(3,4)                  1.4392         estimate D2E/DX2                !
 ! R5    R(3,13)                 1.0867         estimate D2E/DX2                !
 ! R6    R(3,14)                 1.0799         estimate D2E/DX2                !
 ! R7    R(4,5)                  1.3318         estimate D2E/DX2                !
 ! R8    R(5,6)                  1.4148         estimate D2E/DX2                !
 ! R9    R(5,11)                 1.5428         estimate D2E/DX2                !
 ! R10   R(6,7)                  1.38           estimate D2E/DX2                !
 ! R11   R(6,15)                 1.0234         estimate D2E/DX2                !
 ! R12   R(7,8)                  1.3339         estimate D2E/DX2                !
 ! R13   R(7,16)                 1.088          estimate D2E/DX2                !
 ! R14   R(8,9)                  1.4647         estimate D2E/DX2                !
 ! R15   R(8,17)                 1.0832         estimate D2E/DX2                !
 ! R16   R(9,10)                 1.284          estimate D2E/DX2                !
 ! R17   R(9,18)                 1.1076         estimate D2E/DX2                !
 ! R18   R(10,11)                1.3859         estimate D2E/DX2                !
 ! R19   R(11,12)                1.7123         estimate D2E/DX2                !
 ! A1    A(1,2,3)              119.0363         estimate D2E/DX2                !
 ! A2    A(1,2,4)              125.5778         estimate D2E/DX2                !
 ! A3    A(2,3,13)             117.311          estimate D2E/DX2                !
 ! A4    A(2,3,14)             106.6141         estimate D2E/DX2                !
 ! A5    A(4,3,13)             118.9362         estimate D2E/DX2                !
 ! A6    A(4,3,14)             125.417          estimate D2E/DX2                !
 ! A7    A(13,3,14)            114.9093         estimate D2E/DX2                !
 ! A8    A(2,4,5)              145.9667         estimate D2E/DX2                !
 ! A9    A(3,4,5)              148.8484         estimate D2E/DX2                !
 ! A10   A(4,5,6)              124.7624         estimate D2E/DX2                !
 ! A11   A(4,5,11)             119.0397         estimate D2E/DX2                !
 ! A12   A(6,5,11)             115.3891         estimate D2E/DX2                !
 ! A13   A(5,6,7)              121.3694         estimate D2E/DX2                !
 ! A14   A(5,6,15)             109.8376         estimate D2E/DX2                !
 ! A15   A(7,6,15)             113.5977         estimate D2E/DX2                !
 ! A16   A(6,7,8)              127.8221         estimate D2E/DX2                !
 ! A17   A(6,7,16)             113.5412         estimate D2E/DX2                !
 ! A18   A(8,7,16)             118.6301         estimate D2E/DX2                !
 ! A19   A(7,8,9)              118.2622         estimate D2E/DX2                !
 ! A20   A(7,8,17)             123.4817         estimate D2E/DX2                !
 ! A21   A(9,8,17)             117.294          estimate D2E/DX2                !
 ! A22   A(8,9,10)             133.142          estimate D2E/DX2                !
 ! A23   A(8,9,18)             111.9466         estimate D2E/DX2                !
 ! A24   A(10,9,18)            114.8996         estimate D2E/DX2                !
 ! A25   A(9,10,11)            129.1393         estimate D2E/DX2                !
 ! A26   A(5,11,10)            121.7285         estimate D2E/DX2                !
 ! A27   A(5,11,12)            123.1544         estimate D2E/DX2                !
 ! A28   A(10,11,12)           114.6036         estimate D2E/DX2                !
 ! D1    D(1,2,3,13)             9.1284         estimate D2E/DX2                !
 ! D2    D(1,2,3,14)          -121.3192         estimate D2E/DX2                !
 ! D3    D(1,2,4,5)             78.6181         estimate D2E/DX2                !
 ! D4    D(13,3,4,5)           -80.6414         estimate D2E/DX2                !
 ! D5    D(14,3,4,5)            88.9931         estimate D2E/DX2                !
 ! D6    D(2,4,5,6)             -9.185          estimate D2E/DX2                !
 ! D7    D(2,4,5,11)           160.0197         estimate D2E/DX2                !
 ! D8    D(3,4,5,6)            179.2413         estimate D2E/DX2                !
 ! D9    D(3,4,5,11)           -11.5541         estimate D2E/DX2                !
 ! D10   D(4,5,6,7)           -122.5399         estimate D2E/DX2                !
 ! D11   D(4,5,6,15)            13.38           estimate D2E/DX2                !
 ! D12   D(11,5,6,7)            67.9034         estimate D2E/DX2                !
 ! D13   D(11,5,6,15)         -156.1767         estimate D2E/DX2                !
 ! D14   D(4,5,11,10)          162.8351         estimate D2E/DX2                !
 ! D15   D(4,5,11,12)          -25.8322         estimate D2E/DX2                !
 ! D16   D(6,5,11,10)          -26.9715         estimate D2E/DX2                !
 ! D17   D(6,5,11,12)          144.3612         estimate D2E/DX2                !
 ! D18   D(5,6,7,8)            -44.3045         estimate D2E/DX2                !
 ! D19   D(5,6,7,16)           134.7424         estimate D2E/DX2                !
 ! D20   D(15,6,7,8)          -178.7354         estimate D2E/DX2                !
 ! D21   D(15,6,7,16)            0.3115         estimate D2E/DX2                !
 ! D22   D(6,7,8,9)            -14.1174         estimate D2E/DX2                !
 ! D23   D(6,7,8,17)           177.425          estimate D2E/DX2                !
 ! D24   D(16,7,8,9)           166.878          estimate D2E/DX2                !
 ! D25   D(16,7,8,17)           -1.5795         estimate D2E/DX2                !
 ! D26   D(7,8,9,10)            30.5589         estimate D2E/DX2                !
 ! D27   D(7,8,9,18)          -148.0961         estimate D2E/DX2                !
 ! D28   D(17,8,9,10)         -160.2654         estimate D2E/DX2                !
 ! D29   D(17,8,9,18)           21.0795         estimate D2E/DX2                !
 ! D30   D(8,9,10,11)            3.5534         estimate D2E/DX2                !
 ! D31   D(18,9,10,11)        -177.822          estimate D2E/DX2                !
 ! D32   D(9,10,11,5)          -14.3916         estimate D2E/DX2                !
 ! D33   D(9,10,11,12)         173.5846         estimate D2E/DX2                !
 --------------------------------------------------------------------------------
 Trust Radius=3.00D-01 FncErr=1.00D-07 GrdErr=1.00D-06 EigMax=2.50D+02 EigMin=1.00D-04
 Number of steps in this run=     90 maximum allowed number of steps=    108.
 GradGradGradGradGradGradGradGradGradGradGradGradGradGradGradGradGradGrad

                          Input orientation:                          
 ---------------------------------------------------------------------
 Center     Atomic      Atomic             Coordinates (Angstroms)
 Number     Number       Type             X           Y           Z
 ---------------------------------------------------------------------
      1         16           0        1.698470    0.180260   -0.339980
      2          7           0        3.106150    0.264600    0.515230
      3          6           0        4.316350   -0.460930    0.000620
      4          6           0        4.206050    0.965750    0.154190
      5          6           0        4.780550    2.165990    0.097840
      6          7           0        4.122850    3.388730    0.370020
      7          6           0        4.072340    4.401180   -0.566300
      8          6           0        5.063240    4.853310   -1.336430
      9          6           0        6.435020    4.464720   -1.000850
     10          7           0        6.942260    3.421840   -0.449780
     11          6           0        6.314590    2.256290   -0.039550
     12         16           0        7.377000    1.025620    0.497880
     13          1           0        4.254690   -0.888750   -0.996400
     14          1           0        4.614100   -1.152550    0.774730
     15          1           0        3.224380    3.206090    0.824820
     16          1           0        3.086130    4.849080   -0.669260
     17          1           0        4.934900    5.629700   -2.080840
     18          1           0        7.165680    5.253100   -1.267930
 ---------------------------------------------------------------------
                    Distance matrix (angstroms):
                    1          2          3          4          5
     1  S    0.000000
     2  N    1.649261   0.000000
     3  C    2.716694   1.501933   0.000000
     4  C    2.673791   1.353418   1.439154   0.000000
     5  C    3.692428   2.567706   2.669390   1.331841   0.000000
     6  N    4.083626   3.288610   3.872180   2.433996   1.414830
     7  C    4.847953   4.383438   4.901128   3.512715   2.436948
     8  C    5.843970   5.321194   5.530524   4.250864   3.059205
     9  C    6.420923   5.569639   5.454698   4.306416   3.037853
    10  N    6.165811   5.061141   4.708945   3.726124   2.559304
    11  C    5.070377   3.816896   3.373109   2.479712   1.542825
    12  S    5.801926   4.338158   3.438703   3.190083   2.863918
    13  H    2.847443   2.221348   1.086683   2.182978   3.287146
    14  H    3.394092   2.085562   1.079926   2.244720   3.390958
    15  H    3.583407   2.960099   3.913916   2.536246   2.007977
    16  H    4.881793   4.735069   5.491665   4.124626   3.264732
    17  H    6.572782   6.234437   6.466131   5.222931   4.094845
    18  H    7.515662   6.674172   6.509842   5.400297   4.133330
                    6          7          8          9         10
     6  N    0.000000
     7  C    1.379964   0.000000
     8  C    2.437478   1.333943   0.000000
     9  C    2.895370   2.403150   1.464717   0.000000
    10  N    2.936365   3.034654   2.523088   1.283966   0.000000
    11  C    2.500778   3.147333   3.161058   2.411590   1.385917
    12  S    4.023696   4.842279   4.834190   3.867936   2.613222
    13  H    4.492362   5.310518   5.808668   5.780441   5.109111
    14  H    4.585667   5.738970   6.381934   6.166211   5.276817
    15  H    1.023449   2.020518   3.281119   3.901978   3.936215
    16  H    2.070631   1.088037   2.086647   3.387145   4.117636
    17  H    3.418784   2.132394   1.083235   2.184929   3.400661
    18  H    3.926521   3.284327   2.141210   1.107582   2.018118
                   11         12         13         14         15
    11  C    0.000000
    12  S    1.712336   0.000000
    13  H    3.879436   3.955566   0.000000
    14  H    3.895498   3.529120   1.826381   0.000000
    15  H    3.346439   4.701658   4.598488   4.575104   0.000000
    16  H    4.188323   5.864523   5.864746   6.359195   2.225040
    17  H    4.177356   5.814740   6.642958   7.365875   4.152424
    18  H    3.348752   4.586320   6.802199   7.191340   4.909552
                   16         17         18
    16  H    0.000000
    17  H    2.453544   0.000000
    18  H    4.142990   2.403961   0.000000
 Stoichiometry    C7H6N3S2(2)
 Framework group  C1[X(C7H6N3S2)]
 Deg. of freedom    48
 Full point group                 C1      NOp   1
 Largest Abelian subgroup         C1      NOp   1
 Largest concise Abelian subgroup C1      NOp   1
                         Standard orientation:                         
 ---------------------------------------------------------------------
 Center     Atomic      Atomic             Coordinates (Angstroms)
 Number     Number       Type             X           Y           Z
 ---------------------------------------------------------------------
      1         16           0        3.446484   -0.856490   -0.285255
      2          7           0        2.423123    0.236654    0.405996
      3          6           0        1.973375    1.423387   -0.397243
      4          6           0        1.111803    0.386488    0.106443
      5          6           0       -0.120800   -0.087799    0.278325
      6          7           0       -0.432011   -1.316424    0.907111
      7          6           0       -1.151383   -2.295965    0.253425
      8          6           0       -2.249699   -2.146483   -0.488707
      9          6           0       -2.973227   -0.875468   -0.408544
     10          7           0       -2.602629    0.333102   -0.183633
     11          6           0       -1.324430    0.836367   -0.000067
     12         16           0       -1.238707    2.543276    0.105805
     13          1           0        2.222042    1.432669   -1.455052
     14          1           0        2.281851    2.301648    0.150241
     15          1           0        0.391193   -1.672679    1.399927
     16          1           0       -0.732553   -3.293399    0.369749
     17          1           0       -2.737452   -2.963959   -1.005650
     18          1           0       -4.062740   -1.009330   -0.556128
 ---------------------------------------------------------------------
 Rotational constants (GHZ):           1.0518057           0.5367163           0.3718169
 Standard basis: 6-31G(2df,p) (6D, 7F)
 There are   410 symmetry adapted cartesian basis functions of A   symmetry.
 There are   374 symmetry adapted basis functions of A   symmetry.
   374 basis functions,   618 primitive gaussians,   410 cartesian basis functions
    51 alpha electrons       50 beta electrons
       nuclear repulsion energy       813.8172552877 Hartrees.
 NAtoms=   18 NActive=   18 NUniq=   18 SFac= 1.00D+00 NAtFMM=   60 NAOKFM=F Big=F
 Integral buffers will be    131072 words long.
 Raffenetti 2 integral format.
 Two-electron integral symmetry is turned on.
 One-electron integrals computed using PRISM.
 PrsmSu:  requested number of processors reduced to:  13 ShMem   1 Linda.
 NBasis=   374 RedAO= T EigKep=  1.91D-04  NBF=   374
 NBsUse=   374 1.00D-06 EigRej= -1.00D+00 NBFU=   374
 ExpMin= 1.17D-01 ExpMax= 2.19D+04 ExpMxC= 3.30D+03 IAcc=3 IRadAn=         5 AccDes= 0.00D+00
 Harris functional with IExCor=  402 and IRadAn=       5 diagonalized for initial guess.
 HarFok:  IExCor=  402 AccDes= 0.00D+00 IRadAn=         5 IDoV= 1 UseB2=F ITyADJ=14
 ICtDFT=  3500011 ScaDFX=  1.000000  1.000000  1.000000  1.000000
 FoFCou: FMM=F IPFlag=           0 FMFlag=      100000 FMFlg1=           0
         NFxFlg=           0 DoJE=T BraDBF=F KetDBF=T FulRan=T
         wScrn=  0.000000 ICntrl=       500 IOpCl=  0 I1Cent=   200000004 NGrid=           0
         NMat0=    1 NMatS0=      1 NMatT0=    0 NMatD0=    1 NMtDS0=    0 NMtDT0=    0
 Petite list used in FoFCou.
 Initial guess <Sx>= 0.0000 <Sy>= 0.0000 <Sz>= 0.5000 <S**2>= 0.7500 S= 0.5000
 Requested convergence on RMS density matrix=1.00D-08 within 128 cycles.
 Requested convergence on MAX density matrix=1.00D-06.
 Requested convergence on             energy=1.00D-06.
 No special actions if energy rises.
 Integral accuracy reduced to 1.0D-05 until final iterations.
 EnCoef did     3 forward-backward iterations
 Problem detected with inexpensive integrals.
 Switching to full accuracy and repeating last cycle.
 EnCoef did     2 forward-backward iterations
 EnCoef did     2 forward-backward iterations
 EnCoef did     3 forward-backward iterations
 EnCoef did     6 forward-backward iterations
 Restarting incremental Fock formation.
 SCF Done:  E(UB3LYP) =  -1230.83079025     A.U. after   31 cycles
            NFock= 31  Conv=0.66D-08     -V/T= 2.0045
 <Sx>= 0.0000 <Sy>= 0.0000 <Sz>= 0.5000 <S**2>= 0.7562 S= 0.5031
 <L.S>=  0.00000000000    
 Annihilation of the first spin contaminant:
 S**2 before annihilation     0.7562,   after     0.7500

 **********************************************************************

            Population analysis using the SCF density.

 **********************************************************************

 Orbital symmetries:
 Alpha Orbitals:
       Occupied  (A) (A) (A) (A) (A) (A) (A) (A) (A) (A) (A) (A)
                 (A) (A) (A) (A) (A) (A) (A) (A) (A) (A) (A) (A)
                 (A) (A) (A) (A) (A) (A) (A) (A) (A) (A) (A) (A)
                 (A) (A) (A) (A) (A) (A) (A) (A) (A) (A) (A) (A)
                 (A) (A) (A)
       Virtual   (A) (A) (A) (A) (A) (A) (A) (A) (A) (A) (A) (A)
                 (A) (A) (A) (A) (A) (A) (A) (A) (A) (A) (A) (A)
                 (A) (A) (A) (A) (A) (A) (A) (A) (A) (A) (A) (A)
                 (A) (A) (A) (A) (A) (A) (A) (A) (A) (A) (A) (A)
                 (A) (A) (A) (A) (A) (A) (A) (A) (A) (A) (A) (A)
                 (A) (A) (A) (A) (A) (A) (A) (A) (A) (A) (A) (A)
                 (A) (A) (A) (A) (A) (A) (A) (A) (A) (A) (A) (A)
                 (A) (A) (A) (A) (A) (A) (A) (A) (A) (A) (A) (A)
                 (A) (A) (A) (A) (A) (A) (A) (A) (A) (A) (A) (A)
                 (A) (A) (A) (A) (A) (A) (A) (A) (A) (A) (A) (A)
                 (A) (A) (A) (A) (A) (A) (A) (A) (A) (A) (A) (A)
                 (A) (A) (A) (A) (A) (A) (A) (A) (A) (A) (A) (A)
                 (A) (A) (A) (A) (A) (A) (A) (A) (A) (A) (A) (A)
                 (A) (A) (A) (A) (A) (A) (A) (A) (A) (A) (A) (A)
                 (A) (A) (A) (A) (A) (A) (A) (A) (A) (A) (A) (A)
                 (A) (A) (A) (A) (A) (A) (A) (A) (A) (A) (A) (A)
                 (A) (A) (A) (A) (A) (A) (A) (A) (A) (A) (A) (A)
                 (A) (A) (A) (A) (A) (A) (A) (A) (A) (A) (A) (A)
                 (A) (A) (A) (A) (A) (A) (A) (A) (A) (A) (A) (A)
                 (A) (A) (A) (A) (A) (A) (A) (A) (A) (A) (A) (A)
                 (A) (A) (A) (A) (A) (A) (A) (A) (A) (A) (A) (A)
                 (A) (A) (A) (A) (A) (A) (A) (A) (A) (A) (A) (A)
                 (A) (A) (A) (A) (A) (A) (A) (A) (A) (A) (A) (A)
                 (A) (A) (A) (A) (A) (A) (A) (A) (A) (A) (A) (A)
                 (A) (A) (A) (A) (A) (A) (A) (A) (A) (A) (A) (A)
                 (A) (A) (A) (A) (A) (A) (A) (A) (A) (A) (A) (A)
                 (A) (A) (A) (A) (A) (A) (A) (A) (A) (A) (A)
 Beta  Orbitals:
       Occupied  (A) (A) (A) (A) (A) (A) (A) (A) (A) (A) (A) (A)
                 (A) (A) (A) (A) (A) (A) (A) (A) (A) (A) (A) (A)
                 (A) (A) (A) (A) (A) (A) (A) (A) (A) (A) (A) (A)
                 (A) (A) (A) (A) (A) (A) (A) (A) (A) (A) (A) (A)
                 (A) (A)
       Virtual   (A) (A) (A) (A) (A) (A) (A) (A) (A) (A) (A) (A)
                 (A) (A) (A) (A) (A) (A) (A) (A) (A) (A) (A) (A)
                 (A) (A) (A) (A) (A) (A) (A) (A) (A) (A) (A) (A)
                 (A) (A) (A) (A) (A) (A) (A) (A) (A) (A) (A) (A)
                 (A) (A) (A) (A) (A) (A) (A) (A) (A) (A) (A) (A)
                 (A) (A) (A) (A) (A) (A) (A) (A) (A) (A) (A) (A)
                 (A) (A) (A) (A) (A) (A) (A) (A) (A) (A) (A) (A)
                 (A) (A) (A) (A) (A) (A) (A) (A) (A) (A) (A) (A)
                 (A) (A) (A) (A) (A) (A) (A) (A) (A) (A) (A) (A)
                 (A) (A) (A) (A) (A) (A) (A) (A) (A) (A) (A) (A)
                 (A) (A) (A) (A) (A) (A) (A) (A) (A) (A) (A) (A)
                 (A) (A) (A) (A) (A) (A) (A) (A) (A) (A) (A) (A)
                 (A) (A) (A) (A) (A) (A) (A) (A) (A) (A) (A) (A)
                 (A) (A) (A) (A) (A) (A) (A) (A) (A) (A) (A) (A)
                 (A) (A) (A) (A) (A) (A) (A) (A) (A) (A) (A) (A)
                 (A) (A) (A) (A) (A) (A) (A) (A) (A) (A) (A) (A)
                 (A) (A) (A) (A) (A) (A) (A) (A) (A) (A) (A) (A)
                 (A) (A) (A) (A) (A) (A) (A) (A) (A) (A) (A) (A)
                 (A) (A) (A) (A) (A) (A) (A) (A) (A) (A) (A) (A)
                 (A) (A) (A) (A) (A) (A) (A) (A) (A) (A) (A) (A)
                 (A) (A) (A) (A) (A) (A) (A) (A) (A) (A) (A) (A)
                 (A) (A) (A) (A) (A) (A) (A) (A) (A) (A) (A) (A)
                 (A) (A) (A) (A) (A) (A) (A) (A) (A) (A) (A) (A)
                 (A) (A) (A) (A) (A) (A) (A) (A) (A) (A) (A) (A)
                 (A) (A) (A) (A) (A) (A) (A) (A) (A) (A) (A) (A)
                 (A) (A) (A) (A) (A) (A) (A) (A) (A) (A) (A) (A)
                 (A) (A) (A) (A) (A) (A) (A) (A) (A) (A) (A) (A)
 The electronic state is 2-A.
 Alpha  occ. eigenvalues --  -88.89849 -88.84874 -14.41663 -14.40086 -14.33760
 Alpha  occ. eigenvalues --  -10.29108 -10.26620 -10.26540 -10.25886 -10.25762
 Alpha  occ. eigenvalues --  -10.25056 -10.20813  -7.96094  -7.91240  -5.92824
 Alpha  occ. eigenvalues --   -5.92467  -5.91404  -5.87596  -5.87544  -5.86730
 Alpha  occ. eigenvalues --   -1.04421  -0.99180  -0.93802  -0.83270  -0.78884
 Alpha  occ. eigenvalues --   -0.75916  -0.74162  -0.65884  -0.65211  -0.62742
 Alpha  occ. eigenvalues --   -0.58808  -0.55295  -0.53874  -0.51193  -0.50488
 Alpha  occ. eigenvalues --   -0.48805  -0.45462  -0.43966  -0.43601  -0.41252
 Alpha  occ. eigenvalues --   -0.38363  -0.37488  -0.36846  -0.36257  -0.32383
 Alpha  occ. eigenvalues --   -0.26872  -0.25855  -0.24227  -0.24052  -0.23273
 Alpha  occ. eigenvalues --   -0.21198
 Alpha virt. eigenvalues --   -0.10720  -0.04587   0.00607   0.02975   0.04230
 Alpha virt. eigenvalues --    0.06216   0.07731   0.09485   0.10256   0.11498
 Alpha virt. eigenvalues --    0.13948   0.15686   0.16560   0.16939   0.19530
 Alpha virt. eigenvalues --    0.21718   0.22408   0.23091   0.23195   0.27106
 Alpha virt. eigenvalues --    0.28678   0.30144   0.31721   0.32405   0.33353
 Alpha virt. eigenvalues --    0.34134   0.35695   0.36596   0.36960   0.37270
 Alpha virt. eigenvalues --    0.37690   0.39136   0.40282   0.40681   0.41185
 Alpha virt. eigenvalues --    0.42630   0.43207   0.43996   0.44159   0.45684
 Alpha virt. eigenvalues --    0.46767   0.47100   0.48655   0.49519   0.50618
 Alpha virt. eigenvalues --    0.51195   0.51757   0.53898   0.55831   0.56708
 Alpha virt. eigenvalues --    0.58839   0.59277   0.59656   0.63449   0.64888
 Alpha virt. eigenvalues --    0.66851   0.67310   0.68388   0.70981   0.72049
 Alpha virt. eigenvalues --    0.72956   0.73370   0.74589   0.75439   0.76734
 Alpha virt. eigenvalues --    0.77613   0.78286   0.79498   0.80049   0.80611
 Alpha virt. eigenvalues --    0.81270   0.82870   0.83421   0.84993   0.86263
 Alpha virt. eigenvalues --    0.87695   0.88245   0.91582   0.92722   0.93838
 Alpha virt. eigenvalues --    0.98426   0.98847   0.99704   1.01919   1.02848
 Alpha virt. eigenvalues --    1.05000   1.06701   1.08351   1.12039   1.13783
 Alpha virt. eigenvalues --    1.14445   1.17217   1.19131   1.21163   1.23688
 Alpha virt. eigenvalues --    1.25085   1.27130   1.27259   1.27530   1.29541
 Alpha virt. eigenvalues --    1.31151   1.32984   1.33546   1.36133   1.37746
 Alpha virt. eigenvalues --    1.38721   1.41251   1.43260   1.45606   1.46934
 Alpha virt. eigenvalues --    1.47175   1.49792   1.52297   1.54158   1.54692
 Alpha virt. eigenvalues --    1.55620   1.58913   1.60240   1.61096   1.62600
 Alpha virt. eigenvalues --    1.64057   1.65028   1.65990   1.68257   1.69345
 Alpha virt. eigenvalues --    1.69546   1.70943   1.71745   1.72531   1.75986
 Alpha virt. eigenvalues --    1.78589   1.79025   1.83429   1.83692   1.85304
 Alpha virt. eigenvalues --    1.87085   1.87891   1.89352   1.91073   1.92964
 Alpha virt. eigenvalues --    1.96861   1.97939   1.98659   2.00357   2.02894
 Alpha virt. eigenvalues --    2.05819   2.07311   2.10961   2.11389   2.12758
 Alpha virt. eigenvalues --    2.13319   2.14765   2.17186   2.19033   2.20916
 Alpha virt. eigenvalues --    2.25350   2.26489   2.30153   2.30682   2.32528
 Alpha virt. eigenvalues --    2.33182   2.35174   2.36160   2.38755   2.40240
 Alpha virt. eigenvalues --    2.41215   2.42355   2.43530   2.46699   2.49137
 Alpha virt. eigenvalues --    2.54324   2.57052   2.62660   2.66793   2.72075
 Alpha virt. eigenvalues --    2.73652   2.75429   2.77573   2.78518   2.79882
 Alpha virt. eigenvalues --    2.85160   2.86840   2.87425   2.89922   2.92737
 Alpha virt. eigenvalues --    2.95758   2.96057   2.98240   2.99434   3.02178
 Alpha virt. eigenvalues --    3.04631   3.08173   3.08965   3.10205   3.12018
 Alpha virt. eigenvalues --    3.12711   3.16504   3.17458   3.19361   3.19698
 Alpha virt. eigenvalues --    3.19907   3.23316   3.24295   3.25583   3.27958
 Alpha virt. eigenvalues --    3.30604   3.31215   3.33181   3.36192   3.36861
 Alpha virt. eigenvalues --    3.39516   3.41361   3.42575   3.44510   3.48441
 Alpha virt. eigenvalues --    3.50282   3.51232   3.56093   3.60822   3.62377
 Alpha virt. eigenvalues --    3.63073   3.67146   3.72375   3.74595   3.77935
 Alpha virt. eigenvalues --    3.78908   3.80818   3.80861   3.82917   3.85882
 Alpha virt. eigenvalues --    3.88566   3.89343   3.90726   3.94225   3.96448
 Alpha virt. eigenvalues --    4.00123   4.02079   4.05049   4.06826   4.09682
 Alpha virt. eigenvalues --    4.10120   4.11617   4.15465   4.15879   4.19128
 Alpha virt. eigenvalues --    4.21840   4.24241   4.25539   4.27801   4.29706
 Alpha virt. eigenvalues --    4.30632   4.31954   4.34454   4.35200   4.39494
 Alpha virt. eigenvalues --    4.42011   4.43357   4.44693   4.45487   4.47098
 Alpha virt. eigenvalues --    4.48787   4.52741   4.53300   4.54367   4.55434
 Alpha virt. eigenvalues --    4.56422   4.59329   4.59478   4.63414   4.64374
 Alpha virt. eigenvalues --    4.67687   4.69365   4.70966   4.73497   4.74794
 Alpha virt. eigenvalues --    4.76834   4.80631   4.82555   4.85092   4.85462
 Alpha virt. eigenvalues --    4.87784   4.89483   4.94200   4.96065   4.97804
 Alpha virt. eigenvalues --    4.99662   5.03558   5.05135   5.11971   5.12796
 Alpha virt. eigenvalues --    5.14696   5.20411   5.23532   5.26734   5.28996
 Alpha virt. eigenvalues --    5.29921   5.36450   5.41211   5.44228   5.47602
 Alpha virt. eigenvalues --    5.56536   5.60982   5.67282   5.72522   5.82937
 Alpha virt. eigenvalues --    5.83855   6.01439   6.05870   6.17276   6.22976
 Alpha virt. eigenvalues --   10.04332  10.27104  10.80733  11.09302  11.21794
 Alpha virt. eigenvalues --   11.29959  11.35618  11.49901  11.61629  12.14517
 Alpha virt. eigenvalues --   15.09026  16.03879  18.67129
  Beta  occ. eigenvalues --  -88.89446 -88.84847 -14.41178 -14.40055 -14.33749
  Beta  occ. eigenvalues --  -10.29140 -10.26538 -10.26517 -10.25918 -10.25778
  Beta  occ. eigenvalues --  -10.25018 -10.20809  -7.95699  -7.91214  -5.92330
  Beta  occ. eigenvalues --   -5.91417  -5.91171  -5.87575  -5.87463  -5.86714
  Beta  occ. eigenvalues --   -1.03785  -0.99079  -0.93797  -0.83146  -0.77989
  Beta  occ. eigenvalues --   -0.75674  -0.73926  -0.65814  -0.64775  -0.62352
  Beta  occ. eigenvalues --   -0.58736  -0.55183  -0.53118  -0.50607  -0.49521
  Beta  occ. eigenvalues --   -0.48484  -0.45388  -0.43878  -0.43305  -0.41181
  Beta  occ. eigenvalues --   -0.37720  -0.36882  -0.36381  -0.35272  -0.31769
  Beta  occ. eigenvalues --   -0.25836  -0.24752  -0.23959  -0.22860  -0.21104
  Beta virt. eigenvalues --   -0.14483  -0.10532  -0.04324   0.01150   0.03311
  Beta virt. eigenvalues --    0.04516   0.06387   0.07888   0.09542   0.10390
  Beta virt. eigenvalues --    0.11667   0.14070   0.15714   0.16744   0.17059
  Beta virt. eigenvalues --    0.19737   0.21815   0.22504   0.23282   0.23581
  Beta virt. eigenvalues --    0.27384   0.28712   0.30548   0.31865   0.33321
  Beta virt. eigenvalues --    0.33786   0.34826   0.36819   0.37426   0.37676
  Beta virt. eigenvalues --    0.38256   0.39160   0.40072   0.40565   0.41168
  Beta virt. eigenvalues --    0.41369   0.43275   0.43566   0.44248   0.45440
  Beta virt. eigenvalues --    0.45894   0.46854   0.47505   0.48802   0.49670
  Beta virt. eigenvalues --    0.50763   0.51346   0.51945   0.54129   0.55911
  Beta virt. eigenvalues --    0.56921   0.59161   0.59474   0.60165   0.63805
  Beta virt. eigenvalues --    0.64997   0.66947   0.67406   0.68471   0.71149
  Beta virt. eigenvalues --    0.72383   0.73083   0.73720   0.74644   0.75549
  Beta virt. eigenvalues --    0.76807   0.77752   0.78472   0.79647   0.80353
  Beta virt. eigenvalues --    0.80868   0.81512   0.82995   0.83541   0.85046
  Beta virt. eigenvalues --    0.86447   0.87782   0.88361   0.91730   0.92826
  Beta virt. eigenvalues --    0.93882   0.98487   0.99066   0.99822   1.02124
  Beta virt. eigenvalues --    1.02918   1.05404   1.06840   1.08412   1.12238
  Beta virt. eigenvalues --    1.14017   1.14518   1.17350   1.19424   1.21434
  Beta virt. eigenvalues --    1.24025   1.25187   1.27231   1.27365   1.28051
  Beta virt. eigenvalues --    1.29701   1.31306   1.33281   1.33698   1.36362
  Beta virt. eigenvalues --    1.37869   1.38830   1.41324   1.43484   1.45770
  Beta virt. eigenvalues --    1.47018   1.47513   1.50022   1.52523   1.54193
  Beta virt. eigenvalues --    1.54887   1.55804   1.59376   1.60713   1.61547
  Beta virt. eigenvalues --    1.63873   1.65140   1.66420   1.67477   1.68831
  Beta virt. eigenvalues --    1.69771   1.70038   1.71495   1.72227   1.73137
  Beta virt. eigenvalues --    1.76485   1.79119   1.79392   1.83602   1.83872
  Beta virt. eigenvalues --    1.85689   1.87475   1.87992   1.90392   1.91577
  Beta virt. eigenvalues --    1.93023   1.97052   1.98014   1.98937   2.00729
  Beta virt. eigenvalues --    2.03073   2.05931   2.07659   2.11309   2.11585
  Beta virt. eigenvalues --    2.13208   2.14455   2.16252   2.17463   2.19465
  Beta virt. eigenvalues --    2.21440   2.25604   2.26523   2.30587   2.30832
  Beta virt. eigenvalues --    2.32591   2.33251   2.35398   2.36382   2.38935
  Beta virt. eigenvalues --    2.40379   2.41434   2.43397   2.43619   2.47115
  Beta virt. eigenvalues --    2.49180   2.54415   2.57547   2.62690   2.66819
  Beta virt. eigenvalues --    2.72143   2.73694   2.75487   2.77628   2.78545
  Beta virt. eigenvalues --    2.79981   2.85197   2.86888   2.87471   2.89945
  Beta virt. eigenvalues --    2.92777   2.95833   2.96102   2.98315   2.99499
  Beta virt. eigenvalues --    3.02228   3.04679   3.08197   3.09138   3.10225
  Beta virt. eigenvalues --    3.12065   3.12767   3.16482   3.17502   3.19398
  Beta virt. eigenvalues --    3.19771   3.19952   3.23323   3.24364   3.25580
  Beta virt. eigenvalues --    3.28077   3.30746   3.31321   3.33248   3.36243
  Beta virt. eigenvalues --    3.36935   3.39573   3.41540   3.42615   3.44607
  Beta virt. eigenvalues --    3.48559   3.50488   3.51391   3.56143   3.60872
  Beta virt. eigenvalues --    3.62549   3.63150   3.67234   3.72535   3.74926
  Beta virt. eigenvalues --    3.78322   3.79046   3.80955   3.81371   3.83084
  Beta virt. eigenvalues --    3.86055   3.88690   3.89710   3.90920   3.94515
  Beta virt. eigenvalues --    3.96604   4.00353   4.02310   4.05273   4.06993
  Beta virt. eigenvalues --    4.09728   4.10301   4.11928   4.15595   4.16097
  Beta virt. eigenvalues --    4.19215   4.21876   4.24283   4.25712   4.27949
  Beta virt. eigenvalues --    4.30132   4.30744   4.32334   4.34748   4.35408
  Beta virt. eigenvalues --    4.39511   4.42161   4.43565   4.44781   4.45556
  Beta virt. eigenvalues --    4.47354   4.49083   4.52879   4.53385   4.54568
  Beta virt. eigenvalues --    4.55866   4.56474   4.59437   4.59608   4.63542
  Beta virt. eigenvalues --    4.64697   4.67981   4.69465   4.71219   4.73593
  Beta virt. eigenvalues --    4.74941   4.76973   4.80717   4.82913   4.85146
  Beta virt. eigenvalues --    4.85601   4.88083   4.89571   4.94557   4.96245
  Beta virt. eigenvalues --    4.98203   4.99816   5.03760   5.05254   5.12044
  Beta virt. eigenvalues --    5.12992   5.14815   5.20553   5.23726   5.26777
  Beta virt. eigenvalues --    5.29051   5.30188   5.36465   5.41268   5.44296
  Beta virt. eigenvalues --    5.47741   5.56587   5.61060   5.67371   5.72560
  Beta virt. eigenvalues --    5.82963   5.83946   6.01534   6.05969   6.17302
  Beta virt. eigenvalues --    6.23059  10.04334  10.27171  10.80714  11.09597
  Beta virt. eigenvalues --   11.22018  11.30107  11.35739  11.50149  11.61653
  Beta virt. eigenvalues --   12.14585  15.09255  16.03891  18.67215
          Condensed to atoms (all electrons):
               1          2          3          4          5          6
     1  S   16.014034   0.303925  -0.062497  -0.064321  -0.003268   0.001865
     2  N    0.303925   6.326698   0.224611   0.309833  -0.008868  -0.007062
     3  C   -0.062497   0.224611   5.113938   0.314742  -0.035967   0.004096
     4  C   -0.064321   0.309833   0.314742   4.543535   0.548503  -0.023628
     5  C   -0.003268  -0.008868  -0.035967   0.548503   4.997236   0.331780
     6  N    0.001865  -0.007062   0.004096  -0.023628   0.331780   6.392821
     7  C    0.000494   0.000088  -0.000144   0.000814  -0.050180   0.420721
     8  C    0.000019  -0.000005  -0.000012  -0.000215  -0.000161  -0.010771
     9  C   -0.000004   0.000004  -0.000023   0.000902  -0.001774  -0.013059
    10  N    0.000010  -0.000042   0.000224   0.001964  -0.027372   0.000447
    11  C   -0.000248   0.001340  -0.013078  -0.056400   0.396388  -0.038416
    12  S   -0.000032   0.001309   0.001496  -0.020431  -0.043589   0.001837
    13  H    0.000350  -0.020654   0.371767  -0.012856   0.001580   0.000063
    14  H    0.004433  -0.024695   0.362065   0.001174  -0.000721  -0.000056
    15  H    0.001781   0.002723  -0.000210  -0.003857  -0.038261   0.353005
    16  H   -0.000023   0.000006  -0.000001  -0.000276   0.004730  -0.049108
    17  H    0.000001   0.000000  -0.000000  -0.000017  -0.000285   0.003277
    18  H    0.000000  -0.000000   0.000000   0.000003  -0.000027   0.000365
               7          8          9         10         11         12
     1  S    0.000494   0.000019  -0.000004   0.000010  -0.000248  -0.000032
     2  N    0.000088  -0.000005   0.000004  -0.000042   0.001340   0.001309
     3  C   -0.000144  -0.000012  -0.000023   0.000224  -0.013078   0.001496
     4  C    0.000814  -0.000215   0.000902   0.001964  -0.056400  -0.020431
     5  C   -0.050180  -0.000161  -0.001774  -0.027372   0.396388  -0.043589
     6  N    0.420721  -0.010771  -0.013059   0.000447  -0.038416   0.001837
     7  C    4.724863   0.589104   0.006657  -0.016795  -0.003035   0.000063
     8  C    0.589104   5.012379   0.374281  -0.030106  -0.006417   0.000704
     9  C    0.006657   0.374281   4.682228   0.636626  -0.074820   0.004368
    10  N   -0.016795  -0.030106   0.636626   6.296102   0.455357  -0.034879
    11  C   -0.003035  -0.006417  -0.074820   0.455357   4.631250   0.436035
    12  S    0.000063   0.000704   0.004368  -0.034879   0.436035  15.961077
    13  H    0.000006  -0.000001  -0.000001   0.000003   0.000284   0.000627
    14  H   -0.000000  -0.000000   0.000001  -0.000004   0.000224   0.002005
    15  H   -0.038830   0.005030   0.000077  -0.000237   0.004155  -0.000280
    16  H    0.375005  -0.047660   0.004962  -0.000057   0.000107   0.000012
    17  H   -0.036461   0.368966  -0.029456   0.003514  -0.000093   0.000004
    18  H    0.003420  -0.083510   0.370465  -0.034279   0.005519  -0.000661
              13         14         15         16         17         18
     1  S    0.000350   0.004433   0.001781  -0.000023   0.000001   0.000000
     2  N   -0.020654  -0.024695   0.002723   0.000006   0.000000  -0.000000
     3  C    0.371767   0.362065  -0.000210  -0.000001  -0.000000   0.000000
     4  C   -0.012856   0.001174  -0.003857  -0.000276  -0.000017   0.000003
     5  C    0.001580  -0.000721  -0.038261   0.004730  -0.000285  -0.000027
     6  N    0.000063  -0.000056   0.353005  -0.049108   0.003277   0.000365
     7  C    0.000006  -0.000000  -0.038830   0.375005  -0.036461   0.003420
     8  C   -0.000001  -0.000000   0.005030  -0.047660   0.368966  -0.083510
     9  C   -0.000001   0.000001   0.000077   0.004962  -0.029456   0.370465
    10  N    0.000003  -0.000004  -0.000237  -0.000057   0.003514  -0.034279
    11  C    0.000284   0.000224   0.004155   0.000107  -0.000093   0.005519
    12  S    0.000627   0.002005  -0.000280   0.000012   0.000004  -0.000661
    13  H    0.540092  -0.040496   0.000012  -0.000000   0.000000  -0.000000
    14  H   -0.040496   0.531451   0.000004   0.000000  -0.000000   0.000000
    15  H    0.000012   0.000004   0.450145  -0.008670  -0.000138   0.000002
    16  H   -0.000000   0.000000  -0.008670   0.596857  -0.006602  -0.000270
    17  H    0.000000  -0.000000  -0.000138  -0.006602   0.577262  -0.001308
    18  H   -0.000000   0.000000   0.000002  -0.000270  -0.001308   0.618735
          Atomic-Atomic Spin Densities.
               1          2          3          4          5          6
     1  S    0.816127  -0.097074  -0.004297   0.004268   0.002924  -0.000150
     2  N   -0.097074   0.288464  -0.000860  -0.005329  -0.003605   0.000017
     3  C   -0.004297  -0.000860   0.023280   0.001699   0.000305   0.000116
     4  C    0.004268  -0.005329   0.001699  -0.034549   0.003926  -0.001414
     5  C    0.002924  -0.003605   0.000305   0.003926   0.076481  -0.010171
     6  N   -0.000150   0.000017   0.000116  -0.001414  -0.010171   0.023232
     7  C   -0.000031  -0.000010   0.000005   0.000012  -0.000203   0.001681
     8  C    0.000001   0.000000  -0.000001   0.000014   0.000078  -0.000247
     9  C    0.000003  -0.000001   0.000003  -0.000029   0.000281   0.000139
    10  N   -0.000001  -0.000000   0.000000  -0.000021  -0.000568   0.000081
    11  C   -0.000065   0.000079  -0.000283   0.001168   0.001090  -0.000850
    12  S    0.000008   0.000061   0.000111  -0.000085  -0.001965   0.000344
    13  H    0.005005  -0.002329  -0.003486   0.001959   0.000407  -0.000001
    14  H   -0.000144  -0.000427   0.001315   0.000666   0.000008   0.000002
    15  H   -0.000167   0.000034  -0.000002  -0.000163  -0.000121   0.000463
    16  H    0.000040  -0.000003   0.000001  -0.000024   0.000109  -0.000499
    17  H   -0.000000   0.000000  -0.000000   0.000000  -0.000012   0.000010
    18  H    0.000000  -0.000000   0.000000  -0.000000  -0.000000   0.000002
               7          8          9         10         11         12
     1  S   -0.000031   0.000001   0.000003  -0.000001  -0.000065   0.000008
     2  N   -0.000010   0.000000  -0.000001  -0.000000   0.000079   0.000061
     3  C    0.000005  -0.000001   0.000003   0.000000  -0.000283   0.000111
     4  C    0.000012   0.000014  -0.000029  -0.000021   0.001168  -0.000085
     5  C   -0.000203   0.000078   0.000281  -0.000568   0.001090  -0.001965
     6  N    0.001681  -0.000247   0.000139   0.000081  -0.000850   0.000344
     7  C   -0.003639  -0.000136   0.000377   0.000041  -0.000140   0.000015
     8  C   -0.000136   0.003822  -0.000130   0.000151   0.000019  -0.000021
     9  C    0.000377  -0.000130  -0.010083  -0.001637   0.000308   0.000098
    10  N    0.000041   0.000151  -0.001637   0.006624   0.001413   0.000060
    11  C   -0.000140   0.000019   0.000308   0.001413  -0.020762  -0.003587
    12  S    0.000015  -0.000021   0.000098   0.000060  -0.003587   0.051614
    13  H   -0.000000   0.000000   0.000000  -0.000000  -0.000055  -0.000055
    14  H    0.000000  -0.000000   0.000000   0.000000  -0.000003  -0.000021
    15  H   -0.000029  -0.000017   0.000006   0.000001  -0.000038   0.000005
    16  H   -0.000254  -0.000194   0.000043  -0.000002  -0.000006   0.000001
    17  H    0.000016   0.000068  -0.000093   0.000008   0.000001  -0.000000
    18  H    0.000006  -0.000080   0.000082  -0.000058   0.000001   0.000002
              13         14         15         16         17         18
     1  S    0.005005  -0.000144  -0.000167   0.000040  -0.000000   0.000000
     2  N   -0.002329  -0.000427   0.000034  -0.000003   0.000000  -0.000000
     3  C   -0.003486   0.001315  -0.000002   0.000001  -0.000000   0.000000
     4  C    0.001959   0.000666  -0.000163  -0.000024   0.000000  -0.000000
     5  C    0.000407   0.000008  -0.000121   0.000109  -0.000012  -0.000000
     6  N   -0.000001   0.000002   0.000463  -0.000499   0.000010   0.000002
     7  C   -0.000000   0.000000  -0.000029  -0.000254   0.000016   0.000006
     8  C    0.000000  -0.000000  -0.000017  -0.000194   0.000068  -0.000080
     9  C    0.000000   0.000000   0.000006   0.000043  -0.000093   0.000082
    10  N   -0.000000   0.000000   0.000001  -0.000002   0.000008  -0.000058
    11  C   -0.000055  -0.000003  -0.000038  -0.000006   0.000001   0.000001
    12  S   -0.000055  -0.000021   0.000005   0.000001  -0.000000   0.000002
    13  H   -0.000577   0.000440   0.000001   0.000000  -0.000000   0.000000
    14  H    0.000440  -0.002811   0.000001   0.000000   0.000000   0.000000
    15  H    0.000001   0.000001  -0.000637   0.000071  -0.000000   0.000000
    16  H    0.000000   0.000000   0.000071   0.002113  -0.000069   0.000001
    17  H   -0.000000   0.000000  -0.000000  -0.000069  -0.000057  -0.000012
    18  H    0.000000   0.000000   0.000000   0.000001  -0.000012   0.000557
 Mulliken charges and spin densities:
               1          2
     1  S   -0.196519   0.726447
     2  N   -0.109213   0.179018
     3  C   -0.281008   0.017906
     4  C    0.460531  -0.027902
     5  C   -0.069742   0.068963
     6  N   -0.368175   0.012755
     7  C    0.024213  -0.002287
     8  C   -0.171626   0.003326
     9  C    0.038568  -0.010633
    10  N   -0.250474   0.006092
    11  C    0.261847  -0.021708
    12  S   -0.309664   0.046587
    13  H    0.159224   0.001310
    14  H    0.164615  -0.000975
    15  H    0.273550  -0.000592
    16  H    0.130990   0.001328
    17  H    0.121337  -0.000138
    18  H    0.121548   0.000502
 Sum of Mulliken charges =  -0.00000   1.00000
 Mulliken charges and spin densities with hydrogens summed into heavy atoms:
               1          2
     1  S   -0.196519   0.726447
     2  N   -0.109213   0.179018
     3  C    0.042831   0.018241
     4  C    0.460531  -0.027902
     5  C   -0.069742   0.068963
     6  N   -0.094625   0.012163
     7  C    0.155202  -0.000959
     8  C   -0.050289   0.003188
     9  C    0.160116  -0.010131
    10  N   -0.250474   0.006092
    11  C    0.261847  -0.021708
    12  S   -0.309664   0.046587
 Electronic spatial extent (au):  <R**2>=           2796.5075
 Charge=             -0.0000 electrons
 Dipole moment (field-independent basis, Debye):
    X=              0.3847    Y=             -4.2944    Z=             -0.2048  Tot=              4.3164
 Quadrupole moment (field-independent basis, Debye-Ang):
   XX=            -89.9478   YY=            -79.6708   ZZ=            -80.6571
   XY=             13.5350   XZ=              1.3920   YZ=             -1.5072
 Traceless Quadrupole moment (field-independent basis, Debye-Ang):
   XX=             -6.5226   YY=              3.7545   ZZ=              2.7681
   XY=             13.5350   XZ=              1.3920   YZ=             -1.5072
 Octapole moment (field-independent basis, Debye-Ang**2):
  XXX=            -28.7280  YYY=            -34.4015  ZZZ=              1.4325  XYY=              8.8116
  XXY=            -16.9640  XXZ=             -7.8556  XZZ=              5.1708  YZZ=             -2.6284
  YYZ=              1.2160  XYZ=             -7.5709
 Hexadecapole moment (field-independent basis, Debye-Ang**3):
 XXXX=          -2469.3822 YYYY=          -1199.8101 ZZZZ=           -167.5756 XXXY=            101.4581
 XXXZ=             24.7656 YYYX=             65.8652 YYYZ=             -1.5680 ZZZX=             -0.7093
 ZZZY=             -8.6614 XXYY=           -594.7191 XXZZ=           -418.8856 YYZZ=           -229.5723
 XXYZ=             21.4320 YYXZ=              9.4133 ZZXY=              1.1118
 N-N= 8.138172552877D+02 E-N=-4.529739572968D+03  KE= 1.225281032273D+03
                          Isotropic Fermi Contact Couplings
        Atom                 a.u.       MegaHertz       Gauss      10(-4) cm-1
     1  S(33)              0.06719      23.07929       8.23526       7.69842
     2  N(14)              0.13463      43.49861      15.52138      14.50957
     3  C(13)              0.00768       8.63624       3.08163       2.88074
     4  C(13)             -0.00206      -2.32061      -0.82805      -0.77407
     5  C(13)              0.00611       6.87439       2.45295       2.29305
     6  N(14)              0.00821       2.65388       0.94697       0.88524
     7  C(13)              0.00283       3.17939       1.13449       1.06053
     8  C(13)              0.00050       0.55924       0.19955       0.18654
     9  C(13)             -0.00115      -1.28829      -0.45969      -0.42973
    10  N(14)              0.00101       0.32709       0.11671       0.10911
    11  C(13)             -0.00281      -3.16347      -1.12881      -1.05522
    12  S(33)              0.00422       1.44813       0.51673       0.48304
    13  H(1)              -0.00112      -4.98472      -1.77867      -1.66272
    14  H(1)               0.00026       1.17573       0.41953       0.39218
    15  H(1)              -0.00018      -0.80912      -0.28872      -0.26989
    16  H(1)               0.00044       1.94560       0.69424       0.64898
    17  H(1)              -0.00004      -0.18357      -0.06550      -0.06123
    18  H(1)               0.00018       0.80101       0.28582       0.26719
 --------------------------------------------------------
       Center         ----  Spin Dipole Couplings  ----
                      3XX-RR        3YY-RR        3ZZ-RR
 --------------------------------------------------------
     1   Atom       -0.679573     -1.554996      2.234569
     2   Atom       -0.196950     -0.202573      0.399523
     3   Atom        0.018632     -0.002014     -0.016618
     4   Atom        0.048556     -0.005874     -0.042682
     5   Atom       -0.035766     -0.023160      0.058926
     6   Atom       -0.004087     -0.003797      0.007884
     7   Atom        0.000827      0.004958     -0.005785
     8   Atom        0.001031     -0.001826      0.000796
     9   Atom        0.007334      0.004960     -0.012295
    10   Atom       -0.005138     -0.006251      0.011388
    11   Atom        0.013862      0.011344     -0.025206
    12   Atom       -0.100764     -0.077295      0.178059
    13   Atom       -0.004240      0.003088      0.001153
    14   Atom       -0.005806      0.010328     -0.004522
    15   Atom        0.003382     -0.001399     -0.001983
    16   Atom        0.000810      0.000542     -0.001352
    17   Atom        0.000727     -0.000320     -0.000407
    18   Atom        0.000123      0.000328     -0.000450
 --------------------------------------------------------
                        XY            XZ            YZ
 --------------------------------------------------------
     1   Atom        0.056573      1.852086     -0.001022
     2   Atom        0.035413      0.157040      0.150098
     3   Atom       -0.019743      0.008845     -0.007258
     4   Atom       -0.014046      0.024503     -0.040538
     5   Atom        0.001407      0.006127      0.047570
     6   Atom       -0.011085     -0.017675      0.018818
     7   Atom        0.005329      0.004602      0.001600
     8   Atom        0.001818     -0.001737     -0.000512
     9   Atom       -0.000120      0.002076      0.003951
    10   Atom        0.000167     -0.000434     -0.003287
    11   Atom       -0.003495      0.008521     -0.003601
    12   Atom        0.006381     -0.013691     -0.063558
    13   Atom       -0.004339      0.001696     -0.005366
    14   Atom       -0.003260     -0.000872      0.000892
    15   Atom        0.000760     -0.001852     -0.002003
    16   Atom        0.001648     -0.000132      0.000008
    17   Atom        0.000811      0.000258      0.000288
    18   Atom       -0.000081      0.000064      0.000132
 --------------------------------------------------------


 ---------------------------------------------------------------------------------
              Anisotropic Spin Dipole Couplings in Principal Axis System
 ---------------------------------------------------------------------------------

       Atom             a.u.   MegaHertz   Gauss  10(-4) cm-1        Axes

              Baa    -1.6198   -66.410   -23.697   -22.152  0.7059 -0.6217 -0.3394
     1 S(33)  Bbb    -1.5144   -62.088   -22.154   -20.710  0.5575  0.7832 -0.2752
              Bcc     3.1342   128.498    45.851    42.862  0.4369  0.0051  0.8995
 
              Baa    -0.2386    -9.204    -3.284    -3.070  0.4261  0.8517 -0.3052
     2 N(14)  Bbb    -0.2349    -9.059    -3.232    -3.022  0.8740 -0.4746 -0.1041
              Bcc     0.4735    18.262     6.517     6.092  0.2335  0.2224  0.9466
 
              Baa    -0.0196    -2.635    -0.940    -0.879 -0.0415  0.3403  0.9394
     3 C(13)  Bbb    -0.0135    -1.815    -0.648    -0.606  0.5562  0.7889 -0.2612
              Bcc     0.0332     4.451     1.588     1.485  0.8300 -0.5116  0.2220
 
              Baa    -0.0703    -9.434    -3.366    -3.147 -0.1152  0.5109  0.8519
     4 C(13)  Bbb     0.0062     0.826     0.295     0.276  0.4879  0.7761 -0.3994
              Bcc     0.0641     8.608     3.072     2.871  0.8652 -0.3697  0.3387
 
              Baa    -0.0451    -6.055    -2.161    -2.020  0.1390  0.8975 -0.4185
     5 C(13)  Bbb    -0.0359    -4.819    -1.720    -1.607  0.9889 -0.1483  0.0105
              Bcc     0.0810    10.874     3.880     3.627  0.0526  0.4153  0.9082
 
              Baa    -0.0184    -0.708    -0.253    -0.236  0.4000 -0.5956  0.6966
     6 N(14)  Bbb    -0.0150    -0.577    -0.206    -0.193  0.7768  0.6237  0.0872
              Bcc     0.0333     1.285     0.459     0.429 -0.4864  0.5062  0.7122
 
              Baa    -0.0082    -1.106    -0.395    -0.369 -0.4942  0.0948  0.8642
     7 C(13)  Bbb    -0.0014    -0.189    -0.067    -0.063 -0.6346  0.6401 -0.4331
              Bcc     0.0096     1.295     0.462     0.432  0.5942  0.7624  0.2562
 
              Baa    -0.0027    -0.368    -0.131    -0.123 -0.4704  0.8763 -0.1042
     8 C(13)  Bbb    -0.0005    -0.066    -0.024    -0.022  0.4861  0.3558  0.7982
              Bcc     0.0032     0.434     0.155     0.145  0.7365  0.3248 -0.5934
 
              Baa    -0.0134    -1.793    -0.640    -0.598 -0.0988 -0.2104  0.9726
     9 C(13)  Bbb     0.0058     0.773     0.276     0.258 -0.1781  0.9654  0.1907
              Bcc     0.0076     1.019     0.364     0.340  0.9790  0.1544  0.1329
 
              Baa    -0.0068    -0.264    -0.094    -0.088 -0.0513  0.9831  0.1760
    10 N(14)  Bbb    -0.0051    -0.198    -0.071    -0.066  0.9983  0.0458  0.0353
              Bcc     0.0120     0.463     0.165     0.154 -0.0267 -0.1775  0.9838
 
              Baa    -0.0272    -3.649    -1.302    -1.217 -0.1967  0.0735  0.9777
    11 C(13)  Bbb     0.0090     1.204     0.430     0.402  0.5303  0.8467  0.0430
              Bcc     0.0182     2.445     0.872     0.815  0.8247 -0.5269  0.2055
 
              Baa    -0.1024    -4.200    -1.499    -1.401  0.9562 -0.2920 -0.0195
    12 S(33)  Bbb    -0.0913    -3.744    -1.336    -1.249  0.2883  0.9286  0.2337
              Bcc     0.1937     7.943     2.834     2.650 -0.0502 -0.2291  0.9721
 
              Baa    -0.0064    -3.396    -1.212    -1.133  0.8641  0.4810  0.1484
    13 H(1)   Bbb    -0.0027    -1.438    -0.513    -0.480 -0.3895  0.4522  0.8024
              Bcc     0.0091     4.834     1.725     1.612 -0.3188  0.7511 -0.5781
 
              Baa    -0.0067    -3.556    -1.269    -1.186  0.9358  0.1631  0.3127
    14 H(1)   Bbb    -0.0044    -2.330    -0.831    -0.777 -0.2951 -0.1230  0.9475
              Bcc     0.0110     5.886     2.100     1.963 -0.1930  0.9789  0.0670
 
              Baa    -0.0038    -2.050    -0.731    -0.684  0.1384  0.6019  0.7865
    15 H(1)   Bbb    -0.0004    -0.239    -0.085    -0.080 -0.3986  0.7608 -0.5122
              Bcc     0.0043     2.289     0.817     0.763  0.9066  0.2426 -0.3452
 
              Baa    -0.0014    -0.735    -0.262    -0.245  0.1749 -0.1543  0.9724
    16 H(1)   Bbb    -0.0010    -0.509    -0.182    -0.170 -0.6546  0.7195  0.2319
              Bcc     0.0023     1.244     0.444     0.415  0.7354  0.6771 -0.0249
 
              Baa    -0.0008    -0.433    -0.154    -0.144 -0.3884  0.8499 -0.3561
    17 H(1)   Bbb    -0.0004    -0.234    -0.083    -0.078 -0.3542  0.2190  0.9091
              Bcc     0.0012     0.667     0.238     0.222  0.8507  0.4793  0.2160
 
              Baa    -0.0005    -0.257    -0.092    -0.086 -0.1267 -0.1719  0.9769
    18 H(1)   Bbb     0.0001     0.060     0.021     0.020  0.9521  0.2551  0.1684
              Bcc     0.0004     0.197     0.070     0.066 -0.2782  0.9515  0.1314
 

 ---------------------------------------------------------------------------------

 PrsmSu:  requested number of processors reduced to:  13 ShMem   1 Linda.
 Calling FoFJK, ICntrl=      2127 FMM=F ISym2X=0 I1Cent= 0 IOpClX= 1 NMat=1 NMatS=1 NMatT=0.
 ***** Axes restored to original set *****
 -------------------------------------------------------------------
 Center     Atomic                   Forces (Hartrees/Bohr)
 Number     Number              X              Y              Z
 -------------------------------------------------------------------
      1       16          -0.032332922    0.004770918   -0.001323625
      2        7          -0.014022514   -0.007440899   -0.027169828
      3        6          -0.003036626   -0.020003251    0.018638290
      4        6           0.027112537    0.021770497    0.013553836
      5        6           0.044861022   -0.002494302   -0.000290858
      6        7          -0.017209702   -0.009665446    0.001866452
      7        6          -0.030182271   -0.000434824   -0.000804177
      8        6           0.033257994   -0.010409910    0.006565734
      9        6          -0.008088245    0.016710421   -0.020085498
     10        7           0.001043982   -0.011354629    0.009479142
     11        6           0.008393411   -0.007562200    0.009648698
     12       16          -0.028201849    0.020016827   -0.014002927
     13        1          -0.001570982    0.002217568   -0.001484626
     14        1           0.019127175    0.002382555    0.000367830
     15        1           0.007426910    0.006453573   -0.004051846
     16        1          -0.000602242    0.001116949    0.003036300
     17        1          -0.003905238    0.001535805    0.004863146
     18        1          -0.002070439   -0.007609653    0.001193958
 -------------------------------------------------------------------
 Cartesian Forces:  Max     0.044861022 RMS     0.014895849

 GradGradGradGradGradGradGradGradGradGradGradGradGradGradGradGradGradGrad
 Berny optimization.
 FormGI is forming the generalized inverse of G from B-inverse, IUseBI=4.
 Internal  Forces:  Max     0.036278872 RMS     0.010013833
 Search for a local minimum.
 Step number   1 out of a maximum of   90
 All quantities printed in internal units (Hartrees-Bohrs-Radians)
 Mixed Optimization -- RFO/linear search
 Second derivative matrix not updated -- first step.
 ITU=  0
     Eigenvalues ---    0.00688   0.01099   0.01677   0.01849   0.02047
     Eigenvalues ---    0.02237   0.02318   0.02422   0.02573   0.02849
     Eigenvalues ---    0.02990   0.03390   0.03605   0.04671   0.10326
     Eigenvalues ---    0.12401   0.12999   0.13509   0.15678   0.15998
     Eigenvalues ---    0.15999   0.18834   0.19366   0.20901   0.22162
     Eigenvalues ---    0.24498   0.24693   0.24868   0.24947   0.27868
     Eigenvalues ---    0.31027   0.32857   0.34446   0.35040   0.35199
     Eigenvalues ---    0.35420   0.35606   0.36003   0.38046   0.41641
     Eigenvalues ---    0.42761   0.43792   0.46054   0.48246   0.51013
     Eigenvalues ---    0.57097   0.59073   0.69563
 RFO step:  Lambda=-3.55546747D-02 EMin= 6.87633056D-03
 Linear search not attempted -- first point.
 Maximum step size (   0.300) exceeded in Quadratic search.
    -- Step size scaled by   0.979
 Iteration  1 RMS(Cart)=  0.07027129 RMS(Int)=  0.00396298
 Iteration  2 RMS(Cart)=  0.00401588 RMS(Int)=  0.00201661
 Iteration  3 RMS(Cart)=  0.00001645 RMS(Int)=  0.00201655
 Iteration  4 RMS(Cart)=  0.00000012 RMS(Int)=  0.00201655
 Variable       Old X    -DE/DX   Delta X   Delta X   Delta X     New X
                                 (Linear)    (Quad)   (Total)
    R1        3.11665   0.02804   0.00000   0.05927   0.05927   3.17592
    R2        2.83824   0.01544   0.00000   0.03331   0.03327   2.87151
    R3        2.55759   0.02355   0.00000   0.04179   0.04343   2.60102
    R4        2.71961   0.00583   0.00000   0.01851   0.01700   2.73661
    R5        2.05353   0.00058   0.00000   0.00146   0.00146   2.05499
    R6        2.04076   0.00401   0.00000   0.00993   0.00993   2.05069
    R7        2.51682  -0.00119   0.00000  -0.00185  -0.00185   2.51496
    R8        2.67364   0.00245   0.00000   0.00580   0.00621   2.67985
    R9        2.91552  -0.02242   0.00000  -0.07221  -0.07180   2.84372
   R10        2.60775  -0.00411   0.00000  -0.00706  -0.00753   2.60023
   R11        1.93404  -0.00947   0.00000  -0.01959  -0.01959   1.91445
   R12        2.52079   0.01577   0.00000   0.02615   0.02546   2.54625
   R13        2.05609   0.00072   0.00000   0.00182   0.00182   2.05792
   R14        2.76791  -0.00920   0.00000  -0.02047  -0.02067   2.74725
   R15        2.04702  -0.00178   0.00000  -0.00445  -0.00445   2.04257
   R16        2.42634   0.00861   0.00000   0.01105   0.01118   2.43753
   R17        2.09303  -0.00707   0.00000  -0.01901  -0.01901   2.07402
   R18        2.61900  -0.00794   0.00000  -0.01708  -0.01674   2.60227
   R19        3.23585  -0.03628   0.00000  -0.09347  -0.09347   3.14238
    A1        2.07758   0.02119   0.00000   0.11500   0.11339   2.19097
    A2        2.19175   0.01934   0.00000   0.07409   0.07080   2.26255
    A3        2.04746  -0.00398   0.00000  -0.01759  -0.02037   2.02710
    A4        1.86077   0.01050   0.00000   0.13290   0.13550   1.99627
    A5        2.07583   0.00339   0.00000   0.00811   0.00543   2.08126
    A6        2.18894  -0.00835   0.00000  -0.06509  -0.07321   2.11573
    A7        2.00555   0.00195   0.00000   0.02466   0.01574   2.02129
    A8        2.54760  -0.00138   0.00000  -0.00947  -0.00989   2.53771
    A9        2.59790   0.00151   0.00000   0.01184   0.01148   2.60938
   A10        2.17751  -0.01958   0.00000  -0.06808  -0.06887   2.10864
   A11        2.07763   0.00866   0.00000   0.03072   0.03043   2.10806
   A12        2.01392   0.01124   0.00000   0.04382   0.04415   2.05807
   A13        2.11830  -0.00146   0.00000   0.00590   0.00710   2.12540
   A14        1.91703   0.00703   0.00000   0.03693   0.03624   1.95327
   A15        1.98265  -0.00395   0.00000  -0.01605  -0.01669   1.96597
   A16        2.23092  -0.01377   0.00000  -0.04263  -0.04365   2.18726
   A17        1.98167   0.00522   0.00000   0.01306   0.01339   1.99506
   A18        2.07049   0.00856   0.00000   0.02997   0.03030   2.10079
   A19        2.06407   0.01342   0.00000   0.06216   0.06148   2.12555
   A20        2.15516  -0.01121   0.00000  -0.05341  -0.05310   2.10207
   A21        2.04717  -0.00187   0.00000  -0.00729  -0.00690   2.04027
   A22        2.32377  -0.00331   0.00000  -0.00453  -0.00482   2.31894
   A23        1.95384   0.00502   0.00000   0.01902   0.01911   1.97295
   A24        2.00538  -0.00174   0.00000  -0.01487  -0.01481   1.99057
   A25        2.25391  -0.00563   0.00000  -0.01908  -0.01875   2.23515
   A26        2.12456   0.00512   0.00000   0.01980   0.01765   2.14222
   A27        2.14945  -0.01364   0.00000  -0.04091  -0.04419   2.10526
   A28        2.00021   0.00923   0.00000   0.03878   0.03550   2.03571
    D1        0.15932   0.00536   0.00000   0.02209   0.02648   0.18580
    D2       -2.11742  -0.00386   0.00000  -0.12177  -0.12314  -2.24056
    D3        1.37214  -0.02042   0.00000  -0.15551  -0.15733   1.21482
    D4       -1.40746  -0.00123   0.00000   0.01623   0.01361  -1.39384
    D5        1.55322  -0.02192   0.00000  -0.20596  -0.20055   1.35267
    D6       -0.16031   0.00601   0.00000   0.07827   0.07760  -0.08271
    D7        2.79287   0.00949   0.00000   0.12622   0.12413   2.91700
    D8        3.12835  -0.00041   0.00000   0.00966   0.01175   3.14010
    D9       -0.20166   0.00308   0.00000   0.05761   0.05828  -0.14338
   D10       -2.13872   0.00252   0.00000   0.01881   0.01716  -2.12157
   D11        0.23353   0.00314   0.00000   0.04537   0.04479   0.27831
   D12        1.18514  -0.00075   0.00000  -0.02685  -0.02719   1.15795
   D13       -2.72580  -0.00013   0.00000  -0.00029   0.00044  -2.72536
   D14        2.84201  -0.00124   0.00000  -0.05788  -0.05877   2.78324
   D15       -0.45086   0.00543   0.00000   0.09368   0.09082  -0.36004
   D16       -0.47074  -0.00135   0.00000  -0.02618  -0.02549  -0.49623
   D17        2.51958   0.00532   0.00000   0.12539   0.12411   2.64368
   D18       -0.77326   0.00471   0.00000   0.03959   0.03951  -0.73375
   D19        2.35170   0.00623   0.00000   0.06894   0.06896   2.42066
   D20       -3.11952  -0.00030   0.00000  -0.00913  -0.00932  -3.12884
   D21        0.00544   0.00122   0.00000   0.02022   0.02013   0.02557
   D22       -0.24640   0.00367   0.00000   0.03405   0.03443  -0.21197
   D23        3.09665   0.00169   0.00000   0.02546   0.02589   3.12254
   D24        2.91257   0.00213   0.00000   0.00358   0.00352   2.91609
   D25       -0.02757   0.00014   0.00000  -0.00500  -0.00502  -0.03258
   D26        0.53335  -0.00340   0.00000  -0.06237  -0.06242   0.47094
   D27       -2.58476  -0.00213   0.00000  -0.04102  -0.04158  -2.62634
   D28       -2.79716  -0.00277   0.00000  -0.06036  -0.05992  -2.85708
   D29        0.36791  -0.00150   0.00000  -0.03902  -0.03908   0.32882
   D30        0.06202   0.00110   0.00000   0.01595   0.01449   0.07651
   D31       -3.10358  -0.00013   0.00000  -0.00553  -0.00616  -3.10974
   D32       -0.25118   0.00150   0.00000   0.04235   0.04256  -0.20862
   D33        3.02962  -0.00280   0.00000  -0.09073  -0.09503   2.93459
         Item               Value     Threshold  Converged?
 Maximum Force            0.036279     0.000450     NO 
 RMS     Force            0.010014     0.000300     NO 
 Maximum Displacement     0.250895     0.001800     NO 
 RMS     Displacement     0.070441     0.001200     NO 
 Predicted change in Energy=-2.224882D-02
 GradGradGradGradGradGradGradGradGradGradGradGradGradGradGradGradGradGrad

                          Input orientation:                          
 ---------------------------------------------------------------------
 Center     Atomic      Atomic             Coordinates (Angstroms)
 Number     Number       Type             X           Y           Z
 ---------------------------------------------------------------------
      1         16           0        1.615846    0.313028   -0.419878
      2          7           0        3.067368    0.310442    0.427223
      3          6           0        4.317308   -0.459570    0.035151
      4          6           0        4.239833    0.980922    0.162145
      5          6           0        4.837901    2.169249    0.124953
      6          7           0        4.106220    3.358820    0.371142
      7          6           0        4.033978    4.370611   -0.558582
      8          6           0        5.063477    4.819491   -1.303009
      9          6           0        6.438078    4.444767   -1.013989
     10          7           0        6.965673    3.413554   -0.446498
     11          6           0        6.333944    2.274987    0.001695
     12         16           0        7.310411    0.993363    0.412918
     13          1           0        4.313528   -0.906511   -0.956207
     14          1           0        4.732928   -1.072641    0.828258
     15          1           0        3.213775    3.169477    0.811633
     16          1           0        3.047066    4.820624   -0.655623
     17          1           0        4.913544    5.609798   -2.024981
     18          1           0        7.163873    5.213618   -1.308343
 ---------------------------------------------------------------------
                    Distance matrix (angstroms):
                    1          2          3          4          5
     1  S    0.000000
     2  N    1.680625   0.000000
     3  C    2.846376   1.519536   0.000000
     4  C    2.769501   1.376402   1.448153   0.000000
     5  C    3.758195   2.584824   2.681375   1.330861   0.000000
     6  N    4.013044   3.221020   3.838952   2.390802   1.418114
     7  C    4.725524   4.288486   4.874776   3.471573   2.441210
     8  C    5.742324   5.225866   5.496902   4.190428   3.018898
     9  C    6.377942   5.525524   5.445262   4.267763   3.005950
    10  N    6.183415   5.058605   4.716664   3.703830   2.530270
    11  C    5.127129   3.835497   3.397903   2.466912   1.504832
    12  S    5.795212   4.297675   3.348491   3.080827   2.752987
    13  H    3.008722   2.224358   1.087456   2.195118   3.302146
    14  H    3.632371   2.201781   1.085180   2.214490   3.318962
    15  H    3.497041   2.888475   3.871781   2.502879   2.027257
    16  H    4.735228   4.638395   5.474590   4.103018   3.293354
    17  H    6.442587   6.124119   6.437147   5.163710   4.057747
    18  H    7.455585   6.620776   6.487910   5.350520   4.090558
                    6          7          8          9         10
     6  N    0.000000
     7  C    1.375982   0.000000
     8  C    2.419232   1.347417   0.000000
     9  C    2.921546   2.447977   1.453781   0.000000
    10  N    2.974560   3.085994   2.515675   1.289884   0.000000
    11  C    2.504784   3.161549   3.129032   2.398000   1.377060
    12  S    3.982961   4.804646   4.757350   3.835259   2.591286
    13  H    4.471899   5.299458   5.785308   5.757883   5.094766
    14  H    4.498840   5.660463   6.274455   6.061617   5.170697
    15  H    1.013085   1.998235   3.258167   3.918595   3.964746
    16  H    2.076758   1.089002   2.117787   3.430548   4.168821
    17  H    3.385273   2.111764   1.080882   2.168779   3.395044
    18  H    3.950973   3.327017   2.137061   1.097522   2.005565
                   11         12         13         14         15
    11  C    0.000000
    12  S    1.662874   0.000000
    13  H    3.888648   3.803332   0.000000
    14  H    3.801720   3.329310   1.840601   0.000000
    15  H    3.345380   4.655843   4.576941   4.505959   0.000000
    16  H    4.209027   5.828020   5.873189   6.306711   2.215157
    17  H    4.152820   5.744544   6.630578   7.268327   4.109837
    18  H    3.322730   4.560128   6.760506   7.070475   4.927077
                   16         17         18
    16  H    0.000000
    17  H    2.445747   0.000000
    18  H    4.186716   2.394683   0.000000
 Stoichiometry    C7H6N3S2(2)
 Framework group  C1[X(C7H6N3S2)]
 Deg. of freedom    48
 Full point group                 C1      NOp   1
 Largest Abelian subgroup         C1      NOp   1
 Largest concise Abelian subgroup C1      NOp   1
                         Standard orientation:                         
 ---------------------------------------------------------------------
 Center     Atomic      Atomic             Coordinates (Angstroms)
 Number     Number       Type             X           Y           Z
 ---------------------------------------------------------------------
      1         16           0        3.448714   -0.842136   -0.306909
      2          7           0        2.398221    0.287596    0.359928
      3          6           0        1.904622    1.548921   -0.328845
      4          6           0        1.052894    0.474351    0.136991
      5          6           0       -0.166976   -0.027124    0.314841
      6          7           0       -0.348763   -1.303286    0.905952
      7          6           0       -1.005487   -2.318885    0.249754
      8          6           0       -2.133672   -2.177638   -0.473282
      9          6           0       -2.927046   -0.960402   -0.424580
     10          7           0       -2.632439    0.269467   -0.170746
     11          6           0       -1.389465    0.813753    0.063914
     12         16           0       -1.289890    2.473641    0.061512
     13          1           0        2.122808    1.631561   -1.390978
     14          1           0        2.033916    2.456349    0.252078
     15          1           0        0.487126   -1.622421    1.381120
     16          1           0       -0.543648   -3.298502    0.363683
     17          1           0       -2.574698   -3.029173   -0.971973
     18          1           0       -3.995052   -1.136195   -0.606278
 ---------------------------------------------------------------------
 Rotational constants (GHZ):           1.0560173           0.5456108           0.3761187
 Standard basis: 6-31G(2df,p) (6D, 7F)
 There are   410 symmetry adapted cartesian basis functions of A   symmetry.
 There are   374 symmetry adapted basis functions of A   symmetry.
   374 basis functions,   618 primitive gaussians,   410 cartesian basis functions
    51 alpha electrons       50 beta electrons
       nuclear repulsion energy       816.1633767129 Hartrees.
 NAtoms=   18 NActive=   18 NUniq=   18 SFac= 1.00D+00 NAtFMM=   60 NAOKFM=F Big=F
 Integral buffers will be    131072 words long.
 Raffenetti 2 integral format.
 Two-electron integral symmetry is turned on.
 One-electron integrals computed using PRISM.
 PrsmSu:  requested number of processors reduced to:  13 ShMem   1 Linda.
 NBasis=   374 RedAO= T EigKep=  1.89D-04  NBF=   374
 NBsUse=   374 1.00D-06 EigRej= -1.00D+00 NBFU=   374
 Initial guess from the checkpoint file:  "[S]N1CC1dC1NCdCCdNC1dS.chk"
 B after Tr=     0.000000    0.000000    0.000000
         Rot=    0.999902    0.000979   -0.000606   -0.013968 Ang=   1.61 deg.
 Initial guess <Sx>= 0.0000 <Sy>= 0.0000 <Sz>= 0.5000 <S**2>= 0.7562 S= 0.5031
 ExpMin= 1.17D-01 ExpMax= 2.19D+04 ExpMxC= 3.30D+03 IAcc=2 IRadAn=         4 AccDes= 0.00D+00
 Harris functional with IExCor=  402 and IRadAn=       4 diagonalized for initial guess.
 HarFok:  IExCor=  402 AccDes= 0.00D+00 IRadAn=         4 IDoV= 1 UseB2=F ITyADJ=14
 ICtDFT=  3500011 ScaDFX=  1.000000  1.000000  1.000000  1.000000
 FoFCou: FMM=F IPFlag=           0 FMFlag=      100000 FMFlg1=           0
         NFxFlg=           0 DoJE=T BraDBF=F KetDBF=T FulRan=T
         wScrn=  0.000000 ICntrl=       500 IOpCl=  0 I1Cent=   200000004 NGrid=           0
         NMat0=    1 NMatS0=      1 NMatT0=    0 NMatD0=    1 NMtDS0=    0 NMtDT0=    0
 Petite list used in FoFCou.
 Requested convergence on RMS density matrix=1.00D-08 within 128 cycles.
 Requested convergence on MAX density matrix=1.00D-06.
 Requested convergence on             energy=1.00D-06.
 No special actions if energy rises.
 Integral accuracy reduced to 1.0D-05 until final iterations.
 EnCoef did     1 forward-backward iterations
 Initial convergence to 1.0D-05 achieved.  Increase integral accuracy.
 SCF Done:  E(UB3LYP) =  -1230.85328493     A.U. after   20 cycles
            NFock= 20  Conv=0.88D-08     -V/T= 2.0046
 <Sx>= 0.0000 <Sy>= 0.0000 <Sz>= 0.5000 <S**2>= 0.7575 S= 0.5038
 <L.S>=  0.00000000000    
 Annihilation of the first spin contaminant:
 S**2 before annihilation     0.7575,   after     0.7500
 PrsmSu:  requested number of processors reduced to:  13 ShMem   1 Linda.
 Calling FoFJK, ICntrl=      2127 FMM=F ISym2X=0 I1Cent= 0 IOpClX= 1 NMat=1 NMatS=1 NMatT=0.
 ***** Axes restored to original set *****
 -------------------------------------------------------------------
 Center     Atomic                   Forces (Hartrees/Bohr)
 Number     Number              X              Y              Z
 -------------------------------------------------------------------
      1       16          -0.003526039    0.002998349    0.007418622
      2        7           0.001599383   -0.004026939   -0.025306300
      3        6          -0.006563708   -0.003887767    0.013124566
      4        6           0.003879414   -0.000546889    0.006291862
      5        6           0.018731509    0.003122792    0.004400729
      6        7          -0.012116951   -0.000777057   -0.003007264
      7        6          -0.008006286   -0.001603169   -0.001142350
      8        6           0.015738665   -0.004975588    0.004596877
      9        6          -0.010096942    0.008482695   -0.009064024
     10        7           0.002665455   -0.002230423    0.008528449
     11        6          -0.001004982   -0.002963624   -0.006001069
     12       16          -0.004355765    0.003099875   -0.001474042
     13        1           0.000193810    0.001804369   -0.000731157
     14        1           0.001927618    0.001017746    0.000252559
     15        1           0.001455055    0.000182917    0.000451844
     16        1           0.001761104    0.000798912    0.001771084
     17        1          -0.002022599    0.002633137    0.001875208
     18        1          -0.000258741   -0.003129336   -0.001985594
 -------------------------------------------------------------------
 Cartesian Forces:  Max     0.025306300 RMS     0.006642606

 GradGradGradGradGradGradGradGradGradGradGradGradGradGradGradGradGradGrad
 Berny optimization.
 Using GEDIIS/GDIIS optimizer.
 FormGI is forming the generalized inverse of G from B-inverse, IUseBI=4.
 Internal  Forces:  Max     0.012524813 RMS     0.003721923
 Search for a local minimum.
 Step number   2 out of a maximum of   90
 All quantities printed in internal units (Hartrees-Bohrs-Radians)
 Mixed Optimization -- RFO/linear search
 Update second derivatives using D2CorX and points    1    2
 DE= -2.25D-02 DEPred=-2.22D-02 R= 1.01D+00
 TightC=F SS=  1.41D+00  RLast= 5.06D-01 DXNew= 5.0454D-01 1.5190D+00
 Trust test= 1.01D+00 RLast= 5.06D-01 DXMaxT set to 5.05D-01
 ITU=  1  0
 Use linear search instead of GDIIS.
     Eigenvalues ---    0.00713   0.01066   0.01628   0.01791   0.02023
     Eigenvalues ---    0.02208   0.02310   0.02352   0.02559   0.02812
     Eigenvalues ---    0.02933   0.03349   0.03578   0.04924   0.09309
[...]
 603068,-0.3008331,-0.0646785,0.1034208,-1.0190359,-0.0466217,0.0350909
 ,-0.1740013,-0.1743675,0.0120822,0.3244604,-0.0027707,-0.2991031,1.069
 5112,-0.1473237,-0.1710918,-0.44749,0.6534677,-0.2274759,-0.1880853,-0
 .3557852,0.4071932,-0.5824558,-0.2909653,0.3257921,0.3889246,-0.926478
 9,0.4131366,-0.2088668,0.6095201,-0.7518922,0.6840128,0.2234565,0.1098
 667,-0.2703434,0.568059,-0.6078988,0.4257963,-0.5598836,0.7130385,-0.6
 772095,0.057301,-0.2374494,0.3529312,-0.3604042,0.211525,-0.3308849,0.
 1978653,-0.474918,0.0605011,0.0575945,-0.0016059,0.01365,-0.0649718,-0
 .0297254,0.0178113,-0.0610588,-0.0188424,0.0610812,0.0585713,0.0029183
 ,0.0104175,-0.0243814,-0.0002187,0.0096675,0.0651227,-0.0354368,0.1392
 161,0.0112448,0.0014747,-0.0526706,0.122528,0.0431228,-0.0482602,-0.01
 41844,0.2231925,0.0083446,0.0557936,0.0224766,0.0084069,0.0323853,0.00
 73479,0.0394387,-0.0191226,0.1117735,0.0622066,0.0356631,0.006364,0.02
 79613,-0.0451703,0.0360382,0.0428614,0.0633683,0.1017472,-0.0197275,-0
 .0891544,0.0887682,-0.062521,-0.0372886,0.0927397,0.0492631,0.0624421,
 0.0339372\Polar=227.8812111,43.6712644,194.7806331,3.6062219,-35.87428
 61,89.1976059\Quadrupole=-11.7244574,11.6599247,0.0645327,-4.7867066,-
 2.3507539,-1.7808164\PG=C01 [X(C7H6N3S2)]\NImag=0\\0.28364896,-0.02625
 609,0.01935535,-0.02186378,-0.00051340,0.00556297,-0.23350823,0.022024
 48,0.02456007,0.70339816,0.02562362,-0.03757766,0.00445807,0.04725463,
 0.27128251,0.01638989,0.00405503,-0.00698526,-0.01930040,-0.02639705,0
 .07012515,-0.01385752,0.00493347,-0.00107826,-0.12438530,0.04983580,-0
 .00681022,0.23358198,-0.00103952,0.00585219,-0.00161207,0.10179902,-0.
 08563785,0.01400998,-0.12566371,0.57557478,0.00153053,-0.00430640,0.00
 054216,-0.01122935,0.01802302,-0.04446076,0.00208453,0.00079057,0.6069
 7240,-0.04334523,0.00005217,-0.00330407,-0.30929031,-0.11256369,0.0176
 4846,0.00979112,-0.02139271,-0.00426550,0.48433235,-0.00736759,0.00871
 265,-0.00253141,-0.12094872,-0.08222445,0.00285456,0.03242139,-0.28153
 752,0.03214849,0.19527876,0.78549921,0.00659812,0.00098574,0.00402548,
 -0.00030103,-0.00745469,-0.04231929,-0.00430243,0.03075046,-0.04428468
 ,-0.00116324,-0.05439819,0.10598085,0.00551794,0.00099755,0.00125671,-
 0.03916536,-0.05880663,-0.00038777,-0.00652209,0.00577079,0.00452717,-
 0.10594433,-0.07096543,-0.00545438,0.55825258,0.01543607,-0.00120264,0
 .00072428,-0.06669462,-0.05195001,0.00058521,-0.01763639,0.00170263,-0
 .00126009,-0.07285605,-0.31862585,0.01665006,0.06575167,0.65695574,-0.
 00194461,-0.00000297,-0.00144526,0.00638475,0.00282605,0.00926985,0.00
 131349,0.00029608,-0.00079228,-0.00339968,0.01778298,-0.04427789,0.002
 02192,-0.05418828,0.12338548,0.00397203,-0.00553221,-0.00038260,-0.010
 23105,-0.00255226,0.00101287,-0.00099259,-0.00225227,-0.00205266,0.017
 08376,0.00918314,0.00288327,-0.18400350,0.07565945,0.00531998,0.709671
 69,-0.00574562,-0.00224265,0.00017667,0.00960928,0.01293369,-0.0007843
 9,0.00331463,0.00127893,0.00079916,0.02603841,-0.07401418,0.00541045,0
 .06032498,-0.18410718,0.01658109,0.04111055,0.74359443,0.00054534,0.00
 079539,0.00009898,0.00171814,-0.00040484,-0.00424710,-0.00032024,0.001
 01040,0.00669912,-0.00542632,0.00227434,0.00698126,0.01736665,0.012107
 54,-0.03700742,-0.11170802,-0.11720295,0.10535873,-0.00110668,0.000110
 45,-0.00002709,0.00502727,0.00105593,-0.00057898,-0.00008969,0.0003057
 7,0.00073664,-0.01339296,0.00037788,-0.00051738,0.01084966,0.02648774,
 -0.00556363,-0.13043259,-0.00357457,0.01725478,0.73663355,0.00065141,0
 .00242744,0.00009045,-0.00071020,-0.00273761,-0.00019159,-0.00023638,0
 .00033950,-0.00032512,-0.00326583,0.00684389,-0.00040451,0.01339406,-0
 .04385015,0.00330825,-0.03972303,-0.34047932,0.05502768,0.00951663,0.6
 7656722,0.00081535,-0.00096489,-0.00006088,-0.00262395,-0.00005645,-0.
 00086553,-0.00002081,-0.00016356,0.00193435,0.00491095,-0.00013156,0.0
 0134048,-0.00360308,0.00249857,-0.00195240,0.02171002,0.04667724,-0.05
 258051,-0.15861541,-0.09124728,0.19241340,0.00012024,-0.00144884,-0.00
 002260,-0.00038723,0.00193952,0.00092874,0.00029207,-0.00032313,-0.000
 57507,0.00514214,-0.00361744,0.00079329,0.00189578,0.00946321,-0.00067
 556,-0.00655319,-0.05362878,0.01334180,-0.30747919,-0.06624874,0.07245
 168,0.60825199,-0.00060734,-0.00040150,0.00005517,0.00032319,0.0001654
 7,-0.00037193,-0.00009047,0.00024669,0.00039969,0.00065916,-0.00019852
 ,-0.00046013,-0.00600276,0.00219008,-0.00134851,-0.04013464,-0.0321735
 8,0.01704557,-0.12140564,-0.17095095,0.05458817,0.01372177,0.67112831,
 0.00014607,0.00060357,0.00002952,-0.00068664,-0.00133470,-0.00003154,-
 0.00021332,0.00010655,0.00006943,-0.00113982,0.00261144,-0.00080198,-0
 .00227681,-0.00798331,-0.00059831,0.01252632,0.02375513,0.00231271,0.0
 9046082,0.04069505,-0.08123189,-0.17051890,-0.12287770,0.18262227,0.00
 115691,0.00087928,-0.00002682,-0.00586895,-0.00423773,-0.00119555,-0.0
 0027426,0.00053808,0.00096957,0.00300256,0.00990830,-0.00086302,-0.004
 40098,-0.01636617,0.00474195,0.00530911,0.03206933,-0.00776510,-0.0584
 3139,-0.02764518,0.03093194,-0.19650657,0.07615021,0.03945354,0.512139
 84,0.00035746,-0.00116746,-0.00011617,0.00189138,0.00337822,0.00144614
 ,0.00065574,-0.00080534,-0.00098405,0.00012617,-0.00672443,0.00151007,
 0.00597755,0.01346196,-0.00195422,-0.00937305,-0.02594856,0.00456883,0
 .01683725,0.04898476,-0.01631614,0.02097903,-0.13776950,0.01093504,-0.
 09301384,0.68816114,-0.00031234,0.00016420,0.00007040,-0.00084642,-0.0
 0121294,-0.00009665,-0.00038003,0.00023406,0.00036196,0.00138090,0.002
 45549,-0.00022214,-0.00420968,-0.00379565,-0.00223275,0.00024019,-0.00
 016072,-0.00234174,0.01155097,-0.00765686,-0.00078858,0.07307240,-0.01
 396883,-0.09212637,-0.16646959,-0.20361026,0.35511508,-0.00035614,0.00
 020898,0.00008631,-0.00111829,-0.00301825,-0.00108209,-0.00069503,0.00
 030978,0.00079865,-0.00145064,0.00465384,-0.00113195,-0.02076067,-0.03
 859887,0.01297995,0.00579454,-0.00043550,0.00082514,0.00524880,0.00115
 783,-0.00345034,-0.00371859,0.04319970,0.00586851,-0.11217848,0.117515
 52,-0.02062861,0.22073237,-0.00035983,0.00125997,0.00026831,-0.0045682
 1,-0.00565784,-0.00332910,-0.00118142,0.00134761,0.00203673,0.00603184
 ,0.01402031,-0.00095417,-0.03022761,-0.01902149,0.01749820,0.00553394,
 0.02780643,-0.00324495,-0.03047147,-0.03819823,0.01721261,0.07869769,-
 0.02573961,-0.00986181,0.10201783,-0.40586242,0.10464793,-0.07131154,0
 .66277819,0.00028683,-0.00086816,-0.00016911,0.00293147,0.00373367,0.0
 0020821,0.00133140,-0.00070272,-0.00097695,-0.00522380,-0.00903572,0.0
 0355441,0.01594924,0.01987709,0.00808095,-0.00221870,-0.01370264,-0.00
 039662,0.01313291,0.01828593,-0.00959528,-0.02544907,-0.00029999,0.027
 98302,-0.01159451,0.11046306,-0.09226239,-0.01980291,-0.26539106,0.224
 57344,-0.00126357,-0.00080537,-0.00046433,0.01603839,0.01580065,0.0004
 0702,0.00424226,-0.00151943,-0.00184383,-0.03381680,-0.04247870,0.0088
 2678,-0.17137978,0.00322305,-0.00420540,-0.03394648,-0.00468439,-0.008
 17290,0.01163809,0.01655646,-0.00679289,-0.02422688,0.00170409,0.00140
 980,0.01425380,-0.00498992,0.00107222,-0.11200185,-0.06776117,0.047454
 97,0.44387929,-0.00043197,-0.00050922,-0.00019838,0.00557331,0.0009176
 3,0.00200382,0.00090577,-0.00145704,-0.00087720,-0.03835266,-0.0112990
 6,0.00004877,-0.02513232,-0.07996815,-0.00130264,0.02858658,-0.0076637
 5,0.00093154,0.01352788,0.02213740,-0.00806690,-0.02833579,0.00246027,
 0.00489365,0.00162326,-0.06163463,0.04060663,-0.04830429,-0.16110247,0
 .07469364,0.01189626,0.40011473,-0.00112002,0.00058864,0.00022463,0.00
 069617,0.00215772,0.00697343,-0.00000635,0.00013552,-0.00439116,0.0023
 8906,-0.00198768,0.00139967,-0.00692549,-0.00242441,-0.05622155,-0.004
 76858,0.01030823,-0.00140175,-0.01033768,-0.01479203,0.00605060,0.0195
 6276,-0.00565500,-0.00706031,-0.00268787,0.03766052,-0.02966015,0.0322
 1990,0.08053225,-0.11305994,0.05699810,-0.18724776,0.32044900,-0.00186
 993,0.00017390,0.00057698,0.00190477,-0.00032748,-0.00016362,-0.001572
 44,0.00103523,-0.00092645,-0.00336470,0.00099078,-0.00359493,-0.027069
 52,0.01225813,-0.02139297,-0.00127931,-0.00206035,0.00008782,-0.001150
 56,-0.00213362,0.00075370,0.00095619,0.00021262,-0.00140786,-0.0009590
 6,-0.00486363,0.00396455,0.01751121,0.00446704,-0.00799961,-0.12031911
 ,0.07132275,-0.08987601,0.13737932,0.00062784,0.00018272,-0.00008318,-
 0.00193912,0.00135401,-0.00046768,0.00036529,0.00061844,-0.00047560,-0
 .00156609,-0.00461143,0.00115982,0.01257997,0.00637100,0.00659130,-0.0
 0329961,0.00605959,-0.00171115,-0.00287843,-0.00605111,0.00206114,0.00
 687977,0.00133150,-0.00095542,-0.00645822,0.00885834,-0.00000566,0.009
 19552,-0.02342766,0.04066790,0.06898944,-0.09778480,0.07582723,-0.0815
 3563,0.10708134,-0.00063378,-0.00008416,0.00033680,0.00018126,-0.00082
 316,-0.00039073,-0.00074692,0.00028490,-0.00006221,0.00084133,0.001979
 34,-0.00110200,-0.01738036,0.01177512,-0.00079916,-0.00088100,-0.00570
 230,0.00321206,0.00188604,0.00430797,-0.00160687,-0.00540529,0.0006783
 2,0.00035720,0.00106026,-0.00688556,0.00534246,0.00249530,0.04076865,-
 0.03994999,-0.10032612,0.07238290,-0.13581830,0.11926739,-0.11989079,0
 .17033922,0.00095094,0.00080008,0.00147242,-0.00820932,0.02222569,0.01
 920526,-0.05119348,0.03118789,0.04333748,-0.00143499,-0.00340007,-0.01
 322533,0.00228803,-0.00027499,-0.00124722,-0.00027856,-0.00103946,0.00
 059857,0.00041396,0.00023222,0.00017832,-0.00020052,-0.00001463,0.0000
 5240,0.00006871,-0.00012378,0.00007200,-0.00008857,0.00009681,-0.00020
 457,0.00012371,0.00012292,0.00036187,0.00007936,-0.00000321,0.00004149
 ,0.05375186,0.00037669,0.00084811,0.00007870,0.00173347,-0.01121441,0.
 00047104,0.03594833,-0.14097835,-0.12841145,0.00952281,-0.01822722,-0.
 01560458,0.00207486,0.00286988,-0.00138264,0.00003770,-0.00166987,0.00
 083301,0.00036660,0.00071570,0.00015223,-0.00049000,-0.00012418,0.0001
 5321,0.00052230,-0.00037564,0.00002765,-0.00012036,0.00049057,-0.00037
 627,-0.00003378,-0.00073517,-0.00002414,-0.00034420,0.00037692,-0.0001
 3289,-0.04630105,0.15977436,0.00039379,-0.00028630,-0.00044226,-0.0012
 8827,0.00446884,0.00772853,0.04373158,-0.12856789,-0.22556328,-0.00174
 208,0.00523610,0.00673869,-0.00016523,-0.00018361,0.00005740,0.0000439
 7,0.00032641,-0.00044630,-0.00011564,-0.00004531,-0.00006740,0.0000810
 9,0.00000978,-0.00000693,-0.00005403,0.00005165,-0.00000139,0.00000933
 ,-0.00014074,0.00001209,-0.00002525,0.00017709,0.00025347,-0.00002343,
 -0.00008956,0.00006897,-0.04697491,0.13552612,0.22681910,0.00156181,-0
 .00104171,-0.00123050,-0.00170505,0.01627150,-0.02585382,-0.04828661,0
 .01141041,-0.03268806,-0.00363402,0.00127787,0.01163771,0.00129939,0.0
 0045591,0.00180480,0.00013426,-0.00143570,-0.00030249,0.00051939,0.000
 62878,-0.00058850,-0.00054189,-0.00005924,0.00017517,0.00021518,-0.000
 37747,-0.00004008,0.00003850,0.00050143,-0.00047254,0.00036934,-0.0002
 0858,0.00054114,-0.00002430,0.00032915,-0.00015732,0.00391181,-0.00301
 857,0.00606613,0.04603277,0.00046554,0.00080745,-0.00116586,0.00054757
 ,-0.01080672,0.00656755,0.01609688,-0.07672263,0.08246727,0.00932222,-
 0.01283453,0.02301161,0.00095947,0.00362757,0.00085257,0.00054417,-0.0
 0196395,-0.00048164,0.00013639,0.00070765,-0.00046825,-0.00038948,-0.0
 0021213,0.00014678,0.00039503,-0.00021436,-0.00001822,-0.00022969,0.00
 028084,-0.00047457,0.00044643,-0.00074850,0.00123043,-0.00016784,0.000
 70536,-0.00052297,-0.00332832,0.00823062,-0.01646706,-0.02465501,0.089
 10290,-0.00091197,0.00006823,-0.00015223,-0.00020180,0.00190898,0.0046
 3127,-0.03478475,0.08332633,-0.29518792,-0.00122826,0.00188656,0.00215
 517,-0.00069758,-0.00093172,-0.00018856,-0.00009528,0.00000098,-0.0003
 2116,0.00011745,0.00001451,-0.00010332,-0.00001456,0.00003810,0.000025
 13,-0.00014807,0.00000015,-0.00004257,-0.00011913,0.00005286,0.0000929
 0,0.00021688,-0.00002997,0.00028001,0.00029154,-0.00026612,0.00002926,
 -0.00347227,0.00889373,-0.01518048,0.04095164,-0.09497352,0.30394845,-
 0.00151722,0.00489648,0.00044090,0.00716300,0.00119400,-0.00024457,-0.
 00001391,-0.00009010,-0.00027549,-0.00412355,-0.00488425,-0.00026756,-
 0.02210189,0.00249943,0.00333777,-0.37609789,-0.09352766,0.07841523,-0
 .00060408,-0.00440119,0.00157327,0.00632761,0.00154981,-0.00172201,-0.
 00284693,0.00308590,-0.00024735,0.00015223,-0.00288186,0.00125486,0.00
 188914,0.00394056,-0.00025567,-0.00062508,-0.00042767,-0.00020158,-0.0
 0015100,-0.00024283,0.00005621,0.00008994,-0.00014444,0.00009038,0.390
 94642,-0.00138524,0.00357065,0.00035876,0.00372813,-0.00246153,-0.0004
 1177,0.00031547,0.00016548,0.00009784,0.00236150,-0.00332674,-0.000545
 70,0.02678281,0.01241989,-0.00578750,-0.08702677,-0.09519327,0.0281056
 8,-0.03591619,-0.01237051,0.00874998,0.00303649,-0.00426898,0.00035861
 ,0.00060255,-0.00016123,-0.00013448,-0.00058359,0.00059573,-0.00035419
 ,0.00106341,-0.00453116,0.00044791,0.00056289,0.00034235,0.00062233,-0
 .00010841,0.00010062,-0.00003433,-0.00008623,0.00006248,0.00002809,0.0
 8800004,0.10530306,0.00011512,-0.00034198,-0.00162505,-0.00045315,-0.0
 0029520,0.00031623,0.00012908,0.00014727,-0.00033264,0.00006608,-0.000
 84021,0.00063579,-0.00250977,0.00208299,0.00117708,0.08127889,0.026483
 48,-0.03523355,0.00598272,0.00387792,-0.00527014,-0.00126475,0.0017897
 9,0.00459967,0.00128784,-0.00186139,0.00026500,0.00033593,0.00247825,-
 0.00227542,-0.00351663,-0.00171055,0.00431881,0.00037767,0.00022314,-0
 .00092519,-0.00014844,-0.00019868,0.00001828,0.00003697,0.00017686,-0.
 00000346,-0.08110146,-0.03199322,0.03557070,0.00005057,0.00012853,0.00
 002189,-0.00012912,-0.00007920,-0.00000992,-0.00000951,-0.00009082,-0.
 00007078,0.00020882,0.00043927,0.00012055,0.00169297,-0.00143064,0.001
 17583,0.00562650,-0.00453950,0.00021056,-0.25863417,0.12658495,0.03458
 590,-0.01710309,0.01554892,0.00341827,-0.00157373,-0.00372849,0.003563
 41,0.00042072,-0.00029723,-0.00026746,0.00036758,-0.00032185,-0.000041
 84,0.00003836,-0.00000741,-0.00004605,-0.00000901,0.00000972,0.0000023
 6,-0.00000151,0.00001463,0.00000135,0.00133314,-0.00037381,-0.00106750
 ,0.26849320,-0.00019168,0.00011961,0.00001046,0.00025491,0.00023996,-0
 .00004276,0.00001721,-0.00004382,-0.00009202,0.00078224,-0.00135259,0.
 00038937,-0.00423821,-0.00095170,0.00057996,0.03135391,-0.02784798,-0.
 00172468,0.11866384,-0.13080962,-0.01590450,-0.01242592,0.01096306,0.0
 0253344,-0.00203853,-0.00093354,0.00242175,0.00018143,-0.00025719,-0.0
 0015210,0.00006910,-0.00019024,0.00005167,0.00007767,0.00010408,-0.000
 04839,-0.00005379,-0.00006180,0.00001625,-0.00002815,-0.00004930,0.000
 00309,0.00116305,0.00001238,-0.00039479,-0.13209244,0.15018338,-0.0000
 4498,-0.00004570,0.00003173,-0.00003024,0.00002918,-0.00001749,0.00002
 006,-0.00000903,-0.00037717,-0.00028535,0.00049244,0.00046292,0.001146
 70,0.00261007,0.00443705,-0.00605509,0.00632495,0.00349489,0.03458582,
 -0.01952638,-0.04606657,0.01091334,-0.00196112,0.00414986,0.00324198,0
 .00206345,0.00795517,-0.00136525,-0.00148864,-0.00059747,0.00139345,0.
 00065768,-0.00027089,0.00010036,-0.00036802,0.00009749,-0.00000765,-0.
 00001349,0.00001084,0.00004388,0.00004409,0.00001931,-0.00084789,-0.00
 030522,-0.00261420,-0.04061037,0.01293994,0.03435812,-0.00003013,-0.00
 010395,-0.00001504,0.00014896,0.00018741,0.00002184,0.00001466,-0.0000
 0955,-0.00004857,0.00000290,-0.00038695,-0.00000803,-0.00043522,0.0009
 4346,0.00015531,-0.00390190,-0.00083977,0.00302379,0.00194484,-0.02932
 305,0.00517101,-0.05062045,0.02712668,0.00504685,-0.00078854,0.0287406
 0,-0.00864382,-0.00317886,0.00257300,0.00232328,-0.00111348,-0.0012703
 4,0.00176534,0.00003498,0.00015790,-0.00064015,-0.00002367,-0.00002854
 ,0.00000606,0.00001251,-0.00001309,0.00000784,0.00007230,-0.00090478,0
 .00065734,0.00037253,-0.00075229,-0.00144921,0.05740492,-0.00007504,-0
 .00004548,-0.00000054,0.00004537,0.00002002,0.00002652,-0.00000723,0.0
 0002732,-0.00004323,-0.00012834,-0.00001999,-0.00010201,0.00024753,0.0
 0002990,0.00001789,-0.00168465,0.00270700,0.00174572,0.00250124,-0.013
 58958,0.00173194,0.02437014,-0.32701732,0.06106870,-0.00259392,-0.0104
 1362,0.00435003,0.00260647,-0.00001527,-0.00067807,0.00031327,0.001124
 27,-0.00095663,-0.00005066,-0.00015976,0.00034597,-0.00001013,-0.00000
 859,0.00000353,0.00002790,0.00001590,0.00000283,0.00022140,-0.00033357
 ,0.00042112,-0.00046424,0.00054193,-0.00131388,-0.02534750,0.34674236,
 -0.00008278,0.00017894,-0.00001030,0.00042846,0.00007441,0.00002380,0.
 00001505,0.00001011,-0.00009323,-0.00055710,-0.00027309,-0.00025285,0.
 00030202,-0.00029387,0.00037319,0.00406506,0.00255362,0.00527898,-0.00
 460194,0.00837038,-0.00291747,0.00945125,0.06341719,-0.04378667,-0.003
 56699,-0.00682977,0.00169648,0.00318951,-0.00084433,0.00361862,0.00113
 090,0.00090220,-0.00025580,-0.00027774,-0.00032428,0.00005598,-0.00003
 422,-0.00000720,0.00000301,0.00007963,0.00003606,0.00001951,-0.0001568
 3,0.00081081,0.00166272,-0.00132300,-0.00096263,-0.00419419,-0.0067991
 1,-0.06631113,0.03946861,-0.00012475,-0.00001719,-0.00000018,0.0003176
 7,0.00019650,0.00001284,-0.00002966,0.00002426,-0.00000879,0.00023389,
 -0.00048207,-0.00003043,-0.00001301,0.00167961,-0.00080666,0.00012516,
 -0.00095587,0.00030724,-0.00095424,0.00496488,0.00261286,-0.01564841,-
 0.01188142,0.01940763,-0.15231723,-0.07969643,0.10686127,0.00564874,0.
 00914076,-0.01143182,0.00526634,0.00485851,0.00148516,0.00032982,-0.00
 100950,0.00064551,0.00000073,-0.00001312,-0.00000169,0.00000847,-0.000
 00047,-0.00000342,0.00010776,-0.00006828,-0.00020596,-0.00114425,-0.00
 074234,-0.00074956,0.00008366,0.00002840,-0.00126216,0.15810931,-0.000
 07869,0.00001047,0.00000015,0.00007614,-0.00002343,-0.00002358,0.00000
 561,0.00002898,0.00001239,-0.00004990,-0.00007956,0.00000764,0.0005117
 3,0.00004854,-0.00036762,-0.00043095,-0.00107579,0.00032452,0.00435870
 ,0.00031353,-0.00035235,0.00782050,0.01037089,-0.00484822,-0.07235258,
 -0.11083368,0.07565589,-0.01642698,-0.02929747,0.02431417,0.00221059,0
 .00086990,0.00414755,0.00038241,-0.00135090,0.00094469,-0.00000777,-0.
 00001154,-0.00000096,0.00000771,0.00001135,-0.00002311,0.00004935,0.00
 007433,-0.00004480,0.00069960,0.00033340,-0.00013033,-0.00074925,0.000
 39449,-0.00050741,0.07397378,0.13021650,0.00009321,-0.00002580,-0.0000
 3232,0.00006094,0.00029909,0.00013787,0.00003812,-0.00004696,-0.000057
 12,0.00049845,-0.00052387,-0.00001389,0.00103975,0.00214999,-0.0012654
 2,-0.00091864,-0.00184440,0.00053942,0.00464960,0.00021096,0.00136803,
 0.00332944,0.00892147,0.00349519,0.11268448,0.06985862,-0.15103181,-0.
 01122825,0.01975902,-0.00884047,0.00643724,0.00213548,0.00819023,0.000
 24262,-0.00189308,0.00081502,-0.00000521,0.00001566,-0.00000233,-0.000
 00377,0.00003888,-0.00002130,0.00015180,-0.00001361,-0.00028462,0.0003
 3679,0.00037594,-0.00087940,-0.00057474,-0.00030875,-0.00069038,-0.116
 83184,-0.09910864,0.14857332\\0.00001773,0.00000355,-0.00000353,-0.000
 03313,-0.00001939,0.00001263,-0.00001828,0.00003105,-0.00002738,0.0000
 4322,0.00000486,0.00000784,-0.00002130,0.00000260,-0.00000214,0.000009
 77,-0.00000763,0.00000012,-0.00000318,0.00000255,0.00000643,0.00000198
 ,0.00000612,-0.00000415,0.00000012,0.00000027,0.00000068,-0.00000486,-
 0.00001237,0.00000599,-0.00000072,0.00001000,-0.00000841,0.00000363,-0
 .00000187,0.00000043,0.00000747,-0.00001147,0.00000885,-0.00000031,-0.
 00000571,0.00000304,-0.00000494,-0.00000290,-0.00000220,0.00000088,0.0
 0000074,0.00000087,0.00000151,-0.00000035,0.00000045,0.00000041,-0.000
 00005,0.00000049\\\@


 WE TEND TO MEET ANY NEW SITUATION BY REORGANIZING. IT CAN BE A
 WONDERFUL METHOD FOR CREATING THE ILLUSION OF PROGRESS WHILE PRODUCING
 CONFUSION, INEFFICIENCY, AND DEMORALIZATION.
     -- PETRONIUS ARBITER, 210 B.C.
 Job cpu time:       0 days  6 hours 30 minutes 33.0 seconds.
 Elapsed time:       0 days  1 hours 37 minutes 39.2 seconds.
 File lengths (MBytes):  RWF=    428 Int=      0 D2E=      0 Chk=     16 Scr=      1
 Normal termination of Gaussian 16 at Sat May 20 04:20:41 2023.
### All Done ###
