### Starting Gaussian ###
 Entering Gaussian System, Link 0=g16
 Initial command:
 /cluster/software/gaussian/gaussian-16-A.03/avx2/g16/l1.exe "/local/scratch/linjian/Gau-22994.inp" -scrdir="/local/scratch/linjian/"
 Entering Link 1 = /cluster/software/gaussian/gaussian-16-A.03/avx2/g16/l1.exe PID=     23015.
  
 Copyright (c) 1988,1990,1992,1993,1995,1998,2003,2009,2016,
            Gaussian, Inc.  All Rights Reserved.
  
 This is part of the Gaussian(R) 16 program.  It is based on
 the Gaussian(R) 09 system (copyright 2009, Gaussian, Inc.),
 the Gaussian(R) 03 system (copyright 2003, Gaussian, Inc.),
 the Gaussian(R) 98 system (copyright 1998, Gaussian, Inc.),
 the Gaussian(R) 94 system (copyright 1995, Gaussian, Inc.),
 the Gaussian 92(TM) system (copyright 1992, Gaussian, Inc.),
 the Gaussian 90(TM) system (copyright 1990, Gaussian, Inc.),
 the Gaussian 88(TM) system (copyright 1988, Gaussian, Inc.),
 the Gaussian 86(TM) system (copyright 1986, Carnegie Mellon
 University), and the Gaussian 82(TM) system (copyright 1983,
 Carnegie Mellon University). Gaussian is a federally registered
 trademark of Gaussian, Inc.
  
 This software contains proprietary and confidential information,
 including trade secrets, belonging to Gaussian, Inc.
  
 This software is provided under written license and may be
 used, copied, transmitted, or stored only in accord with that
 written license.
  
 The following legend is applicable only to US Government
 contracts under FAR:
  
                    RESTRICTED RIGHTS LEGEND
  
 Use, reproduction and disclosure by the US Government is
 subject to restrictions as set forth in subparagraphs (a)
 and (c) of the Commercial Computer Software - Restricted
 Rights clause in FAR 52.227-19.
  
 Gaussian, Inc.
 340 Quinnipiac St., Bldg. 40, Wallingford CT 06492
  
  
 ---------------------------------------------------------------
 Warning -- This program may not be used in any manner that
 competes with the business of Gaussian, Inc. or will provide
 assistance to any competitor of Gaussian, Inc.  The licensee
 of this program is prohibited from giving any competitor of
 Gaussian, Inc. access to this program.  By using this program,
 the user acknowledges that Gaussian, Inc. is engaged in the
 business of creating and licensing software in the field of
 computational chemistry and represents and warrants to the
 licensee that it is not a competitor of Gaussian, Inc. and that
 it will not use this program in any manner prohibited above.
 ---------------------------------------------------------------
  

 Cite this work as:
 Gaussian 16, Revision A.03,
 M. J. Frisch, G. W. Trucks, H. B. Schlegel, G. E. Scuseria, 
 M. A. Robb, J. R. Cheeseman, G. Scalmani, V. Barone, 
 G. A. Petersson, H. Nakatsuji, X. Li, M. Caricato, A. V. Marenich, 
 J. Bloino, B. G. Janesko, R. Gomperts, B. Mennucci, H. P. Hratchian, 
 J. V. Ortiz, A. F. Izmaylov, J. L. Sonnenberg, D. Williams-Young, 
 F. Ding, F. Lipparini, F. Egidi, J. Goings, B. Peng, A. Petrone, 
 T. Henderson, D. Ranasinghe, V. G. Zakrzewski, J. Gao, N. Rega, 
 G. Zheng, W. Liang, M. Hada, M. Ehara, K. Toyota, R. Fukuda, 
 J. Hasegawa, M. Ishida, T. Nakajima, Y. Honda, O. Kitao, H. Nakai, 
 T. Vreven, K. Throssell, J. A. Montgomery, Jr., J. E. Peralta, 
 F. Ogliaro, M. J. Bearpark, J. J. Heyd, E. N. Brothers, K. N. Kudin, 
 V. N. Staroverov, T. A. Keith, R. Kobayashi, J. Normand, 
 K. Raghavachari, A. P. Rendell, J. C. Burant, S. S. Iyengar, 
 J. Tomasi, M. Cossi, J. M. Millam, M. Klene, C. Adamo, R. Cammi, 
 J. W. Ochterski, R. L. Martin, K. Morokuma, O. Farkas, 
 J. B. Foresman, and D. J. Fox, Gaussian, Inc., Wallingford CT, 2016.
 
 ******************************************
 Gaussian 16:  ES64L-G16RevA.03 25-Dec-2016
                17-May-2023 
 ******************************************
 %chk=[SH]tSC1dC2CdCCdC2CdCCdCS1.chk
 %NProcShared=20
 Will use up to   20 processors via shared memory.
 -----------------------------
 # opt freq b3lyp/6-31g(2df,p)
 -----------------------------
 1/18=20,19=15,26=3,38=1/1,3;
 2/9=110,12=2,17=6,18=5,40=1/2;
 3/5=1,6=6,7=104,11=2,25=1,30=1,71=1,74=-5/1,2,3;
 4//1;
 5/5=2,38=5/2;
 6/7=2,8=2,9=2,10=2,28=1/1;
 7//1,2,3,16;
 1/18=20,19=15,26=3/3(2);
 2/9=110/2;
 99//99;
 2/9=110/2;
 3/5=1,6=6,7=104,11=2,25=1,30=1,71=1,74=-5/1,2,3;
 4/5=5,16=3,69=1/1;
 5/5=2,38=5/2;
 7//1,2,3,16;
 1/18=20,19=15,26=3/3(-5);
 2/9=110/2;
 6/7=2,8=2,9=2,10=2,19=2,28=1/1;
 99/9=1/99;
 -------------------
 Title Card Required
 -------------------
 Symbolic Z-matrix:
 Charge =  0 Multiplicity = 1
 S                     0.61086  -0.2589    0.00376 
 S                     2.3988    0.45392  -0.76318 
 C                     3.73698  -0.7796   -0.3373 
 C                     4.78019  -0.83467  -1.26199 
 C                     5.13745  -1.59074  -2.52454 
 C                     6.50037  -1.62361  -2.56654 
 C                     7.04859  -0.8575   -1.4673 
 C                     6.01443  -0.19218  -0.85263 
 C                     6.02321   0.99869  -0.09896 
 C                     6.75723   1.2399    1.02083 
 C                     5.84069   1.36468   2.17227 
 C                     5.38881   0.12311   2.42439 
 S                     4.01186  -0.76361   1.64801 
 H                     0.4178    0.47592   1.12239 
 H                     4.56035  -2.00739  -3.34811 
 H                     7.16831  -2.01075  -3.34141 
 H                     8.06589  -0.66199  -1.25251 
 H                     5.01804   1.42353  -0.05018 
 H                     7.6629    0.64798   1.15066 
 H                     5.14931   2.19339   2.33279 
 H                     6.26295  -0.40933   2.82687 
 

 GradGradGradGradGradGradGradGradGradGradGradGradGradGradGradGradGradGrad
 Berny optimization.
 Initialization pass.
                           ----------------------------
                           !    Initial Parameters    !
                           ! (Angstroms and Degrees)  !
 --------------------------                            --------------------------
 ! Name  Definition              Value          Derivative Info.                !
 --------------------------------------------------------------------------------
 ! R1    R(1,2)                  2.072          estimate D2E/DX2                !
 ! R2    R(1,14)                 1.3522         estimate D2E/DX2                !
 ! R3    R(2,3)                  1.8691         estimate D2E/DX2                !
 ! R4    R(3,4)                  1.3951         estimate D2E/DX2                !
 ! R5    R(3,13)                 2.0043         estimate D2E/DX2                !
 ! R6    R(4,5)                  1.5144         estimate D2E/DX2                !
 ! R7    R(4,8)                  1.4504         estimate D2E/DX2                !
 ! R8    R(5,6)                  1.364          estimate D2E/DX2                !
 ! R9    R(5,15)                 1.0885         estimate D2E/DX2                !
 ! R10   R(6,7)                  1.4477         estimate D2E/DX2                !
 ! R11   R(6,16)                 1.0938         estimate D2E/DX2                !
 ! R12   R(7,8)                  1.3748         estimate D2E/DX2                !
 ! R13   R(7,17)                 1.0579         estimate D2E/DX2                !
 ! R14   R(8,9)                  1.4093         estimate D2E/DX2                !
 ! R15   R(9,10)                 1.3605         estimate D2E/DX2                !
 ! R16   R(9,18)                 1.0924         estimate D2E/DX2                !
 ! R17   R(10,11)                1.477          estimate D2E/DX2                !
 ! R18   R(10,19)                1.0897         estimate D2E/DX2                !
 ! R19   R(11,12)                1.3451         estimate D2E/DX2                !
 ! R20   R(11,20)                1.0911         estimate D2E/DX2                !
 ! R21   R(12,13)                1.8125         estimate D2E/DX2                !
 ! R22   R(12,21)                1.0998         estimate D2E/DX2                !
 ! A1    A(2,1,14)             104.0314         estimate D2E/DX2                !
 ! A2    A(1,2,3)              107.8434         estimate D2E/DX2                !
 ! A3    A(2,3,4)              114.2284         estimate D2E/DX2                !
 ! A4    A(2,3,13)             108.5789         estimate D2E/DX2                !
 ! A5    A(4,3,13)             123.6613         estimate D2E/DX2                !
 ! A6    A(3,4,5)              138.4779         estimate D2E/DX2                !
 ! A7    A(3,4,8)              115.5788         estimate D2E/DX2                !
 ! A8    A(5,4,8)              104.8157         estimate D2E/DX2                !
 ! A9    A(4,5,6)              105.8689         estimate D2E/DX2                !
 ! A10   A(4,5,15)             134.1711         estimate D2E/DX2                !
 ! A11   A(6,5,15)             119.8172         estimate D2E/DX2                !
 ! A12   A(5,6,7)              110.0148         estimate D2E/DX2                !
 ! A13   A(5,6,16)             129.8309         estimate D2E/DX2                !
 ! A14   A(7,6,16)             119.6008         estimate D2E/DX2                !
 ! A15   A(6,7,8)              108.1035         estimate D2E/DX2                !
 ! A16   A(6,7,17)             128.0312         estimate D2E/DX2                !
 ! A17   A(8,7,17)             122.8973         estimate D2E/DX2                !
 ! A18   A(4,8,7)              107.4313         estimate D2E/DX2                !
 ! A19   A(4,8,9)              122.0412         estimate D2E/DX2                !
 ! A20   A(7,8,9)              130.0416         estimate D2E/DX2                !
 ! A21   A(8,9,10)             126.3938         estimate D2E/DX2                !
 ! A22   A(8,9,18)             110.2904         estimate D2E/DX2                !
 ! A23   A(10,9,18)            113.0018         estimate D2E/DX2                !
 ! A24   A(9,10,11)            108.7746         estimate D2E/DX2                !
 ! A25   A(9,10,19)            116.7545         estimate D2E/DX2                !
 ! A26   A(11,10,19)           117.9538         estimate D2E/DX2                !
 ! A27   A(10,11,12)           106.0585         estimate D2E/DX2                !
 ! A28   A(10,11,20)           124.8946         estimate D2E/DX2                !
 ! A29   A(12,11,20)           117.4264         estimate D2E/DX2                !
 ! A30   A(11,12,13)           128.7937         estimate D2E/DX2                !
 ! A31   A(11,12,21)           104.3851         estimate D2E/DX2                !
 ! A32   A(13,12,21)           121.5829         estimate D2E/DX2                !
 ! A33   A(3,13,12)            122.1669         estimate D2E/DX2                !
 ! D1    D(14,1,2,3)           102.3839         estimate D2E/DX2                !
 ! D2    D(1,2,3,4)            149.9352         estimate D2E/DX2                !
 ! D3    D(1,2,3,13)           -67.6451         estimate D2E/DX2                !
 ! D4    D(2,3,4,5)            -90.1114         estimate D2E/DX2                !
 ! D5    D(2,3,4,8)            104.3614         estimate D2E/DX2                !
 ! D6    D(13,3,4,5)           133.8795         estimate D2E/DX2                !
 ! D7    D(13,3,4,8)           -31.6477         estimate D2E/DX2                !
 ! D8    D(2,3,13,12)         -100.7028         estimate D2E/DX2                !
 ! D9    D(4,3,13,12)           37.3698         estimate D2E/DX2                !
 ! D10   D(3,4,5,6)           -152.156          estimate D2E/DX2                !
 ! D11   D(3,4,5,15)            32.3793         estimate D2E/DX2                !
 ! D12   D(8,4,5,6)             14.3597         estimate D2E/DX2                !
 ! D13   D(8,4,5,15)          -161.105          estimate D2E/DX2                !
 ! D14   D(3,4,8,7)            150.4471         estimate D2E/DX2                !
 ! D15   D(3,4,8,9)            -36.8043         estimate D2E/DX2                !
 ! D16   D(5,4,8,7)            -19.6853         estimate D2E/DX2                !
 ! D17   D(5,4,8,9)            153.0633         estimate D2E/DX2                !
 ! D18   D(4,5,6,7)             -4.0806         estimate D2E/DX2                !
 ! D19   D(4,5,6,16)          -175.3423         estimate D2E/DX2                !
 ! D20   D(15,5,6,7)           172.1712         estimate D2E/DX2                !
 ! D21   D(15,5,6,16)            0.9096         estimate D2E/DX2                !
 ! D22   D(5,6,7,8)             -8.4228         estimate D2E/DX2                !
 ! D23   D(5,6,7,17)          -177.2829         estimate D2E/DX2                !
 ! D24   D(16,6,7,8)           163.866          estimate D2E/DX2                !
 ! D25   D(16,6,7,17)           -4.9941         estimate D2E/DX2                !
 ! D26   D(6,7,8,4)             17.6725         estimate D2E/DX2                !
 ! D27   D(6,7,8,9)           -154.2936         estimate D2E/DX2                !
 ! D28   D(17,7,8,4)          -172.7698         estimate D2E/DX2                !
 ! D29   D(17,7,8,9)            15.264          estimate D2E/DX2                !
 ! D30   D(4,8,9,10)           131.8427         estimate D2E/DX2                !
 ! D31   D(4,8,9,18)           -10.3499         estimate D2E/DX2                !
 ! D32   D(7,8,9,10)           -57.2076         estimate D2E/DX2                !
 ! D33   D(7,8,9,18)           160.5997         estimate D2E/DX2                !
 ! D34   D(8,9,10,11)         -112.6471         estimate D2E/DX2                !
 ! D35   D(8,9,10,19)           23.8913         estimate D2E/DX2                !
 ! D36   D(18,9,10,11)          28.6976         estimate D2E/DX2                !
 ! D37   D(18,9,10,19)         165.2361         estimate D2E/DX2                !
 ! D38   D(9,10,11,12)          72.0992         estimate D2E/DX2                !
 ! D39   D(9,10,11,20)         -69.6352         estimate D2E/DX2                !
 ! D40   D(19,10,11,12)        -63.8451         estimate D2E/DX2                !
 ! D41   D(19,10,11,20)        154.4205         estimate D2E/DX2                !
 ! D42   D(10,11,12,13)        -84.0885         estimate D2E/DX2                !
 ! D43   D(10,11,12,21)         70.0538         estimate D2E/DX2                !
 ! D44   D(20,11,12,13)         61.002          estimate D2E/DX2                !
 ! D45   D(20,11,12,21)       -144.8557         estimate D2E/DX2                !
 ! D46   D(11,12,13,3)          45.0925         estimate D2E/DX2                !
 ! D47   D(21,12,13,3)        -105.1772         estimate D2E/DX2                !
 --------------------------------------------------------------------------------
 Trust Radius=3.00D-01 FncErr=1.00D-07 GrdErr=1.00D-06 EigMax=2.50D+02 EigMin=1.00D-04
 Number of steps in this run=    112 maximum allowed number of steps=    126.
 GradGradGradGradGradGradGradGradGradGradGradGradGradGradGradGradGradGrad

                          Input orientation:                          
 ---------------------------------------------------------------------
 Center     Atomic      Atomic             Coordinates (Angstroms)
 Number     Number       Type             X           Y           Z
 ---------------------------------------------------------------------
      1         16           0        0.610860   -0.258900    0.003760
      2         16           0        2.398800    0.453920   -0.763180
      3          6           0        3.736980   -0.779600   -0.337300
      4          6           0        4.780190   -0.834670   -1.261990
      5          6           0        5.137450   -1.590740   -2.524540
      6          6           0        6.500370   -1.623610   -2.566540
      7          6           0        7.048590   -0.857500   -1.467300
      8          6           0        6.014430   -0.192180   -0.852630
      9          6           0        6.023210    0.998690   -0.098960
     10          6           0        6.757230    1.239900    1.020830
     11          6           0        5.840690    1.364680    2.172270
     12          6           0        5.388810    0.123110    2.424390
     13         16           0        4.011860   -0.763610    1.648010
     14          1           0        0.417800    0.475920    1.122390
     15          1           0        4.560350   -2.007390   -3.348110
     16          1           0        7.168310   -2.010750   -3.341410
     17          1           0        8.065890   -0.661990   -1.252510
     18          1           0        5.018040    1.423530   -0.050180
     19          1           0        7.662900    0.647980    1.150660
     20          1           0        5.149310    2.193390    2.332790
     21          1           0        6.262950   -0.409330    2.826870
 ---------------------------------------------------------------------
                    Distance matrix (angstroms):
                    1          2          3          4          5
     1  S    0.000000
     2  S    2.071965   0.000000
     3  C    3.187488   1.869136   0.000000
     4  C    4.395105   2.753233   1.395124   0.000000
     5  C    5.353141   3.844896   2.720897   1.514368   0.000000
     6  C    6.569262   4.938736   3.649409   2.298542   1.363963
     7  C    6.630740   4.882228   3.499961   2.277787   2.303878
     8  C    5.471419   3.673993   2.407780   1.450420   2.349542
     9  C    5.557483   3.724824   2.906195   2.501789   3.656933
    10  C    6.407706   4.774554   3.878764   3.663850   4.817246
    11  C    5.889785   4.614429   3.914265   4.213780   5.593664
    12  C    5.369747   4.382944   3.342209   3.857092   5.243317
    13  S    3.811180   3.146137   2.004313   3.010561   4.400144
    14  H    1.352245   2.734999   3.837184   5.141338   6.312391
    15  H    5.467241   4.172794   3.354159   2.403227   1.088535
    16  H    7.566987   5.955677   4.723815   3.377909   2.228918
    17  H    7.570876   5.796603   4.426161   3.290248   3.325116
    18  H    4.717702   2.882522   2.564631   2.573815   3.901607
    19  H    7.202019   5.604569   4.434508   4.040934   4.989675
    20  H    5.660003   4.491780   4.238246   4.714641   6.157389
    21  H    6.319707   5.344653   4.065661   4.370156   5.594646
                    6          7          8          9         10
     6  C    0.000000
     7  C    1.447687   0.000000
     8  C    2.285305   1.374757   0.000000
     9  C    3.632229   2.523727   1.409350   0.000000
    10  C    4.597270   3.267226   2.472338   1.360477   0.000000
    11  C    5.641044   4.432107   3.406467   2.307758   1.476966
    12  C    5.403330   4.343008   3.351070   2.745250   2.256053
    13  S    4.969378   4.351517   3.254231   3.194235   3.456076
    14  H    7.417135   7.242367   5.972381   5.760695   6.386106
    15  H    2.126456   3.324309   3.411269   4.661915   5.870163
    16  H    1.093821   2.203771   3.291301   4.569624   5.455717
    17  H    2.258814   1.057950   2.142222   2.874209   3.240039
    18  H    4.220715   3.366669   2.060883   1.092353   2.050747
    19  H    4.508788   3.081811   2.726993   2.091203   1.089708
    20  H    6.355965   5.230285   4.072625   2.846826   2.283810
    21  H    5.533508   4.388392   3.694271   3.255837   2.495206
                   11         12         13         14         15
    11  C    0.000000
    12  C    1.345086   0.000000
    13  S    2.854660   1.812465   0.000000
    14  H    5.594629   5.150788   3.837965   0.000000
    15  H    6.594295   6.208634   5.177745   6.581255   0.000000
    16  H    6.599755   6.400346   6.034306   8.466311   2.607971
    17  H    4.559389   4.615488   4.985830   8.088774   4.300052
    18  H    2.370549   2.819940   2.946155   4.840981   4.780903
    19  H    2.208573   2.658827   3.945889   7.247198   6.075832
    20  H    1.091116   2.086099   3.241383   5.177061   7.089856
    21  H    1.937503   1.099820   2.565664   6.152617   6.601744
                   16         17         18         19         20
    16  H    0.000000
    17  H    2.643541   0.000000
    18  H    5.220166   3.883862   0.000000
    19  H    5.243296   2.766523   3.006456   0.000000
    20  H    7.344910   5.432680   2.507681   3.178657   0.000000
    21  H    6.436762   4.467188   3.631335   2.426406   2.873754
                   21
    21  H    0.000000
 Stoichiometry    C10H8S3
 Framework group  C1[X(C10H8S3)]
 Deg. of freedom    57
 Full point group                 C1      NOp   1
 Largest Abelian subgroup         C1      NOp   1
 Largest concise Abelian subgroup C1      NOp   1
                         Standard orientation:                         
 ---------------------------------------------------------------------
 Center     Atomic      Atomic             Coordinates (Angstroms)
 Number     Number       Type             X           Y           Z
 ---------------------------------------------------------------------
      1         16           0       -3.678784   -0.401099    0.042367
      2         16           0       -1.840367   -0.624282   -0.886853
      3          6           0       -0.518312   -0.541741    0.431869
      4          6           0        0.624648   -1.288252    0.144233
      5          6           0        1.148751   -2.691203    0.368631
      6          6           0        2.507917   -2.581121    0.399352
      7          6           0        2.901135   -1.217295    0.114472
      8          6           0        1.781759   -0.523501   -0.279994
      9          6           0        1.664291    0.619977   -1.095424
     10          6           0        2.257455    1.826069   -0.884718
     11          6           0        1.212091    2.822103   -0.573980
     12          6           0        0.776814    2.530509    0.664875
     13         16           0       -0.471931    1.319537    1.174004
     14          1           0       -4.022744    0.881085   -0.215049
     15          1           0        0.683623   -3.673151    0.434540
     16          1           0        3.272470   -3.360048    0.471300
     17          1           0        3.880150   -0.825905    0.027283
     18          1           0        0.646277    0.706676   -1.481903
     19          1           0        3.162007    1.828392   -0.277063
     20          1           0        0.479228    3.201255   -1.287906
     21          1           0        1.617002    2.801929    1.320632
 ---------------------------------------------------------------------
 Rotational constants (GHZ):           0.7591696           0.4692054           0.3343156
 Standard basis: 6-31G(2df,p) (6D, 7F)
 There are   455 symmetry adapted cartesian basis functions of A   symmetry.
 There are   416 symmetry adapted basis functions of A   symmetry.
   416 basis functions,   700 primitive gaussians,   455 cartesian basis functions
    58 alpha electrons       58 beta electrons
       nuclear repulsion energy      1031.4798904259 Hartrees.
 NAtoms=   21 NActive=   21 NUniq=   21 SFac= 1.00D+00 NAtFMM=   60 NAOKFM=F Big=F
 Integral buffers will be    131072 words long.
 Raffenetti 2 integral format.
 Two-electron integral symmetry is turned on.
 One-electron integrals computed using PRISM.
 PrsmSu:  requested number of processors reduced to:  13 ShMem   1 Linda.
 NBasis=   416 RedAO= T EigKep=  3.06D-04  NBF=   416
 NBsUse=   416 1.00D-06 EigRej= -1.00D+00 NBFU=   416
 ExpMin= 1.17D-01 ExpMax= 2.19D+04 ExpMxC= 3.30D+03 IAcc=3 IRadAn=         5 AccDes= 0.00D+00
 Harris functional with IExCor=  402 and IRadAn=       5 diagonalized for initial guess.
 HarFok:  IExCor=  402 AccDes= 0.00D+00 IRadAn=         5 IDoV= 1 UseB2=F ITyADJ=14
 ICtDFT=  3500011 ScaDFX=  1.000000  1.000000  1.000000  1.000000
 FoFCou: FMM=F IPFlag=           0 FMFlag=      100000 FMFlg1=           0
         NFxFlg=           0 DoJE=T BraDBF=F KetDBF=T FulRan=T
         wScrn=  0.000000 ICntrl=       500 IOpCl=  0 I1Cent=   200000004 NGrid=           0
         NMat0=    1 NMatS0=      1 NMatT0=    0 NMatD0=    1 NMtDS0=    0 NMtDT0=    0
 Petite list used in FoFCou.
 Requested convergence on RMS density matrix=1.00D-08 within 128 cycles.
 Requested convergence on MAX density matrix=1.00D-06.
 Requested convergence on             energy=1.00D-06.
 No special actions if energy rises.
 Integral accuracy reduced to 1.0D-05 until final iterations.
 EnCoef did     3 forward-backward iterations
 Initial convergence to 1.0D-05 achieved.  Increase integral accuracy.
 SCF Done:  E(RB3LYP) =  -1580.12803202     A.U. after   25 cycles
            NFock= 25  Conv=0.78D-08     -V/T= 2.0042

 **********************************************************************

            Population analysis using the SCF density.

 **********************************************************************

 Orbital symmetries:
       Occupied  (A) (A) (A) (A) (A) (A) (A) (A) (A) (A) (A) (A)
                 (A) (A) (A) (A) (A) (A) (A) (A) (A) (A) (A) (A)
                 (A) (A) (A) (A) (A) (A) (A) (A) (A) (A) (A) (A)
                 (A) (A) (A) (A) (A) (A) (A) (A) (A) (A) (A) (A)
                 (A) (A) (A) (A) (A) (A) (A) (A) (A) (A)
       Virtual   (A) (A) (A) (A) (A) (A) (A) (A) (A) (A) (A) (A)
                 (A) (A) (A) (A) (A) (A) (A) (A) (A) (A) (A) (A)
                 (A) (A) (A) (A) (A) (A) (A) (A) (A) (A) (A) (A)
                 (A) (A) (A) (A) (A) (A) (A) (A) (A) (A) (A) (A)
                 (A) (A) (A) (A) (A) (A) (A) (A) (A) (A) (A) (A)
                 (A) (A) (A) (A) (A) (A) (A) (A) (A) (A) (A) (A)
                 (A) (A) (A) (A) (A) (A) (A) (A) (A) (A) (A) (A)
                 (A) (A) (A) (A) (A) (A) (A) (A) (A) (A) (A) (A)
                 (A) (A) (A) (A) (A) (A) (A) (A) (A) (A) (A) (A)
                 (A) (A) (A) (A) (A) (A) (A) (A) (A) (A) (A) (A)
                 (A) (A) (A) (A) (A) (A) (A) (A) (A) (A) (A) (A)
                 (A) (A) (A) (A) (A) (A) (A) (A) (A) (A) (A) (A)
                 (A) (A) (A) (A) (A) (A) (A) (A) (A) (A) (A) (A)
                 (A) (A) (A) (A) (A) (A) (A) (A) (A) (A) (A) (A)
                 (A) (A) (A) (A) (A) (A) (A) (A) (A) (A) (A) (A)
                 (A) (A) (A) (A) (A) (A) (A) (A) (A) (A) (A) (A)
                 (A) (A) (A) (A) (A) (A) (A) (A) (A) (A) (A) (A)
                 (A) (A) (A) (A) (A) (A) (A) (A) (A) (A) (A) (A)
                 (A) (A) (A) (A) (A) (A) (A) (A) (A) (A) (A) (A)
                 (A) (A) (A) (A) (A) (A) (A) (A) (A) (A) (A) (A)
                 (A) (A) (A) (A) (A) (A) (A) (A) (A) (A) (A) (A)
                 (A) (A) (A) (A) (A) (A) (A) (A) (A) (A) (A) (A)
                 (A) (A) (A) (A) (A) (A) (A) (A) (A) (A) (A) (A)
                 (A) (A) (A) (A) (A) (A) (A) (A) (A) (A) (A) (A)
                 (A) (A) (A) (A) (A) (A) (A) (A) (A) (A) (A) (A)
                 (A) (A) (A) (A) (A) (A) (A) (A) (A) (A) (A) (A)
                 (A) (A) (A) (A) (A) (A) (A) (A) (A) (A) (A) (A)
                 (A) (A) (A) (A) (A) (A) (A) (A) (A) (A) (A) (A)
                 (A) (A) (A) (A) (A) (A) (A) (A) (A) (A) (A) (A)
                 (A) (A) (A) (A) (A) (A) (A) (A) (A) (A)
 The electronic state is 1-A.
 Alpha  occ. eigenvalues --  -88.92793 -88.89804 -88.89356 -10.26996 -10.24259
 Alpha  occ. eigenvalues --  -10.23783 -10.23250 -10.21595 -10.21054 -10.20673
 Alpha  occ. eigenvalues --  -10.20361 -10.19451 -10.17861  -7.98648  -7.96410
 Alpha  occ. eigenvalues --   -7.95340  -5.95166  -5.94836  -5.94144  -5.92864
 Alpha  occ. eigenvalues --   -5.92486  -5.91920  -5.91884  -5.91424  -5.90914
 Alpha  occ. eigenvalues --   -0.89498  -0.85856  -0.81846  -0.77974  -0.76852
 Alpha  occ. eigenvalues --   -0.71861  -0.68721  -0.67460  -0.62632  -0.59461
 Alpha  occ. eigenvalues --   -0.56996  -0.54056  -0.52287  -0.48410  -0.46797
 Alpha  occ. eigenvalues --   -0.45190  -0.43881  -0.42925  -0.41318  -0.41168
 Alpha  occ. eigenvalues --   -0.40061  -0.38440  -0.36965  -0.36269  -0.35104
 Alpha  occ. eigenvalues --   -0.33058  -0.29596  -0.28775  -0.26863  -0.24242
 Alpha  occ. eigenvalues --   -0.23171  -0.22046  -0.17723
 Alpha virt. eigenvalues --   -0.13401  -0.10174  -0.06052  -0.03510  -0.00121
 Alpha virt. eigenvalues --    0.02644   0.03887   0.06236   0.06987   0.09022
 Alpha virt. eigenvalues --    0.10113   0.12037   0.13936   0.14518   0.15159
 Alpha virt. eigenvalues --    0.15786   0.18305   0.18988   0.21579   0.22837
 Alpha virt. eigenvalues --    0.23786   0.24375   0.24875   0.26323   0.27378
 Alpha virt. eigenvalues --    0.28568   0.29034   0.30439   0.31757   0.32123
 Alpha virt. eigenvalues --    0.32584   0.33281   0.33419   0.34894   0.36258
 Alpha virt. eigenvalues --    0.36826   0.37482   0.38494   0.39485   0.39596
 Alpha virt. eigenvalues --    0.40453   0.41157   0.42952   0.44526   0.45588
 Alpha virt. eigenvalues --    0.46300   0.47512   0.48197   0.49297   0.49703
 Alpha virt. eigenvalues --    0.51693   0.52226   0.52999   0.53859   0.54905
 Alpha virt. eigenvalues --    0.55204   0.55856   0.56805   0.57309   0.58582
 Alpha virt. eigenvalues --    0.59055   0.60970   0.61439   0.62192   0.62819
 Alpha virt. eigenvalues --    0.64072   0.65260   0.66526   0.67641   0.68114
 Alpha virt. eigenvalues --    0.68439   0.70886   0.71204   0.72188   0.73914
 Alpha virt. eigenvalues --    0.74554   0.74985   0.75259   0.77060   0.77282
 Alpha virt. eigenvalues --    0.78623   0.79273   0.80294   0.82310   0.82417
 Alpha virt. eigenvalues --    0.83232   0.84104   0.86452   0.87342   0.88250
 Alpha virt. eigenvalues --    0.89374   0.90726   0.90775   0.93705   0.93930
 Alpha virt. eigenvalues --    0.94725   0.96455   0.97606   0.99999   1.01512
 Alpha virt. eigenvalues --    1.04796   1.05452   1.08240   1.09525   1.11703
 Alpha virt. eigenvalues --    1.12909   1.14648   1.17251   1.20226   1.23717
 Alpha virt. eigenvalues --    1.24806   1.26265   1.27526   1.29617   1.30574
 Alpha virt. eigenvalues --    1.32716   1.34279   1.34458   1.36814   1.37128
 Alpha virt. eigenvalues --    1.38822   1.39890   1.43025   1.43437   1.44568
 Alpha virt. eigenvalues --    1.45338   1.45888   1.46625   1.48067   1.48486
 Alpha virt. eigenvalues --    1.50463   1.51250   1.52509   1.53977   1.54457
 Alpha virt. eigenvalues --    1.56679   1.57191   1.58025   1.58662   1.60453
 Alpha virt. eigenvalues --    1.61788   1.62420   1.64904   1.66138   1.67897
 Alpha virt. eigenvalues --    1.69304   1.70484   1.70808   1.72535   1.74086
 Alpha virt. eigenvalues --    1.74506   1.75719   1.76406   1.77737   1.79131
 Alpha virt. eigenvalues --    1.80695   1.81790   1.83441   1.85385   1.86597
 Alpha virt. eigenvalues --    1.87767   1.91814   1.92184   1.93807   1.95812
 Alpha virt. eigenvalues --    1.96943   1.98861   2.00919   2.02586   2.03584
 Alpha virt. eigenvalues --    2.04011   2.09316   2.10112   2.12051   2.13721
 Alpha virt. eigenvalues --    2.14696   2.17595   2.19032   2.21468   2.23142
 Alpha virt. eigenvalues --    2.25891   2.27244   2.29136   2.30270   2.31977
 Alpha virt. eigenvalues --    2.32962   2.34339   2.35818   2.37254   2.39070
 Alpha virt. eigenvalues --    2.41212   2.41435   2.43753   2.44891   2.46906
 Alpha virt. eigenvalues --    2.48994   2.49743   2.53304   2.55297   2.57219
 Alpha virt. eigenvalues --    2.57958   2.59954   2.61160   2.63898   2.66625
 Alpha virt. eigenvalues --    2.68980   2.70706   2.71348   2.74563   2.78128
 Alpha virt. eigenvalues --    2.79028   2.81646   2.84400   2.85547   2.86358
 Alpha virt. eigenvalues --    2.87570   2.89010   2.89607   2.92554   2.94048
 Alpha virt. eigenvalues --    2.95329   2.97639   2.98748   3.00800   3.00884
 Alpha virt. eigenvalues --    3.02934   3.04166   3.05628   3.06912   3.09681
 Alpha virt. eigenvalues --    3.11520   3.11727   3.13317   3.14670   3.17225
 Alpha virt. eigenvalues --    3.19112   3.19811   3.20508   3.21370   3.23977
 Alpha virt. eigenvalues --    3.24828   3.26296   3.27151   3.28085   3.29353
 Alpha virt. eigenvalues --    3.31937   3.33176   3.34965   3.37195   3.38592
 Alpha virt. eigenvalues --    3.39540   3.43049   3.44184   3.45727   3.46563
 Alpha virt. eigenvalues --    3.49764   3.50915   3.53069   3.54494   3.58039
 Alpha virt. eigenvalues --    3.60009   3.62565   3.63031   3.66148   3.68325
 Alpha virt. eigenvalues --    3.72517   3.73993   3.75655   3.77777   3.80980
 Alpha virt. eigenvalues --    3.81221   3.84003   3.86688   3.88586   3.92996
 Alpha virt. eigenvalues --    3.94001   3.96923   3.97660   4.02120   4.05887
 Alpha virt. eigenvalues --    4.07030   4.10504   4.14177   4.16659   4.18043
 Alpha virt. eigenvalues --    4.21683   4.27472   4.29521   4.31107   4.32363
 Alpha virt. eigenvalues --    4.36325   4.38514   4.41436   4.42104   4.42399
 Alpha virt. eigenvalues --    4.44149   4.46747   4.50231   4.51353   4.52877
 Alpha virt. eigenvalues --    4.53294   4.54496   4.55975   4.57461   4.59994
 Alpha virt. eigenvalues --    4.61082   4.62066   4.63759   4.65814   4.67586
 Alpha virt. eigenvalues --    4.70416   4.71847   4.73742   4.76238   4.78473
 Alpha virt. eigenvalues --    4.79601   4.81703   4.84649   4.85699   4.86789
 Alpha virt. eigenvalues --    4.89734   4.94106   4.97142   5.00093   5.02534
 Alpha virt. eigenvalues --    5.05349   5.07910   5.09066   5.12391   5.12713
 Alpha virt. eigenvalues --    5.20587   5.22187   5.26530   5.31565   5.32725
 Alpha virt. eigenvalues --    5.36365   5.36687   5.44246   5.45014   5.49875
 Alpha virt. eigenvalues --    5.56211   5.67281   5.71481   5.74638   5.77090
 Alpha virt. eigenvalues --    5.90589   6.16355   6.25189   9.90826  10.49737
 Alpha virt. eigenvalues --   10.77966  10.89314  11.35302  11.49501  11.70103
 Alpha virt. eigenvalues --   11.97005  12.00524  12.25772
          Condensed to atoms (all electrons):
               1          2          3          4          5          6
     1  S   15.780248   0.164616  -0.035717   0.001371  -0.000058   0.000003
     2  S    0.164616  15.669689   0.261413  -0.009370   0.002608  -0.000113
     3  C   -0.035717   0.261413   5.399470   0.460745  -0.057372   0.002414
     4  C    0.001371  -0.009370   0.460745   4.687364   0.417153  -0.032701
     5  C   -0.000058   0.002608  -0.057372   0.417153   5.068552   0.571388
     6  C    0.000003  -0.000113   0.002414  -0.032701   0.571388   4.781764
     7  C    0.000004  -0.000001   0.008434  -0.008175  -0.048841   0.434865
     8  C   -0.000049  -0.003211  -0.072717   0.384823  -0.034706   0.007578
     9  C    0.000003  -0.002545   0.003293  -0.058519   0.009055   0.002203
    10  C   -0.000001   0.000273   0.002581   0.003515  -0.000194   0.000009
    11  C   -0.000032   0.001050  -0.006663   0.000363  -0.000041  -0.000021
    12  C   -0.000138   0.000862  -0.008522  -0.000357  -0.000048   0.000017
    13  S    0.005323  -0.078525   0.221150  -0.028949   0.001963   0.000217
    14  H    0.264735  -0.016737   0.000024  -0.000006   0.000000   0.000000
    15  H   -0.000018   0.000406  -0.001085  -0.036156   0.373883  -0.044257
    16  H   -0.000000   0.000004  -0.000104   0.004865  -0.044010   0.373117
    17  H   -0.000000  -0.000002  -0.000171   0.009046   0.005768  -0.051711
    18  H    0.000069   0.006204   0.005379  -0.015723  -0.000289  -0.000060
    19  H    0.000000  -0.000007  -0.000188  -0.000146  -0.000012  -0.000073
    20  H   -0.000001   0.000121  -0.000302  -0.000039  -0.000001   0.000000
    21  H    0.000002  -0.000094  -0.000020  -0.000241  -0.000007   0.000005
               7          8          9         10         11         12
     1  S    0.000004  -0.000049   0.000003  -0.000001  -0.000032  -0.000138
     2  S   -0.000001  -0.003211  -0.002545   0.000273   0.001050   0.000862
     3  C    0.008434  -0.072717   0.003293   0.002581  -0.006663  -0.008522
     4  C   -0.008175   0.384823  -0.058519   0.003515   0.000363  -0.000357
     5  C   -0.048841  -0.034706   0.009055  -0.000194  -0.000041  -0.000048
     6  C    0.434865   0.007578   0.002203   0.000009  -0.000021   0.000017
     7  C    5.079709   0.529983  -0.068669  -0.011451   0.000194   0.000930
     8  C    0.529983   4.575665   0.410321  -0.031286   0.009162   0.010361
     9  C   -0.068669   0.410321   5.086981   0.598041  -0.081322  -0.065408
    10  C   -0.011451  -0.031286   0.598041   4.963502   0.417084  -0.061533
    11  C    0.000194   0.009162  -0.081322   0.417084   5.047095   0.596745
    12  C    0.000930   0.010361  -0.065408  -0.061533   0.596745   4.953409
    13  S    0.001142  -0.014764   0.019019  -0.001445  -0.048010   0.302040
    14  H   -0.000000   0.000000   0.000004   0.000000  -0.000003   0.000003
    15  H    0.003683   0.005809  -0.000004   0.000001   0.000000   0.000000
    16  H   -0.043454   0.003061  -0.000189  -0.000003  -0.000000  -0.000000
    17  H    0.363716  -0.040168  -0.007581   0.001972   0.000089  -0.000001
    18  H    0.007265  -0.041004   0.357374  -0.050267  -0.013720  -0.005508
    19  H    0.003214  -0.010088  -0.047435   0.351086  -0.041042   0.001210
    20  H    0.000002   0.000571  -0.009881  -0.038240   0.359338  -0.059297
    21  H    0.000133   0.000986  -0.004845  -0.007022  -0.077419   0.360893
              13         14         15         16         17         18
     1  S    0.005323   0.264735  -0.000018  -0.000000  -0.000000   0.000069
     2  S   -0.078525  -0.016737   0.000406   0.000004  -0.000002   0.006204
     3  C    0.221150   0.000024  -0.001085  -0.000104  -0.000171   0.005379
     4  C   -0.028949  -0.000006  -0.036156   0.004865   0.009046  -0.015723
     5  C    0.001963   0.000000   0.373883  -0.044010   0.005768  -0.000289
     6  C    0.000217   0.000000  -0.044257   0.373117  -0.051711  -0.000060
     7  C    0.001142  -0.000000   0.003683  -0.043454   0.363716   0.007265
     8  C   -0.014764   0.000000   0.005809   0.003061  -0.040168  -0.041004
     9  C    0.019019   0.000004  -0.000004  -0.000189  -0.007581   0.357374
    10  C   -0.001445   0.000000   0.000001  -0.000003   0.001972  -0.050267
    11  C   -0.048010  -0.000003   0.000000  -0.000000   0.000089  -0.013720
    12  C    0.302040   0.000003   0.000000  -0.000000  -0.000001  -0.005508
    13  S   15.819912   0.000830  -0.000056   0.000009  -0.000090   0.000824
    14  H    0.000830   0.576710   0.000000   0.000000   0.000000  -0.000012
    15  H   -0.000056   0.000000   0.581402  -0.002790  -0.000146  -0.000013
    16  H    0.000009   0.000000  -0.002790   0.592433  -0.002282   0.000008
    17  H   -0.000090   0.000000  -0.000146  -0.002282   0.625213  -0.000154
    18  H    0.000824  -0.000012  -0.000013   0.000008  -0.000154   0.617624
    19  H   -0.001048   0.000000  -0.000000   0.000001   0.001512   0.007602
    20  H   -0.002238  -0.000001   0.000000  -0.000000   0.000001   0.004344
    21  H   -0.056530   0.000000  -0.000000  -0.000000  -0.000005   0.000384
              19         20         21
     1  S    0.000000  -0.000001   0.000002
     2  S   -0.000007   0.000121  -0.000094
     3  C   -0.000188  -0.000302  -0.000020
     4  C   -0.000146  -0.000039  -0.000241
     5  C   -0.000012  -0.000001  -0.000007
     6  C   -0.000073   0.000000   0.000005
     7  C    0.003214   0.000002   0.000133
     8  C   -0.010088   0.000571   0.000986
     9  C   -0.047435  -0.009881  -0.004845
    10  C    0.351086  -0.038240  -0.007022
    11  C   -0.041042   0.359338  -0.077419
    12  C    0.001210  -0.059297   0.360893
    13  S   -0.001048  -0.002238  -0.056530
    14  H    0.000000  -0.000001   0.000000
    15  H   -0.000000   0.000000  -0.000000
    16  H    0.000001  -0.000000  -0.000000
    17  H    0.001512   0.000001  -0.000005
    18  H    0.007602   0.004344   0.000384
    19  H    0.604279   0.004391   0.007022
    20  H    0.004391   0.610276   0.010175
    21  H    0.007022   0.010175   0.638728
 Mulliken charges:
               1
     1  S   -0.180359
     2  S    0.003357
     3  C   -0.182043
     4  C    0.221140
     5  C   -0.264791
     6  C   -0.044644
     7  C   -0.252684
     8  C    0.309672
     9  C   -0.139897
    10  C   -0.136621
    11  C   -0.162848
    12  C   -0.025660
    13  S   -0.140776
    14  H    0.174453
    15  H    0.119341
    16  H    0.119334
    17  H    0.094992
    18  H    0.119674
    19  H    0.119723
    20  H    0.120781
    21  H    0.127856
 Sum of Mulliken charges =  -0.00000
 Mulliken charges with hydrogens summed into heavy atoms:
               1
     1  S   -0.005906
     2  S    0.003357
     3  C   -0.182043
     4  C    0.221140
     5  C   -0.145450
     6  C    0.074690
     7  C   -0.157692
     8  C    0.309672
     9  C   -0.020223
    10  C   -0.016899
    11  C   -0.042067
    12  C    0.102196
    13  S   -0.140776
 Electronic spatial extent (au):  <R**2>=           3311.5185
 Charge=             -0.0000 electrons
 Dipole moment (field-independent basis, Debye):
    X=              2.0268    Y=              0.7621    Z=             -1.0212  Tot=              2.3940
 Quadrupole moment (field-independent basis, Debye-Ang):
   XX=            -89.6255   YY=            -90.8956   ZZ=           -101.0713
   XY=             -4.1467   XZ=              1.9356   YZ=             -1.9046
 Traceless Quadrupole moment (field-independent basis, Debye-Ang):
   XX=              4.2386   YY=              2.9686   ZZ=             -7.2072
   XY=             -4.1467   XZ=              1.9356   YZ=             -1.9046
 Octapole moment (field-independent basis, Debye-Ang**2):
  XXX=              2.6782  YYY=            -14.9484  ZZZ=             -6.0505  XYY=              9.2206
  XXY=             13.4088  XXZ=              5.2428  XZZ=             -5.9833  YZZ=              3.9350
  YYZ=              3.9255  XYZ=              4.8764
 Hexadecapole moment (field-independent basis, Debye-Ang**3):
 XXXX=          -2426.9989 YYYY=          -1527.7841 ZZZZ=           -428.1463 XXXY=           -108.4736
 XXXZ=              9.4347 YYYX=            -45.8604 YYYZ=             -9.1265 ZZZX=             11.4147
 ZZZY=              6.1324 XXYY=           -652.8890 XXZZ=           -525.5401 YYZZ=           -341.4847
 XXYZ=             -5.7618 YYXZ=             18.3585 ZZXY=              4.6065
 N-N= 1.031479890426D+03 E-N=-5.794854915871D+03  KE= 1.573505851506D+03
 PrsmSu:  requested number of processors reduced to:  13 ShMem   1 Linda.
 Calling FoFJK, ICntrl=      2127 FMM=F ISym2X=0 I1Cent= 0 IOpClX= 0 NMat=1 NMatS=1 NMatT=0.
 ***** Axes restored to original set *****
 -------------------------------------------------------------------
 Center     Atomic                   Forces (Hartrees/Bohr)
 Number     Number              X              Y              Z
 -------------------------------------------------------------------
      1       16          -0.008572493   -0.002707214   -0.004075656
      2       16           0.013596580   -0.034185444    0.001530190
      3        6          -0.015899299    0.052076483    0.001625799
      4        6          -0.025196630   -0.011266033   -0.022412735
      5        6          -0.011153376    0.003259541    0.003754757
      6        6           0.011658968    0.007602738    0.008651790
      7        6          -0.008715869    0.008235221    0.003086930
      8        6           0.066146103   -0.005539650   -0.016625830
      9        6          -0.032031156   -0.001838710    0.010032176
     10        6           0.019638276   -0.018141276    0.014058523
     11        6          -0.031956839    0.060655127    0.001410626
     12        6           0.024418155   -0.035501910    0.015269551
     13       16           0.000567760   -0.001769492    0.005671981
     14        1           0.007934312    0.001299134    0.000753818
     15        1          -0.010597184   -0.000255465    0.015792431
     16        1          -0.011218412   -0.004192949    0.002863838
     17        1           0.018883799    0.003357869   -0.004555271
     18        1           0.002417491    0.003770790   -0.001644381
     19        1           0.002859737    0.001895682    0.002040521
     20        1          -0.002061434    0.004950506   -0.022553261
     21        1          -0.010718488   -0.031704949   -0.014675797
 -------------------------------------------------------------------
 Cartesian Forces:  Max     0.066146103 RMS     0.018976662

 GradGradGradGradGradGradGradGradGradGradGradGradGradGradGradGradGradGrad
 Berny optimization.
 FormGI is forming the generalized inverse of G from B-inverse, IUseBI=4.
 Internal  Forces:  Max     0.050446008 RMS     0.013107698
 Search for a local minimum.
 Step number   1 out of a maximum of  112
 All quantities printed in internal units (Hartrees-Bohrs-Radians)
 Mixed Optimization -- RFO/linear search
 Second derivative matrix not updated -- first step.
 ITU=  0
     Eigenvalues ---    0.00230   0.00346   0.00637   0.01145   0.01473
     Eigenvalues ---    0.01824   0.01849   0.01919   0.02054   0.02131
     Eigenvalues ---    0.02181   0.02288   0.02541   0.02713   0.03174
     Eigenvalues ---    0.03989   0.04602   0.07626   0.10463   0.12414
     Eigenvalues ---    0.14215   0.14563   0.15165   0.15396   0.15566
     Eigenvalues ---    0.15788   0.15935   0.16000   0.17315   0.20658
     Eigenvalues ---    0.21348   0.21782   0.22707   0.23038   0.23562
     Eigenvalues ---    0.24389   0.25000   0.25082   0.25466   0.27500
     Eigenvalues ---    0.29690   0.33702   0.34305   0.34375   0.34542
     Eigenvalues ---    0.34684   0.34720   0.34846   0.34982   0.37694
     Eigenvalues ---    0.38796   0.42854   0.45759   0.46369   0.50827
     Eigenvalues ---    0.51682   0.54599
 RFO step:  Lambda=-7.55897384D-02 EMin= 2.30000000D-03
 Linear search not attempted -- first point.
 Maximum step size (   0.300) exceeded in Quadratic search.
    -- Step size scaled by   0.747
 Iteration  1 RMS(Cart)=  0.10318956 RMS(Int)=  0.00390651
 Iteration  2 RMS(Cart)=  0.00620989 RMS(Int)=  0.00101244
 Iteration  3 RMS(Cart)=  0.00000714 RMS(Int)=  0.00101242
 Iteration  4 RMS(Cart)=  0.00000001 RMS(Int)=  0.00101242
 Variable       Old X    -DE/DX   Delta X   Delta X   Delta X     New X
                                 (Linear)    (Quad)   (Total)
    R1        3.91545  -0.00019   0.00000  -0.00041  -0.00041   3.91503
    R2        2.55537   0.00020   0.00000   0.00044   0.00044   2.55582
    R3        3.53216  -0.03236   0.00000  -0.08366  -0.08366   3.44849
    R4        2.63640  -0.00198   0.00000   0.00030   0.00076   2.63716
    R5        3.78760  -0.00857   0.00000  -0.02913  -0.02910   3.75850
    R6        2.86174  -0.03450   0.00000  -0.06782  -0.06784   2.79390
    R7        2.74090   0.03082   0.00000   0.05619   0.05700   2.79790
    R8        2.57752   0.01083   0.00000   0.01276   0.01278   2.59029
    R9        2.05703  -0.00623   0.00000  -0.01095  -0.01095   2.04608
   R10        2.73573   0.00747   0.00000   0.01179   0.01179   2.74752
   R11        2.06702  -0.00740   0.00000  -0.01318  -0.01318   2.05384
   R12        2.59791  -0.00223   0.00000  -0.00279  -0.00287   2.59504
   R13        1.99924   0.01785   0.00000   0.02879   0.02879   2.02802
   R14        2.66329   0.00420   0.00000   0.00626   0.00671   2.66999
   R15        2.57093   0.00881   0.00000   0.01261   0.01293   2.58386
   R16        2.06425  -0.00083   0.00000  -0.00148  -0.00148   2.06277
   R17        2.79106   0.00680   0.00000   0.00870   0.00831   2.79937
   R18        2.05925   0.00159   0.00000   0.00280   0.00280   2.06205
   R19        2.54184   0.05045   0.00000   0.05782   0.05707   2.59891
   R20        2.06191   0.00175   0.00000   0.00309   0.00309   2.06500
   R21        3.42506  -0.01246   0.00000  -0.03337  -0.03407   3.39100
   R22        2.07836   0.00146   0.00000   0.00264   0.00264   2.08100
    A1        1.81569  -0.01860   0.00000  -0.05901  -0.05901   1.75668
    A2        1.88222   0.00329   0.00000   0.00756   0.00756   1.88978
    A3        1.99366   0.00257   0.00000   0.03121   0.02625   2.01991
    A4        1.89506   0.00948   0.00000   0.04797   0.04393   1.93899
    A5        2.15830   0.00167   0.00000   0.02110   0.01889   2.17719
    A6        2.41690  -0.02290   0.00000  -0.06190  -0.06269   2.35420
    A7        2.01723   0.01928   0.00000   0.04660   0.04779   2.06502
    A8        1.82938   0.00233   0.00000   0.00712   0.00593   1.83531
    A9        1.84776   0.00072   0.00000   0.00283   0.00278   1.85054
   A10        2.34173  -0.01632   0.00000  -0.05233  -0.05239   2.28933
   A11        2.09121   0.01565   0.00000   0.05047   0.05048   2.14168
   A12        1.92012   0.00981   0.00000   0.02690   0.02678   1.94690
   A13        2.26598  -0.01381   0.00000  -0.04169  -0.04186   2.22412
   A14        2.08743   0.00427   0.00000   0.01734   0.01743   2.10486
   A15        1.88676  -0.01347   0.00000  -0.02973  -0.03005   1.85671
   A16        2.23457   0.00158   0.00000  -0.00093  -0.00114   2.23342
   A17        2.14496   0.01259   0.00000   0.03631   0.03643   2.18139
   A18        1.87503   0.00393   0.00000   0.01762   0.01700   1.89203
   A19        2.13002  -0.03254   0.00000  -0.08038  -0.07989   2.05013
   A20        2.26965   0.02891   0.00000   0.06439   0.06445   2.33410
   A21        2.20599   0.00073   0.00000   0.01641   0.01711   2.22309
   A22        1.92493   0.00459   0.00000   0.00891   0.00829   1.93322
   A23        1.97225  -0.00427   0.00000  -0.01842  -0.01834   1.95391
   A24        1.89847  -0.00397   0.00000  -0.02678  -0.02694   1.87153
   A25        2.03775   0.00628   0.00000   0.04164   0.04164   2.07939
   A26        2.05868   0.00306   0.00000   0.02036   0.01961   2.07829
   A27        1.85107   0.00034   0.00000  -0.01251  -0.01535   1.83572
   A28        2.17982  -0.00698   0.00000  -0.02766  -0.02658   2.15324
   A29        2.04948   0.00950   0.00000   0.04759   0.04905   2.09852
   A30        2.24787  -0.01817   0.00000  -0.05086  -0.05093   2.19695
   A31        1.82186   0.03922   0.00000   0.12528   0.12489   1.94676
   A32        2.12202  -0.02165   0.00000  -0.07999  -0.07960   2.04242
   A33        2.13221  -0.00145   0.00000  -0.02562  -0.02581   2.10640
    D1        1.78694  -0.00865   0.00000  -0.08181  -0.08181   1.70513
    D2        2.61686  -0.00759   0.00000  -0.05531  -0.05691   2.55995
    D3       -1.18063   0.00910   0.00000   0.06980   0.07140  -1.10922
    D4       -1.57274   0.01365   0.00000   0.09282   0.09259  -1.48015
    D5        1.82145   0.01976   0.00000   0.13919   0.13827   1.95972
    D6        2.33664  -0.00928   0.00000  -0.06613  -0.06672   2.26991
    D7       -0.55236  -0.00317   0.00000  -0.01975  -0.02104  -0.57340
    D8       -1.75759  -0.01381   0.00000  -0.10858  -0.11075  -1.86834
    D9        0.65223   0.00570   0.00000   0.03742   0.03636   0.68859
   D10       -2.65562  -0.00337   0.00000  -0.00926  -0.01097  -2.66660
   D11        0.56513  -0.00508   0.00000  -0.02785  -0.02856   0.53656
   D12        0.25062  -0.00698   0.00000  -0.04744  -0.04698   0.20365
   D13       -2.81181  -0.00870   0.00000  -0.06604  -0.06457  -2.87638
   D14        2.62580  -0.00228   0.00000   0.01540   0.01510   2.64090
   D15       -0.64236   0.00268   0.00000   0.03383   0.03276  -0.60960
   D16       -0.34357   0.00645   0.00000   0.05914   0.06031  -0.28327
   D17        2.67146   0.01141   0.00000   0.07757   0.07796   2.74942
   D18       -0.07122   0.00066   0.00000   0.00986   0.00969  -0.06153
   D19       -3.06030  -0.00222   0.00000  -0.01297  -0.01236  -3.07266
   D20        3.00495   0.00045   0.00000   0.01999   0.02003   3.02499
   D21        0.01588  -0.00243   0.00000  -0.00283  -0.00202   0.01386
   D22       -0.14701   0.00358   0.00000   0.02899   0.02950  -0.11751
   D23       -3.09417  -0.00153   0.00000  -0.00678  -0.00618  -3.10035
   D24        2.86000   0.00423   0.00000   0.04305   0.04378   2.90378
   D25       -0.08716  -0.00088   0.00000   0.00729   0.00810  -0.07906
   D26        0.30844  -0.01031   0.00000  -0.06318  -0.06266   0.24579
   D27       -2.69293  -0.00951   0.00000  -0.06889  -0.06901  -2.76194
   D28       -3.01540  -0.00680   0.00000  -0.03417  -0.03311  -3.04851
   D29        0.26641  -0.00600   0.00000  -0.03987  -0.03946   0.22695
   D30        2.30109  -0.00747   0.00000  -0.05546  -0.05415   2.24694
   D31       -0.18064  -0.00781   0.00000  -0.05927  -0.05843  -0.23907
   D32       -0.99846  -0.00494   0.00000  -0.04013  -0.03940  -1.03787
   D33        2.80299  -0.00528   0.00000  -0.04393  -0.04369   2.75931
   D34       -1.96606  -0.00864   0.00000  -0.04742  -0.04667  -2.01274
   D35        0.41698  -0.00188   0.00000  -0.00300  -0.00254   0.41444
   D36        0.50087  -0.00548   0.00000  -0.03461  -0.03386   0.46701
   D37        2.88391   0.00127   0.00000   0.00981   0.01028   2.89419
   D38        1.25837   0.01116   0.00000   0.08208   0.08204   1.34041
   D39       -1.21536   0.00280   0.00000   0.05152   0.05184  -1.16352
   D40       -1.11431   0.00278   0.00000   0.02687   0.02701  -1.08730
   D41        2.69515  -0.00559   0.00000  -0.00369  -0.00319   2.69195
   D42       -1.46762  -0.01748   0.00000  -0.09210  -0.09095  -1.55857
   D43        1.22267  -0.02128   0.00000  -0.11610  -0.11682   1.10585
   D44        1.06469  -0.01691   0.00000  -0.09576  -0.09482   0.96987
   D45       -2.52821  -0.02072   0.00000  -0.11976  -0.12069  -2.64890
   D46        0.78701  -0.00131   0.00000  -0.00699  -0.00798   0.77903
   D47       -1.83569  -0.01018   0.00000  -0.02514  -0.02673  -1.86242
         Item               Value     Threshold  Converged?
 Maximum Force            0.050446     0.000450     NO 
 RMS     Force            0.013108     0.000300     NO 
 Maximum Displacement     0.283662     0.001800     NO 
 RMS     Displacement     0.103423     0.001200     NO 
 Predicted change in Energy=-4.495103D-02
 GradGradGradGradGradGradGradGradGradGradGradGradGradGradGradGradGradGrad

                          Input orientation:                          
 ---------------------------------------------------------------------
 Center     Atomic      Atomic             Coordinates (Angstroms)
 Number     Number       Type             X           Y           Z
 ---------------------------------------------------------------------
      1         16           0        0.628856   -0.392109   -0.051799
      2         16           0        2.376902    0.425680   -0.805248
      3          6           0        3.766598   -0.657539   -0.330370
      4          6           0        4.814893   -0.735756   -1.248224
      5          6           0        5.083798   -1.540723   -2.458835
      6          6           0        6.448030   -1.625451   -2.561675
      7          6           0        7.110862   -0.848497   -1.526833
      8          6           0        6.123565   -0.155147   -0.870868
      9          6           0        6.113346    1.013103   -0.076279
     10          6           0        6.796628    1.231093    1.087838
     11          6           0        5.790790    1.394786    2.162978
     12          6           0        5.353137    0.121542    2.443550
     13         16           0        3.983266   -0.719267    1.645741
     14          1           0        0.481757    0.332477    1.080693
     15          1           0        4.414045   -1.961901   -3.198003
     16          1           0        7.022885   -2.089169   -3.359011
     17          1           0        8.164381   -0.702416   -1.383723
     18          1           0        5.116331    1.456915   -0.053453
     19          1           0        7.699765    0.653049    1.290091
     20          1           0        5.098427    2.238609    2.214968
     21          1           0        6.166756   -0.508426    2.835782
 ---------------------------------------------------------------------
                    Distance matrix (angstroms):
                    1          2          3          4          5
     1  S    0.000000
     2  S    2.071746   0.000000
     3  C    3.161247   1.824864   0.000000
     4  C    4.367199   2.736596   1.395526   0.000000
     5  C    5.192268   3.732074   2.654316   1.478466   0.000000
     6  C    6.456269   4.885311   3.620173   2.276807   1.370724
     7  C    6.663364   4.955259   3.556977   2.315558   2.335978
     8  C    5.560472   3.791985   2.469783   1.480584   2.350016
     9  C    5.661701   3.851945   2.891856   2.473448   3.641232
    10  C    6.478810   4.875084   3.841787   3.640461   4.816186
    11  C    5.894387   4.626463   3.811322   4.138585   5.520707
    12  C    5.367442   4.416465   3.289180   3.828037   5.183537
    13  S    3.773691   3.146213   1.988912   3.011130   4.328222
    14  H    1.352480   2.675264   3.709638   5.033989   6.100486
    15  H    5.166285   3.946615   3.216187   2.337894   1.082741
    16  H    7.396031   5.867821   4.671791   3.341015   2.207072
    17  H    7.658619   5.924706   4.522395   3.352394   3.368771
    18  H    4.853486   3.022104   2.523763   2.515183   3.843534
    19  H    7.272605   5.724947   4.451218   4.085867   5.070539
    20  H    5.660033   4.451417   4.079239   4.573941   6.010658
    21  H    6.246598   5.337850   3.975866   4.307936   5.501945
                    6          7          8          9         10
     6  C    0.000000
     7  C    1.453927   0.000000
     8  C    2.264045   1.373237   0.000000
     9  C    3.640217   2.562167   1.412899   0.000000
    10  C    4.647614   3.355583   2.492229   1.367319   0.000000
    11  C    5.645896   4.515486   3.423048   2.294340   1.481361
    12  C    5.413231   4.449103   3.414014   2.778909   2.269962
    13  S    4.959696   4.456880   3.351482   3.240941   3.468453
    14  H    7.259253   7.220729   5.989689   5.789356   6.378493
    15  H    2.157593   3.362336   3.406226   4.635022   5.851525
    16  H    1.086846   2.214471   3.277204   4.607350   5.554259
    17  H    2.277153   1.073183   2.174271   2.976434   3.423129
    18  H    4.191131   3.385842   2.069162   1.091572   2.043756
    19  H    4.646989   3.245998   2.794161   2.124460   1.091191
    20  H    6.290367   5.251780   4.037742   2.789577   2.273631
    21  H    5.519004   4.476538   3.723698   3.286031   2.545186
                   11         12         13         14         15
    11  C    0.000000
    12  C    1.375286   0.000000
    13  S    2.829116   1.794437   0.000000
    14  H    5.521384   5.062827   3.699461   0.000000
    15  H    6.473244   6.086851   5.019119   6.247743   0.000000
    16  H    6.644423   6.430009   6.013605   8.268113   2.616901
    17  H    4.755131   4.819753   5.163299   8.134314   4.352348
    18  H    2.317611   2.841535   2.984437   4.902033   4.697840
    19  H    2.226273   2.668264   3.977701   7.228158   6.146292
    20  H    1.092752   2.144551   3.211952   5.121871   6.885704
    21  H    2.053346   1.101218   2.495652   6.008882   6.449119
                   16         17         18         19         20
    16  H    0.000000
    17  H    2.669805   0.000000
    18  H    5.209258   3.965215   0.000000
    19  H    5.439859   3.033551   3.020835   0.000000
    20  H    7.314536   5.567789   2.399396   3.183765   0.000000
    21  H    6.450361   4.672511   3.648785   2.467448   3.012132
                   21
    21  H    0.000000
 Stoichiometry    C10H8S3
 Framework group  C1[X(C10H8S3)]
 Deg. of freedom    57
 Full point group                 C1      NOp   1
 Largest Abelian subgroup         C1      NOp   1
 Largest concise Abelian subgroup C1      NOp   1
                         Standard orientation:                         
 ---------------------------------------------------------------------
 Center     Atomic      Atomic             Coordinates (Angstroms)
 Number     Number       Type             X           Y           Z
 ---------------------------------------------------------------------
      1         16           0       -3.673260   -0.345912    0.079122
      2         16           0       -1.869037   -0.596483   -0.907856
      3          6           0       -0.522898   -0.457370    0.316352
      4          6           0        0.598914   -1.251972    0.076271
      5          6           0        0.969550   -2.651560    0.375678
      6          6           0        2.337697   -2.671595    0.457266
      7          6           0        2.910307   -1.371854    0.146308
      8          6           0        1.870564   -0.582509   -0.279894
      9          6           0        1.792236    0.590166   -1.064103
     10          6           0        2.375014    1.800290   -0.808107
     11          6           0        1.282189    2.775592   -0.586860
     12          6           0        0.823996    2.520718    0.684560
     13         16           0       -0.472995    1.360360    1.122042
     14          1           0       -3.915861    0.960829   -0.171427
     15          1           0        0.364779   -3.544916    0.467855
     16          1           0        2.978069   -3.537225    0.605064
     17          1           0        3.947900   -1.102255    0.096923
     18          1           0        0.796311    0.700349   -1.497140
     19          1           0        3.258635    1.839952   -0.169094
     20          1           0        0.586918    3.087217   -1.370184
     21          1           0        1.602512    2.709170    1.440259
 ---------------------------------------------------------------------
 Rotational constants (GHZ):           0.7612459           0.4687542           0.3326884
 Standard basis: 6-31G(2df,p) (6D, 7F)
 There are   455 symmetry adapted cartesian basis functions of A   symmetry.
 There are   416 symmetry adapted basis functions of A   symmetry.
   416 basis functions,   700 primitive gaussians,   455 cartesian basis functions
    58 alpha electrons       58 beta electrons
       nuclear repulsion energy      1030.9346115911 Hartrees.
 NAtoms=   21 NActive=   21 NUniq=   21 SFac= 1.00D+00 NAtFMM=   60 NAOKFM=F Big=F
 Integral buffers will be    131072 words long.
 Raffenetti 2 integral format.
 Two-electron integral symmetry is turned on.
 One-electron integrals computed using PRISM.
 PrsmSu:  requested number of processors reduced to:  13 ShMem   1 Linda.
 NBasis=   416 RedAO= T EigKep=  2.99D-04  NBF=   416
 NBsUse=   416 1.00D-06 EigRej= -1.00D+00 NBFU=   416
 Initial guess from the checkpoint file:  "[SH]tSC1dC2CdCCdC2CdCCdCS1.chk"
 B after Tr=    -0.000000   -0.000000   -0.000000
         Rot=    0.999874    0.002390    0.004948    0.014886 Ang=   1.82 deg.
 ExpMin= 1.17D-01 ExpMax= 2.19D+04 ExpMxC= 3.30D+03 IAcc=2 IRadAn=         4 AccDes= 0.00D+00
 Harris functional with IExCor=  402 and IRadAn=       4 diagonalized for initial guess.
 HarFok:  IExCor=  402 AccDes= 0.00D+00 IRadAn=         4 IDoV= 1 UseB2=F ITyADJ=14
 ICtDFT=  3500011 ScaDFX=  1.000000  1.000000  1.000000  1.000000
 FoFCou: FMM=F IPFlag=           0 FMFlag=      100000 FMFlg1=           0
         NFxFlg=           0 DoJE=T BraDBF=F KetDBF=T FulRan=T
         wScrn=  0.000000 ICntrl=       500 IOpCl=  0 I1Cent=   200000004 NGrid=           0
         NMat0=    1 NMatS0=      1 NMatT0=    0 NMatD0=    1 NMtDS0=    0 NMtDT0=    0
 Petite list used in FoFCou.
 Requested convergence on RMS density matrix=1.00D-08 within 128 cycles.
 Requested convergence on MAX density matrix=1.00D-06.
 Requested convergence on             energy=1.00D-06.
 No special actions if energy rises.
 Integral accuracy reduced to 1.0D-05 until final iterations.
 Initial convergence to 1.0D-05 achieved.  Increase integral accuracy.
 SCF Done:  E(RB3LYP) =  -1580.17472952     A.U. after   18 cycles
            NFock= 18  Conv=0.54D-08     -V/T= 2.0043
 PrsmSu:  requested number of processors reduced to:  13 ShMem   1 Linda.
 Calling FoFJK, ICntrl=      2127 FMM=F ISym2X=0 I1Cent= 0 IOpClX= 0 NMat=1 NMatS=1 NMatT=0.
 ***** Axes restored to original set *****
 -------------------------------------------------------------------
 Center     Atomic                   Forces (Hartrees/Bohr)
 Number     Number              X              Y              Z
 -------------------------------------------------------------------
      1       16          -0.007989407   -0.000517713   -0.000378420
      2       16           0.014823337   -0.030384342    0.000332605
      3        6          -0.003724903    0.048629112    0.003588823
      4        6          -0.014469079   -0.010720890   -0.004788126
      5        6           0.000705651    0.006219478   -0.002099197
      6        6           0.004214418    0.002443617    0.000414908
      7        6          -0.013081257    0.009337940    0.004194541
      8        6           0.042817586   -0.008345106   -0.013573533
      9        6          -0.014288070    0.003351339    0.017626388
     10        6           0.009987391   -0.014992125    0.004632282
     11        6          -0.024287788    0.019181229    0.007137912
     12        6           0.020311821   -0.008353239    0.009212732
     13       16          -0.005934585    0.001088102    0.002359903
     14        1           0.004105520   -0.000367123   -0.000027819
     15        1          -0.006070461   -0.001736417    0.010518073
     16        1          -0.006000187   -0.005045237    0.001529507
     17        1           0.005925153    0.001497396   -0.005746503
     18        1           0.002067849    0.002044631   -0.003138210
     19        1           0.000613935    0.002852912    0.000568558
     20        1          -0.001477701   -0.002943500   -0.017797148
     21        1          -0.008249223   -0.013240063   -0.014567276
 -------------------------------------------------------------------
 Cartesian Forces:  Max     0.048629112 RMS     0.012585342

 GradGradGradGradGradGradGradGradGradGradGradGradGradGradGradGradGradGrad
 Berny optimization.
 Using GEDIIS/GDIIS optimizer.
 FormGI is forming the generalized inverse of G from B-inverse, IUseBI=4.
 Internal  Forces:  Max     0.026871991 RMS     0.008039473
 Search for a local minimum.
 Step number   2 out of a maximum of  112
 All quantities printed in internal units (Hartrees-Bohrs-Radians)
 Mixed Optimization -- RFO/linear search
 Update second derivatives using D2CorX and points    1    2
 DE= -4.67D-02 DEPred=-4.50D-02 R= 1.04D+00
 TightC=F SS=  1.41D+00  RLast= 5.02D-01 DXNew= 5.0454D-01 1.5057D+00
 Trust test= 1.04D+00 RLast= 5.02D-01 DXMaxT set to 5.05D-01
 ITU=  1  0
 Use linear search instead of GDIIS.
     Eigenvalues ---    0.00230   0.00351   0.00642   0.01201   0.01519
     Eigenvalues ---    0.01652   0.01864   0.01919   0.02065   0.02096
     Eigenvalues ---    0.02211   0.02288   0.02451   0.02692   0.02984
     Eigenvalues ---    0.03976   0.04124   0.07994   0.10474   0.12269
     Eigenvalues ---    0.13699   0.14292   0.14981   0.15418   0.15614
     Eigenvalues ---    0.15797   0.15914   0.16078   0.17235   0.19237
     Eigenvalues ---    0.21261   0.22371   0.22635   0.23268   0.23695
     Eigenvalues ---    0.24426   0.25032   0.25190   0.25478   0.27563
     Eigenvalues ---    0.29845   0.33739   0.34299   0.34448   0.34527
     Eigenvalues ---    0.34587   0.34814   0.34962   0.35169   0.37644
     Eigenvalues ---    0.39063   0.43028   0.45717   0.46380   0.51034
     Eigenvalues ---    0.51876   0.60589
 RFO step:  Lambda=-3.61941319D-02 EMin= 2.30017773D-03
 Quartic linear search produced a step of  1.63696.
 Iteration  1 RMS(Cart)=  0.21016226 RMS(Int)=  0.04234256
 Iteration  2 RMS(Cart)=  0.10352644 RMS(Int)=  0.01088552
 Iteration  3 RMS(Cart)=  0.00738952 RMS(Int)=  0.00988779
 Iteration  4 RMS(Cart)=  0.00005657 RMS(Int)=  0.00988777
 Iteration  5 RMS(Cart)=  0.00000076 RMS(Int)=  0.00988777
 Variable       Old X    -DE/DX   Delta X   Delta X   Delta X     New X
                                 (Linear)    (Quad)   (Total)
    R1        3.91503   0.00348  -0.00068   0.02653   0.02586   3.94089
    R2        2.55582  -0.00067   0.00073  -0.00615  -0.00543   2.55039
    R3        3.44849  -0.02687  -0.13695  -0.07856  -0.21551   3.23298
    R4        2.63716  -0.00388   0.00124  -0.01297  -0.00784   2.62932
    R5        3.75850  -0.00961  -0.04764  -0.06113  -0.10742   3.65108
    R6        2.79390  -0.01594  -0.11106   0.02385  -0.08677   2.70713
    R7        2.79790   0.01333   0.09331  -0.01878   0.08003   2.87793
    R8        2.59029  -0.00068   0.02091  -0.02790  -0.00669   2.58361
    R9        2.04608  -0.00275  -0.01792   0.00438  -0.01354   2.03254
   R10        2.74752   0.00595   0.01930   0.00871   0.02753   2.77506
   R11        2.05384  -0.00214  -0.02158   0.01208  -0.00950   2.04435
   R12        2.59504  -0.00651  -0.00470  -0.02259  -0.02799   2.56705
   R13        2.02802   0.00525   0.04712  -0.02553   0.02159   2.04962
   R14        2.66999   0.00620   0.01098   0.02089   0.03338   2.70337
   R15        2.58386  -0.00202   0.02117  -0.02669  -0.00437   2.57949
   R16        2.06277  -0.00112  -0.00242  -0.00397  -0.00638   2.05639
   R17        2.79937   0.00622   0.01360   0.01506   0.02487   2.82423
   R18        2.06205  -0.00090   0.00459  -0.01069  -0.00610   2.05595
   R19        2.59891   0.00888   0.09342  -0.07496   0.01393   2.61284
   R20        2.06500  -0.00218   0.00506  -0.01900  -0.01394   2.05107
   R21        3.39100  -0.00973  -0.05577  -0.02485  -0.08496   3.30603
   R22        2.08100  -0.00371   0.00433  -0.02791  -0.02358   2.05742
    A1        1.75668  -0.00834  -0.09660   0.02715  -0.06944   1.68724
    A2        1.88978   0.00595   0.01237   0.03290   0.04527   1.93505
    A3        2.01991  -0.00079   0.04297   0.02295   0.01091   2.03082
    A4        1.93899   0.00408   0.07192   0.02873   0.04689   1.98588
    A5        2.17719   0.00688   0.03093   0.08276   0.08630   2.26349
    A6        2.35420  -0.01445  -0.10263  -0.01336  -0.12253   2.23167
    A7        2.06502   0.01183   0.07824   0.01249   0.10363   2.16866
    A8        1.83531   0.00184   0.00971   0.00874   0.01182   1.84713
    A9        1.85054   0.00191   0.00455   0.01636   0.02076   1.87130
   A10        2.28933  -0.01037  -0.08577  -0.01022  -0.09733   2.19200
   A11        2.14168   0.00856   0.08263  -0.00301   0.07807   2.21975
   A12        1.94690   0.00105   0.04384  -0.04030   0.00240   1.94930
   A13        2.22412  -0.00663  -0.06852   0.00995  -0.05942   2.16470
   A14        2.10486   0.00576   0.02853   0.03301   0.06180   2.16666
   A15        1.85671  -0.00189  -0.04919   0.05316   0.00089   1.85761
   A16        2.23342  -0.00280  -0.00187  -0.03313  -0.03621   2.19721
   A17        2.18139   0.00521   0.05963  -0.01445   0.04501   2.22641
   A18        1.89203  -0.00098   0.02783  -0.02687  -0.00372   1.88830
   A19        2.05013  -0.02163  -0.13078  -0.01856  -0.14514   1.90499
   A20        2.33410   0.02288   0.10550   0.04852   0.15306   2.48716
   A21        2.22309   0.00277   0.02800   0.02202   0.05347   2.27657
   A22        1.93322   0.00016   0.01358  -0.02694  -0.01784   1.91538
   A23        1.95391  -0.00228  -0.03002   0.00113  -0.02639   1.92752
   A24        1.87153  -0.00438  -0.04410  -0.01144  -0.05588   1.81565
   A25        2.07939   0.00541   0.06817   0.02480   0.09210   2.17150
   A26        2.07829   0.00269   0.03210   0.01994   0.04399   2.12228
   A27        1.83572   0.00460  -0.02512   0.03657  -0.01181   1.82391
   A28        2.15324  -0.00496  -0.04351  -0.01183  -0.04616   2.10708
   A29        2.09852   0.00186   0.08029  -0.05131   0.04022   2.13875
   A30        2.19695  -0.00992  -0.08337  -0.01136  -0.08890   2.10805
   A31        1.94676   0.01892   0.20444  -0.04130   0.15579   2.10255
   A32        2.04242  -0.00961  -0.13030   0.03401  -0.09711   1.94532
   A33        2.10640  -0.00610  -0.04226  -0.05619  -0.09076   2.01564
    D1        1.70513  -0.00610  -0.13392  -0.03662  -0.17053   1.53459
    D2        2.55995  -0.00867  -0.09317  -0.10994  -0.20251   2.35743
    D3       -1.10922   0.01003   0.11689   0.13389   0.25019  -0.85904
    D4       -1.48015   0.01442   0.15156   0.24741   0.39533  -1.08482
    D5        1.95972   0.01719   0.22634   0.20501   0.42222   2.38194
    D6        2.26991  -0.00572  -0.10922  -0.01184  -0.12406   2.14585
    D7       -0.57340  -0.00295  -0.03444  -0.05424  -0.09718  -0.67058
    D8       -1.86834  -0.01386  -0.18129  -0.25995  -0.45852  -2.32686
    D9        0.68859   0.00398   0.05952  -0.01366   0.03893   0.72751
   D10       -2.66660  -0.00291  -0.01797  -0.04108  -0.07117  -2.73777
   D11        0.53656  -0.00525  -0.04676  -0.10035  -0.14911   0.38745
   D12        0.20365  -0.00378  -0.07690  -0.00150  -0.07785   0.12579
   D13       -2.87638  -0.00612  -0.10569  -0.06077  -0.15579  -3.03217
   D14        2.64090   0.00041   0.02472   0.06456   0.09278   2.73368
   D15       -0.60960   0.00440   0.05363   0.09237   0.14090  -0.46869
   D16       -0.28327   0.00569   0.09872   0.03755   0.14060  -0.14267
   D17        2.74942   0.00968   0.12762   0.06536   0.18872   2.93815
   D18       -0.06153  -0.00031   0.01586  -0.02483  -0.00939  -0.07092
   D19       -3.07266  -0.00245  -0.02023  -0.05032  -0.06612  -3.13878
   D20        3.02499   0.00098   0.03280   0.02779   0.06239   3.08738
   D21        0.01386  -0.00116  -0.00330   0.00230   0.00566   0.01952
   D22       -0.11751   0.00337   0.04829   0.04385   0.09618  -0.02132
   D23       -3.10035  -0.00058  -0.01012   0.00585   0.00070  -3.09965
   D24        2.90378   0.00432   0.07167   0.06589   0.14266   3.04644
   D25       -0.07906   0.00037   0.01326   0.02790   0.04717  -0.03189
   D26        0.24579  -0.00690  -0.10257  -0.04509  -0.14666   0.09913
   D27       -2.76194  -0.00735  -0.11296  -0.07179  -0.18612  -2.94805
   D28       -3.04851  -0.00400  -0.05420  -0.01098  -0.05861  -3.10712
   D29        0.22695  -0.00445  -0.06459  -0.03769  -0.09807   0.12888
   D30        2.24694  -0.00658  -0.08864  -0.09618  -0.17327   2.07368
   D31       -0.23907  -0.00664  -0.09565  -0.08702  -0.17430  -0.41337
   D32       -1.03787  -0.00452  -0.06450  -0.06748  -0.12500  -1.16286
   D33        2.75931  -0.00458  -0.07152  -0.05832  -0.12603   2.63327
   D34       -2.01274  -0.00461  -0.07640  -0.01262  -0.08188  -2.09462
   D35        0.41444   0.00043  -0.00416   0.03313   0.03348   0.44792
   D36        0.46701  -0.00378  -0.05542  -0.03020  -0.07800   0.38901
   D37        2.89419   0.00126   0.01682   0.01555   0.03736   2.93155
   D38        1.34041   0.00781   0.13430   0.03664   0.17214   1.51255
   D39       -1.16352   0.00437   0.08486   0.09110   0.17782  -0.98570
   D40       -1.08730   0.00145   0.04421  -0.01143   0.03597  -1.05133
   D41        2.69195  -0.00199  -0.00523   0.04302   0.04165   2.73361
   D42       -1.55857  -0.01237  -0.14888  -0.03995  -0.18138  -1.73995
   D43        1.10585  -0.01525  -0.19124  -0.07463  -0.26944   0.83640
   D44        0.96987  -0.01216  -0.15521  -0.07610  -0.22643   0.74344
   D45       -2.64890  -0.01505  -0.19756  -0.11079  -0.31449  -2.96339
   D46        0.77903  -0.00068  -0.01306   0.03194   0.01182   0.79086
   D47       -1.86242  -0.00438  -0.04376   0.08699   0.03072  -1.83170
         Item               Value     Threshold  Converged?
 Maximum Force            0.026872     0.000450     NO 
 RMS     Force            0.008039     0.000300     NO 
 Maximum Displacement     0.820889     0.001800     NO 
 RMS     Displacement     0.263276     0.001200     NO 
 Predicted change in Energy=-6.191286D-02
 GradGradGradGradGradGradGradGradGradGradGradGradGradGradGradGradGradGrad

                          Input orientation:                          
 ---------------------------------------------------------------------
 Center     Atomic      Atomic             Coordinates (Angstroms)
 Number     Number       Type             X           Y           Z
 ---------------------------------------------------------------------
      1         16           0        0.777521   -0.826505   -0.182187
      2         16           0        2.392934    0.255673   -0.936070
      3          6           0        3.866949   -0.312771   -0.279520
      4          6           0        4.915439   -0.489620   -1.176919
      5          6           0        4.973763   -1.381681   -2.296307
      6          6           0        6.295003   -1.611280   -2.562398
      7          6           0        7.170043   -0.810258   -1.696863
      8          6           0        6.352745   -0.062149   -0.910942
      9          6           0        6.353964    1.032211    0.010408
     10          6           0        6.900262    1.139706    1.256700
     11          6           0        5.730218    1.424600    2.141812
     12          6           0        5.236257    0.176929    2.475072
     13         16           0        3.847016   -0.487105    1.644565
     14          1           0        0.573171   -0.062010    0.911078
     15          1           0        4.125358   -1.797699   -2.810114
     16          1           0        6.649786   -2.248811   -3.361160
     17          1           0        8.253638   -0.785343   -1.736616
     18          1           0        5.396948    1.548529   -0.030829
     19          1           0        7.752171    0.560583    1.606740
     20          1           0        5.084835    2.276132    1.950976
     21          1           0        5.907001   -0.608281    2.819895
 ---------------------------------------------------------------------
                    Distance matrix (angstroms):
                    1          2          3          4          5
     1  S    0.000000
     2  S    2.085428   0.000000
     3  C    3.133362   1.710820   0.000000
     4  C    4.269115   2.641306   1.391377   0.000000
     5  C    4.731403   3.345422   2.536737   1.432552   0.000000
     6  C    6.060023   4.621320   3.576745   2.254080   1.367185
     7  C    6.569539   4.953360   3.628606   2.335892   2.347232
     8  C    5.674368   3.972624   2.576953   1.522933   2.358387
     9  C    5.881211   4.145913   2.842232   2.407295   3.612861
    10  C    6.589714   5.089770   3.697385   3.537898   4.763680
    11  C    5.915881   4.687986   3.514695   3.916896   5.305123
    12  C    5.286609   4.441461   3.114898   3.726157   5.026353
    13  S    3.588038   3.053810   1.932070   3.017002   4.195271
    14  H    1.349608   2.612359   3.511321   4.837134   5.603040
    15  H    4.365458   3.275617   2.945452   2.236655   1.075575
    16  H    6.827321   5.502208   4.581368   3.297518   2.166767
    17  H    7.636115   6.006033   4.646449   3.397688   3.380303
    18  H    5.196422   3.393381   2.422227   2.387346   3.727949
    19  H    7.332804   5.939720   4.406323   4.110807   5.169692
    20  H    5.720987   4.434368   3.627779   4.178732   5.606366
    21  H    5.947410   5.215588   3.722300   4.119684   5.257813
                    6          7          8          9         10
     6  C    0.000000
     7  C    1.468497   0.000000
     8  C    2.265050   1.358423   0.000000
     9  C    3.689290   2.641108   1.430564   0.000000
    10  C    4.745501   3.549461   2.538287   1.365005   0.000000
    11  C    5.627179   4.669380   3.452140   2.255196   1.494520
    12  C    5.449289   4.703096   3.573346   2.838194   2.276024
    13  S    4.995493   4.723566   3.604148   3.356126   3.481273
    14  H    6.870563   7.133018   6.059970   5.951982   6.449469
    15  H    2.191683   3.388875   3.402976   4.574978   5.733011
    16  H    1.081821   2.260528   3.297468   4.713819   5.733186
    17  H    2.280425   1.084610   2.195026   3.156637   3.807542
    18  H    4.147257   3.388718   2.069403   1.088193   2.021094
    19  H    4.921590   3.623793   2.947017   2.173865   1.087962
    20  H    6.078407   5.213504   3.907138   2.631317   2.251501
    21  H    5.488682   4.694377   3.796853   3.283932   2.546686
                   11         12         13         14         15
    11  C    0.000000
    12  C    1.382658   0.000000
    13  S    2.729161   1.749478   0.000000
[...]
 99964,-0.00030326,-0.00050864,0.00004065,0.00105735,0.00151757,0.00298
 911,0.00491876,-0.00204808,-0.00353026,0.00179791,0.00536808,0.0039659
 4,0.00019829,-0.00133566,-0.00269376,-0.00263878,-0.00202200,-0.000097
 68,-0.00287238,0.00290695,0.00355958,0.00654791,-0.00836825,-0.0455844
 4,-0.03683434,0.08828792,-0.40560582,-0.04649996,-0.14380859,0.5932192
 9,-0.00031833,-0.00038763,-0.00028244,0.00174648,0.00140327,0.00328129
 ,0.00647534,-0.00127913,0.00076632,-0.00177298,0.00173335,0.00362489,0
 .00035959,-0.00123197,-0.00230263,-0.00171932,-0.00140148,0.00003518,-
 0.00223961,0.00128585,0.00066411,0.01347990,-0.00046341,-0.01008699,-0
 .01630037,-0.01119798,0.03796474,-0.15894983,0.09383263,0.07004332,0.5
 3117825,0.00041755,0.00014664,0.00011478,0.00019698,0.00093331,0.00041
 631,-0.00133858,-0.00130926,0.00479410,-0.00021843,0.00082113,0.003187
 61,0.00101069,0.00147837,0.00010022,0.00092124,0.00020642,0.00040110,-
 0.00099551,-0.00000353,-0.00185843,0.01122261,-0.00154432,-0.00280752,
 -0.00677236,0.00821660,-0.00496689,0.07970021,-0.12822993,-0.01877894,
 0.01953225,0.67111878,0.00012213,0.00097170,0.00029638,-0.00144841,-0.
 00269972,-0.00661819,-0.01394705,0.00391457,0.00205668,0.00138140,-0.0
 0146023,-0.00150679,0.00183895,0.00238899,0.00286098,0.00315370,0.0008
 7122,-0.00020725,0.00044431,-0.00143421,-0.00352145,-0.00478132,0.0003
 7386,-0.00187962,0.01208809,-0.00814802,-0.05317431,0.06499525,-0.0185
 3187,-0.06022458,-0.12342493,-0.12174421,0.23067335,-0.00011701,0.0004
 7890,-0.00000871,0.00001088,-0.00110033,-0.00334193,-0.00490976,0.0039
 1765,-0.01070895,0.00379201,-0.00315510,-0.00310693,0.00230288,0.00078
 587,0.00348731,0.00281751,0.00109718,-0.00091214,0.00144051,-0.0010820
 4,-0.00290787,-0.00854202,-0.00378589,0.00051873,-0.01590645,0.0094281
 1,-0.00335738,-0.04311709,-0.01380686,0.04227944,-0.24091616,-0.156511
 30,0.04717089,0.43604193,-0.00022357,0.00040134,0.00013956,-0.00048008
 ,-0.00048658,-0.00568529,-0.01240851,0.00107573,-0.00766150,-0.0004605
 7,0.00040836,-0.00107669,0.00011173,-0.00152803,0.00097801,-0.00045640
 ,-0.00031198,-0.00035488,0.00055643,-0.00049102,0.00121237,-0.00435718
 ,0.00212541,0.00217503,0.00602216,0.00447699,-0.00909840,-0.00795905,0
 .00906767,0.00565481,-0.15714613,-0.23445912,0.07537784,0.09582319,0.5
 7819400,-0.00013567,-0.00003180,0.00039293,-0.00132033,-0.00203873,-0.
 00402953,-0.01381429,0.00033883,-0.01278318,0.00052506,0.00160503,0.00
 321673,-0.00111612,-0.00159219,-0.00102544,-0.00116768,-0.00030459,0.0
 0022673,-0.00064327,-0.00004072,0.00141853,0.00396343,0.00101612,0.000
 43964,0.01542169,0.00057793,0.00570378,0.02652292,-0.00268701,-0.01762
 693,0.04437062,0.07684004,-0.04334512,0.00502062,-0.15483596,0.1728551
 9,-0.00225813,-0.00276193,-0.00249647,-0.00640528,-0.00970427,-0.01919
 164,-0.06227510,0.00961546,0.02599584,-0.00134861,0.01436331,0.0212999
 1,-0.00350917,-0.00226746,-0.00468913,-0.00369822,-0.00015881,0.002210
 26,-0.00054855,0.00249486,0.00354920,0.01042376,0.00137779,-0.00152725
 ,0.00769352,-0.00236987,0.00027394,-0.00416219,-0.00500484,-0.01326921
 ,-0.05956086,-0.00452081,0.01629081,-0.09146013,0.04022630,-0.05919233
 ,0.23370811,-0.00166549,-0.00136774,-0.00279577,-0.00631146,-0.0005924
 9,-0.00725053,0.02357865,-0.04258688,-0.02144784,0.00695922,-0.0029506
 1,-0.01026281,-0.00161061,0.00886500,0.00077780,0.00543098,0.00138530,
 -0.00017930,-0.00029826,-0.00284581,-0.00561234,-0.00576204,-0.0019145
 5,0.00432932,-0.00080638,0.00225002,-0.00058870,-0.00003819,-0.0005840
 7,0.00340432,-0.01034097,0.00535087,-0.01011997,0.00993045,-0.04107710
 ,0.00744338,-0.03693586,0.07409341,0.00138522,-0.00021381,-0.00128956,
 -0.01468943,-0.00747509,-0.01789448,0.04347873,-0.03692902,-0.08328008
 ,0.00273766,-0.00955232,-0.01324030,-0.00036661,0.00315233,0.00802979,
 0.00445796,0.00056344,-0.00026284,-0.00009571,-0.00429384,-0.00336286,
 -0.00345452,0.00340732,0.00362209,0.00473009,-0.00043543,-0.00206031,0
 .00563256,-0.00047468,0.00127399,-0.01006663,-0.00115024,-0.00332183,-
 0.06566548,0.01878472,-0.05890535,0.04273375,0.03683234,0.18371174,-0.
 05626799,0.07259590,0.06103522,-0.00588796,-0.00102650,0.00539275,-0.0
 0120933,0.00322062,0.00352421,-0.00023916,-0.00101827,-0.00064471,-0.0
 0050398,0.00021382,0.00020904,0.00043742,0.00021088,-0.00010904,-0.000
 23271,-0.00031575,-0.00041537,-0.00064377,-0.00002409,0.00025688,0.000
 09478,0.00006880,0.00002422,-0.00007458,0.00003240,-0.00004083,0.00012
 465,-0.00003930,0.00015047,0.00031278,0.00026059,-0.00031823,-0.000145
 70,-0.00038589,0.00007637,0.06429206,0.08356072,-0.14941370,-0.0991718
 5,-0.00778989,0.00791689,0.00924221,-0.00075966,0.00076965,0.00082387,
 -0.00008472,-0.00063376,-0.00027807,-0.00027124,0.00014294,0.00020884,
 0.00016509,0.00016293,-0.00013683,-0.00014159,-0.00020693,-0.00018365,
 -0.00043913,0.00012730,0.00000438,-0.00005990,0.00009069,0.00010235,0.
 00005028,-0.00003582,-0.00002749,0.00000623,0.00004359,-0.00019006,-0.
 00010861,-0.00023630,-0.00007934,-0.00063944,-0.00018879,0.00044581,-0
 .07347447,0.14170065,0.06294273,-0.08775012,-0.07537744,0.00784069,-0.
 00214698,-0.00909237,-0.00191612,0.00098180,0.00110554,-0.00002146,0.0
 0003890,-0.00042106,0.00036898,-0.00042746,-0.00018155,-0.00006666,-0.
 00009396,0.00003966,-0.00004544,0.00006328,-0.00002826,-0.00000374,0.0
 0005904,0.00011859,0.00017790,-0.00012166,-0.00002466,-0.00013611,0.00
 010426,-0.00014482,-0.00010671,-0.00012847,0.00041284,0.00014736,0.000
 12354,0.00019480,-0.00007070,-0.00006339,0.00000417,-0.06923144,0.0891
 5169,0.08333921,-0.00012120,0.00017734,0.00011944,-0.00452861,0.003358
 69,0.00320334,0.00062872,-0.00015484,-0.00072988,0.00243054,0.00335522
 ,0.00268500,-0.25598031,-0.13002890,-0.06659859,-0.01190483,-0.0137535
 5,-0.01093785,-0.00363662,-0.00009986,0.00294767,0.00022018,0.00048641
 ,0.00116213,0.00011749,-0.00018412,0.00016359,0.00032450,-0.00005051,0
 .00016694,-0.00022300,-0.00001287,-0.00004101,0.00017385,-0.00004593,-
 0.00011095,-0.00029218,-0.00017767,-0.00040867,0.00000387,-0.00006910,
 0.00004226,0.27238190,0.00008877,0.00087371,0.00039711,0.00202903,-0.0
 0074318,-0.00101841,-0.00152009,-0.00043005,0.00084701,-0.01192233,-0.
 00444892,0.00019023,-0.13028941,-0.11500201,-0.05418942,0.00589992,0.0
 0600512,0.00005674,-0.00026613,0.00324127,-0.00416275,-0.00044160,-0.0
 0216769,-0.00196977,-0.00086203,0.00110633,-0.00079165,-0.00063734,-0.
 00020408,-0.00024843,0.00021728,0.00036648,0.00023609,0.00024518,-0.00
 016173,0.00009019,0.00032236,-0.00007976,-0.00005971,-0.00024397,-0.00
 025320,0.00021351,0.13714705,0.11354668,0.00046379,0.00022668,-0.00042
 299,0.00027408,-0.00023879,0.00108803,-0.00189578,0.00066208,0.0002623
 1,-0.01652856,-0.00801092,-0.00299407,-0.06529043,-0.05350944,-0.06755
 921,0.01061727,0.00675056,0.00843432,0.00356515,-0.00320482,0.00208858
 ,0.00079040,-0.00157293,-0.00292068,-0.00050548,-0.00089295,-0.0000873
 0,-0.00054002,-0.00049730,0.00023843,-0.00013864,0.00021522,0.00047210
 ,0.00017269,-0.00000017,-0.00009214,0.00017027,0.00003504,-0.00051722,
 -0.00005309,0.00001646,0.00001859,0.06939246,0.05759153,0.06307081,-0.
 00008305,-0.00003500,0.00000718,0.00010765,-0.00006786,0.00008573,0.00
 089163,0.00061809,0.00120208,-0.00487346,-0.00136847,0.00251627,0.0012
 5593,0.01770830,0.02099389,-0.07541806,0.03940091,0.05962814,0.0097845
 5,-0.01048005,-0.01541423,-0.00328519,-0.00295598,-0.00178561,0.001226
 82,-0.00026696,-0.00044696,-0.00019160,-0.00019822,-0.00034249,-0.0003
 4650,0.00002778,0.00044533,0.00053027,-0.00002936,-0.00030339,-0.00070
 775,0.00046858,0.00001188,-0.00000682,-0.00001373,0.00000461,0.0006207
 5,0.00029525,-0.00134310,0.07035106,0.00014548,0.00005137,0.00002655,0
 .00018379,0.00033597,-0.00011690,0.00032644,0.00022194,-0.00102071,-0.
 00188288,0.00500467,-0.00355787,-0.00173380,0.00302663,-0.00010230,0.0
 3983440,-0.14465285,-0.14363753,0.00825731,-0.00545130,-0.00866963,-0.
 00227270,-0.00090448,-0.00139296,0.00044003,0.00054969,-0.00078108,-0.
 00008225,-0.00032006,-0.00053135,-0.00035432,-0.00002750,0.00016432,0.
 00040275,0.00032181,-0.00008852,-0.00035153,-0.00075122,0.00068328,-0.
 00001411,0.00001133,-0.00000271,0.00088915,-0.00241464,0.00227695,-0.0
 4374928,0.14508403,-0.00004211,-0.00001218,-0.00006805,-0.00025244,-0.
 00036879,0.00020180,0.00015469,-0.00041724,0.00028240,0.00242396,-0.00
 413041,0.00317653,-0.00206208,-0.00640547,-0.00326408,0.06099644,-0.14
 309308,-0.21650788,0.00618709,-0.00266522,-0.00536825,-0.00147629,-0.0
 0174077,-0.00010090,0.00061493,-0.00035109,0.00019208,-0.00021993,-0.0
 0017516,0.00007859,0.00002386,0.00019756,0.00023563,0.00006683,-0.0002
 9526,-0.00028213,0.00014174,0.00082645,-0.00035407,0.00001503,0.000013
 14,-0.00000676,-0.00038796,0.00250713,-0.00165906,-0.06579763,0.155921
 33,0.22384053,0.00011875,0.00004541,-0.00003194,-0.00048765,0.00029779
 ,-0.00005464,0.00002626,-0.00031971,0.00003120,-0.00066699,-0.00089413
 ,0.00226094,-0.00145226,-0.00223081,-0.00133359,-0.00792395,0.00303401
 ,0.00670961,-0.32667504,-0.03886823,0.06455602,-0.00672233,-0.00509410
 ,-0.00197305,0.00039472,0.00074968,-0.00094687,0.00011322,0.00012729,0
 .00002266,-0.00008648,-0.00012101,0.00014680,0.00026508,0.00003982,-0.
 00008875,-0.00028429,0.00010328,-0.00003078,-0.00001919,-0.00000665,0.
 00001206,-0.00028151,0.00010309,0.00051665,0.00018825,-0.00006360,-0.0
 0039749,0.34362403,-0.00039551,0.00009645,0.00009813,0.00124245,-0.000
 86752,0.00057911,-0.00061611,0.00122884,0.00025559,0.00088814,0.003205
 02,-0.00654352,-0.00264882,-0.00163051,-0.00318281,-0.01462717,0.00250
 447,0.00740617,-0.04049634,-0.05049764,-0.00371101,0.01326154,0.007390
 31,-0.00283581,0.00035652,-0.00201313,0.00333475,-0.00004542,0.0004369
 0,0.00030529,0.00010782,-0.00010366,-0.00012509,-0.00046458,0.00007302
 ,0.00010730,0.00026092,-0.00019845,0.00006979,-0.00001844,-0.00005211,
 0.00004121,-0.00088488,0.00074434,0.00019322,0.00084180,-0.00009737,0.
 00036066,0.04299338,0.03998225,0.00047740,0.00003614,-0.00014129,-0.00
 073945,0.00066479,-0.00049037,0.00146271,-0.00006814,0.00082090,0.0024
 9914,-0.00600390,-0.00029858,-0.00204381,-0.00327907,-0.00134107,-0.01
 448278,0.00071205,0.00728498,0.06194460,-0.00269518,-0.06182586,0.0214
 3638,0.00291134,0.00106375,-0.00112711,0.00290845,-0.00056314,0.000190
 85,-0.00024628,-0.00049117,0.00011809,0.00005064,-0.00033395,-0.000144
 64,-0.00003663,0.00021752,0.00005102,0.00009113,0.00009789,0.00004056,
 0.00004844,0.00000074,-0.00061918,-0.00010652,0.00084027,0.00062724,0.
 00064666,-0.00017894,-0.06967834,0.00414615,0.05511891,-0.00008019,-0.
 00018555,-0.00003842,-0.00007548,0.00006120,0.00068356,0.00134728,-0.0
 0059935,-0.00086214,-0.00236023,0.00219434,-0.00008399,0.00059032,-0.0
 0115706,-0.00184658,-0.00264883,-0.00030590,0.00005001,0.00080517,0.00
 060287,0.00408657,0.00697798,-0.00778174,-0.00613009,-0.05410069,0.073
 09458,-0.01443633,-0.00133291,0.00935601,-0.00713630,-0.00507386,-0.00
 409041,0.00405519,0.00442349,-0.00045339,-0.00285584,-0.00243680,0.001
 16415,-0.00087243,-0.00001297,0.00000825,-0.00001564,0.00007451,-0.000
 15616,0.00023090,-0.00012617,0.00005560,-0.00009798,-0.00013288,0.0002
 4626,0.00001770,0.04423682,-0.00004327,-0.00009601,0.00002963,0.000012
 24,0.00010127,0.00025153,0.00062456,-0.00056752,-0.00083318,0.00007174
 ,0.00088329,0.00039600,0.00044093,-0.00128159,-0.00186173,-0.00253703,
 -0.00040479,-0.00081814,-0.00142678,0.00076124,0.00304968,0.00717428,-
 0.01900435,-0.00322099,0.06615342,-0.28408989,0.05785528,0.00190610,-0
 .00690128,0.00105159,0.00071555,-0.00025672,-0.00082740,0.00179857,0.0
 0040226,-0.00142563,-0.00109176,0.00061802,-0.00013085,-0.00001832,0.0
 0000096,-0.00000033,0.00002135,0.00004058,-0.00001679,-0.00020664,0.00
 001898,-0.00021080,0.00014477,-0.00023674,0.00024614,-0.07452178,0.308
 23486,-0.00001664,-0.00000079,0.00001105,0.00009248,0.00006311,-0.0000
 4724,0.00007439,-0.00018908,-0.00028590,0.00025197,-0.00054581,0.00109
 900,0.00028993,-0.00063656,-0.00111079,-0.00118176,0.00008983,-0.00091
 524,-0.00109522,0.00030225,-0.00016733,0.00613876,-0.02223657,0.004080
 12,-0.01706560,0.04548102,-0.06143650,-0.00910430,0.02983321,-0.005736
 35,-0.00087694,0.00345817,-0.00161214,-0.00095883,-0.00007132,0.000610
 25,0.00062035,-0.00020039,0.00059703,0.00000336,-0.00000401,0.00000715
 ,-0.00006028,0.00027815,-0.00019446,-0.00011590,-0.00000812,-0.0001690
 8,0.00027878,-0.00052656,0.00035941,0.02253801,-0.05477266,0.07109689,
 0.00003588,0.00004262,-0.00001331,0.00004665,-0.00009138,-0.00002682,-
 0.00039028,0.00009625,0.00012735,-0.00020818,0.00030946,-0.00018251,0.
 00026063,-0.00007767,-0.00005949,-0.00021835,-0.00000801,0.00010695,0.
 00024509,0.00053584,0.00027229,-0.00316118,0.00137340,0.00050560,0.000
 82790,-0.00730394,0.00375877,-0.05344777,0.05373085,-0.00974577,-0.005
 46534,0.01810181,-0.00300099,0.00056238,0.00222266,-0.00150844,0.00038
 897,0.00000862,-0.00006260,0.00000406,0.00000881,-0.00000057,0.0000282
 2,-0.00001592,0.00006953,0.00006009,0.00002630,0.00007604,-0.00000696,
 -0.00002179,-0.00001457,0.00917383,0.00120132,-0.00081794,0.05307873,0
 .00000242,-0.00002269,-0.00000118,0.00005587,0.00004225,0.00015045,0.0
 0033783,-0.00015762,-0.00026791,0.00011282,0.00013930,0.00002520,0.000
 04815,-0.00011624,-0.00019467,-0.00031856,-0.00020114,0.00017183,0.000
 37105,0.00077737,0.00035741,-0.00225480,0.00148175,-0.00056637,0.00129
 450,-0.00643122,-0.00028894,0.06802403,-0.30547860,0.06816169,-0.00010
 679,-0.01232485,0.00427374,-0.00100295,0.00089514,-0.00091143,-0.00074
 073,0.00065246,0.00014885,-0.00000263,0.00000968,-0.00001106,0.0000121
 6,0.00000163,-0.00002216,0.00003936,-0.00000215,0.00004807,-0.00001051
 ,0.00001744,-0.00003912,0.00331468,0.00084181,0.00022471,-0.07161882,0
 .31832045,0.00002367,0.00003907,-0.00003354,0.00002707,-0.00009624,0.0
 0007187,-0.00003974,0.00024259,0.00012042,-0.00014842,-0.00007345,-0.0
 0019176,0.00003957,0.00011368,0.00023175,0.00019397,0.00002975,-0.0000
 1828,0.00028804,-0.00041460,-0.00026602,-0.00037256,0.00158459,0.00202
 337,-0.00710817,0.02998363,-0.00494981,-0.00623789,0.05940611,-0.06441
 604,0.00367293,-0.01971950,0.00420098,-0.00065221,-0.00089120,-0.00093
 891,-0.00029937,0.00057890,0.00010921,0.00000692,0.00000884,-0.0000016
 0,0.00000512,0.00000684,-0.00000249,0.00002446,0.00002879,0.00002184,0
 .00000437,0.00005336,-0.00009413,0.00060702,0.00129575,-0.00514427,0.0
 0595830,-0.07237501,0.06839039,-0.00002110,-0.00000335,-0.00005651,-0.
 00000538,-0.00006675,0.00007024,-0.00001306,0.00017875,-0.00044175,-0.
 00012424,0.00013285,0.00021832,0.00000504,-0.00010874,-0.00013966,-0.0
 0017350,-0.00008476,-0.00001248,-0.00007308,-0.00006291,0.00013613,0.0
 0088834,-0.00024829,-0.00009728,-0.00134188,-0.00066120,-0.00193546,-0
 .00520355,0.02590893,-0.00758034,-0.06648286,0.06842764,-0.01181742,0.
 00662653,-0.02291153,0.00653510,0.00030553,-0.00216205,0.00121189,0.00
 001252,-0.00000235,-0.00000233,0.00000220,-0.00000032,0.00000507,-0.00
 002682,0.00000176,-0.00001538,-0.00001005,0.00002790,-0.00001814,0.000
 62449,-0.00067894,0.00100925,-0.00148000,0.00227431,0.00373498,0.06986
 152,0.00010655,0.00002647,0.00000346,-0.00001359,-0.00002115,-0.000036
 39,0.00024493,-0.00085903,-0.00026575,-0.00019992,0.00001362,0.0000240
 9,-0.00017406,-0.00008779,-0.00019708,-0.00017734,0.00003262,0.0000499
 7,0.00001132,0.00003736,0.00023676,0.00029142,0.00041576,0.00014756,0.
 00023353,-0.00027134,0.00132987,0.00276579,-0.00846790,0.00297393,0.05
 891841,-0.29207550,0.07371237,0.00795531,-0.01298765,0.00402879,-0.000
 86179,0.00125002,-0.00042055,-0.00001568,0.00003736,-0.00001217,0.0000
 1580,-0.00003588,0.00000779,-0.00001835,-0.00003357,0.00001296,-0.0000
 2072,0.00002370,0.00000954,-0.00058527,0.00079688,-0.00035424,0.001892
 30,0.00053121,-0.00029309,-0.06773298,0.31185848,0.00008969,0.00006402
 ,-0.00006912,-0.00006500,0.00000530,-0.00008637,-0.00064421,-0.0003886
 1,0.00079229,0.00030544,0.00009428,-0.00002175,-0.00015683,0.00000371,
 -0.00007059,0.00001869,-0.00002137,-0.00000197,-0.00011460,-0.00018343
 ,-0.00002622,0.00053482,0.00026632,0.00024327,0.00154225,-0.00489606,-
 0.00124454,0.00372028,-0.00714249,0.00130517,-0.01779648,0.07968698,-0
 .06232086,0.00124133,0.01561509,-0.00573198,-0.00160858,-0.00337821,-0
 .00219671,0.00000192,0.00001066,-0.00001342,0.00001408,-0.00002321,-0.
 00000234,-0.00002822,-0.00000223,-0.00000943,-0.00001925,0.00002170,0.
 00000448,0.00142272,-0.00079945,-0.00105876,0.00424566,0.00113783,0.00
 076171,0.00726440,-0.08366862,0.06215626,0.00014253,0.00013501,-0.0000
 0437,-0.00014546,-0.00055599,-0.00030958,0.00074697,0.00043134,0.00261
 812,0.00049935,-0.00044188,-0.00051957,-0.00004501,0.00055045,0.000202
 29,0.00055491,0.00020115,-0.00008133,-0.00005432,-0.00023816,-0.000594
 04,-0.00068293,-0.00005093,0.00069338,0.00039985,0.00004205,-0.0004146
 0,0.00130837,-0.00206160,0.00023107,0.00609129,-0.02493819,0.00617782,
 -0.05433150,0.06166881,-0.01978418,-0.01342694,0.01885091,-0.01074325,
 -0.00003799,0.00006111,0.00008032,-0.00003846,0.00000737,0.00002683,0.
 00004842,-0.00005855,0.00004867,0.00001928,-0.00000767,0.00000232,0.00
 012712,0.00025968,-0.00000387,-0.00033438,0.00016859,0.00027194,-0.003
 37066,-0.00263563,0.00003188,0.06252956,0.00002552,-0.00010022,-0.0000
 2721,-0.00019589,0.00006990,0.00024669,-0.00068900,0.00132191,0.000690
 27,0.00019505,-0.00024189,0.00028473,-0.00004795,-0.00007071,0.0001425
 9,0.00003336,0.00003944,0.00007467,0.00010449,-0.00003053,0.00005569,0
 .00009346,0.00010658,-0.00014934,0.00001755,0.00060949,-0.00007251,0.0
 0071931,-0.00033690,-0.00195470,0.00615714,-0.01834778,0.00299607,0.04
 915448,-0.30570223,0.07198831,-0.00125190,0.00067238,-0.00295234,-0.00
 000560,0.00000663,-0.00001892,-0.00000096,0.00001500,-0.00000925,-0.00
 001016,0.00002873,-0.00002183,-0.00000904,-0.00000560,0.00000338,-0.00
 026133,0.00013877,-0.00018434,-0.00041269,0.00102403,0.00049120,-0.002
 22796,-0.00018368,0.00359780,-0.05138789,0.32098667,0.00001977,0.00012
 125,-0.00030575,-0.00018338,-0.00073278,0.00035015,-0.00181215,0.00322
 109,0.00376058,0.00091211,-0.00067949,-0.00097754,-0.00003939,0.000275
 62,0.00123413,0.00111873,0.00027770,0.00030875,0.00036094,-0.00076240,
 -0.00067604,-0.00105904,0.00001643,-0.00087404,-0.00371119,-0.00002423
 ,0.00122252,-0.00190346,0.00055181,-0.00051889,0.00051706,0.00169147,-
 0.00314285,-0.00834011,0.05994632,-0.04051537,-0.01099244,0.00758058,-
 0.01076032,0.00007578,-0.00000538,0.00005066,-0.00000766,0.00015535,-0
 .00006149,0.00003074,0.00016403,-0.00006076,0.00001562,-0.00004763,-0.
 00005031,0.00068405,0.00074234,0.00001716,0.00031253,-0.00002193,0.000
 12530,0.00193137,0.00271081,0.00759088,0.02207013,-0.07518095,0.043283
 23\\0.00000599,0.00001578,0.00000729,-0.00007634,-0.00000794,-0.000051
 83,0.00009090,-0.00001462,0.00005908,-0.00006231,0.00001297,-0.0000246
 7,0.00005787,0.00002896,-0.00002200,-0.00003166,-0.00001911,0.00001426
 ,0.00002409,-0.00001827,-0.00000127,0.00001898,0.00000577,-0.00000662,
 0.00003564,-0.00004871,0.00002304,0.00001872,0.00001205,0.00002115,-0.
 00009965,-0.00008319,0.00003053,0.00007272,0.00007921,-0.00004297,-0.0
 0006696,0.00001855,0.00000037,-0.00000012,-0.00000817,0.00000165,-0.00
 000518,-0.00000418,0.00000127,0.00001998,0.00000178,-0.00000496,-0.000
 02765,0.00001363,-0.00000144,-0.00002607,0.00001277,-0.00003346,0.0000
 0466,-0.00000720,-0.00000446,0.00000996,-0.00000762,0.00002111,0.00003
 642,0.00001755,0.00001391\\\@


 HIGGLEDY-PIGGLEDY
 NIC'LAUS COPERNICUS
 LOOKED AT THE UNIVERSE,
 SPOKE TO THE THRONG;
 GIVE UP YOUR PTOLOMY,
 RISE UP AND FOLLOW ME,
 HELIOCENTRICALLY
 PTOLEMY'S WRONG.
   -- NANCY L. STARK
 Job cpu time:       0 days  5 hours 27 minutes 37.6 seconds.
 Elapsed time:       0 days  1 hours 22 minutes 42.1 seconds.
 File lengths (MBytes):  RWF=    321 Int=      0 D2E=      0 Chk=     15 Scr=      1
 Normal termination of Gaussian 16 at Wed May 17 13:28:02 2023.
### All Done ###
