### Starting Gaussian ###
 Entering Gaussian System, Link 0=g16
 Initial command:
 /cluster/software/gaussian/gaussian-16-A.03/avx2/g16/l1.exe "/local/scratch/yxie/Gau-19398.inp" -scrdir="/local/scratch/yxie/"
 Entering Link 1 = /cluster/software/gaussian/gaussian-16-A.03/avx2/g16/l1.exe PID=     19399.
  
 Copyright (c) 1988,1990,1992,1993,1995,1998,2003,2009,2016,
            Gaussian, Inc.  All Rights Reserved.
  
 This is part of the Gaussian(R) 16 program.  It is based on
 the Gaussian(R) 09 system (copyright 2009, Gaussian, Inc.),
 the Gaussian(R) 03 system (copyright 2003, Gaussian, Inc.),
 the Gaussian(R) 98 system (copyright 1998, Gaussian, Inc.),
 the Gaussian(R) 94 system (copyright 1995, Gaussian, Inc.),
 the Gaussian 92(TM) system (copyright 1992, Gaussian, Inc.),
 the Gaussian 90(TM) system (copyright 1990, Gaussian, Inc.),
 the Gaussian 88(TM) system (copyright 1988, Gaussian, Inc.),
 the Gaussian 86(TM) system (copyright 1986, Carnegie Mellon
 University), and the Gaussian 82(TM) system (copyright 1983,
 Carnegie Mellon University). Gaussian is a federally registered
 trademark of Gaussian, Inc.
  
 This software contains proprietary and confidential information,
 including trade secrets, belonging to Gaussian, Inc.
  
 This software is provided under written license and may be
 used, copied, transmitted, or stored only in accord with that
 written license.
  
 The following legend is applicable only to US Government
 contracts under FAR:
  
                    RESTRICTED RIGHTS LEGEND
  
 Use, reproduction and disclosure by the US Government is
 subject to restrictions as set forth in subparagraphs (a)
 and (c) of the Commercial Computer Software - Restricted
 Rights clause in FAR 52.227-19.
  
 Gaussian, Inc.
 340 Quinnipiac St., Bldg. 40, Wallingford CT 06492
  
  
 ---------------------------------------------------------------
 Warning -- This program may not be used in any manner that
 competes with the business of Gaussian, Inc. or will provide
 assistance to any competitor of Gaussian, Inc.  The licensee
 of this program is prohibited from giving any competitor of
 Gaussian, Inc. access to this program.  By using this program,
 the user acknowledges that Gaussian, Inc. is engaged in the
 business of creating and licensing software in the field of
 computational chemistry and represents and warrants to the
 licensee that it is not a competitor of Gaussian, Inc. and that
 it will not use this program in any manner prohibited above.
 ---------------------------------------------------------------
  

 Cite this work as:
 Gaussian 16, Revision A.03,
 M. J. Frisch, G. W. Trucks, H. B. Schlegel, G. E. Scuseria, 
 M. A. Robb, J. R. Cheeseman, G. Scalmani, V. Barone, 
 G. A. Petersson, H. Nakatsuji, X. Li, M. Caricato, A. V. Marenich, 
 J. Bloino, B. G. Janesko, R. Gomperts, B. Mennucci, H. P. Hratchian, 
 J. V. Ortiz, A. F. Izmaylov, J. L. Sonnenberg, D. Williams-Young, 
 F. Ding, F. Lipparini, F. Egidi, J. Goings, B. Peng, A. Petrone, 
 T. Henderson, D. Ranasinghe, V. G. Zakrzewski, J. Gao, N. Rega, 
 G. Zheng, W. Liang, M. Hada, M. Ehara, K. Toyota, R. Fukuda, 
 J. Hasegawa, M. Ishida, T. Nakajima, Y. Honda, O. Kitao, H. Nakai, 
 T. Vreven, K. Throssell, J. A. Montgomery, Jr., J. E. Peralta, 
 F. Ogliaro, M. J. Bearpark, J. J. Heyd, E. N. Brothers, K. N. Kudin, 
 V. N. Staroverov, T. A. Keith, R. Kobayashi, J. Normand, 
 K. Raghavachari, A. P. Rendell, J. C. Burant, S. S. Iyengar, 
 J. Tomasi, M. Cossi, J. M. Millam, M. Klene, C. Adamo, R. Cammi, 
 J. W. Ochterski, R. L. Martin, K. Morokuma, O. Farkas, 
 J. B. Foresman, and D. J. Fox, Gaussian, Inc., Wallingford CT, 2016.
 
 ******************************************
 Gaussian 16:  ES64L-G16RevA.03 25-Dec-2016
                19-May-2023 
 ******************************************
 %chk=C.NdC1CdCCdC2[N]N1CN2N.chk
 %NProcShared=20
 Will use up to   20 processors via shared memory.
 -----------------------------
 # opt freq b3lyp/6-31g(2df,p)
 -----------------------------
 1/18=20,19=15,26=3,38=1/1,3;
 2/9=110,12=2,17=6,18=5,40=1/2;
 3/5=1,6=6,7=104,11=2,25=1,30=1,71=1,74=-5/1,2,3;
 4//1;
 5/5=2,38=5/2;
 6/7=2,8=2,9=2,10=2,28=1/1;
 7//1,2,3,16;
 1/18=20,19=15,26=3/3(2);
 2/9=110/2;
 99//99;
 2/9=110/2;
 3/5=1,6=6,7=104,11=2,25=1,30=1,71=1,74=-5/1,2,3;
 4/5=5,16=3,69=1/1;
 5/5=2,38=5/2;
 7//1,2,3,16;
 1/18=20,19=15,26=3/3(-5);
 2/9=110/2;
 6/7=2,8=2,9=2,10=2,19=2,28=1/1;
 99/9=1/99;
 -------------------
 Title Card Required
 -------------------
 Symbolic Z-matrix:
 Charge =  0 Multiplicity = 2
 C                     0.58811   0.49932   1.51428 
 N                     1.05533  -0.04342  -1.05675 
 C                     2.24288  -0.10137  -0.58259 
 C                     2.83339  -1.10542   0.47427 
 C                     3.3569   -2.26688   0.00001 
 C                     3.28976  -2.45032  -1.47899 
 C                     3.72006  -1.33931  -2.14368 
 N                     4.47541  -0.40014  -1.42093 
 N                     3.40554   0.52529  -1.29131 
 C                     3.23563   0.88976  -2.70347 
 N                     2.99323  -0.53099  -3.15928 
 N                     1.5507   -0.7581   -3.48402 
 H                     1.60722   0.87195   1.666 
 H                     0.13165   1.10875   0.72712 
 H                     0.01177   0.51642   2.42045 
 H                     0.60349  -0.55745   1.22637 
 H                     0.44372  -0.76647  -0.63221 
 H                     3.19414  -0.68453   1.40741 
 H                     4.12315  -2.80022   0.56938 
 H                     2.52194  -3.14768  -1.79602 
 H                     4.21459   1.19343  -3.10926 
 H                     2.49958   1.66362  -2.93058 
 H                     1.16959   0.17785  -3.71716 
 H                     1.05031  -0.84011  -2.58241 
 
 Add virtual bond connecting atoms H17        and H16        Dist= 3.55D+00.

 GradGradGradGradGradGradGradGradGradGradGradGradGradGradGradGradGradGrad
 Berny optimization.
 Initialization pass.
                           ----------------------------
                           !    Initial Parameters    !
                           ! (Angstroms and Degrees)  !
 --------------------------                            --------------------------
 ! Name  Definition              Value          Derivative Info.                !
 --------------------------------------------------------------------------------
 ! R1    R(1,13)                 1.0957         estimate D2E/DX2                !
 ! R2    R(1,14)                 1.0952         estimate D2E/DX2                !
 ! R3    R(1,15)                 1.0741         estimate D2E/DX2                !
 ! R4    R(1,16)                 1.0954         estimate D2E/DX2                !
 ! R5    R(2,3)                  1.28           estimate D2E/DX2                !
 ! R6    R(2,17)                 1.0378         estimate D2E/DX2                !
 ! R7    R(3,4)                  1.5728         estimate D2E/DX2                !
 ! R8    R(3,9)                  1.4989         estimate D2E/DX2                !
 ! R9    R(4,5)                  1.3594         estimate D2E/DX2                !
 ! R10   R(4,18)                 1.0854         estimate D2E/DX2                !
 ! R11   R(5,6)                  1.4918         estimate D2E/DX2                !
 ! R12   R(5,19)                 1.0935         estimate D2E/DX2                !
 ! R13   R(6,7)                  1.3643         estimate D2E/DX2                !
 ! R14   R(6,20)                 1.0846         estimate D2E/DX2                !
 ! R15   R(7,8)                  1.4053         estimate D2E/DX2                !
 ! R16   R(7,11)                 1.4877         estimate D2E/DX2                !
 ! R17   R(8,9)                  1.4205         estimate D2E/DX2                !
 ! R18   R(9,10)                 1.4683         estimate D2E/DX2                !
 ! R19   R(10,11)                1.5116         estimate D2E/DX2                !
 ! R20   R(10,21)                1.1024         estimate D2E/DX2                !
 ! R21   R(10,22)                1.0919         estimate D2E/DX2                !
 ! R22   R(11,12)                1.496          estimate D2E/DX2                !
 ! R23   R(12,23)                1.0371         estimate D2E/DX2                !
 ! R24   R(12,24)                1.0344         estimate D2E/DX2                !
 ! R25   R(16,17)                1.8771         estimate D2E/DX2                !
 ! A1    A(13,1,14)            107.3347         estimate D2E/DX2                !
 ! A2    A(13,1,15)            112.1398         estimate D2E/DX2                !
 ! A3    A(13,1,16)            110.5756         estimate D2E/DX2                !
 ! A4    A(14,1,15)            111.9561         estimate D2E/DX2                !
 ! A5    A(14,1,16)            110.7192         estimate D2E/DX2                !
 ! A6    A(15,1,16)            104.1609         estimate D2E/DX2                !
 ! A7    A(3,2,17)             111.3257         estimate D2E/DX2                !
 ! A8    A(2,3,4)              128.7655         estimate D2E/DX2                !
 ! A9    A(2,3,9)              121.7055         estimate D2E/DX2                !
 ! A10   A(4,3,9)              107.0604         estimate D2E/DX2                !
 ! A11   A(3,4,5)              117.1023         estimate D2E/DX2                !
 ! A12   A(3,4,18)             117.0611         estimate D2E/DX2                !
 ! A13   A(5,4,18)             120.216          estimate D2E/DX2                !
 ! A14   A(4,5,6)              115.696          estimate D2E/DX2                !
 ! A15   A(4,5,19)             120.3255         estimate D2E/DX2                !
 ! A16   A(6,5,19)             119.1935         estimate D2E/DX2                !
 ! A17   A(5,6,7)              111.6342         estimate D2E/DX2                !
 ! A18   A(5,6,20)             113.6222         estimate D2E/DX2                !
 ! A19   A(7,6,20)             127.1903         estimate D2E/DX2                !
 ! A20   A(6,7,8)              117.5924         estimate D2E/DX2                !
 ! A21   A(6,7,11)             128.3882         estimate D2E/DX2                !
 ! A22   A(8,7,11)             104.5122         estimate D2E/DX2                !
 ! A23   A(7,8,9)               94.4443         estimate D2E/DX2                !
 ! A24   A(3,9,8)              110.7921         estimate D2E/DX2                !
 ! A25   A(3,9,10)             117.9538         estimate D2E/DX2                !
 ! A26   A(8,9,10)              99.2712         estimate D2E/DX2                !
 ! A27   A(9,10,11)             94.3162         estimate D2E/DX2                !
 ! A28   A(9,10,21)            108.6414         estimate D2E/DX2                !
 ! A29   A(9,10,22)            116.9994         estimate D2E/DX2                !
 ! A30   A(11,10,21)           106.8766         estimate D2E/DX2                !
 ! A31   A(11,10,22)           119.6902         estimate D2E/DX2                !
 ! A32   A(21,10,22)           109.077          estimate D2E/DX2                !
 ! A33   A(7,11,10)            103.0902         estimate D2E/DX2                !
 ! A34   A(7,11,12)            122.468          estimate D2E/DX2                !
 ! A35   A(10,11,12)           111.2704         estimate D2E/DX2                !
 ! A36   A(11,12,23)           105.4345         estimate D2E/DX2                !
 ! A37   A(11,12,24)           106.8155         estimate D2E/DX2                !
 ! A38   A(23,12,24)            95.1477         estimate D2E/DX2                !
 ! A39   A(1,16,17)            111.4982         estimate D2E/DX2                !
 ! A40   A(2,17,16)            106.0984         estimate D2E/DX2                !
 ! D1    D(13,1,16,17)         -98.2739         estimate D2E/DX2                !
 ! D2    D(14,1,16,17)          20.5586         estimate D2E/DX2                !
 ! D3    D(15,1,16,17)         141.0704         estimate D2E/DX2                !
 ! D4    D(17,2,3,4)             1.5241         estimate D2E/DX2                !
 ! D5    D(17,2,3,9)           161.2982         estimate D2E/DX2                !
 ! D6    D(3,2,17,16)           52.766          estimate D2E/DX2                !
 ! D7    D(2,3,4,5)             88.4706         estimate D2E/DX2                !
 ! D8    D(2,3,4,18)          -117.8549         estimate D2E/DX2                !
 ! D9    D(9,3,4,5)            -73.6108         estimate D2E/DX2                !
 ! D10   D(9,3,4,18)            80.0637         estimate D2E/DX2                !
 ! D11   D(2,3,9,8)           -129.6845         estimate D2E/DX2                !
 ! D12   D(2,3,9,10)           -16.319          estimate D2E/DX2                !
 ! D13   D(4,3,9,8)             33.9375         estimate D2E/DX2                !
 ! D14   D(4,3,9,10)           147.3029         estimate D2E/DX2                !
 ! D15   D(3,4,5,6)             -0.6781         estimate D2E/DX2                !
 ! D16   D(3,4,5,19)           154.6291         estimate D2E/DX2                !
 ! D17   D(18,4,5,6)          -153.4837         estimate D2E/DX2                !
 ! D18   D(18,4,5,19)            1.8235         estimate D2E/DX2                !
 ! D19   D(4,5,6,7)             47.6577         estimate D2E/DX2                !
 ! D20   D(4,5,6,20)          -104.3735         estimate D2E/DX2                !
 ! D21   D(19,5,6,7)          -107.9451         estimate D2E/DX2                !
 ! D22   D(19,5,6,20)          100.0237         estimate D2E/DX2                !
 ! D23   D(5,6,7,8)             17.1998         estimate D2E/DX2                !
 ! D24   D(5,6,7,11)          -123.5845         estimate D2E/DX2                !
 ! D25   D(20,6,7,8)           164.5579         estimate D2E/DX2                !
 ! D26   D(20,6,7,11)           23.7736         estimate D2E/DX2                !
 ! D27   D(6,7,8,9)           -103.9245         estimate D2E/DX2                !
 ! D28   D(11,7,8,9)            45.2852         estimate D2E/DX2                !
 ! D29   D(6,7,11,10)          133.7986         estimate D2E/DX2                !
 ! D30   D(6,7,11,12)            7.6839         estimate D2E/DX2                !
 ! D31   D(8,7,11,10)          -10.8352         estimate D2E/DX2                !
 ! D32   D(8,7,11,12)         -136.9499         estimate D2E/DX2                !
 ! D33   D(7,8,9,3)             58.9572         estimate D2E/DX2                !
 ! D34   D(7,8,9,10)           -65.7955         estimate D2E/DX2                !
 ! D35   D(3,9,10,11)          -62.2571         estimate D2E/DX2                !
 ! D36   D(3,9,10,21)         -171.6908         estimate D2E/DX2                !
 ! D37   D(3,9,10,22)           64.322          estimate D2E/DX2                !
 ! D38   D(8,9,10,11)           57.3344         estimate D2E/DX2                !
 ! D39   D(8,9,10,21)          -52.0994         estimate D2E/DX2                !
 ! D40   D(8,9,10,22)         -176.0865         estimate D2E/DX2                !
 ! D41   D(9,10,11,7)          -27.0455         estimate D2E/DX2                !
 ! D42   D(9,10,11,12)         105.9515         estimate D2E/DX2                !
 ! D43   D(21,10,11,7)          83.9244         estimate D2E/DX2                !
 ! D44   D(21,10,11,12)       -143.0787         estimate D2E/DX2                !
 ! D45   D(22,10,11,7)        -151.5942         estimate D2E/DX2                !
 ! D46   D(22,10,11,12)        -18.5972         estimate D2E/DX2                !
 ! D47   D(7,11,12,23)         146.7971         estimate D2E/DX2                !
 ! D48   D(7,11,12,24)          46.3879         estimate D2E/DX2                !
 ! D49   D(10,11,12,23)         24.4011         estimate D2E/DX2                !
 ! D50   D(10,11,12,24)        -76.008          estimate D2E/DX2                !
 ! D51   D(1,16,17,2)           42.6074         estimate D2E/DX2                !
 --------------------------------------------------------------------------------
 Trust Radius=3.00D-01 FncErr=1.00D-07 GrdErr=1.00D-06 EigMax=2.50D+02 EigMin=1.00D-04
 Number of steps in this run=    126 maximum allowed number of steps=    144.
 GradGradGradGradGradGradGradGradGradGradGradGradGradGradGradGradGradGrad

                          Input orientation:                          
 ---------------------------------------------------------------------
 Center     Atomic      Atomic             Coordinates (Angstroms)
 Number     Number       Type             X           Y           Z
 ---------------------------------------------------------------------
      1          6           0        0.588110    0.499320    1.514280
      2          7           0        1.055330   -0.043420   -1.056750
      3          6           0        2.242880   -0.101370   -0.582590
      4          6           0        2.833390   -1.105420    0.474270
      5          6           0        3.356900   -2.266880    0.000010
      6          6           0        3.289760   -2.450320   -1.478990
      7          6           0        3.720060   -1.339310   -2.143680
      8          7           0        4.475410   -0.400140   -1.420930
      9          7           0        3.405540    0.525290   -1.291310
     10          6           0        3.235630    0.889760   -2.703470
     11          7           0        2.993230   -0.530990   -3.159280
     12          7           0        1.550700   -0.758100   -3.484020
     13          1           0        1.607220    0.871950    1.666000
     14          1           0        0.131650    1.108750    0.727120
     15          1           0        0.011770    0.516420    2.420450
     16          1           0        0.603490   -0.557450    1.226370
     17          1           0        0.443720   -0.766470   -0.632210
     18          1           0        3.194140   -0.684530    1.407410
     19          1           0        4.123150   -2.800220    0.569380
     20          1           0        2.521940   -3.147680   -1.796020
     21          1           0        4.214590    1.193430   -3.109260
     22          1           0        2.499580    1.663620   -2.930580
     23          1           0        1.169590    0.177850   -3.717160
     24          1           0        1.050310   -0.840110   -2.582410
 ---------------------------------------------------------------------
                    Distance matrix (angstroms):
                    1          2          3          4          5
     1  C    0.000000
     2  N    2.668905   0.000000
     3  C    2.737874   1.280024   0.000000
     4  C    2.949253   2.575532   1.572823   0.000000
     5  C    4.196555   3.370125   2.503976   1.359402   0.000000
     6  C    4.995894   3.311213   2.723427   2.415006   1.491844
     7  C    5.154643   3.156190   2.480233   2.773905   2.363827
     8  N    4.953341   3.457864   2.403387   2.604886   2.599010
     9  N    3.976169   2.429390   1.498921   2.470596   3.076701
    10  C    4.995120   2.887251   2.542838   3.773668   4.157870
    11  N    5.356146   2.900657   2.717891   3.682147   3.623076
    12  N    5.243156   2.578333   3.054293   4.175402   4.204431
    13  H    1.095654   2.925039   2.531318   2.614136   3.960954
    14  H    1.095163   2.315788   2.763516   3.502268   4.725019
    15  H    1.074060   3.673331   3.791802   3.792034   4.979476
    16  H    1.095396   2.383490   2.483535   2.416274   3.465166
    17  H    2.496095   1.037835   1.918801   2.655129   3.337297
    18  H    2.864317   3.325299   2.281463   1.085375   2.123934
    19  H    4.927099   4.433482   3.485146   2.131871   1.093514
    20  H    5.291351   3.511965   3.290941   3.069535   2.167646
    21  H    5.916948   3.965289   3.456618   4.475948   4.730427
    22  H    4.976554   2.917376   2.948583   4.401365   4.977166
    23  H    5.273464   2.672040   3.324973   4.688614   4.957659
    24  H    4.334809   1.721156   2.442793   3.548670   3.744986
                    6          7          8          9         10
     6  C    0.000000
     7  C    1.364300   0.000000
     8  N    2.369045   1.405333   0.000000
     9  N    2.983770   2.074172   1.420508   0.000000
    10  C    3.557867   2.348785   2.201319   1.468300   0.000000
    11  N    2.568099   1.487651   2.288196   2.185186   1.511639
    12  N    3.147711   2.615423   3.596999   3.145711   2.482678
    13  H    4.874360   4.885430   4.401575   3.478478   4.663079
    14  H    5.244765   5.206839   5.075344   3.890095   4.631587
    15  H    5.895116   6.166557   5.959896   5.029405   6.065246
    16  H    4.256522   4.656345   4.693049   3.919505   4.946334
    17  H    3.413551   3.653367   4.124415   3.297792   3.850711
    18  H    3.385035   3.649050   3.118018   2.965037   4.402209
    19  H    2.238926   3.107641   3.137803   3.877647   5.011506
    20  H    1.084604   2.196944   3.392007   3.811324   4.199255
    21  H    4.097561   2.755300   2.336226   2.099027   1.102381
    22  H    4.433509   3.335622   3.231417   2.191749   1.091883
    23  H    4.051148   3.358945   4.066349   3.317369   2.408922
    24  H    2.970766   2.751227   3.643339   3.013032   2.789754
                   11         12         13         14         15
    11  N    0.000000
    12  N    1.495971   0.000000
    13  H    5.212734   5.402126   0.000000
    14  H    5.097204   4.820014   1.764901   0.000000
    15  H    6.412453   6.233416   1.800294   1.797941   0.000000
    16  H    4.994545   4.808871   1.801092   1.802250   1.711478
    17  H    3.597434   3.059133   3.052855   2.337010   3.339329
    18  H    4.573685   5.160658   2.237815   3.613515   3.549086
    19  H    4.508772   5.217069   4.584464   5.589007   5.597321
    20  H    2.987919   3.082652   5.383282   5.495172   6.124149
    21  H    2.113728   3.323436   5.450214   5.603158   6.978519
    22  H    2.261041   2.659210   4.748852   4.392464   6.011555
    23  H    2.034539   1.037112   5.445338   4.657845   6.255033
    24  H    2.050188   1.034416   4.614140   3.949048   5.286525
                   16         17         18         19         20
    16  H    0.000000
    17  H    1.877108   0.000000
    18  H    2.600075   3.425139   0.000000
    19  H    4.224886   4.372432   2.457946   0.000000
    20  H    4.418663   3.368028   4.096453   2.877450   0.000000
    21  H    5.907902   4.918988   4.996835   5.430469   4.840961
    22  H    5.080211   3.926118   4.981403   5.900133   4.943312
    23  H    5.029873   3.306893   5.577071   5.997236   4.071705
    24  H    3.845302   2.043686   4.531984   4.818522   2.847628
                   21         22         23         24
    21  H    0.000000
    22  H    1.787251   0.000000
    23  H    3.266951   2.143617   0.000000
    24  H    3.798095   2.913807   1.529094   0.000000
 Stoichiometry    C7H12N5(2)
 Framework group  C1[X(C7H12N5)]
 Deg. of freedom    66
 Full point group                 C1      NOp   1
 Largest Abelian subgroup         C1      NOp   1
 Largest concise Abelian subgroup C1      NOp   1
                         Standard orientation:                         
 ---------------------------------------------------------------------
 Center     Atomic      Atomic             Coordinates (Angstroms)
 Number     Number       Type             X           Y           Z
 ---------------------------------------------------------------------
      1          6           0        3.435000   -0.900059    0.104415
      2          7           0        0.881238   -1.234000   -0.595470
      3          6           0        0.775110   -0.264161    0.233150
      4          6           0        1.357181    1.192880    0.123626
      5          6           0        0.587150    2.121977   -0.502318
      6          6           0       -0.721001    1.631638   -1.025680
      7          6           0       -1.392358    0.896627   -0.092753
      8          7           0       -0.986457    1.018383    1.247166
      9          7           0       -0.306735   -0.228733    1.270031
     10          6           0       -1.455127   -1.127254    1.097523
     11          7           0       -1.897144   -0.498331   -0.204064
     12          7           0       -1.573896   -1.378747   -1.369527
     13          1           0        3.158559   -0.451132    1.064884
     14          1           0        2.994947   -1.902463    0.074053
     15          1           0        4.499055   -0.924058   -0.039865
     16          1           0        3.065602   -0.289328   -0.726515
     17          1           0        1.457096   -0.967460   -1.416718
     18          1           0        2.072771    1.496954    0.880929
     19          1           0        0.704022    3.183891   -0.268969
     20          1           0       -0.735270    1.495872   -2.101658
     21          1           0       -2.218117   -0.872629    1.851349
     22          1           0       -1.255909   -2.199983    1.139626
     23          1           0       -1.520242   -2.339659   -0.983040
     24          1           0       -0.557299   -1.289895   -1.538797
 ---------------------------------------------------------------------
 Rotational constants (GHZ):           1.3929836           0.9532408           0.7846463
 Standard basis: 6-31G(2df,p) (6D, 7F)
 There are   432 symmetry adapted cartesian basis functions of A   symmetry.
 There are   396 symmetry adapted basis functions of A   symmetry.
   396 basis functions,   612 primitive gaussians,   432 cartesian basis functions
    45 alpha electrons       44 beta electrons
       nuclear repulsion energy       755.5225204596 Hartrees.
 NAtoms=   24 NActive=   24 NUniq=   24 SFac= 1.00D+00 NAtFMM=   60 NAOKFM=F Big=F
 Integral buffers will be    131072 words long.
 Raffenetti 2 integral format.
 Two-electron integral symmetry is turned on.
 One-electron integrals computed using PRISM.
 PrsmSu:  requested number of processors reduced to:  13 ShMem   1 Linda.
 NBasis=   396 RedAO= T EigKep=  1.68D-04  NBF=   396
 NBsUse=   396 1.00D-06 EigRej= -1.00D+00 NBFU=   396
 ExpMin= 1.61D-01 ExpMax= 4.17D+03 ExpMxC= 6.27D+02 IAcc=3 IRadAn=         5 AccDes= 0.00D+00
 Harris functional with IExCor=  402 and IRadAn=       5 diagonalized for initial guess.
 HarFok:  IExCor=  402 AccDes= 0.00D+00 IRadAn=         5 IDoV= 1 UseB2=F ITyADJ=14
 ICtDFT=  3500011 ScaDFX=  1.000000  1.000000  1.000000  1.000000
 FoFCou: FMM=F IPFlag=           0 FMFlag=      100000 FMFlg1=           0
         NFxFlg=           0 DoJE=T BraDBF=F KetDBF=T FulRan=T
         wScrn=  0.000000 ICntrl=       500 IOpCl=  0 I1Cent=   200000004 NGrid=           0
         NMat0=    1 NMatS0=      1 NMatT0=    0 NMatD0=    1 NMtDS0=    0 NMtDT0=    0
 Petite list used in FoFCou.
 Initial guess <Sx>= 0.0000 <Sy>= 0.0000 <Sz>= 0.5000 <S**2>= 0.7500 S= 0.5000
 Requested convergence on RMS density matrix=1.00D-08 within 128 cycles.
 Requested convergence on MAX density matrix=1.00D-06.
 Requested convergence on             energy=1.00D-06.
 No special actions if energy rises.
 Integral accuracy reduced to 1.0D-05 until final iterations.
 Initial convergence to 1.0D-05 achieved.  Increase integral accuracy.
 SCF Done:  E(UB3LYP) =  -547.406192226     A.U. after   33 cycles
            NFock= 33  Conv=0.46D-08     -V/T= 2.0075
 <Sx>= 0.0000 <Sy>= 0.0000 <Sz>= 0.5000 <S**2>= 0.7981 S= 0.5238
 <L.S>=  0.00000000000    
 Annihilation of the first spin contaminant:
 S**2 before annihilation     0.7981,   after     0.7506

 **********************************************************************

            Population analysis using the SCF density.

 **********************************************************************

 Orbital symmetries:
 Alpha Orbitals:
       Occupied  (A) (A) (A) (A) (A) (A) (A) (A) (A) (A) (A) (A)
                 (A) (A) (A) (A) (A) (A) (A) (A) (A) (A) (A) (A)
                 (A) (A) (A) (A) (A) (A) (A) (A) (A) (A) (A) (A)
                 (A) (A) (A) (A) (A) (A) (A) (A) (A)
       Virtual   (A) (A) (A) (A) (A) (A) (A) (A) (A) (A) (A) (A)
                 (A) (A) (A) (A) (A) (A) (A) (A) (A) (A) (A) (A)
                 (A) (A) (A) (A) (A) (A) (A) (A) (A) (A) (A) (A)
                 (A) (A) (A) (A) (A) (A) (A) (A) (A) (A) (A) (A)
                 (A) (A) (A) (A) (A) (A) (A) (A) (A) (A) (A) (A)
                 (A) (A) (A) (A) (A) (A) (A) (A) (A) (A) (A) (A)
                 (A) (A) (A) (A) (A) (A) (A) (A) (A) (A) (A) (A)
                 (A) (A) (A) (A) (A) (A) (A) (A) (A) (A) (A) (A)
                 (A) (A) (A) (A) (A) (A) (A) (A) (A) (A) (A) (A)
                 (A) (A) (A) (A) (A) (A) (A) (A) (A) (A) (A) (A)
                 (A) (A) (A) (A) (A) (A) (A) (A) (A) (A) (A) (A)
                 (A) (A) (A) (A) (A) (A) (A) (A) (A) (A) (A) (A)
                 (A) (A) (A) (A) (A) (A) (A) (A) (A) (A) (A) (A)
                 (A) (A) (A) (A) (A) (A) (A) (A) (A) (A) (A) (A)
                 (A) (A) (A) (A) (A) (A) (A) (A) (A) (A) (A) (A)
                 (A) (A) (A) (A) (A) (A) (A) (A) (A) (A) (A) (A)
                 (A) (A) (A) (A) (A) (A) (A) (A) (A) (A) (A) (A)
                 (A) (A) (A) (A) (A) (A) (A) (A) (A) (A) (A) (A)
                 (A) (A) (A) (A) (A) (A) (A) (A) (A) (A) (A) (A)
                 (A) (A) (A) (A) (A) (A) (A) (A) (A) (A) (A) (A)
                 (A) (A) (A) (A) (A) (A) (A) (A) (A) (A) (A) (A)
                 (A) (A) (A) (A) (A) (A) (A) (A) (A) (A) (A) (A)
                 (A) (A) (A) (A) (A) (A) (A) (A) (A) (A) (A) (A)
                 (A) (A) (A) (A) (A) (A) (A) (A) (A) (A) (A) (A)
                 (A) (A) (A) (A) (A) (A) (A) (A) (A) (A) (A) (A)
                 (A) (A) (A) (A) (A) (A) (A) (A) (A) (A) (A) (A)
                 (A) (A) (A) (A) (A) (A) (A) (A) (A) (A) (A) (A)
                 (A) (A) (A) (A) (A) (A) (A) (A) (A) (A) (A) (A)
                 (A) (A) (A) (A) (A) (A) (A) (A) (A) (A) (A) (A)
                 (A) (A) (A)
 Beta  Orbitals:
       Occupied  (A) (A) (A) (A) (A) (A) (A) (A) (A) (A) (A) (A)
                 (A) (A) (A) (A) (A) (A) (A) (A) (A) (A) (A) (A)
                 (A) (A) (A) (A) (A) (A) (A) (A) (A) (A) (A) (A)
                 (A) (A) (A) (A) (A) (A) (A) (A)
       Virtual   (A) (A) (A) (A) (A) (A) (A) (A) (A) (A) (A) (A)
                 (A) (A) (A) (A) (A) (A) (A) (A) (A) (A) (A) (A)
                 (A) (A) (A) (A) (A) (A) (A) (A) (A) (A) (A) (A)
                 (A) (A) (A) (A) (A) (A) (A) (A) (A) (A) (A) (A)
                 (A) (A) (A) (A) (A) (A) (A) (A) (A) (A) (A) (A)
                 (A) (A) (A) (A) (A) (A) (A) (A) (A) (A) (A) (A)
                 (A) (A) (A) (A) (A) (A) (A) (A) (A) (A) (A) (A)
                 (A) (A) (A) (A) (A) (A) (A) (A) (A) (A) (A) (A)
                 (A) (A) (A) (A) (A) (A) (A) (A) (A) (A) (A) (A)
                 (A) (A) (A) (A) (A) (A) (A) (A) (A) (A) (A) (A)
                 (A) (A) (A) (A) (A) (A) (A) (A) (A) (A) (A) (A)
                 (A) (A) (A) (A) (A) (A) (A) (A) (A) (A) (A) (A)
                 (A) (A) (A) (A) (A) (A) (A) (A) (A) (A) (A) (A)
                 (A) (A) (A) (A) (A) (A) (A) (A) (A) (A) (A) (A)
                 (A) (A) (A) (A) (A) (A) (A) (A) (A) (A) (A) (A)
                 (A) (A) (A) (A) (A) (A) (A) (A) (A) (A) (A) (A)
                 (A) (A) (A) (A) (A) (A) (A) (A) (A) (A) (A) (A)
                 (A) (A) (A) (A) (A) (A) (A) (A) (A) (A) (A) (A)
                 (A) (A) (A) (A) (A) (A) (A) (A) (A) (A) (A) (A)
                 (A) (A) (A) (A) (A) (A) (A) (A) (A) (A) (A) (A)
                 (A) (A) (A) (A) (A) (A) (A) (A) (A) (A) (A) (A)
                 (A) (A) (A) (A) (A) (A) (A) (A) (A) (A) (A) (A)
                 (A) (A) (A) (A) (A) (A) (A) (A) (A) (A) (A) (A)
                 (A) (A) (A) (A) (A) (A) (A) (A) (A) (A) (A) (A)
                 (A) (A) (A) (A) (A) (A) (A) (A) (A) (A) (A) (A)
                 (A) (A) (A) (A) (A) (A) (A) (A) (A) (A) (A) (A)
                 (A) (A) (A) (A) (A) (A) (A) (A) (A) (A) (A) (A)
                 (A) (A) (A) (A) (A) (A) (A) (A) (A) (A) (A) (A)
                 (A) (A) (A) (A) (A) (A) (A) (A) (A) (A) (A) (A)
                 (A) (A) (A) (A)
 The electronic state is 2-A.
 Alpha  occ. eigenvalues --  -14.37671 -14.37102 -14.36716 -14.33192 -14.32979
 Alpha  occ. eigenvalues --  -10.28919 -10.26135 -10.25907 -10.22221 -10.22095
 Alpha  occ. eigenvalues --  -10.20913 -10.16980  -1.06093  -0.92860  -0.92590
 Alpha  occ. eigenvalues --   -0.84739  -0.79241  -0.78131  -0.71184  -0.69735
 Alpha  occ. eigenvalues --   -0.68817  -0.60619  -0.56851  -0.55248  -0.51641
 Alpha  occ. eigenvalues --   -0.50952  -0.48400  -0.47322  -0.46432  -0.45122
 Alpha  occ. eigenvalues --   -0.43899  -0.42204  -0.41412  -0.39420  -0.38852
 Alpha  occ. eigenvalues --   -0.38417  -0.38263  -0.32203  -0.30927  -0.30861
 Alpha  occ. eigenvalues --   -0.29236  -0.26767  -0.26078  -0.23384  -0.18491
 Alpha virt. eigenvalues --   -0.05310  -0.02966  -0.00077   0.06929   0.08482
 Alpha virt. eigenvalues --    0.10349   0.10979   0.11669   0.12840   0.13609
 Alpha virt. eigenvalues --    0.14816   0.16449   0.16909   0.17345   0.17650
 Alpha virt. eigenvalues --    0.18339   0.20142   0.21394   0.22412   0.24539
 Alpha virt. eigenvalues --    0.25910   0.28447   0.29485   0.33911   0.34739
 Alpha virt. eigenvalues --    0.38656   0.39440   0.41603   0.43123   0.44619
 Alpha virt. eigenvalues --    0.44706   0.45719   0.48156   0.48226   0.48819
 Alpha virt. eigenvalues --    0.50079   0.50984   0.51638   0.52925   0.53468
 Alpha virt. eigenvalues --    0.54636   0.55517   0.57009   0.58628   0.59012
 Alpha virt. eigenvalues --    0.59911   0.60721   0.62167   0.62437   0.64236
 Alpha virt. eigenvalues --    0.64865   0.66159   0.67822   0.69620   0.70434
 Alpha virt. eigenvalues --    0.71684   0.72605   0.73822   0.75080   0.75952
 Alpha virt. eigenvalues --    0.76326   0.77210   0.77859   0.78187   0.78843
 Alpha virt. eigenvalues --    0.80075   0.81286   0.81728   0.83274   0.84642
 Alpha virt. eigenvalues --    0.86208   0.86303   0.87150   0.87984   0.91594
 Alpha virt. eigenvalues --    0.91962   0.93069   0.94847   0.96447   0.97133
 Alpha virt. eigenvalues --    0.97932   0.99065   0.99350   1.02899   1.04846
 Alpha virt. eigenvalues --    1.08655   1.09606   1.10669   1.14746   1.15525
 Alpha virt. eigenvalues --    1.16271   1.20570   1.21384   1.25205   1.26084
 Alpha virt. eigenvalues --    1.28492   1.29946   1.31390   1.34133   1.34776
 Alpha virt. eigenvalues --    1.37665   1.39264   1.40191   1.41875   1.43071
 Alpha virt. eigenvalues --    1.44712   1.45801   1.47082   1.49360   1.50414
 Alpha virt. eigenvalues --    1.50998   1.52600   1.55093   1.58259   1.59335
 Alpha virt. eigenvalues --    1.61703   1.62080   1.64234   1.65479   1.67292
 Alpha virt. eigenvalues --    1.69103   1.71585   1.72558   1.73408   1.73664
 Alpha virt. eigenvalues --    1.75821   1.77132   1.78136   1.79345   1.82608
 Alpha virt. eigenvalues --    1.83121   1.83557   1.86949   1.87427   1.89688
 Alpha virt. eigenvalues --    1.91466   1.93100   1.94249   1.95812   1.97563
 Alpha virt. eigenvalues --    2.00014   2.02458   2.03309   2.05840   2.07799
 Alpha virt. eigenvalues --    2.10619   2.12806   2.14556   2.17958   2.20666
 Alpha virt. eigenvalues --    2.23832   2.31864   2.33840   2.35509   2.37427
 Alpha virt. eigenvalues --    2.38588   2.41565   2.42258   2.46619   2.49281
 Alpha virt. eigenvalues --    2.51551   2.52766   2.56191   2.60325   2.63299
 Alpha virt. eigenvalues --    2.64522   2.70053   2.71038   2.72619   2.76216
 Alpha virt. eigenvalues --    2.77774   2.78808   2.81019   2.83404   2.83841
 Alpha virt. eigenvalues --    2.84283   2.86140   2.86371   2.87781   2.88616
 Alpha virt. eigenvalues --    2.89883   2.91527   2.93574   2.96146   2.97281
 Alpha virt. eigenvalues --    2.98107   2.98645   3.00851   3.03060   3.03877
 Alpha virt. eigenvalues --    3.06139   3.06908   3.07253   3.09314   3.13260
 Alpha virt. eigenvalues --    3.14681   3.16308   3.18166   3.19014   3.21172
 Alpha virt. eigenvalues --    3.21961   3.25326   3.27917   3.29146   3.31080
 Alpha virt. eigenvalues --    3.31544   3.33825   3.35621   3.38673   3.39231
 Alpha virt. eigenvalues --    3.41598   3.42541   3.43833   3.46307   3.47948
 Alpha virt. eigenvalues --    3.54152   3.55206   3.57832   3.59483   3.61684
 Alpha virt. eigenvalues --    3.64062   3.66227   3.66510   3.67636   3.69179
 Alpha virt. eigenvalues --    3.70048   3.72639   3.73960   3.76618   3.79647
 Alpha virt. eigenvalues --    3.80709   3.82950   3.83885   3.88363   3.89806
 Alpha virt. eigenvalues --    3.91068   3.94242   3.96110   3.97902   3.98166
 Alpha virt. eigenvalues --    3.99118   4.01427   4.03764   4.06664   4.07917
 Alpha virt. eigenvalues --    4.09664   4.11345   4.13754   4.15358   4.16938
 Alpha virt. eigenvalues --    4.19974   4.21290   4.24081   4.25455   4.27601
 Alpha virt. eigenvalues --    4.30719   4.32605   4.32722   4.33459   4.35512
 Alpha virt. eigenvalues --    4.37500   4.38300   4.40124   4.41205   4.42271
 Alpha virt. eigenvalues --    4.42505   4.44633   4.45761   4.45903   4.48399
 Alpha virt. eigenvalues --    4.50546   4.52027   4.52262   4.54971   4.55713
 Alpha virt. eigenvalues --    4.58479   4.59361   4.60907   4.62273   4.63485
 Alpha virt. eigenvalues --    4.64988   4.66675   4.69643   4.70079   4.70331
 Alpha virt. eigenvalues --    4.72152   4.73632   4.74455   4.76059   4.77168
 Alpha virt. eigenvalues --    4.77880   4.78514   4.81924   4.83362   4.84058
 Alpha virt. eigenvalues --    4.86503   4.86893   4.89907   4.91607   4.93290
 Alpha virt. eigenvalues --    4.96197   4.96930   5.01267   5.01535   5.02514
 Alpha virt. eigenvalues --    5.04751   5.05655   5.09926   5.12737   5.14280
 Alpha virt. eigenvalues --    5.16005   5.19862   5.23780   5.24496   5.27474
 Alpha virt. eigenvalues --    5.28267   5.29787   5.32931   5.36034   5.40643
 Alpha virt. eigenvalues --    5.42539   5.44362   5.47468   5.51000   5.52487
 Alpha virt. eigenvalues --    5.55619   5.59015   5.64769   5.69733   5.71501
 Alpha virt. eigenvalues --    5.79229   5.81858   6.08711   6.26729   8.97332
 Alpha virt. eigenvalues --   10.19575  11.03833  11.18860  11.24390  11.27930
 Alpha virt. eigenvalues --   11.33936  11.40110  11.47379  11.50355  11.64982
 Alpha virt. eigenvalues --   11.93340  12.18775  15.88237  17.17504  18.68033
 Alpha virt. eigenvalues --   25.33355
  Beta  occ. eigenvalues --  -14.37174 -14.36637 -14.36191 -14.33187 -14.32991
  Beta  occ. eigenvalues --  -10.28853 -10.26472 -10.25866 -10.22176 -10.22031
  Beta  occ. eigenvalues --  -10.20396 -10.16979  -1.05026  -0.92544  -0.92233
  Beta  occ. eigenvalues --   -0.84227  -0.78856  -0.77282  -0.70690  -0.69269
  Beta  occ. eigenvalues --   -0.68289  -0.60429  -0.56458  -0.54791  -0.50908
  Beta  occ. eigenvalues --   -0.50713  -0.48093  -0.47208  -0.46128  -0.44690
  Beta  occ. eigenvalues --   -0.43816  -0.41957  -0.41327  -0.39405  -0.38758
  Beta  occ. eigenvalues --   -0.38213  -0.37737  -0.31913  -0.30691  -0.28997
  Beta  occ. eigenvalues --   -0.28796  -0.25815  -0.23161  -0.18221
  Beta virt. eigenvalues --   -0.12347  -0.04668  -0.02743   0.00652   0.07013
  Beta virt. eigenvalues --    0.08584   0.10522   0.11176   0.11997   0.12956
  Beta virt. eigenvalues --    0.13673   0.15114   0.16539   0.17127   0.17559
  Beta virt. eigenvalues --    0.17771   0.18623   0.20293   0.21471   0.22639
  Beta virt. eigenvalues --    0.24876   0.26203   0.28798   0.29651   0.34126
  Beta virt. eigenvalues --    0.34940   0.38919   0.39854   0.41825   0.43351
  Beta virt. eigenvalues --    0.44801   0.45074   0.46006   0.48361   0.48663
  Beta virt. eigenvalues --    0.49166   0.50957   0.51189   0.52215   0.53272
  Beta virt. eigenvalues --    0.53783   0.54733   0.55769   0.57108   0.58820
  Beta virt. eigenvalues --    0.59121   0.60182   0.61033   0.62433   0.62812
  Beta virt. eigenvalues --    0.64619   0.65052   0.66453   0.68112   0.69923
  Beta virt. eigenvalues --    0.70623   0.71860   0.72935   0.74165   0.75333
  Beta virt. eigenvalues --    0.76139   0.76520   0.77331   0.78031   0.78537
  Beta virt. eigenvalues --    0.79029   0.80476   0.81816   0.81882   0.83402
  Beta virt. eigenvalues --    0.84971   0.86325   0.86597   0.88005   0.88246
  Beta virt. eigenvalues --    0.91843   0.92196   0.93238   0.95194   0.96652
  Beta virt. eigenvalues --    0.97380   0.98148   0.99281   0.99659   1.03153
  Beta virt. eigenvalues --    1.05029   1.08850   1.09820   1.10936   1.15054
  Beta virt. eigenvalues --    1.15989   1.16784   1.20847   1.21998   1.25349
  Beta virt. eigenvalues --    1.26660   1.29241   1.30371   1.31817   1.34392
  Beta virt. eigenvalues --    1.34871   1.38156   1.39449   1.40396   1.42183
  Beta virt. eigenvalues --    1.43785   1.45021   1.46003   1.47316   1.49736
  Beta virt. eigenvalues --    1.50637   1.51261   1.53004   1.55243   1.58601
  Beta virt. eigenvalues --    1.59828   1.61880   1.62370   1.64318   1.65853
  Beta virt. eigenvalues --    1.67629   1.69410   1.71817   1.72695   1.73591
  Beta virt. eigenvalues --    1.74055   1.75917   1.77398   1.78288   1.79490
  Beta virt. eigenvalues --    1.82991   1.83282   1.83849   1.87140   1.87686
  Beta virt. eigenvalues --    1.89902   1.91604   1.93228   1.94333   1.96061
  Beta virt. eigenvalues --    1.97834   2.00155   2.02509   2.03536   2.05896
  Beta virt. eigenvalues --    2.08141   2.10875   2.13019   2.14887   2.18116
  Beta virt. eigenvalues --    2.20792   2.24044   2.32069   2.33935   2.35772
  Beta virt. eigenvalues --    2.37533   2.38698   2.41734   2.42580   2.46697
  Beta virt. eigenvalues --    2.49515   2.51614   2.52884   2.56369   2.60414
  Beta virt. eigenvalues --    2.63390   2.64631   2.70254   2.71228   2.72834
  Beta virt. eigenvalues --    2.76535   2.77871   2.78961   2.81305   2.83447
  Beta virt. eigenvalues --    2.83933   2.84464   2.86352   2.86486   2.87900
  Beta virt. eigenvalues --    2.88809   2.90037   2.91723   2.93771   2.96282
  Beta virt. eigenvalues --    2.97474   2.98318   2.98947   3.01106   3.03409
  Beta virt. eigenvalues --    3.04014   3.06294   3.06943   3.07617   3.09398
  Beta virt. eigenvalues --    3.13516   3.15015   3.16593   3.18284   3.19501
  Beta virt. eigenvalues --    3.21383   3.22279   3.25460   3.28337   3.29422
  Beta virt. eigenvalues --    3.31503   3.31955   3.34021   3.36127   3.39063
  Beta virt. eigenvalues --    3.39758   3.42148   3.42868   3.44209   3.46649
  Beta virt. eigenvalues --    3.48326   3.54647   3.55579   3.58469   3.59889
  Beta virt. eigenvalues --    3.62689   3.64277   3.66615   3.66642   3.68879
  Beta virt. eigenvalues --    3.69538   3.70193   3.73185   3.74757   3.76767
  Beta virt. eigenvalues --    3.79874   3.81104   3.83858   3.84606   3.88741
  Beta virt. eigenvalues --    3.89978   3.91349   3.94723   3.96484   3.98252
  Beta virt. eigenvalues --    3.98365   3.99674   4.01575   4.04412   4.07170
  Beta virt. eigenvalues --    4.08372   4.10012   4.12359   4.14118   4.15795
  Beta virt. eigenvalues --    4.17400   4.20582   4.21803   4.24756   4.25918
  Beta virt. eigenvalues --    4.27904   4.30853   4.33055   4.33453   4.33701
  Beta virt. eigenvalues --    4.36103   4.38620   4.38801   4.40541   4.41513
  Beta virt. eigenvalues --    4.42659   4.43657   4.45152   4.46248   4.46277
  Beta virt. eigenvalues --    4.49720   4.51422   4.52192   4.52984   4.55561
  Beta virt. eigenvalues --    4.56126   4.59031   4.59721   4.61212   4.62739
  Beta virt. eigenvalues --    4.63854   4.65364   4.66963   4.70074   4.70354
  Beta virt. eigenvalues --    4.70854   4.72371   4.73959   4.74819   4.76204
  Beta virt. eigenvalues --    4.77345   4.78231   4.79386   4.82421   4.83980
  Beta virt. eigenvalues --    4.84269   4.87099   4.87236   4.90547   4.92316
  Beta virt. eigenvalues --    4.93663   4.96486   4.97292   5.01743   5.02217
  Beta virt. eigenvalues --    5.02796   5.05118   5.05926   5.10434   5.12841
  Beta virt. eigenvalues --    5.14408   5.16246   5.20189   5.24169   5.24672
  Beta virt. eigenvalues --    5.27750   5.28496   5.30331   5.33144   5.36562
  Beta virt. eigenvalues --    5.40854   5.42587   5.44619   5.47811   5.51144
  Beta virt. eigenvalues --    5.52925   5.55702   5.59110   5.65053   5.69977
  Beta virt. eigenvalues --    5.71642   5.79325   5.82079   6.09164   6.27139
  Beta virt. eigenvalues --    8.97350  10.19817  11.03964  11.19104  11.25143
  Beta virt. eigenvalues --   11.28083  11.35051  11.40767  11.47420  11.50470
  Beta virt. eigenvalues --   11.65463  11.93331  12.19036  15.88472  17.17531
  Beta virt. eigenvalues --   18.68092  25.33585
          Condensed to atoms (all electrons):
               1          2          3          4          5          6
     1  C    5.018999  -0.025432  -0.005147  -0.010137   0.000761  -0.000053
     2  N   -0.025432   6.660404   0.610559  -0.053062  -0.006099   0.000426
     3  C   -0.005147   0.610559   4.701426   0.369679  -0.004965  -0.019563
     4  C   -0.010137  -0.053062   0.369679   4.924278   0.674945  -0.035733
     5  C    0.000761  -0.006099  -0.004965   0.674945   4.841290   0.357347
     6  C   -0.000053   0.000426  -0.019563  -0.035733   0.357347   5.091035
     7  C    0.000030   0.002239  -0.007560  -0.001559  -0.016314   0.547061
     8  N    0.000009   0.001526  -0.061623  -0.011713  -0.025864  -0.025773
     9  N    0.000243  -0.038030   0.359300  -0.062095   0.000980  -0.008427
    10  C   -0.000007  -0.005687  -0.043446   0.006675   0.001730   0.004681
    11  N   -0.000002   0.007164  -0.008451   0.001327   0.002648  -0.052480
    12  N    0.000005  -0.064620  -0.007138  -0.000743   0.000054  -0.004652
    13  H    0.393077  -0.000929   0.000318  -0.000234   0.000479   0.000010
    14  H    0.391058  -0.000429   0.001258   0.001142  -0.000049   0.000007
    15  H    0.369915   0.001872   0.000614   0.000061  -0.000032   0.000001
    16  H    0.390628  -0.007957  -0.003785   0.005167   0.001724  -0.000086
    17  H   -0.003048   0.340204  -0.075391  -0.010720   0.000299   0.001581
    18  H   -0.002061   0.003622  -0.040788   0.357755  -0.037564   0.007139
    19  H    0.000007  -0.000109   0.003036  -0.042468   0.362823  -0.037994
    20  H    0.000006   0.000179  -0.000393  -0.000969  -0.052418   0.365263
    21  H    0.000000   0.000004   0.004347  -0.000184  -0.000019  -0.000248
    22  H   -0.000000   0.002351  -0.000714   0.000089   0.000012  -0.000059
    23  H   -0.000000   0.006160   0.002259   0.000017   0.000011  -0.000205
    24  H    0.000022   0.032258  -0.005461   0.001058  -0.000717   0.008886
               7          8          9         10         11         12
     1  C    0.000030   0.000009   0.000243  -0.000007  -0.000002   0.000005
     2  N    0.002239   0.001526  -0.038030  -0.005687   0.007164  -0.064620
     3  C   -0.007560  -0.061623   0.359300  -0.043446  -0.008451  -0.007138
     4  C   -0.001559  -0.011713  -0.062095   0.006675   0.001327  -0.000743
     5  C   -0.016314  -0.025864   0.000980   0.001730   0.002648   0.000054
     6  C    0.547061  -0.025773  -0.008427   0.004681  -0.052480  -0.004652
     7  C    4.694309   0.384131  -0.160425  -0.069525   0.456955  -0.045162
     8  N    0.384131   6.762958   0.308629  -0.084529  -0.063464   0.004190
     9  N   -0.160425   0.308629   6.482033   0.348855  -0.128026   0.011306
    10  C   -0.069525  -0.084529   0.348855   5.018907   0.325422  -0.071729
    11  N    0.456955  -0.063464  -0.128026   0.325422   6.401550   0.298880
    12  N   -0.045162   0.004190   0.011306  -0.071729   0.298880   6.688157
    13  H    0.000023  -0.000024   0.000539  -0.000004   0.000004  -0.000002
    14  H    0.000002  -0.000001  -0.000304   0.000023  -0.000004  -0.000017
    15  H   -0.000000   0.000000  -0.000012  -0.000000  -0.000000   0.000000
    16  H    0.000010   0.000009   0.000348  -0.000009   0.000001   0.000005
    17  H   -0.000089  -0.000372   0.006375  -0.000571   0.000049   0.001478
    18  H    0.001167   0.000124   0.000890  -0.000266  -0.000022  -0.000007
    19  H   -0.001404   0.002730  -0.000338   0.000036  -0.000130  -0.000007
    20  H   -0.023867   0.004307  -0.000645  -0.000049  -0.006042   0.001449
    21  H   -0.001928   0.001713  -0.020705   0.359210  -0.025557   0.003932
    22  H    0.001958   0.004153  -0.015269   0.371643  -0.019602  -0.004609
    23  H    0.004302  -0.000295  -0.000254  -0.010265  -0.033416   0.335926
    24  H   -0.004480   0.000875  -0.001126   0.006469  -0.047027   0.322200
              13         14         15         16         17         18
     1  C    0.393077   0.391058   0.369915   0.390628  -0.003048  -0.002061
     2  N   -0.000929  -0.000429   0.001872  -0.007957   0.340204   0.003622
     3  C    0.000318   0.001258   0.000614  -0.003785  -0.075391  -0.040788
     4  C   -0.000234   0.001142   0.000061   0.005167  -0.010720   0.357755
     5  C    0.000479  -0.000049  -0.000032   0.001724   0.000299  -0.037564
     6  C    0.000010   0.000007   0.000001  -0.000086   0.001581   0.007139
     7  C    0.000023   0.000002  -0.000000   0.000010  -0.000089   0.001167
     8  N   -0.000024  -0.000001   0.000000   0.000009  -0.000372   0.000124
     9  N    0.000539  -0.000304  -0.000012   0.000348   0.006375   0.000890
    10  C   -0.000004   0.000023  -0.000000  -0.000009  -0.000571  -0.000266
    11  N    0.000004  -0.000004  -0.000000   0.000001   0.000049  -0.000022
    12  N   -0.000002  -0.000017   0.000000   0.000005   0.001478  -0.000007
    13  H    0.553373  -0.027658  -0.024484  -0.032116  -0.000142   0.001501
    14  H   -0.027658   0.536759  -0.024517  -0.028715  -0.002755  -0.000031
    15  H   -0.024484  -0.024517   0.599556  -0.033493   0.000154   0.000049
    16  H   -0.032116  -0.028715  -0.033493   0.579942   0.006198  -0.001059
    17  H   -0.000142  -0.002755   0.000154   0.006198   0.489429   0.000627
    18  H    0.001501  -0.000031   0.000049  -0.001059   0.000627   0.577980
    19  H   -0.000006   0.000001  -0.000000   0.000002  -0.000046  -0.005690
    20  H   -0.000000  -0.000001  -0.000000  -0.000014  -0.000160  -0.000149
    21  H    0.000000   0.000000  -0.000000   0.000000   0.000010   0.000003
    22  H   -0.000000   0.000007   0.000000  -0.000001  -0.000072  -0.000001
    23  H    0.000000   0.000003  -0.000000   0.000001  -0.000211   0.000000
    24  H    0.000006   0.000043  -0.000001  -0.000043  -0.001097   0.000017
              19         20         21         22         23         24
     1  C    0.000007   0.000006   0.000000  -0.000000  -0.000000   0.000022
     2  N   -0.000109   0.000179   0.000004   0.002351   0.006160   0.032258
     3  C    0.003036  -0.000393   0.004347  -0.000714   0.002259  -0.005461
     4  C   -0.042468  -0.000969  -0.000184   0.000089   0.000017   0.001058
     5  C    0.362823  -0.052418  -0.000019   0.000012   0.000011  -0.000717
     6  C   -0.037994   0.365263  -0.000248  -0.000059  -0.000205   0.008886
     7  C   -0.001404  -0.023867  -0.001928   0.001958   0.004302  -0.004480
     8  N    0.002730   0.004307   0.001713   0.004153  -0.000295   0.000875
     9  N   -0.000338  -0.000645  -0.020705  -0.015269  -0.000254  -0.001126
    10  C    0.000036  -0.000049   0.359210   0.371643  -0.010265   0.006469
    11  N   -0.000130  -0.006042  -0.025557  -0.019602  -0.033416  -0.047027
    12  N   -0.000007   0.001449   0.003932  -0.004609   0.335926   0.322200
    13  H   -0.000006  -0.000000   0.000000  -0.000000   0.000000   0.000006
    14  H    0.000001  -0.000001   0.000000   0.000007   0.000003   0.000043
    15  H   -0.000000  -0.000000  -0.000000   0.000000  -0.000000  -0.000001
    16  H    0.000002  -0.000014   0.000000  -0.000001   0.000001  -0.000043
    17  H   -0.000046  -0.000160   0.000010  -0.000072  -0.000211  -0.001097
    18  H   -0.005690  -0.000149   0.000003  -0.000001   0.000000   0.000017
    19  H    0.588912   0.003635  -0.000002  -0.000000   0.000000   0.000026
    20  H    0.003635   0.578884  -0.000020  -0.000005  -0.000072   0.001960
    21  H   -0.000002  -0.000020   0.567871  -0.038344   0.000416  -0.000509
    22  H   -0.000000  -0.000005  -0.038344   0.543469   0.004202   0.000849
    23  H    0.000000  -0.000072   0.000416   0.004202   0.506117  -0.050003
    24  H    0.000026   0.001960  -0.000509   0.000849  -0.050003   0.488899
          Atomic-Atomic Spin Densities.
               1          2          3          4          5          6
     1  C    0.001777   0.000356   0.000098  -0.001311   0.000005   0.000041
     2  N    0.000356  -0.000174   0.000983  -0.000729  -0.000028  -0.000877
     3  C    0.000098   0.000983   0.035305  -0.001777   0.001154   0.003329
     4  C   -0.001311  -0.000729  -0.001777   0.118950   0.004309  -0.012317
     5  C    0.000005  -0.000028   0.001154   0.004309  -0.052462  -0.000374
     6  C    0.000041  -0.000877   0.003329  -0.012317  -0.000374   0.419576
     7  C    0.000000   0.000831   0.002333   0.001015   0.002873  -0.019129
     8  N   -0.000008  -0.000186  -0.007909  -0.004656  -0.006443  -0.019985
     9  N   -0.000007   0.000015  -0.001384  -0.000621  -0.001215  -0.000910
    10  C   -0.000002   0.000158  -0.005645  -0.000033  -0.000107   0.000039
    11  N   -0.000003   0.001988  -0.003667   0.000143   0.000235  -0.025914
    12  N    0.000002  -0.000770   0.000196  -0.000036  -0.000091   0.002168
    13  H    0.000010   0.000059   0.000208  -0.000383   0.000008   0.000010
    14  H   -0.000155   0.000059  -0.000140   0.000112  -0.000001  -0.000004
    15  H    0.000105  -0.000010   0.000007  -0.000014  -0.000000   0.000000
    16  H   -0.000345  -0.000181  -0.000210   0.001539  -0.000010  -0.000094
    17  H    0.000503  -0.000961  -0.000311  -0.001734  -0.000186   0.001020
    18  H    0.000168   0.000084   0.001273  -0.004672   0.000934   0.001032
    19  H    0.000002   0.000006   0.000065  -0.002322   0.004011  -0.001293
    20  H   -0.000000   0.000056  -0.000009   0.000057   0.003397  -0.001621
    21  H   -0.000000   0.000006  -0.000165  -0.000009  -0.000002  -0.000087
    22  H    0.000002  -0.000923   0.001009  -0.000005  -0.000000   0.000192
    23  H   -0.000000   0.000280  -0.000056   0.000001   0.000003  -0.000067
    24  H    0.000019  -0.002068  -0.000244  -0.000270  -0.000009   0.003100
               7          8          9         10         11         12
     1  C    0.000000  -0.000008  -0.000007  -0.000002  -0.000003   0.000002
     2  N    0.000831  -0.000186   0.000015   0.000158   0.001988  -0.000770
     3  C    0.002333  -0.007909  -0.001384  -0.005645  -0.003667   0.000196
     4  C    0.001015  -0.004656  -0.000621  -0.000033   0.000143  -0.000036
     5  C    0.002873  -0.006443  -0.001215  -0.000107   0.000235  -0.000091
     6  C   -0.019129  -0.019985  -0.000910   0.000039  -0.025914   0.002168
     7  C   -0.192670  -0.005833   0.011476  -0.002535   0.022750   0.001333
     8  N   -0.005833   0.816525  -0.005713  -0.018562  -0.018883   0.000458
     9  N    0.011476  -0.005713  -0.035494   0.006878  -0.002042   0.000231
    10  C   -0.002535  -0.018562   0.006878   0.021734   0.009134  -0.000471
    11  N    0.022750  -0.018883  -0.002042   0.009134   0.064144  -0.001548
    12  N    0.001333   0.000458   0.000231  -0.000471  -0.001548  -0.004474
    13  H    0.000000  -0.000012  -0.000015  -0.000003  -0.000001   0.000000
    14  H   -0.000001   0.000001   0.000006   0.000003   0.000002  -0.000001
    15  H   -0.000000  -0.000000  -0.000000  -0.000000  -0.000000  -0.000000
    16  H    0.000002   0.000011  -0.000001   0.000002   0.000005  -0.000003
    17  H   -0.000063  -0.000055  -0.000008  -0.000031  -0.000292   0.000144
    18  H   -0.000309  -0.001399  -0.000319  -0.000023  -0.000036   0.000002
    19  H   -0.000857  -0.001344   0.000001   0.000001  -0.000026   0.000001
    20  H    0.000963   0.000005   0.000027   0.000037   0.000215   0.000166
    21  H   -0.001084  -0.003298   0.000058   0.004734   0.002366  -0.000161
    22  H    0.000501   0.001652   0.000242  -0.005886  -0.002262   0.000650
    23  H   -0.000213  -0.000014  -0.000017   0.000217  -0.000383   0.001565
    24  H   -0.000871  -0.000007   0.000139   0.000877  -0.004667   0.002475
              13         14         15         16         17         18
     1  C    0.000010  -0.000155   0.000105  -0.000345   0.000503   0.000168
     2  N    0.000059   0.000059  -0.000010  -0.000181  -0.000961   0.000084
     3  C    0.000208  -0.000140   0.000007  -0.000210  -0.000311   0.001273
     4  C   -0.000383   0.000112  -0.000014   0.001539  -0.001734  -0.004672
     5  C    0.000008  -0.000001  -0.000000  -0.000010  -0.000186   0.000934
     6  C    0.000010  -0.000004   0.000000  -0.000094   0.001020   0.001032
     7  C    0.000000  -0.000001  -0.000000   0.000002  -0.000063  -0.000309
     8  N   -0.000012   0.000001  -0.000000   0.000011  -0.000055  -0.001399
     9  N   -0.000015   0.000006  -0.000000  -0.000001  -0.000008  -0.000319
    10  C   -0.000003   0.000003  -0.000000   0.000002  -0.000031  -0.000023
    11  N   -0.000001   0.000002  -0.000000   0.000005  -0.000292  -0.000036
    12  N    0.000000  -0.000001  -0.000000  -0.000003   0.000144   0.000002
    13  H    0.000044  -0.000118   0.000036  -0.000029   0.000039   0.000164
    14  H   -0.000118   0.000438  -0.000029   0.000186  -0.000153  -0.000020
    15  H    0.000036  -0.000029  -0.000094  -0.000070   0.000010   0.000004
    16  H   -0.000029   0.000186  -0.000070  -0.000252  -0.000482  -0.000188
    17  H    0.000039  -0.000153   0.000010  -0.000482   0.004276   0.000064
    18  H    0.000164  -0.000020   0.000004  -0.000188   0.000064   0.003677
    19  H    0.000001  -0.000000  -0.000000  -0.000007   0.000006   0.000650
    20  H    0.000000   0.000000  -0.000000   0.000000  -0.000027   0.000001
    21  H   -0.000000   0.000000   0.000000   0.000000  -0.000001  -0.000001
    22  H    0.000001  -0.000005   0.000000  -0.000001   0.000046   0.000003
    23  H   -0.000000  -0.000000  -0.000000   0.000000  -0.000018  -0.000000
    24  H    0.000002  -0.000011  -0.000000  -0.000023   0.000909   0.000007
              19         20         21         22         23         24
     1  C    0.000002  -0.000000  -0.000000   0.000002  -0.000000   0.000019
     2  N    0.000006   0.000056   0.000006  -0.000923   0.000280  -0.002068
     3  C    0.000065  -0.000009  -0.000165   0.001009  -0.000056  -0.000244
     4  C   -0.002322   0.000057  -0.000009  -0.000005   0.000001  -0.000270
     5  C    0.004011   0.003397  -0.000002  -0.000000   0.000003  -0.000009
     6  C   -0.001293  -0.001621  -0.000087   0.000192  -0.000067   0.003100
     7  C   -0.000857   0.000963  -0.001084   0.000501  -0.000213  -0.000871
     8  N   -0.001344   0.000005  -0.003298   0.001652  -0.000014  -0.000007
     9  N    0.000001   0.000027   0.000058   0.000242  -0.000017   0.000139
    10  C    0.000001   0.000037   0.004734  -0.005886   0.000217   0.000877
    11  N   -0.000026   0.000215   0.002366  -0.002262  -0.000383  -0.004667
    12  N    0.000001   0.000166  -0.000161   0.000650   0.001565   0.002475
    13  H    0.000001   0.000000  -0.000000   0.000001  -0.000000   0.000002
    14  H   -0.000000   0.000000   0.000000  -0.000005  -0.000000  -0.000011
    15  H   -0.000000  -0.000000   0.000000   0.000000  -0.000000  -0.000000
    16  H   -0.000007   0.000000   0.000000  -0.000001   0.000000  -0.000023
    17  H    0.000006  -0.000027  -0.000001   0.000046  -0.000018   0.000909
    18  H    0.000650   0.000001  -0.000001   0.000003  -0.000000   0.000007
    19  H    0.007574  -0.000175  -0.000000   0.000000  -0.000000   0.000001
    20  H   -0.000175  -0.017701   0.000001  -0.000001  -0.000003  -0.000227
    21  H   -0.000000   0.000001   0.001177  -0.001471   0.000026   0.000002
    22  H    0.000000  -0.000001  -0.001471   0.015605  -0.000242   0.000444
    23  H   -0.000000  -0.000003   0.000026  -0.000242  -0.000445  -0.001074
    24  H    0.000001  -0.000227   0.000002   0.000444  -0.001074   0.002527
 Mulliken charges and spin densities:
               1          2
     1  C   -0.518873   0.001258
     2  N   -0.466614  -0.002027
     3  C    0.231629   0.024440
     4  C   -0.112577   0.095235
     5  C   -0.101063  -0.044002
     6  C   -0.198162   0.347833
     7  C    0.240126  -0.179487
     8  N   -0.201696   0.724345
     9  N   -0.083841  -0.028675
    10  C   -0.157564   0.010516
    11  N   -0.109776   0.041257
    12  N   -0.468896   0.001838
    13  H    0.136269   0.000021
    14  H    0.154177   0.000169
    15  H    0.110316  -0.000055
    16  H    0.123244  -0.000151
    17  H    0.248274   0.002695
    18  H    0.136764   0.001098
    19  H    0.126986   0.006296
    20  H    0.129123  -0.014840
    21  H    0.150009   0.002091
    22  H    0.149945   0.009551
    23  H    0.235306  -0.000442
    24  H    0.246895   0.001033
 Sum of Mulliken charges =  -0.00000   1.00000
 Mulliken charges and spin densities with hydrogens summed into heavy atoms:
               1          2
     1  C    0.005134   0.001243
     2  N   -0.218341   0.000668
     3  C    0.231629   0.024440
     4  C    0.024187   0.096333
     5  C    0.025922  -0.037706
     6  C   -0.069039   0.332994
     7  C    0.240126  -0.179487
     8  N   -0.201696   0.724345
     9  N   -0.083841  -0.028675
    10  C    0.142389   0.022158
    11  N   -0.109776   0.041257
    12  N    0.013305   0.002430
 Electronic spatial extent (au):  <R**2>=           1739.4981
 Charge=             -0.0000 electrons
 Dipole moment (field-independent basis, Debye):
    X=              2.3470    Y=             -0.3438    Z=             -0.2381  Tot=              2.3840
 Quadrupole moment (field-independent basis, Debye-Ang):
   XX=            -75.4139   YY=            -67.5506   ZZ=            -74.2561
   XY=              3.5064   XZ=             -5.0032   YZ=             -4.2188
 Traceless Quadrupole moment (field-independent basis, Debye-Ang):
   XX=             -3.0071   YY=              4.8563   ZZ=             -1.8493
   XY=              3.5064   XZ=             -5.0032   YZ=             -4.2188
 Octapole moment (field-independent basis, Debye-Ang**2):
  XXX=             10.8021  YYY=            -10.9670  ZZZ=             -6.1105  XYY=             -4.3186
  XXY=             -1.1657  XXZ=             13.7510  XZZ=              7.6078  YZZ=             -4.3669
  YYZ=              0.5588  XYZ=             12.3231
 Hexadecapole moment (field-independent basis, Debye-Ang**3):
 XXXX=          -1262.3261 YYYY=           -660.2037 ZZZZ=           -412.8022 XXXY=              1.9208
 XXXZ=            -35.5815 YYYX=             42.4566 YYYZ=              1.1134 ZZZX=            -21.6175
 ZZZY=            -11.7372 XXYY=           -324.7302 XXZZ=           -275.9671 YYZZ=           -190.4626
 XXYZ=             -6.5763 YYXZ=             -1.4174 ZZXY=             -1.5752
 N-N= 7.555225204596D+02 E-N=-2.783911299325D+03  KE= 5.433136354336D+02
                          Isotropic Fermi Contact Couplings
        Atom                 a.u.       MegaHertz       Gauss      10(-4) cm-1
     1  C(13)              0.00007       0.08411       0.03001       0.02806
     2  N(14)              0.01650       5.33001       1.90188       1.77790
     3  C(13)              0.02989      33.60069      11.98956      11.20798
     4  C(13)              0.03625      40.75453      14.54223      13.59425
     5  C(13)             -0.01620     -18.20706      -6.49673      -6.07322
     6  C(13)              0.04984      56.02952      19.99272      18.68944
     7  C(13)             -0.06641     -74.66171     -26.64115     -24.90446
     8  N(14)              0.06960      22.48742       8.02407       7.50100
     9  N(14)             -0.01158      -3.74142      -1.33503      -1.24800
    10  C(13)              0.02312      25.99312       9.27499       8.67037
    11  N(14)             -0.05561     -17.96645      -6.41088      -5.99296
    12  N(14)             -0.01890      -6.10593      -2.17875      -2.03672
    13  H(1)              -0.00000      -0.00985      -0.00351      -0.00329
    14  H(1)               0.00008       0.36470       0.13013       0.12165
    15  H(1)              -0.00001      -0.05275      -0.01882      -0.01760
    16  H(1)               0.00002       0.09847       0.03514       0.03285
    17  H(1)               0.00142       6.32491       2.25688       2.10976
    18  H(1)               0.00088       3.95297       1.41052       1.31857
    19  H(1)               0.00437      19.52252       6.96612       6.51201
    20  H(1)              -0.00576     -25.75704      -9.19075      -8.59163
    21  H(1)               0.00416      18.61200       6.64123       6.20830
    22  H(1)               0.00395      17.64130       6.29485       5.88450
    23  H(1)               0.00002       0.07567       0.02700       0.02524
    24  H(1)               0.00082       3.66734       1.30860       1.22329
 --------------------------------------------------------
       Center         ----  Spin Dipole Couplings  ----
                      3XX-RR        3YY-RR        3ZZ-RR
 --------------------------------------------------------
     1   Atom        0.001229     -0.000080     -0.001149
     2   Atom       -0.004707      0.010459     -0.005752
     3   Atom       -0.004244     -0.013040      0.017285
     4   Atom       -0.004104     -0.050313      0.054418
     5   Atom        0.003869      0.009292     -0.013161
     6   Atom       -0.081884      0.252386     -0.170502
     7   Atom       -0.150783      0.026639      0.124144
     8   Atom        0.835799     -0.197831     -0.637968
     9   Atom        0.016269     -0.019685      0.003416
    10   Atom       -0.016310      0.027010     -0.010701
    11   Atom        0.039483      0.021397     -0.060880
    12   Atom       -0.013330     -0.011176      0.024506
    13   Atom        0.002553     -0.000961     -0.001592
    14   Atom        0.000661      0.000602     -0.001263
    15   Atom        0.001415     -0.000493     -0.000922
    16   Atom        0.002473     -0.000369     -0.002104
    17   Atom       -0.000948      0.001502     -0.000554
    18   Atom        0.009738     -0.008915     -0.000824
    19   Atom        0.000318      0.003065     -0.003384
    20   Atom       -0.022124     -0.006553      0.028677
    21   Atom        0.001113      0.007140     -0.008253
    22   Atom       -0.003538      0.006575     -0.003037
    23   Atom       -0.003049      0.002083      0.000965
    24   Atom       -0.003373      0.002250      0.001124
 --------------------------------------------------------
                        XY            XZ            YZ
 --------------------------------------------------------
     1   Atom       -0.002694     -0.000030     -0.001368
     2   Atom        0.012334     -0.021049      0.003222
     3   Atom       -0.011016     -0.010124     -0.006031
     4   Atom       -0.021200     -0.071328      0.031170
     5   Atom        0.005751      0.010073     -0.013575
     6   Atom       -0.233778      0.019556     -0.040877
     7   Atom        0.100296      0.008822     -0.009782
     8   Atom        1.040105     -0.564039     -0.378453
     9   Atom        0.008824      0.001674      0.018242
    10   Atom        0.015338     -0.001587      0.019841
    11   Atom        0.158945      0.005558      0.019029
    12   Atom        0.035866      0.036409      0.010706
    13   Atom       -0.002294      0.000914     -0.000705
    14   Atom       -0.001790     -0.000240      0.000216
    15   Atom       -0.001019     -0.000174     -0.000019
    16   Atom       -0.003369     -0.001574      0.000738
    17   Atom       -0.002469     -0.001704      0.002866
    18   Atom        0.003441      0.004381      0.003147
    19   Atom        0.005836      0.000973     -0.003972
    20   Atom       -0.009759      0.002446      0.004179
    21   Atom        0.009065     -0.007265     -0.004794
    22   Atom       -0.000568      0.000308     -0.001054
    23   Atom        0.000620      0.001887      0.001846
    24   Atom       -0.001007     -0.002084      0.003585
 --------------------------------------------------------


 ---------------------------------------------------------------------------------
              Anisotropic Spin Dipole Couplings in Principal Axis System
 ---------------------------------------------------------------------------------

       Atom             a.u.   MegaHertz   Gauss  10(-4) cm-1        Axes

              Baa    -0.0029    -0.392    -0.140    -0.131  0.4582  0.6993  0.5487
     1 C(13)  Bbb    -0.0006    -0.078    -0.028    -0.026 -0.4756 -0.3286  0.8160
              Bcc     0.0035     0.470     0.168     0.157  0.7510 -0.6348  0.1820
 
              Baa    -0.0294    -1.132    -0.404    -0.378  0.6999 -0.2703  0.6611
     2 N(14)  Bbb     0.0082     0.317     0.113     0.106 -0.2930  0.7355  0.6109
              Bcc     0.0211     0.815     0.291     0.272  0.6514  0.6213 -0.4356
 
              Baa    -0.0234    -3.136    -1.119    -1.046  0.5814  0.7712  0.2592
     3 C(13)  Bbb     0.0020     0.267     0.095     0.089  0.7358 -0.6343  0.2370
              Bcc     0.0214     2.869     1.024     0.957 -0.3472 -0.0529  0.9363
 
              Baa    -0.0591    -7.934    -2.831    -2.647  0.1543  0.9732 -0.1703
     4 C(13)  Bbb    -0.0519    -6.969    -2.487    -2.325  0.8257 -0.0323  0.5632
              Bcc     0.1111    14.903     5.318     4.971 -0.5427  0.2275  0.8086
 
              Baa    -0.0243    -3.261    -1.164    -1.088 -0.3800  0.4018  0.8332
     5 C(13)  Bbb     0.0085     1.143     0.408     0.381  0.9182  0.0551  0.3922
              Bcc     0.0158     2.118     0.756     0.706  0.1117  0.9141 -0.3898
 
              Baa    -0.2022   -27.132    -9.681    -9.050  0.8866  0.4601  0.0464
     6 C(13)  Bbb    -0.1742   -23.375    -8.341    -7.797 -0.0791  0.0520  0.9955
              Bcc     0.3764    50.507    18.022    16.847 -0.4557  0.8863 -0.0825
 
              Baa    -0.1964   -26.358    -9.405    -8.792  0.9108 -0.4112 -0.0376
     7 C(13)  Bbb     0.0713     9.568     3.414     3.192  0.4128  0.9054  0.0987
              Bcc     0.1251    16.790     5.991     5.601 -0.0065 -0.1054  0.9944
 
              Baa    -0.8634   -33.298   -11.882   -11.107 -0.2371  0.7331  0.6375
     8 N(14)  Bbb    -0.8159   -31.468   -11.228   -10.496  0.5299 -0.4524  0.7174
              Bcc     1.6793    64.766    23.110    21.604  0.8143  0.5079 -0.2811
 
              Baa    -0.0308    -1.186    -0.423    -0.396 -0.1479  0.8755 -0.4600
     9 N(14)  Bbb     0.0094     0.363     0.129     0.121 -0.5746  0.3025  0.7605
              Bcc     0.0214     0.824     0.294     0.275  0.8049  0.3768  0.4583
 
              Baa    -0.0267    -3.587    -1.280    -1.196  0.6991 -0.4146  0.5825
    10 C(13)  Bbb    -0.0121    -1.630    -0.582    -0.544 -0.6732 -0.1071  0.7317
              Bcc     0.0389     5.216     1.861     1.740  0.2410  0.9037  0.3540
 
              Baa    -0.1302    -5.023    -1.792    -1.675 -0.6738  0.7245 -0.1448
    11 N(14)  Bbb    -0.0606    -2.336    -0.834    -0.779 -0.1486  0.0591  0.9871
              Bcc     0.1908     7.359     2.626     2.455  0.7238  0.6867  0.0679
 
              Baa    -0.0536    -2.067    -0.737    -0.689  0.7669 -0.5783 -0.2783
    12 N(14)  Bbb    -0.0052    -0.201    -0.072    -0.067  0.3070  0.7113 -0.6323
              Bcc     0.0588     2.268     0.809     0.756  0.5636  0.3995  0.7230
 
              Baa    -0.0022    -1.184    -0.423    -0.395  0.3025  0.8218  0.4828
    13 H(1)   Bbb    -0.0017    -0.906    -0.323    -0.302 -0.3783 -0.3614  0.8522
              Bcc     0.0039     2.091     0.746     0.697  0.8749 -0.4404  0.2015
 
              Baa    -0.0013    -0.690    -0.246    -0.230  0.1325  0.0120  0.9911
    14 H(1)   Bbb    -0.0012    -0.618    -0.220    -0.206  0.6912  0.7156 -0.1010
              Bcc     0.0024     1.307     0.466     0.436  0.7104 -0.6984 -0.0866
 
              Baa    -0.0010    -0.544    -0.194    -0.181  0.3185  0.6415  0.6979
    15 H(1)   Bbb    -0.0008    -0.451    -0.161    -0.151 -0.2411 -0.6572  0.7141
              Bcc     0.0019     0.995     0.355     0.332  0.9168 -0.3957 -0.0547
 
              Baa    -0.0028    -1.500    -0.535    -0.501  0.5438  0.5614  0.6239
    16 H(1)   Bbb    -0.0023    -1.231    -0.439    -0.411 -0.2014 -0.6344  0.7463
              Bcc     0.0051     2.731     0.975     0.911  0.8147 -0.5315 -0.2319
 
              Baa    -0.0026    -1.374    -0.490    -0.458 -0.1770 -0.6354  0.7516
    17 H(1)   Bbb    -0.0024    -1.307    -0.466    -0.436  0.8759  0.2466  0.4147
              Bcc     0.0050     2.681     0.957     0.894 -0.4488  0.7317  0.5129
 
              Baa    -0.0102    -5.436    -1.940    -1.813 -0.1053  0.9565 -0.2721
    18 H(1)   Bbb    -0.0020    -1.076    -0.384    -0.359 -0.3950  0.2109  0.8942
              Bcc     0.0122     6.512     2.324     2.172  0.9126  0.2017  0.3556
 
              Baa    -0.0073    -3.891    -1.388    -1.298 -0.5014  0.5413  0.6749
    19 H(1)   Bbb    -0.0010    -0.521    -0.186    -0.174  0.6609 -0.2638  0.7026
              Bcc     0.0083     4.412     1.574     1.472  0.5584  0.7983 -0.2255
 
              Baa    -0.0271   -14.466    -5.162    -4.825  0.8953  0.4396 -0.0722
    20 H(1)   Bbb    -0.0021    -1.114    -0.397    -0.372 -0.4447  0.8916 -0.0857
              Bcc     0.0292    15.580     5.559     5.197  0.0267  0.1089  0.9937
 
              Baa    -0.0122    -6.518    -2.326    -2.174  0.4837 -0.0098  0.8752
    21 H(1)   Bbb    -0.0042    -2.240    -0.799    -0.747 -0.6460  0.6706  0.3645
              Bcc     0.0164     8.757     3.125     2.921  0.5905  0.7417 -0.3181
 
              Baa    -0.0037    -1.966    -0.702    -0.656  0.9076  0.0071 -0.4199
    22 H(1)   Bbb    -0.0030    -1.621    -0.579    -0.541  0.4159  0.1233  0.9010
              Bcc     0.0067     3.588     1.280     1.197 -0.0582  0.9923 -0.1089
 
              Baa    -0.0038    -2.027    -0.723    -0.676  0.9268  0.0200 -0.3749
    23 H(1)   Bbb    -0.0001    -0.029    -0.010    -0.010  0.2900 -0.6724  0.6810
              Bcc     0.0039     2.056     0.733     0.686  0.2384  0.7399  0.6290
 
              Baa    -0.0042    -2.253    -0.804    -0.752  0.9071 -0.0870  0.4119
    24 H(1)   Bbb    -0.0016    -0.847    -0.302    -0.283  0.3543  0.6863 -0.6352
              Bcc     0.0058     3.101     1.106     1.034 -0.2274  0.7221  0.6534
 

 ---------------------------------------------------------------------------------

 PrsmSu:  requested number of processors reduced to:  13 ShMem   1 Linda.
 Calling FoFJK, ICntrl=      2127 FMM=F ISym2X=0 I1Cent= 0 IOpClX= 1 NMat=1 NMatS=1 NMatT=0.
 ***** Axes restored to original set *****
 -------------------------------------------------------------------
 Center     Atomic                   Forces (Hartrees/Bohr)
 Number     Number              X              Y              Z
 -------------------------------------------------------------------
      1        6          -0.007190928    0.000528317    0.005518332
      2        7           0.012149535   -0.005805173    0.015315400
      3        6           0.035550251   -0.025656643   -0.019419095
      4        6           0.015490420    0.007934703   -0.026180246
      5        6           0.025330902    0.023307487   -0.000151026
      6        6          -0.012292603   -0.009895479    0.002309193
      7        6          -0.037027460    0.021496085   -0.027735736
      8        7          -0.008955242   -0.026273218    0.005943263
      9        7          -0.023612625    0.078840455    0.049730135
     10        6           0.011544502   -0.042590804    0.019034129
     11        7          -0.007390670   -0.007916992   -0.039322440
     12        7           0.005227386   -0.009378516   -0.005210259
     13        1          -0.005423451   -0.001939304    0.003993442
     14        1          -0.002423152   -0.003642620    0.007123077
     15        1          -0.005076718    0.009409846    0.013646411
     16        1           0.001808187    0.006932166    0.003219692
     17        1           0.008428263    0.020321762    0.003556898
     18        1          -0.010972006   -0.004524046    0.005231892
     19        1          -0.014164852   -0.006846138    0.007063024
     20        1           0.003628044    0.001419867   -0.014767020
     21        1          -0.003370464    0.003448491    0.006753198
     22        1          -0.006557924   -0.011994691    0.001012725
     23        1           0.014161825   -0.011814816   -0.006548997
     24        1           0.011138781   -0.005360739   -0.010115993
 -------------------------------------------------------------------
 Cartesian Forces:  Max     0.078840455 RMS     0.018471817

 GradGradGradGradGradGradGradGradGradGradGradGradGradGradGradGradGradGrad
 Berny optimization.
 FormGI is forming the generalized inverse of G from B-inverse, IUseBI=4.
 Internal  Forces:  Max     0.067344907 RMS     0.020002051
 Search for a local minimum.
 Step number   1 out of a maximum of  126
 All quantities printed in internal units (Hartrees-Bohrs-Radians)
 Mixed Optimization -- RFO/linear search
 Second derivative matrix not updated -- first step.
 ITU=  0
     Eigenvalues ---    0.00230   0.00230   0.00230   0.00528   0.00711
     Eigenvalues ---    0.00782   0.01482   0.01733   0.02255   0.02498
     Eigenvalues ---    0.02552   0.03165   0.03182   0.03279   0.03562
     Eigenvalues ---    0.04559   0.05410   0.06678   0.06744   0.06952
     Eigenvalues ---    0.08208   0.09568   0.09856   0.10352   0.11035
     Eigenvalues ---    0.13303   0.14186   0.14644   0.14995   0.16000
     Eigenvalues ---    0.16000   0.16000   0.16000   0.16000   0.16000
     Eigenvalues ---    0.16000   0.16000   0.18508   0.20595   0.21762
     Eigenvalues ---    0.22845   0.23288   0.25200   0.28504   0.29574
     Eigenvalues ---    0.30623   0.31914   0.32804   0.33420   0.34069
     Eigenvalues ---    0.34167   0.34196   0.34223   0.34410   0.34596
     Eigenvalues ---    0.35353   0.35444   0.36722   0.36925   0.39266
     Eigenvalues ---    0.41610   0.41716   0.42115   0.49078   0.51048
     Eigenvalues ---    0.73061
 RFO step:  Lambda=-1.72249951D-01 EMin= 2.30000000D-03
 Linear search not attempted -- first point.
 Maximum step size (   0.300) exceeded in Quadratic search.
    -- Step size scaled by   0.624
 Iteration  1 RMS(Cart)=  0.27821407 RMS(Int)=  0.00673860
 Iteration  2 RMS(Cart)=  0.01884370 RMS(Int)=  0.00077070
 Iteration  3 RMS(Cart)=  0.00041154 RMS(Int)=  0.00073236
 Iteration  4 RMS(Cart)=  0.00000013 RMS(Int)=  0.00073236
 Variable       Old X    -DE/DX   Delta X   Delta X   Delta X     New X
                                 (Linear)    (Quad)   (Total)
    R1        2.07049  -0.00515   0.00000  -0.00625  -0.00625   2.06423
    R2        2.06956  -0.00614   0.00000  -0.00744  -0.00744   2.06212
    R3        2.02968   0.01439   0.00000   0.01663   0.01663   2.04631
    R4        2.07000   0.01244   0.00000   0.01509   0.01509   2.08509
    R5        2.41889  -0.02034   0.00000  -0.01405  -0.01405   2.40484
    R6        1.96122  -0.00104   0.00000  -0.00110  -0.00110   1.96012
    R7        2.97220  -0.02725   0.00000  -0.03730  -0.03714   2.93507
    R8        2.83255  -0.03074   0.00000  -0.03799  -0.03903   2.79353
    R9        2.56890   0.00409   0.00000   0.00346   0.00357   2.57247
   R10        2.05106  -0.00090   0.00000  -0.00107  -0.00107   2.04999
   R11        2.81918   0.02594   0.00000   0.02994   0.02990   2.84907
   R12        2.06644  -0.00291   0.00000  -0.00351  -0.00351   2.06293
   R13        2.57815  -0.00508   0.00000  -0.00532  -0.00462   2.57353
   R14        2.04961   0.00084   0.00000   0.00099   0.00099   2.05059
[...]
    R2        2.06286   0.00000   0.00000   0.00000   0.00000   2.06286
    R3        2.06331  -0.00001   0.00000  -0.00002  -0.00002   2.06330
    R4        2.06420   0.00001   0.00000   0.00004   0.00004   2.06425
    R5        2.40559   0.01588   0.00000   0.05000   0.05000   2.45559
    R6        1.92855   0.00008   0.00000   0.00024   0.00024   1.92879
    R7        2.80931   0.00244   0.00000   0.00768   0.00768   2.81699
    R8        2.73494   0.00246   0.00000   0.00775   0.00776   2.74270
    R9        2.68735  -0.00046   0.00000  -0.00143  -0.00143   2.68591
   R10        2.05581   0.00007   0.00000   0.00022   0.00022   2.05604
   R11        2.61958   0.00055   0.00000   0.00174   0.00174   2.62132
   R12        2.05759   0.00006   0.00000   0.00018   0.00018   2.05777
   R13        2.77074   0.00011   0.00000   0.00034   0.00034   2.77108
   R14        2.04305   0.00000   0.00000   0.00001   0.00001   2.04306
   R15        2.45797  -0.00007   0.00000  -0.00022  -0.00022   2.45776
   R16        2.61211   0.00010   0.00000   0.00031   0.00031   2.61242
   R17        2.77883   0.00040   0.00000   0.00127   0.00127   2.78010
   R18        2.74663  -0.00002   0.00000  -0.00008  -0.00008   2.74655
   R19        2.85131   0.00012   0.00000   0.00037   0.00037   2.85169
   R20        2.06721  -0.00001   0.00000  -0.00004  -0.00004   2.06717
   R21        2.06042   0.00003   0.00000   0.00009   0.00009   2.06051
   R22        2.66304   0.00007   0.00000   0.00022   0.00022   2.66326
   R23        1.91767  -0.00000   0.00000  -0.00001  -0.00001   1.91767
   R24        1.92805   0.00001   0.00000   0.00002   0.00002   1.92806
   R25        4.76132   0.00003   0.00000   0.00009   0.00009   4.76141
    A1        1.90881  -0.00000   0.00000  -0.00001  -0.00001   1.90880
    A2        1.91478   0.00000   0.00000   0.00001   0.00001   1.91479
    A3        1.90527  -0.00000   0.00000  -0.00000  -0.00000   1.90527
    A4        1.91527   0.00000   0.00000   0.00001   0.00001   1.91528
    A5        1.91067   0.00001   0.00000   0.00002   0.00002   1.91068
    A6        1.90897  -0.00001   0.00000  -0.00003  -0.00003   1.90895
    A7        1.92828   0.00233   0.00000   0.00733   0.00733   1.93561
    A8        2.12783   0.00023   0.00000   0.00072   0.00072   2.12855
    A9        2.02893   0.00102   0.00000   0.00321   0.00321   2.03213
   A10        2.12520  -0.00125   0.00000  -0.00393  -0.00393   2.12127
   A11        2.32229   0.00032   0.00000   0.00102   0.00102   2.32331
   A12        1.94427  -0.00009   0.00000  -0.00029  -0.00029   1.94398
   A13        2.00126  -0.00023   0.00000  -0.00073  -0.00074   2.00052
   A14        2.20887   0.00010   0.00000   0.00032   0.00032   2.20918
   A15        2.01150  -0.00007   0.00000  -0.00021  -0.00021   2.01129
   A16        2.05988  -0.00003   0.00000  -0.00010  -0.00010   2.05978
   A17        1.87331   0.00029   0.00000   0.00091   0.00090   1.87421
   A18        2.16462  -0.00015   0.00000  -0.00048  -0.00048   2.16414
   A19        2.23298  -0.00013   0.00000  -0.00040  -0.00039   2.23259
   A20        1.99063   0.00001   0.00000   0.00004   0.00004   1.99067
   A21        2.14289   0.00014   0.00000   0.00043   0.00043   2.14331
   A22        2.01244  -0.00012   0.00000  -0.00038  -0.00038   2.01207
   A23        1.79369   0.00025   0.00000   0.00079   0.00079   1.79448
   A24        1.78811   0.00040   0.00000   0.00127   0.00127   1.78939
   A25        1.94797  -0.00002   0.00000  -0.00005  -0.00005   1.94792
   A26        1.80893  -0.00034   0.00000  -0.00107  -0.00107   1.80785
   A27        1.78904   0.00024   0.00000   0.00075   0.00075   1.78979
   A28        1.91791   0.00003   0.00000   0.00008   0.00008   1.91799
   A29        1.96130  -0.00015   0.00000  -0.00048  -0.00048   1.96082
   A30        1.91356  -0.00018   0.00000  -0.00056  -0.00056   1.91300
   A31        1.93850   0.00005   0.00000   0.00017   0.00017   1.93867
   A32        1.93810   0.00002   0.00000   0.00007   0.00007   1.93817
   A33        1.79501  -0.00005   0.00000  -0.00014  -0.00014   1.79487
   A34        2.08269   0.00004   0.00000   0.00014   0.00014   2.08283
   A35        2.15279   0.00006   0.00000   0.00018   0.00018   2.15297
   A36        1.88917   0.00001   0.00000   0.00003   0.00003   1.88920
   A37        1.92978   0.00005   0.00000   0.00016   0.00016   1.92994
   A38        1.88497  -0.00003   0.00000  -0.00009  -0.00009   1.88488
   A39        2.09159  -0.00057   0.00000  -0.00179  -0.00179   2.08980
   A40        2.39008   0.00003   0.00000   0.00009   0.00009   2.39016
    D1       -1.72460  -0.00006   0.00000  -0.00020  -0.00020  -1.72480
    D2        0.36432  -0.00006   0.00000  -0.00020  -0.00020   0.36412
    D3        2.46340  -0.00006   0.00000  -0.00019  -0.00019   2.46321
    D4        0.04083  -0.00000   0.00000  -0.00001  -0.00001   0.04082
    D5        3.13006  -0.00005   0.00000  -0.00015  -0.00015   3.12992
    D6        1.92665  -0.00008   0.00000  -0.00024  -0.00024   1.92641
    D7        2.54183  -0.00001   0.00000  -0.00004  -0.00004   2.54179
    D8       -0.39714   0.00003   0.00000   0.00010   0.00010  -0.39704
    D9       -0.54452  -0.00004   0.00000  -0.00012  -0.00012  -0.54464
   D10        2.79970   0.00001   0.00000   0.00003   0.00003   2.79972
   D11        3.06077   0.00009   0.00000   0.00027   0.00027   3.06104
   D12       -1.29693  -0.00011   0.00000  -0.00033  -0.00033  -1.29726
   D13       -0.13310   0.00009   0.00000   0.00028   0.00028  -0.13282
   D14        1.79239  -0.00010   0.00000  -0.00032  -0.00032   1.79207
   D15        0.16065   0.00015   0.00000   0.00049   0.00049   0.16114
   D16       -2.89638   0.00013   0.00000   0.00042   0.00042  -2.89595
   D17        3.09458   0.00012   0.00000   0.00039   0.00039   3.09497
   D18        0.03755   0.00010   0.00000   0.00033   0.00033   0.03787
   D19        0.00480   0.00013   0.00000   0.00042   0.00042   0.00522
   D20       -2.98056   0.00007   0.00000   0.00023   0.00023  -2.98032
   D21        3.05975   0.00015   0.00000   0.00048   0.00048   3.06023
   D22        0.07439   0.00009   0.00000   0.00029   0.00029   0.07468
   D23        0.94214  -0.00006   0.00000  -0.00018  -0.00018   0.94196
   D24       -1.63363  -0.00007   0.00000  -0.00022  -0.00022  -1.63386
   D25       -2.36371   0.00000   0.00000   0.00001   0.00001  -2.36370
   D26        1.34370  -0.00001   0.00000  -0.00003  -0.00003   1.34367
   D27       -2.14786  -0.00006   0.00000  -0.00019  -0.00018  -2.14804
   D28        0.47177   0.00004   0.00000   0.00011   0.00011   0.47188
   D29        2.44596   0.00007   0.00000   0.00022   0.00022   2.44618
   D30       -0.01129  -0.00001   0.00000  -0.00004  -0.00004  -0.01133
   D31       -0.12341   0.00002   0.00000   0.00005   0.00005  -0.12335
   D32       -2.58065  -0.00007   0.00000  -0.00021  -0.00021  -2.58086
   D33        1.40189   0.00000   0.00000   0.00001   0.00001   1.40190
   D34       -0.62642  -0.00001   0.00000  -0.00002  -0.00002  -0.62644
   D35       -1.36562  -0.00032   0.00000  -0.00099  -0.00099  -1.36662
   D36        2.88412  -0.00025   0.00000  -0.00078  -0.00078   2.88334
   D37        0.71666  -0.00018   0.00000  -0.00058  -0.00058   0.71609
   D38        0.54657  -0.00003   0.00000  -0.00010  -0.00010   0.54647
   D39       -1.48687   0.00004   0.00000   0.00012   0.00012  -1.48675
   D40        2.62885   0.00010   0.00000   0.00032   0.00032   2.62917
   D41       -0.28479  -0.00009   0.00000  -0.00028  -0.00028  -0.28507
   D42        2.13631  -0.00001   0.00000  -0.00004  -0.00004   2.13628
   D43        1.75178  -0.00001   0.00000  -0.00005  -0.00005   1.75173
   D44       -2.11031   0.00006   0.00000   0.00020   0.00020  -2.11011
   D45       -2.38296  -0.00007   0.00000  -0.00023  -0.00023  -2.38319
   D46        0.03814   0.00000   0.00000   0.00002   0.00002   0.03815
   D47       -2.61055   0.00003   0.00000   0.00009   0.00009  -2.61046
   D48        1.61118   0.00003   0.00000   0.00009   0.00009   1.61126
   D49        1.36086  -0.00003   0.00000  -0.00009  -0.00009   1.36077
   D50       -0.70059  -0.00003   0.00000  -0.00010  -0.00010  -0.70069
   D51        0.99922  -0.00005   0.00000  -0.00016  -0.00016   0.99906
         Item               Value     Threshold  Converged?
 Maximum Force            0.015883     0.000450     NO 
 RMS     Force            0.001539     0.000300     NO 
 Maximum Displacement     0.034851     0.001800     NO 
 RMS     Displacement     0.013456     0.001200     NO 
 Predicted change in Energy=-2.940151D-03
 GradGradGradGradGradGradGradGradGradGradGradGradGradGradGradGradGradGrad

                          Input orientation:                          
 ---------------------------------------------------------------------
 Center     Atomic      Atomic             Coordinates (Angstroms)
 Number     Number       Type             X           Y           Z
 ---------------------------------------------------------------------
      1          6           0       -0.149212    1.180648    3.095991
      2          7           0        1.581447    0.742005   -0.364889
      3          6           0        2.614867    0.034427   -0.711204
      4          6           0        2.785225   -1.380187   -0.273036
      5          6           0        3.352884   -2.527085   -0.891541
      6          6           0        4.081224   -2.554498   -2.071768
      7          6           0        4.166710   -1.176542   -2.565964
      8          7           0        4.637372   -0.330184   -1.697813
      9          7           0        3.564548    0.672143   -1.604460
     10          6           0        3.052238    0.751236   -2.962286
     11          7           0        3.269661   -0.650594   -3.476898
     12          7           0        2.230724   -1.464333   -3.971539
     13          1           0        0.621885    1.745942    3.622437
     14          1           0       -0.556959    1.790637    2.287729
     15          1           0       -0.946159    0.909297    3.791245
     16          1           0        0.293080    0.272798    2.679556
     17          1           0        0.966459    0.210454    0.252373
     18          1           0        2.212084   -1.588085    0.628101
     19          1           0        3.117292   -3.476781   -0.413698
     20          1           0        4.372421   -3.462397   -2.581467
     21          1           0        3.653295    1.454087   -3.546536
     22          1           0        1.996017    1.020395   -2.991850
     23          1           0        2.010103   -1.159897   -4.914108
     24          1           0        1.390884   -1.359507   -3.401744
 ---------------------------------------------------------------------
                    Distance matrix (angstroms):
                    1          2          3          4          5
     1  C    0.000000
     2  N    3.894263   0.000000
     3  C    4.842385   1.299445   0.000000
     4  C    5.149674   2.441560   1.490687   0.000000
     5  C    6.473977   3.755302   2.671804   1.421323   0.000000
     6  C    7.652035   4.475405   3.271677   2.508796   1.387143
     7  C    7.499417   3.899889   2.704588   2.684677   2.299993
     8  N    6.940790   3.502136   2.279664   2.561825   2.669524
     9  N    6.012058   2.339681   1.451373   2.567508   3.284527
    10  C    6.865595   2.984926   2.402598   3.441849   3.889185
    11  N    7.631842   3.804470   2.923537   3.321403   3.195655
    12  N    7.912648   4.277547   3.608827   3.740786   3.446023
    13  H    1.091463   4.222253   5.067712   5.443109   6.789191
    14  H    1.091619   3.564940   4.705141   5.270848   6.636065
    15  H    1.091849   4.867261   5.806750   5.973553   7.226270
    16  H    1.092352   3.338965   4.116402   4.202492   5.473068
    17  H    3.205022   1.020670   1.917476   2.472671   3.807582
    18  H    4.396827   2.610182   2.142083   1.088007   2.119542
    19  H    6.684281   4.489917   3.559427   2.127383   1.088926
    20  H    8.616065   5.511783   4.337587   3.490508   2.184059
    21  H    7.658786   3.862964   3.336596   4.416159   4.794681
    22  H    6.456741   2.674004   2.560557   3.711818   4.340160
    23  H    8.619889   4.949381   4.410958   4.710509   4.455705
    24  H    7.144568   3.697993   3.268056   3.425409   3.393198
                    6          7          8          9         10
     6  C    0.000000
     7  C    1.466390   0.000000
     8  N    2.323083   1.300588   0.000000
     9  N    3.300991   2.169038   1.471165   0.000000
    10  C    3.574872   2.261736   2.298045   1.453412   0.000000
    11  N    2.501575   1.382433   2.266812   2.311409   1.509048
    12  N    2.867393   2.409670   3.499726   3.456397   2.569479
    13  H    7.929993   7.707334   6.981368   6.093666   7.089050
    14  H    7.707020   7.394291   6.882115   5.778148   6.455177
    15  H    8.464477   8.420585   7.927288   7.036786   7.849990
    16  H    6.702143   6.679900   6.196597   5.405069   6.298589
    17  H    4.769523   4.484237   4.191792   3.226616   3.870006
    18  H    3.423000   3.767224   3.588066   3.452843   4.366825
    19  H    2.128137   3.320335   3.722991   4.339530   4.937171
    20  H    1.081143   2.295145   3.265241   4.324538   4.431998
    21  H    4.292647   2.854002   2.751328   2.095464   1.093900
    22  H    4.239634   3.117662   3.236565   2.122833   1.090377
    23  H    3.783299   3.188262   4.235035   4.089797   2.923711
    24  H    3.230289   2.904688   3.808224   3.476010   2.721848
                   11         12         13         14         15
    11  N    0.000000
    12  N    1.409338   0.000000
    13  H    7.946991   8.400161   0.000000
    14  H    7.337135   7.585805   1.781324   0.000000
    15  H    8.545893   8.717082   1.785282   1.785720   0.000000
    16  H    6.900334   7.142069   1.779688   1.783236   1.782329
    17  H    4.466945   4.716429   3.719380   2.993403   4.082904
    18  H    4.341471   4.601342   4.755052   4.673086   5.120244
    19  H    4.170581   4.182605   7.056506   6.967318   7.309641
    20  H    3.150256   3.242134   8.926463   8.694955   9.381389
    21  H    2.140492   3.274372   7.789018   7.202649   8.677258
    22  H    2.156302   2.681184   6.794370   5.914805   7.394533
    23  H    1.977739   1.014786   9.123796   8.195237   9.423599
    24  H    2.009480   1.020287   7.718438   6.788785   7.896096
                   16         17         18         19         20
    16  H    0.000000
    17  H    2.519631   0.000000
    18  H    3.369559   2.219796   0.000000
    19  H    5.621720   4.320351   2.339213   0.000000
    20  H    7.633549   5.755090   4.299003   2.504951   0.000000
    21  H    7.172915   4.816370   5.362788   5.866466   5.061651
    22  H    5.968563   3.498711   4.467090   5.303651   5.090298
    23  H    7.916092   5.446061   5.562393   5.181458   4.040206
    24  H    6.391541   3.999685   4.119012   4.048673   3.739594
                   21         22         23         24
    21  H    0.000000
    22  H    1.800649   0.000000
    23  H    3.376869   2.906707   0.000000
    24  H    3.613278   2.489605   1.646366   0.000000
 Stoichiometry    C7H12N5(2)
 Framework group  C1[X(C7H12N5)]
 Deg. of freedom    66
 Full point group                 C1      NOp   1
 Largest Abelian subgroup         C1      NOp   1
 Largest concise Abelian subgroup C1      NOp   1
                         Standard orientation:                         
 ---------------------------------------------------------------------
 Center     Atomic      Atomic             Coordinates (Angstroms)
 Number     Number       Type             X           Y           Z
 ---------------------------------------------------------------------
      1          6           0        5.570375    0.039414   -0.291858
      2          7           0        1.781860   -0.850919   -0.151375
      3          6           0        0.771229   -0.180483    0.315206
      4          6           0        0.578609    1.266997    0.015464
      5          6           0       -0.575216    2.072323   -0.185281
      6          6           0       -1.893035    1.696887    0.030514
      7          6           0       -1.880707    0.312283    0.513233
      8          7           0       -1.120826    0.119346    1.550964
      9          7           0       -0.199642   -0.931073    1.090131
     10          6           0       -1.032047   -1.766390    0.240570
     11          7           0       -2.017731   -0.775624   -0.328671
     12          7           0       -2.190755   -0.561621   -1.710879
     13          1           0        5.815573   -0.010301    0.770544
     14          1           0        5.310073   -0.958260   -0.650357
     15          1           0        6.428051    0.419761   -0.850305
     16          1           0        4.719905    0.710333   -0.432572
     17          1           0        2.402960   -0.245796   -0.689731
     18          1           0        1.517382    1.743600   -0.258973
     19          1           0       -0.387439    3.051864   -0.622316
     20          1           0       -2.746938    2.288493   -0.269026
     21          1           0       -1.563048   -2.504002    0.849327
     22          1           0       -0.460937   -2.250811   -0.551951
     23          1           0       -2.750880   -1.321905   -2.082387
     24          1           0       -1.290281   -0.569923   -2.190528
 ---------------------------------------------------------------------
 Rotational constants (GHZ):           1.5544709           0.5388558           0.4869262
 Standard basis: 6-31G(2df,p) (6D, 7F)
 There are   432 symmetry adapted cartesian basis functions of A   symmetry.
 There are   396 symmetry adapted basis functions of A   symmetry.
   396 basis functions,   612 primitive gaussians,   432 cartesian basis functions
    45 alpha electrons       44 beta electrons
       nuclear repulsion energy       709.5954435101 Hartrees.
 NAtoms=   24 NActive=   24 NUniq=   24 SFac= 1.00D+00 NAtFMM=   60 NAOKFM=F Big=F
 Integral buffers will be    131072 words long.
 Raffenetti 2 integral format.
 Two-electron integral symmetry is turned on.
 One-electron integrals computed using PRISM.
 PrsmSu:  requested number of processors reduced to:  13 ShMem   1 Linda.
 NBasis=   396 RedAO= T EigKep=  1.82D-04  NBF=   396
 NBsUse=   396 1.00D-06 EigRej= -1.00D+00 NBFU=   396
 Initial guess from the checkpoint file:  "C.NdC1CdCCdC2[N]N1CN2N.chk"
 B after Tr=     0.000000   -0.000000    0.000000
         Rot=    0.999998    0.001592    0.000445   -0.001326 Ang=   0.24 deg.
 Initial guess <Sx>= 0.0000 <Sy>= 0.0000 <Sz>= 0.5000 <S**2>= 0.7888 S= 0.5192
 ExpMin= 1.61D-01 ExpMax= 4.17D+03 ExpMxC= 6.27D+02 IAcc=2 IRadAn=         4 AccDes= 0.00D+00
 Harris functional with IExCor=  402 and IRadAn=       4 diagonalized for initial guess.
 HarFok:  IExCor=  402 AccDes= 0.00D+00 IRadAn=         4 IDoV= 1 UseB2=F ITyADJ=14
 ICtDFT=  3500011 ScaDFX=  1.000000  1.000000  1.000000  1.000000
 FoFCou: FMM=F IPFlag=           0 FMFlag=      100000 FMFlg1=           0
         NFxFlg=           0 DoJE=T BraDBF=F KetDBF=T FulRan=T
         wScrn=  0.000000 ICntrl=       500 IOpCl=  0 I1Cent=   200000004 NGrid=           0
         NMat0=    1 NMatS0=      1 NMatT0=    0 NMatD0=    1 NMtDS0=    0 NMtDT0=    0
 Petite list used in FoFCou.
 Requested convergence on RMS density matrix=1.00D-08 within 128 cycles.
 Requested convergence on MAX density matrix=1.00D-06.
 Requested convergence on             energy=1.00D-06.
 No special actions if energy rises.
 Integral accuracy reduced to 1.0D-05 until final iterations.
 Initial convergence to 1.0D-05 achieved.  Increase integral accuracy.
slurmstepd: error: *** JOB 27449629 ON lewis4-r630-hpc4-node231 CANCELLED AT 2023-05-20T15:18:17 DUE TO TIME LIMIT ***
