### Starting Gaussian ###
 Entering Gaussian System, Link 0=g16
 Initial command:
 /cluster/software/gaussian/gaussian-16-A.03/avx2/g16/l1.exe "/local/scratch/cz9n3/Gau-7893.inp" -scrdir="/local/scratch/cz9n3/"
 Entering Link 1 = /cluster/software/gaussian/gaussian-16-A.03/avx2/g16/l1.exe PID=      7894.
  
 Copyright (c) 1988,1990,1992,1993,1995,1998,2003,2009,2016,
            Gaussian, Inc.  All Rights Reserved.
  
 This is part of the Gaussian(R) 16 program.  It is based on
 the Gaussian(R) 09 system (copyright 2009, Gaussian, Inc.),
 the Gaussian(R) 03 system (copyright 2003, Gaussian, Inc.),
 the Gaussian(R) 98 system (copyright 1998, Gaussian, Inc.),
 the Gaussian(R) 94 system (copyright 1995, Gaussian, Inc.),
 the Gaussian 92(TM) system (copyright 1992, Gaussian, Inc.),
 the Gaussian 90(TM) system (copyright 1990, Gaussian, Inc.),
 the Gaussian 88(TM) system (copyright 1988, Gaussian, Inc.),
 the Gaussian 86(TM) system (copyright 1986, Carnegie Mellon
 University), and the Gaussian 82(TM) system (copyright 1983,
 Carnegie Mellon University). Gaussian is a federally registered
 trademark of Gaussian, Inc.
  
 This software contains proprietary and confidential information,
 including trade secrets, belonging to Gaussian, Inc.
  
 This software is provided under written license and may be
 used, copied, transmitted, or stored only in accord with that
 written license.
  
 The following legend is applicable only to US Government
 contracts under FAR:
  
                    RESTRICTED RIGHTS LEGEND
  
 Use, reproduction and disclosure by the US Government is
 subject to restrictions as set forth in subparagraphs (a)
 and (c) of the Commercial Computer Software - Restricted
 Rights clause in FAR 52.227-19.
  
 Gaussian, Inc.
 340 Quinnipiac St., Bldg. 40, Wallingford CT 06492
  
  
 ---------------------------------------------------------------
 Warning -- This program may not be used in any manner that
 competes with the business of Gaussian, Inc. or will provide
 assistance to any competitor of Gaussian, Inc.  The licensee
 of this program is prohibited from giving any competitor of
 Gaussian, Inc. access to this program.  By using this program,
 the user acknowledges that Gaussian, Inc. is engaged in the
 business of creating and licensing software in the field of
 computational chemistry and represents and warrants to the
 licensee that it is not a competitor of Gaussian, Inc. and that
 it will not use this program in any manner prohibited above.
 ---------------------------------------------------------------
  

 Cite this work as:
 Gaussian 16, Revision A.03,
 M. J. Frisch, G. W. Trucks, H. B. Schlegel, G. E. Scuseria, 
 M. A. Robb, J. R. Cheeseman, G. Scalmani, V. Barone, 
 G. A. Petersson, H. Nakatsuji, X. Li, M. Caricato, A. V. Marenich, 
 J. Bloino, B. G. Janesko, R. Gomperts, B. Mennucci, H. P. Hratchian, 
 J. V. Ortiz, A. F. Izmaylov, J. L. Sonnenberg, D. Williams-Young, 
 F. Ding, F. Lipparini, F. Egidi, J. Goings, B. Peng, A. Petrone, 
 T. Henderson, D. Ranasinghe, V. G. Zakrzewski, J. Gao, N. Rega, 
 G. Zheng, W. Liang, M. Hada, M. Ehara, K. Toyota, R. Fukuda, 
 J. Hasegawa, M. Ishida, T. Nakajima, Y. Honda, O. Kitao, H. Nakai, 
 T. Vreven, K. Throssell, J. A. Montgomery, Jr., J. E. Peralta, 
 F. Ogliaro, M. J. Bearpark, J. J. Heyd, E. N. Brothers, K. N. Kudin, 
 V. N. Staroverov, T. A. Keith, R. Kobayashi, J. Normand, 
 K. Raghavachari, A. P. Rendell, J. C. Burant, S. S. Iyengar, 
 J. Tomasi, M. Cossi, J. M. Millam, M. Klene, C. Adamo, R. Cammi, 
 J. W. Ochterski, R. L. Martin, K. Morokuma, O. Farkas, 
 J. B. Foresman, and D. J. Fox, Gaussian, Inc., Wallingford CT, 2016.
 
 ******************************************
 Gaussian 16:  ES64L-G16RevA.03 25-Dec-2016
                20-May-2023 
 ******************************************
 %chk=c1cc2c[nH][nH]c-2ccc2c3cc-3cc2c1.chk
 %NProcShared=20
 Will use up to   20 processors via shared memory.
 -----------------------------
 # opt freq b3lyp/6-31g(2df,p)
 -----------------------------
 1/18=20,19=15,26=3,38=1/1,3;
 2/9=110,12=2,17=6,18=5,40=1/2;
 3/5=1,6=6,7=104,11=2,25=1,30=1,71=1,74=-5/1,2,3;
 4//1;
 5/5=2,38=5/2;
 6/7=2,8=2,9=2,10=2,28=1/1;
 7//1,2,3,16;
 1/18=20,19=15,26=3/3(2);
 2/9=110/2;
 99//99;
 2/9=110/2;
 3/5=1,6=6,7=104,11=2,25=1,30=1,71=1,74=-5/1,2,3;
 4/5=5,16=3,69=1/1;
 5/5=2,38=5/2;
 7//1,2,3,16;
 1/18=20,19=15,26=3/3(-5);
 2/9=110/2;
 6/7=2,8=2,9=2,10=2,19=2,28=1/1;
 99/9=1/99;
 -------------------
 Title Card Required
 -------------------
 Symbolic Z-matrix:
 Charge =  0 Multiplicity = 1
 C                     1.78657   0.81752   0.60333 
 C                     2.49287  -0.03882  -0.19585 
 C                     3.32301  -1.05409   0.51565 
 C                     3.09674  -2.38811   0.63265 
 N                     4.01424  -2.96305   1.49295 
 N                     4.88086  -1.99879   1.91855 
 C                     4.56579  -0.76484   1.35234 
 C                     5.2047    0.43784   1.46497 
 C                     4.99842   1.6678    0.535 
 C                     4.45459   2.91294   0.60638 
 C                     4.83897   4.39724   0.36363 
 C                     4.52126   5.58589   0.7958 
 C                     4.69353   4.88149   1.89933 
 C                     3.99998   3.86263   2.51471 
 C                     3.3019    2.97062   1.47074 
 C                     2.08983   2.32652   1.1516 
 H                     0.85748   0.35361   0.9674 
 H                     3.17215   0.37425  -0.95031 
 H                     2.31635  -2.99369   0.19238 
 H                     4.22876  -3.95932   1.4412 
 H                     5.77833  -2.18349   2.35851 
 H                     6.01196   0.5355    2.19095 
 H                     4.00424   1.22917   0.5398 
 H                     4.47355   6.68422   0.66353 
 H                     4.89212   3.40802   3.04875 
 H                     1.5787    2.76216   0.25234 
 

 GradGradGradGradGradGradGradGradGradGradGradGradGradGradGradGradGradGrad
 Berny optimization.
 Initialization pass.
                           ----------------------------
                           !    Initial Parameters    !
                           ! (Angstroms and Degrees)  !
 --------------------------                            --------------------------
 ! Name  Definition              Value          Derivative Info.                !
 --------------------------------------------------------------------------------
 ! R1    R(1,2)                  1.3678         estimate D2E/DX2                !
 ! R2    R(1,16)                 1.6339         estimate D2E/DX2                !
 ! R3    R(1,17)                 1.1004         estimate D2E/DX2                !
 ! R4    R(2,3)                  1.492          estimate D2E/DX2                !
 ! R5    R(2,18)                 1.096          estimate D2E/DX2                !
 ! R6    R(3,4)                  1.3581         estimate D2E/DX2                !
 ! R7    R(3,7)                  1.5258         estimate D2E/DX2                !
 ! R8    R(4,5)                  1.3829         estimate D2E/DX2                !
 ! R9    R(4,19)                 1.0815         estimate D2E/DX2                !
 ! R10   R(5,6)                  1.3645         estimate D2E/DX2                !
 ! R11   R(5,20)                 1.0204         estimate D2E/DX2                !
 ! R12   R(6,7)                  1.3937         estimate D2E/DX2                !
 ! R13   R(6,21)                 1.0164         estimate D2E/DX2                !
 ! R14   R(7,8)                  1.3665         estimate D2E/DX2                !
 ! R15   R(8,9)                  1.5557         estimate D2E/DX2                !
 ! R16   R(8,22)                 1.0901         estimate D2E/DX2                !
 ! R17   R(9,10)                 1.3606         estimate D2E/DX2                !
 ! R18   R(9,23)                 1.0867         estimate D2E/DX2                !
 ! R19   R(10,11)                1.5524         estimate D2E/DX2                !
 ! R20   R(10,15)                1.4419         estimate D2E/DX2                !
 ! R21   R(11,12)                1.3041         estimate D2E/DX2                !
 ! R22   R(11,13)                1.6168         estimate D2E/DX2                !
 ! R23   R(12,13)                1.3205         estimate D2E/DX2                !
 ! R24   R(12,24)                1.1073         estimate D2E/DX2                !
 ! R25   R(13,14)                1.3776         estimate D2E/DX2                !
 ! R26   R(14,15)                1.5404         estimate D2E/DX2                !
 ! R27   R(14,25)                1.1348         estimate D2E/DX2                !
 ! R28   R(15,16)                1.4092         estimate D2E/DX2                !
 ! R29   R(16,26)                1.1224         estimate D2E/DX2                !
 ! A1    A(2,1,16)             132.7211         estimate D2E/DX2                !
 ! A2    A(2,1,17)             111.4288         estimate D2E/DX2                !
 ! A3    A(16,1,17)            115.7871         estimate D2E/DX2                !
 ! A4    A(1,2,3)              115.7661         estimate D2E/DX2                !
 ! A5    A(1,2,18)             119.0963         estimate D2E/DX2                !
 ! A6    A(3,2,18)             103.8797         estimate D2E/DX2                !
 ! A7    A(2,3,4)              128.0809         estimate D2E/DX2                !
 ! A8    A(2,3,7)              125.8497         estimate D2E/DX2                !
 ! A9    A(4,3,7)              105.9418         estimate D2E/DX2                !
 ! A10   A(3,4,5)              110.5743         estimate D2E/DX2                !
 ! A11   A(3,4,19)             129.4329         estimate D2E/DX2                !
 ! A12   A(5,4,19)             119.9472         estimate D2E/DX2                !
 ! A13   A(4,5,6)              108.7597         estimate D2E/DX2                !
 ! A14   A(4,5,20)             120.9193         estimate D2E/DX2                !
 ! A15   A(6,5,20)             124.9063         estimate D2E/DX2                !
 ! A16   A(5,6,7)              110.8155         estimate D2E/DX2                !
 ! A17   A(5,6,21)             124.5668         estimate D2E/DX2                !
 ! A18   A(7,6,21)             122.4343         estimate D2E/DX2                !
 ! A19   A(3,7,6)              103.8309         estimate D2E/DX2                !
 ! A20   A(3,7,8)              126.3594         estimate D2E/DX2                !
 ! A21   A(6,7,8)              129.7944         estimate D2E/DX2                !
 ! A22   A(7,8,9)              125.7724         estimate D2E/DX2                !
 ! A23   A(7,8,22)             118.6848         estimate D2E/DX2                !
 ! A24   A(9,8,22)             115.1813         estimate D2E/DX2                !
 ! A25   A(8,9,10)             138.1733         estimate D2E/DX2                !
 ! A26   A(8,9,23)              78.436          estimate D2E/DX2                !
 ! A27   A(10,9,23)             90.1995         estimate D2E/DX2                !
 ! A28   A(9,10,11)            140.161          estimate D2E/DX2                !
 ! A29   A(9,10,15)            112.8041         estimate D2E/DX2                !
 ! A30   A(11,10,15)           104.6808         estimate D2E/DX2                !
 ! A31   A(10,11,12)           139.4097         estimate D2E/DX2                !
 ! A32   A(10,11,13)            96.6368         estimate D2E/DX2                !
 ! A33   A(11,12,24)           151.0478         estimate D2E/DX2                !
 ! A34   A(13,12,24)           129.3887         estimate D2E/DX2                !
 ! A35   A(11,13,14)           104.3634         estimate D2E/DX2                !
 ! A36   A(12,13,14)           134.6012         estimate D2E/DX2                !
 ! A37   A(13,14,15)           110.713          estimate D2E/DX2                !
 ! A38   A(13,14,25)            96.3564         estimate D2E/DX2                !
 ! A39   A(15,14,25)           116.3099         estimate D2E/DX2                !
 ! A40   A(10,15,14)            93.8502         estimate D2E/DX2                !
 ! A41   A(10,15,16)           122.2453         estimate D2E/DX2                !
 ! A42   A(14,15,16)           143.8956         estimate D2E/DX2                !
 ! A43   A(1,16,15)            131.1295         estimate D2E/DX2                !
 ! A44   A(1,16,26)             90.2918         estimate D2E/DX2                !
 ! A45   A(15,16,26)           113.3123         estimate D2E/DX2                !
 ! D1    D(16,1,2,3)            96.0949         estimate D2E/DX2                !
 ! D2    D(16,1,2,18)          -28.8968         estimate D2E/DX2                !
 ! D3    D(17,1,2,3)           -80.8233         estimate D2E/DX2                !
 ! D4    D(17,1,2,18)          154.185          estimate D2E/DX2                !
 ! D5    D(2,1,16,15)          -31.4827         estimate D2E/DX2                !
 ! D6    D(2,1,16,26)           90.5128         estimate D2E/DX2                !
 ! D7    D(17,1,16,15)         145.3312         estimate D2E/DX2                !
 ! D8    D(17,1,16,26)         -92.6733         estimate D2E/DX2                !
 ! D9    D(1,2,3,4)            107.2731         estimate D2E/DX2                !
 ! D10   D(1,2,3,7)            -68.0318         estimate D2E/DX2                !
 ! D11   D(18,2,3,4)          -120.2357         estimate D2E/DX2                !
 ! D12   D(18,2,3,7)            64.4594         estimate D2E/DX2                !
 ! D13   D(2,3,4,5)           -173.3239         estimate D2E/DX2                !
 ! D14   D(2,3,4,19)             4.1754         estimate D2E/DX2                !
 ! D15   D(7,3,4,5)              2.7195         estimate D2E/DX2                !
 ! D16   D(7,3,4,19)          -179.7812         estimate D2E/DX2                !
 ! D17   D(2,3,7,6)            173.4735         estimate D2E/DX2                !
 ! D18   D(2,3,7,8)             -7.8386         estimate D2E/DX2                !
 ! D19   D(4,3,7,6)             -2.6844         estimate D2E/DX2                !
 ! D20   D(4,3,7,8)            176.0035         estimate D2E/DX2                !
 ! D21   D(3,4,5,6)             -1.735          estimate D2E/DX2                !
 ! D22   D(3,4,5,20)          -156.9488         estimate D2E/DX2                !
 ! D23   D(19,4,5,6)          -179.5061         estimate D2E/DX2                !
 ! D24   D(19,4,5,20)           25.2801         estimate D2E/DX2                !
 ! D25   D(4,5,6,7)             -0.1588         estimate D2E/DX2                !
 ! D26   D(4,5,6,21)          -163.6406         estimate D2E/DX2                !
 ! D27   D(20,5,6,7)           153.8293         estimate D2E/DX2                !
 ! D28   D(20,5,6,21)           -9.6526         estimate D2E/DX2                !
 ! D29   D(5,6,7,3)              1.7216         estimate D2E/DX2                !
 ! D30   D(5,6,7,8)           -176.9032         estimate D2E/DX2                !
 ! D31   D(21,6,7,3)           165.6165         estimate D2E/DX2                !
 ! D32   D(21,6,7,8)           -13.0082         estimate D2E/DX2                !
 ! D33   D(3,7,8,9)            -14.5357         estimate D2E/DX2                !
 ! D34   D(3,7,8,22)           172.7211         estimate D2E/DX2                !
 ! D35   D(6,7,8,9)            163.806          estimate D2E/DX2                !
 ! D36   D(6,7,8,22)            -8.9372         estimate D2E/DX2                !
 ! D37   D(7,8,9,10)           110.2503         estimate D2E/DX2                !
 ! D38   D(7,8,9,23)            33.1536         estimate D2E/DX2                !
 ! D39   D(22,8,9,10)          -76.7833         estimate D2E/DX2                !
 ! D40   D(22,8,9,23)         -153.88           estimate D2E/DX2                !
 ! D41   D(8,9,10,11)          124.8985         estimate D2E/DX2                !
 ! D42   D(8,9,10,15)          -34.0211         estimate D2E/DX2                !
 ! D43   D(23,9,10,11)        -162.3615         estimate D2E/DX2                !
 ! D44   D(23,9,10,15)          38.7189         estimate D2E/DX2                !
 ! D45   D(9,10,11,12)        -151.3589         estimate D2E/DX2                !
 ! D46   D(9,10,11,13)        -115.2197         estimate D2E/DX2                !
 ! D47   D(15,10,11,12)          8.5965         estimate D2E/DX2                !
 ! D48   D(15,10,11,13)         44.7356         estimate D2E/DX2                !
 ! D49   D(9,10,15,14)         112.9291         estimate D2E/DX2                !
 ! D50   D(9,10,15,16)         -67.9125         estimate D2E/DX2                !
 ! D51   D(11,10,15,14)        -53.2908         estimate D2E/DX2                !
 ! D52   D(11,10,15,16)        125.8676         estimate D2E/DX2                !
 ! D53   D(10,11,12,24)       -157.9612         estimate D2E/DX2                !
 ! D54   D(10,11,13,14)        -14.7948         estimate D2E/DX2                !
 ! D55   D(11,12,13,24)        164.2909         estimate D2E/DX2                !
 ! D56   D(24,12,13,14)        125.5178         estimate D2E/DX2                !
 ! D57   D(11,13,14,15)        -17.51           estimate D2E/DX2                !
 ! D58   D(11,13,14,25)        103.7491         estimate D2E/DX2                !
 ! D59   D(12,13,14,15)         31.975          estimate D2E/DX2                !
 ! D60   D(12,13,14,25)        153.2341         estimate D2E/DX2                !
 ! D61   D(13,14,15,10)         44.6084         estimate D2E/DX2                !
 ! D62   D(13,14,15,16)       -134.1836         estimate D2E/DX2                !
 ! D63   D(25,14,15,10)        -63.9943         estimate D2E/DX2                !
 ! D64   D(25,14,15,16)        117.2137         estimate D2E/DX2                !
 ! D65   D(10,15,16,1)          46.2333         estimate D2E/DX2                !
 ! D66   D(10,15,16,26)        -66.328          estimate D2E/DX2                !
 ! D67   D(14,15,16,1)        -135.1919         estimate D2E/DX2                !
 ! D68   D(14,15,16,26)        112.2469         estimate D2E/DX2                !
 --------------------------------------------------------------------------------
 Trust Radius=3.00D-01 FncErr=1.00D-07 GrdErr=1.00D-06 EigMax=2.50D+02 EigMin=1.00D-04
 Number of steps in this run=    152 maximum allowed number of steps=    156.
 GradGradGradGradGradGradGradGradGradGradGradGradGradGradGradGradGradGrad

                          Input orientation:                          
 ---------------------------------------------------------------------
 Center     Atomic      Atomic             Coordinates (Angstroms)
 Number     Number       Type             X           Y           Z
 ---------------------------------------------------------------------
      1          6           0        1.786570    0.817520    0.603330
      2          6           0        2.492870   -0.038820   -0.195850
      3          6           0        3.323010   -1.054090    0.515650
      4          6           0        3.096740   -2.388110    0.632650
      5          7           0        4.014240   -2.963050    1.492950
      6          7           0        4.880860   -1.998790    1.918550
      7          6           0        4.565790   -0.764840    1.352340
      8          6           0        5.204700    0.437840    1.464970
      9          6           0        4.998420    1.667800    0.535000
     10          6           0        4.454590    2.912940    0.606380
     11          6           0        4.838970    4.397240    0.363630
     12          6           0        4.521260    5.585890    0.795800
     13          6           0        4.693530    4.881490    1.899330
     14          6           0        3.999980    3.862630    2.514710
     15          6           0        3.301900    2.970620    1.470740
     16          6           0        2.089830    2.326520    1.151600
     17          1           0        0.857480    0.353610    0.967400
     18          1           0        3.172150    0.374250   -0.950310
     19          1           0        2.316350   -2.993690    0.192380
     20          1           0        4.228760   -3.959320    1.441200
     21          1           0        5.778330   -2.183490    2.358510
     22          1           0        6.011960    0.535500    2.190950
     23          1           0        4.004240    1.229170    0.539800
     24          1           0        4.473550    6.684220    0.663530
     25          1           0        4.892120    3.408020    3.048750
     26          1           0        1.578700    2.762160    0.252340
 ---------------------------------------------------------------------
                    Distance matrix (angstroms):
                    1          2          3          4          5
     1  C    0.000000
     2  C    1.367796   0.000000
     3  C    2.423068   1.492025   0.000000
     4  C    3.463159   2.563247   1.358122   0.000000
     5  N    4.477348   3.703746   2.253229   1.382924   0.000000
     6  N    4.385891   3.743617   2.299453   2.233426   1.364538
     7  C    3.284653   2.687191   1.525850   2.304575   2.270706
     8  C    3.545447   3.215517   2.582212   3.622464   3.603336
     9  C    3.323195   3.118409   3.196257   4.480662   4.830223
    10  C    3.392510   3.633842   4.126261   5.472255   5.958790
    11  C    4.710520   5.049340   5.660234   7.010614   7.491956
    12  C    5.500266   6.060949   6.753045   8.101886   8.592291
    13  C    5.161965   5.782917   6.246920   7.549921   7.884376
    14  C    4.221996   4.983957   5.350576   6.590125   6.901746
    15  C    2.772087   3.533947   4.136536   5.427750   5.976317
    16  C    1.633906   2.751890   3.654270   4.848805   5.639098
    17  H    1.100440   2.044909   2.874811   3.555752   4.608858
    18  H    2.128407   1.096019   2.052304   3.184664   4.220925
    19  H    3.869738   2.985488   2.209053   1.081468   2.138984
    20  H    5.429965   4.589506   3.180784   2.098553   1.020417
    21  H    5.293474   4.681732   3.271127   3.195526   2.113982
    22  H    4.522609   4.290764   3.544556   4.412970   4.088758
    23  H    2.256447   2.105521   2.382842   3.730535   4.299221
    24  H    6.453035   7.061225   7.824772   9.176259   9.693747
    25  H    4.726014   5.307027   5.365550   6.531160   6.616776
    26  H    1.986965   2.980280   4.204249   5.382784   6.344210
                    6          7          8          9         10
     6  N    0.000000
     7  C    1.393734   0.000000
     8  C    2.499555   1.366503   0.000000
     9  C    3.920703   2.602489   1.555698   0.000000
    10  C    5.101822   3.754316   2.725062   1.360595   0.000000
    11  C    6.582456   5.263007   4.125961   2.739459   1.552360
    12  C    7.675757   6.375225   5.236153   3.955645   2.680483
    13  C    6.882857   5.674201   4.493995   3.504591   2.367277
    14  C    5.957147   4.804656   3.779218   3.119842   2.179519
    15  C    5.233420   3.945263   3.167910   2.334765   1.441922
    16  C    5.204456   3.965751   3.656190   3.045325   2.496646
    17  H    4.756686   3.892386   4.376413   4.365942   4.429414
    18  H    4.096507   2.922662   3.157353   2.686016   3.242358
    19  H    3.247491   3.372426   4.662344   5.388912   6.295375
    20  H    2.120560   3.213439   4.504225   5.751352   6.926462
    21  H    1.016431   2.120188   2.828221   4.331961   5.549400
    22  H    2.788587   2.117914   1.090070   2.247562   3.253995
    23  H    3.617892   2.225227   1.709751   1.086652   1.744227
    24  H    8.782690   7.481408   6.339886   5.045441   3.771761
    25  H    5.523683   4.516310   3.380538   3.059184   2.530160
    26  H    6.028861   4.751046   4.474462   3.601667   2.901521
                   11         12         13         14         15
    11  C    0.000000
    12  C    1.304070   0.000000
    13  C    1.616795   1.320468   0.000000
    14  C    2.369991   2.489178   1.377599   0.000000
    15  C    2.371397   2.963447   2.402446   1.540413   0.000000
    16  C    3.530800   4.081904   3.723738   2.804706   1.409194
    17  H    5.706816   6.389795   6.007118   4.958094   3.616252
    18  H    4.548536   5.659522   5.545291   4.986027   3.552387
    19  H    7.811452   8.878904   8.401376   7.432157   6.178876
    20  H    8.447817   9.571475   8.864864   7.898586   6.991710
    21  H    6.940313   8.024061   7.162512   6.304165   5.786682
    22  H    4.430354   5.447483   4.550926   3.901625   3.713884
    23  H    3.280926   4.394753   3.957636   3.291717   2.095848
    24  H    2.335326   1.107294   2.196686   3.407713   3.976830
    25  H    2.862036   3.155382   1.879287   1.134805   2.282594
    26  H    3.649004   4.114299   4.111727   3.491697   2.120701
                   16         17         18         19         20
    16  C    0.000000
    17  H    2.333450   0.000000
    18  H    3.066072   3.005950   0.000000
    19  H    5.410735   3.732744   3.658026   0.000000
    20  H    6.646102   5.494668   5.061183   2.479779   0.000000
    21  H    5.949946   5.708487   4.927727   4.163394   2.529070
    22  H    4.435212   5.300832   4.237692   5.486984   4.893397
    23  H    2.289856   3.294168   1.908845   4.560945   5.270992
    24  H    4.990980   7.296912   6.641825   9.926602  10.674720
    25  H    3.552696   5.471724   5.306085   7.468288   7.569806
    26  H    1.122366   2.613921   3.112485   5.803235   7.322192
                   21         22         23         24         25
    21  H    0.000000
    22  H    2.734148   0.000000
    23  H    4.254568   2.690430   0.000000
    24  H    9.122044   6.519699   5.476599   0.000000
    25  H    5.703226   3.200193   3.439556   4.074060   0.000000
    26  H    6.821459   5.326351   2.883736   4.892013   4.383583
                   26
    26  H    0.000000
 Stoichiometry    C14H10N2
 Framework group  C1[X(C14H10N2)]
 Deg. of freedom    72
 Full point group                 C1      NOp   1
 Largest Abelian subgroup         C1      NOp   1
 Largest concise Abelian subgroup C1      NOp   1
                         Standard orientation:                         
 ---------------------------------------------------------------------
 Center     Atomic      Atomic             Coordinates (Angstroms)
 Number     Number       Type             X           Y           Z
 ---------------------------------------------------------------------
      1          6           0       -0.502159    2.096029    0.334086
      2          6           0       -1.317598    1.676640   -0.680822
      3          6           0       -2.257446    0.568515   -0.341878
      4          6           0       -3.602333    0.635433   -0.164963
      5          7           0       -4.094234   -0.576276    0.284785
      6          7           0       -3.062198   -1.465017    0.368475
      7          6           0       -1.864170   -0.871296   -0.024869
      8          6           0       -0.616240   -1.415190   -0.143949
      9          6           0        0.579753   -0.786994   -0.915420
     10          6           0        1.782744   -0.218162   -0.631761
     11          6           0        3.286982   -0.373406   -0.982462
     12          6           0        4.456170   -0.152270   -0.448892
     13          6           0        3.784636   -0.774664    0.502582
     14          6           0        2.728057   -0.437615    1.319784
     15          6           0        1.770172    0.530757    0.600352
     16          6           0        1.033863    1.723189    0.747940
     17          1           0       -1.026759    2.785673    1.012433
     18          1           0       -0.868447    1.359675   -1.629007
     19          1           0       -4.270629    1.476440   -0.290099
     20          1           0       -5.072843   -0.829308    0.144966
     21          1           0       -3.173384   -2.472794    0.440279
     22          1           0       -0.447733   -2.425060    0.230245
     23          1           0        0.069649    0.098488   -0.545922
     24          1           0        5.545718    0.022506   -0.540749
     25          1           0        2.348890   -1.495486    1.477653
     26          1           0        1.415965    2.563121    0.109022
 ---------------------------------------------------------------------
 Rotational constants (GHZ):           1.4968063           0.3255821           0.2930078
 Standard basis: 6-31G(2df,p) (6D, 7F)
 There are   546 symmetry adapted cartesian basis functions of A   symmetry.
 There are   498 symmetry adapted basis functions of A   symmetry.
   498 basis functions,   774 primitive gaussians,   546 cartesian basis functions
    54 alpha electrons       54 beta electrons
       nuclear repulsion energy       961.0720046793 Hartrees.
 NAtoms=   26 NActive=   26 NUniq=   26 SFac= 1.00D+00 NAtFMM=   60 NAOKFM=F Big=F
 Integral buffers will be    131072 words long.
 Raffenetti 2 integral format.
 Two-electron integral symmetry is turned on.
 One-electron integrals computed using PRISM.
 PrsmSu:  requested number of processors reduced to:  12 ShMem   1 Linda.
 NBasis=   498 RedAO= T EigKep=  1.80D-04  NBF=   498
 NBsUse=   498 1.00D-06 EigRej= -1.00D+00 NBFU=   498
 ExpMin= 1.61D-01 ExpMax= 4.17D+03 ExpMxC= 6.27D+02 IAcc=3 IRadAn=         5 AccDes= 0.00D+00
 Harris functional with IExCor=  402 and IRadAn=       5 diagonalized for initial guess.
 HarFok:  IExCor=  402 AccDes= 0.00D+00 IRadAn=         5 IDoV= 1 UseB2=F ITyADJ=14
 ICtDFT=  3500011 ScaDFX=  1.000000  1.000000  1.000000  1.000000
 FoFCou: FMM=F IPFlag=           0 FMFlag=      100000 FMFlg1=           0
         NFxFlg=           0 DoJE=T BraDBF=F KetDBF=T FulRan=T
         wScrn=  0.000000 ICntrl=       500 IOpCl=  0 I1Cent=   200000004 NGrid=           0
         NMat0=    1 NMatS0=      1 NMatT0=    0 NMatD0=    1 NMtDS0=    0 NMtDT0=    0
 Petite list used in FoFCou.
 Requested convergence on RMS density matrix=1.00D-08 within 128 cycles.
 Requested convergence on MAX density matrix=1.00D-06.
 Requested convergence on             energy=1.00D-06.
 No special actions if energy rises.
 Integral accuracy reduced to 1.0D-05 until final iterations.
 EnCoef did     7 forward-backward iterations
 EnCoef did     5 forward-backward iterations
 EnCoef did     6 forward-backward iterations
 EnCoef did     7 forward-backward iterations
 Initial convergence to 1.0D-05 achieved.  Increase integral accuracy.
 SCF Done:  E(RB3LYP) =  -648.263059527     A.U. after   23 cycles
            NFock= 23  Conv=0.91D-08     -V/T= 2.0078

 **********************************************************************

            Population analysis using the SCF density.

 **********************************************************************

 Orbital symmetries:
       Occupied  (A) (A) (A) (A) (A) (A) (A) (A) (A) (A) (A) (A)
                 (A) (A) (A) (A) (A) (A) (A) (A) (A) (A) (A) (A)
                 (A) (A) (A) (A) (A) (A) (A) (A) (A) (A) (A) (A)
                 (A) (A) (A) (A) (A) (A) (A) (A) (A) (A) (A) (A)
                 (A) (A) (A) (A) (A) (A)
       Virtual   (A) (A) (A) (A) (A) (A) (A) (A) (A) (A) (A) (A)
                 (A) (A) (A) (A) (A) (A) (A) (A) (A) (A) (A) (A)
                 (A) (A) (A) (A) (A) (A) (A) (A) (A) (A) (A) (A)
                 (A) (A) (A) (A) (A) (A) (A) (A) (A) (A) (A) (A)
                 (A) (A) (A) (A) (A) (A) (A) (A) (A) (A) (A) (A)
                 (A) (A) (A) (A) (A) (A) (A) (A) (A) (A) (A) (A)
                 (A) (A) (A) (A) (A) (A) (A) (A) (A) (A) (A) (A)
                 (A) (A) (A) (A) (A) (A) (A) (A) (A) (A) (A) (A)
                 (A) (A) (A) (A) (A) (A) (A) (A) (A) (A) (A) (A)
                 (A) (A) (A) (A) (A) (A) (A) (A) (A) (A) (A) (A)
                 (A) (A) (A) (A) (A) (A) (A) (A) (A) (A) (A) (A)
                 (A) (A) (A) (A) (A) (A) (A) (A) (A) (A) (A) (A)
                 (A) (A) (A) (A) (A) (A) (A) (A) (A) (A) (A) (A)
                 (A) (A) (A) (A) (A) (A) (A) (A) (A) (A) (A) (A)
                 (A) (A) (A) (A) (A) (A) (A) (A) (A) (A) (A) (A)
                 (A) (A) (A) (A) (A) (A) (A) (A) (A) (A) (A) (A)
                 (A) (A) (A) (A) (A) (A) (A) (A) (A) (A) (A) (A)
                 (A) (A) (A) (A) (A) (A) (A) (A) (A) (A) (A) (A)
                 (A) (A) (A) (A) (A) (A) (A) (A) (A) (A) (A) (A)
                 (A) (A) (A) (A) (A) (A) (A) (A) (A) (A) (A) (A)
                 (A) (A) (A) (A) (A) (A) (A) (A) (A) (A) (A) (A)
                 (A) (A) (A) (A) (A) (A) (A) (A) (A) (A) (A) (A)
                 (A) (A) (A) (A) (A) (A) (A) (A) (A) (A) (A) (A)
                 (A) (A) (A) (A) (A) (A) (A) (A) (A) (A) (A) (A)
                 (A) (A) (A) (A) (A) (A) (A) (A) (A) (A) (A) (A)
                 (A) (A) (A) (A) (A) (A) (A) (A) (A) (A) (A) (A)
                 (A) (A) (A) (A) (A) (A) (A) (A) (A) (A) (A) (A)
                 (A) (A) (A) (A) (A) (A) (A) (A) (A) (A) (A) (A)
                 (A) (A) (A) (A) (A) (A) (A) (A) (A) (A) (A) (A)
                 (A) (A) (A) (A) (A) (A) (A) (A) (A) (A) (A) (A)
                 (A) (A) (A) (A) (A) (A) (A) (A) (A) (A) (A) (A)
                 (A) (A) (A) (A) (A) (A) (A) (A) (A) (A) (A) (A)
                 (A) (A) (A) (A) (A) (A) (A) (A) (A) (A) (A) (A)
                 (A) (A) (A) (A) (A) (A) (A) (A) (A) (A) (A) (A)
                 (A) (A) (A) (A) (A) (A) (A) (A) (A) (A) (A) (A)
                 (A) (A) (A) (A) (A) (A) (A) (A) (A) (A) (A) (A)
                 (A) (A) (A) (A) (A) (A) (A) (A) (A) (A) (A) (A)
 The electronic state is 1-A.
 Alpha  occ. eigenvalues --  -14.42294 -14.42282 -10.24997 -10.24900 -10.23758
 Alpha  occ. eigenvalues --  -10.22518 -10.22313 -10.21179 -10.21122 -10.20778
 Alpha  occ. eigenvalues --  -10.20329 -10.20251 -10.19126 -10.17705 -10.16132
 Alpha  occ. eigenvalues --  -10.15494  -1.07009  -0.93735  -0.86856  -0.84629
 Alpha  occ. eigenvalues --   -0.81776  -0.76389  -0.74695  -0.70731  -0.68759
 Alpha  occ. eigenvalues --   -0.63537  -0.63156  -0.61570  -0.57719  -0.55720
 Alpha  occ. eigenvalues --   -0.53169  -0.50740  -0.49771  -0.49230  -0.48443
 Alpha  occ. eigenvalues --   -0.46758  -0.45262  -0.43272  -0.42415  -0.41639
 Alpha  occ. eigenvalues --   -0.40314  -0.39340  -0.37139  -0.36474  -0.34129
 Alpha  occ. eigenvalues --   -0.32440  -0.31598  -0.28293  -0.27104  -0.24310
 Alpha  occ. eigenvalues --   -0.18802  -0.17227  -0.15940  -0.14017
 Alpha virt. eigenvalues --   -0.07850  -0.05582  -0.04349  -0.03372   0.00350
 Alpha virt. eigenvalues --    0.00834   0.04250   0.05795   0.08095   0.08835
 Alpha virt. eigenvalues --    0.11729   0.12835   0.13055   0.14373   0.15199
 Alpha virt. eigenvalues --    0.16714   0.16990   0.17981   0.19962   0.21260
 Alpha virt. eigenvalues --    0.21318   0.23374   0.25429   0.26069   0.27449
 Alpha virt. eigenvalues --    0.29024   0.30118   0.32374   0.32853   0.35218
 Alpha virt. eigenvalues --    0.35987   0.37067   0.38180   0.39394   0.40076
 Alpha virt. eigenvalues --    0.40511   0.42443   0.42794   0.43878   0.46026
 Alpha virt. eigenvalues --    0.46464   0.47044   0.47386   0.48425   0.49373
 Alpha virt. eigenvalues --    0.49691   0.50485   0.50727   0.52848   0.53023
 Alpha virt. eigenvalues --    0.54096   0.54990   0.55879   0.56701   0.57122
 Alpha virt. eigenvalues --    0.58380   0.58734   0.59696   0.60280   0.60645
 Alpha virt. eigenvalues --    0.61141   0.62064   0.63052   0.63355   0.65518
 Alpha virt. eigenvalues --    0.65750   0.66697   0.67122   0.68310   0.68798
 Alpha virt. eigenvalues --    0.70391   0.71529   0.72057   0.72617   0.72700
 Alpha virt. eigenvalues --    0.73834   0.74562   0.74844   0.75854   0.76946
 Alpha virt. eigenvalues --    0.77297   0.77537   0.78413   0.79903   0.80410
 Alpha virt. eigenvalues --    0.80748   0.81975   0.83184   0.83993   0.84534
 Alpha virt. eigenvalues --    0.85814   0.87028   0.88551   0.89842   0.91120
 Alpha virt. eigenvalues --    0.91293   0.91988   0.92413   0.93084   0.94379
 Alpha virt. eigenvalues --    0.95889   0.97063   0.98308   1.00198   1.01477
 Alpha virt. eigenvalues --    1.03699   1.04239   1.06714   1.08527   1.09117
 Alpha virt. eigenvalues --    1.12281   1.14152   1.14999   1.16930   1.18244
 Alpha virt. eigenvalues --    1.18795   1.19810   1.21716   1.22650   1.23527
 Alpha virt. eigenvalues --    1.24820   1.24937   1.26839   1.28328   1.28839
 Alpha virt. eigenvalues --    1.29890   1.31227   1.31733   1.33177   1.33726
 Alpha virt. eigenvalues --    1.34936   1.35896   1.38469   1.40769   1.41560
 Alpha virt. eigenvalues --    1.43374   1.43765   1.44576   1.45405   1.47065
 Alpha virt. eigenvalues --    1.47705   1.49145   1.50265   1.51708   1.53089
 Alpha virt. eigenvalues --    1.54378   1.55667   1.57246   1.58427   1.59029
 Alpha virt. eigenvalues --    1.60156   1.61625   1.62846   1.64221   1.64617
 Alpha virt. eigenvalues --    1.66510   1.67491   1.68577   1.70809   1.71663
 Alpha virt. eigenvalues --    1.72088   1.73217   1.76338   1.77946   1.81164
 Alpha virt. eigenvalues --    1.81528   1.82380   1.84878   1.85813   1.86611
 Alpha virt. eigenvalues --    1.88847   1.90448   1.91421   1.92782   1.95184
 Alpha virt. eigenvalues --    1.96295   1.97101   2.00244   2.01845   2.01940
 Alpha virt. eigenvalues --    2.03392   2.04417   2.07749   2.10356   2.13126
 Alpha virt. eigenvalues --    2.14672   2.17269   2.18284   2.21495   2.23547
 Alpha virt. eigenvalues --    2.24826   2.27397   2.31871   2.33601   2.34923
 Alpha virt. eigenvalues --    2.36227   2.39477   2.39963   2.43435   2.44306
 Alpha virt. eigenvalues --    2.46243   2.47127   2.50437   2.52300   2.54702
 Alpha virt. eigenvalues --    2.56578   2.57366   2.60245   2.61308   2.64679
 Alpha virt. eigenvalues --    2.65611   2.66812   2.67927   2.69203   2.70206
 Alpha virt. eigenvalues --    2.72359   2.74523   2.76081   2.77143   2.78980
 Alpha virt. eigenvalues --    2.81882   2.83123   2.84477   2.85475   2.86101
 Alpha virt. eigenvalues --    2.89102   2.90097   2.90433   2.92871   2.93351
 Alpha virt. eigenvalues --    2.93954   2.95980   2.98242   2.98297   2.98445
 Alpha virt. eigenvalues --    3.00879   3.01131   3.02254   3.02734   3.03113
 Alpha virt. eigenvalues --    3.04573   3.05200   3.06793   3.07565   3.08405
 Alpha virt. eigenvalues --    3.10451   3.12876   3.13748   3.14847   3.15632
 Alpha virt. eigenvalues --    3.17184   3.18110   3.20352   3.21388   3.22675
 Alpha virt. eigenvalues --    3.23731   3.24205   3.24596   3.26535   3.27207
 Alpha virt. eigenvalues --    3.28265   3.30050   3.30637   3.31925   3.32803
 Alpha virt. eigenvalues --    3.34596   3.35302   3.36499   3.38208   3.38468
 Alpha virt. eigenvalues --    3.41131   3.42515   3.43897   3.44400   3.46295
 Alpha virt. eigenvalues --    3.48091   3.48347   3.49053   3.50244   3.52404
 Alpha virt. eigenvalues --    3.53234   3.54733   3.55823   3.57255   3.58524
 Alpha virt. eigenvalues --    3.59182   3.59996   3.61609   3.63129   3.63803
 Alpha virt. eigenvalues --    3.66267   3.67853   3.68479   3.69007   3.70764
 Alpha virt. eigenvalues --    3.72339   3.73236   3.75527   3.78071   3.78546
 Alpha virt. eigenvalues --    3.79432   3.81074   3.83251   3.86274   3.88733
 Alpha virt. eigenvalues --    3.89494   3.90346   3.92496   3.93814   3.94621
 Alpha virt. eigenvalues --    3.95233   3.97640   4.00495   4.03354   4.03788
 Alpha virt. eigenvalues --    4.06410   4.08035   4.10345   4.11496   4.14627
 Alpha virt. eigenvalues --    4.16717   4.19702   4.20147   4.21812   4.24155
 Alpha virt. eigenvalues --    4.25253   4.27136   4.27915   4.29513   4.32112
 Alpha virt. eigenvalues --    4.33138   4.35240   4.37053   4.37504   4.39132
 Alpha virt. eigenvalues --    4.40429   4.42998   4.43598   4.44146   4.45987
 Alpha virt. eigenvalues --    4.46205   4.47104   4.48968   4.49205   4.49951
 Alpha virt. eigenvalues --    4.51417   4.52155   4.53315   4.55231   4.55355
 Alpha virt. eigenvalues --    4.56393   4.57843   4.58786   4.60060   4.62087
 Alpha virt. eigenvalues --    4.62477   4.63451   4.64862   4.66245   4.67249
 Alpha virt. eigenvalues --    4.67711   4.69667   4.70351   4.71368   4.72282
 Alpha virt. eigenvalues --    4.74641   4.75296   4.77244   4.77988   4.78765
 Alpha virt. eigenvalues --    4.80612   4.83201   4.84275   4.85548   4.86662
 Alpha virt. eigenvalues --    4.88192   4.89558   4.91252   4.93139   4.94151
 Alpha virt. eigenvalues --    4.95410   4.98431   4.99763   5.00522   5.01853
 Alpha virt. eigenvalues --    5.03405   5.05878   5.07368   5.08622   5.09508
 Alpha virt. eigenvalues --    5.11581   5.13642   5.14815   5.17042   5.19804
 Alpha virt. eigenvalues --    5.22107   5.24169   5.24660   5.27023   5.28014
 Alpha virt. eigenvalues --    5.30029   5.30787   5.33363   5.34641   5.40206
 Alpha virt. eigenvalues --    5.41552   5.45548   5.48575   5.51288   5.53230
 Alpha virt. eigenvalues --    5.55563   5.60083   5.62274   5.64242   5.66702
 Alpha virt. eigenvalues --    5.68280   5.74633   5.74912   5.82255   5.89165
 Alpha virt. eigenvalues --    5.95937   6.02895   6.05890   6.26583   6.42183
 Alpha virt. eigenvalues --    6.75199   9.63732   9.89080  10.26243  10.67007
 Alpha virt. eigenvalues --   10.75065  10.95926  11.09496  11.22896  11.32779
 Alpha virt. eigenvalues --   11.40085  11.53839  11.66896  11.86560  12.05120
 Alpha virt. eigenvalues --   12.19131  12.48941  12.71648  20.15081
          Condensed to atoms (all electrons):
               1          2          3          4          5          6
     1  C    4.929544   0.574145  -0.042717  -0.003900  -0.000095   0.000296
     2  C    0.574145   5.286160   0.376397  -0.047009   0.003097   0.004384
     3  C   -0.042717   0.376397   4.617059   0.571028   0.005873  -0.015260
     4  C   -0.003900  -0.047009   0.571028   4.975411   0.333513  -0.085458
     5  N   -0.000095   0.003097   0.005873   0.333513   6.384955   0.317887
     6  N    0.000296   0.004384  -0.015260  -0.085458   0.317887   6.518209
     7  C    0.000287  -0.039109   0.424364   0.005531  -0.098463   0.360611
     8  C    0.000833  -0.030130  -0.033793   0.003429   0.004790  -0.054800
     9  C   -0.004458  -0.008333  -0.011299   0.000369   0.000053   0.001419
    10  C    0.002854  -0.006482   0.001163  -0.000025   0.000002  -0.000042
    11  C    0.000116  -0.000096   0.000007   0.000000  -0.000000   0.000000
    12  C   -0.000009   0.000002  -0.000000  -0.000000  -0.000000  -0.000000
    13  C   -0.000079  -0.000027   0.000002  -0.000000   0.000000  -0.000000
    14  C    0.000152   0.000159   0.000016   0.000000  -0.000000  -0.000001
    15  C   -0.023211  -0.010481   0.001452  -0.000000   0.000001   0.000013
    16  C    0.349412  -0.040744   0.007178  -0.000078   0.000006  -0.000016
    17  H    0.355735  -0.061839  -0.005581   0.001269  -0.000039   0.000000
    18  H   -0.058415   0.350632  -0.049228   0.001673   0.000004  -0.000286
    19  H    0.000220  -0.000997  -0.013464   0.358816  -0.032864   0.003760
    20  H    0.000001  -0.000190   0.001921  -0.037598   0.354059  -0.041383
    21  H   -0.000014  -0.000130   0.003649   0.005407  -0.034756   0.356515
    22  H   -0.000271  -0.000042   0.005508  -0.000363   0.000137  -0.009565
    23  H   -0.011755   0.038464  -0.003090  -0.000687   0.000157  -0.000262
    24  H    0.000000  -0.000000   0.000000  -0.000000   0.000000  -0.000000
    25  H    0.000073   0.000026  -0.000015   0.000000  -0.000000  -0.000001
    26  H   -0.040223   0.003082   0.000030  -0.000002  -0.000000   0.000000
               7          8          9         10         11         12
     1  C    0.000287   0.000833  -0.004458   0.002854   0.000116  -0.000009
     2  C   -0.039109  -0.030130  -0.008333  -0.006482  -0.000096   0.000002
     3  C    0.424364  -0.033793  -0.011299   0.001163   0.000007  -0.000000
     4  C    0.005531   0.003429   0.000369  -0.000025   0.000000  -0.000000
     5  N   -0.098463   0.004790   0.000053   0.000002  -0.000000  -0.000000
     6  N    0.360611  -0.054800   0.001419  -0.000042   0.000000  -0.000000
     7  C    4.561107   0.522203  -0.009671  -0.001571  -0.000068   0.000001
     8  C    0.522203   5.183677   0.466247  -0.044229  -0.000508   0.000116
     9  C   -0.009671   0.466247   5.311891   0.540058  -0.035453   0.002957
    10  C   -0.001571  -0.044229   0.540058   4.781813   0.427502  -0.026545
    11  C   -0.000068  -0.000508  -0.035453   0.427502   5.251620   0.487794
    12  C    0.000001   0.000116   0.002957  -0.026545   0.487794   4.879340
    13  C   -0.000016  -0.000297  -0.002251  -0.020008   0.112968   0.502006
    14  C    0.000244   0.001578  -0.027248  -0.095224  -0.108083  -0.021203
    15  C   -0.000814  -0.013379  -0.045691   0.363780  -0.048220  -0.004318
    16  C   -0.000747   0.003038  -0.043050  -0.077068  -0.007995   0.001576
    17  H   -0.000370  -0.000238   0.000136  -0.000358  -0.000006   0.000000
    18  H   -0.003831  -0.002858   0.000998  -0.000428  -0.000053   0.000002
    19  H    0.002929  -0.000157  -0.000002   0.000000  -0.000000  -0.000000
    20  H    0.008253   0.000120   0.000003   0.000000   0.000000  -0.000000
    21  H   -0.031865  -0.000495  -0.000208   0.000001   0.000000  -0.000000
    22  H   -0.048411   0.354348  -0.052591  -0.000197   0.000206  -0.000012
    23  H   -0.037973  -0.048282   0.262848  -0.060539   0.005375  -0.000325
    24  H   -0.000000  -0.000000   0.000005   0.001101  -0.041617   0.368678
    25  H    0.000242   0.003605   0.001652  -0.010055   0.007481   0.001329
    26  H   -0.000034  -0.000303   0.001110  -0.017292   0.000420   0.000437
              13         14         15         16         17         18
     1  C   -0.000079   0.000152  -0.023211   0.349412   0.355735  -0.058415
     2  C   -0.000027   0.000159  -0.010481  -0.040744  -0.061839   0.350632
     3  C    0.000002   0.000016   0.001452   0.007178  -0.005581  -0.049228
     4  C   -0.000000   0.000000  -0.000000  -0.000078   0.001269   0.001673
     5  N    0.000000  -0.000000   0.000001   0.000006  -0.000039   0.000004
     6  N   -0.000000  -0.000001   0.000013  -0.000016   0.000000  -0.000286
     7  C   -0.000016   0.000244  -0.000814  -0.000747  -0.000370  -0.003831
     8  C   -0.000297   0.001578  -0.013379   0.003038  -0.000238  -0.002858
     9  C   -0.002251  -0.027248  -0.045691  -0.043050   0.000136   0.000998
    10  C   -0.020008  -0.095224   0.363780  -0.077068  -0.000358  -0.000428
    11  C    0.112968  -0.108083  -0.048220  -0.007995  -0.000006  -0.000053
    12  C    0.502006  -0.021203  -0.004318   0.001576   0.000000   0.000002
    13  C    4.915091   0.533032  -0.059330   0.002907   0.000001  -0.000006
    14  C    0.533032   5.268288   0.459528  -0.014491   0.000005   0.000027
    15  C   -0.059330   0.459528   4.678698   0.542821   0.000081   0.000492
    16  C    0.002907  -0.014491   0.542821   5.428844  -0.051749  -0.007502
    17  H    0.000001   0.000005   0.000081  -0.051749   0.644771   0.007831
    18  H   -0.000006   0.000027   0.000492  -0.007502   0.007831   0.649733
    19  H    0.000000  -0.000000   0.000001   0.000003  -0.000073  -0.000121
    20  H    0.000000  -0.000000   0.000000  -0.000000   0.000001   0.000015
    21  H    0.000000   0.000000   0.000001   0.000000  -0.000000  -0.000000
    22  H    0.000118   0.000749   0.000702   0.000020   0.000003   0.000010
    23  H    0.001133   0.002161  -0.006653   0.027993   0.000844   0.006417
    24  H   -0.060267   0.000524   0.000047  -0.000007  -0.000000  -0.000000
    25  H   -0.033493   0.322330  -0.025015   0.002808   0.000001   0.000002
    26  H   -0.000422   0.002879  -0.026436   0.306148   0.006364   0.001062
              19         20         21         22         23         24
     1  C    0.000220   0.000001  -0.000014  -0.000271  -0.011755   0.000000
     2  C   -0.000997  -0.000190  -0.000130  -0.000042   0.038464  -0.000000
     3  C   -0.013464   0.001921   0.003649   0.005508  -0.003090   0.000000
     4  C    0.358816  -0.037598   0.005407  -0.000363  -0.000687  -0.000000
     5  N   -0.032864   0.354059  -0.034756   0.000137   0.000157   0.000000
     6  N    0.003760  -0.041383   0.356515  -0.009565  -0.000262  -0.000000
     7  C    0.002929   0.008253  -0.031865  -0.048411  -0.037973  -0.000000
     8  C   -0.000157   0.000120  -0.000495   0.354348  -0.048282  -0.000000
     9  C   -0.000002   0.000003  -0.000208  -0.052591   0.262848   0.000005
    10  C    0.000000   0.000000   0.000001  -0.000197  -0.060539   0.001101
    11  C   -0.000000   0.000000   0.000000   0.000206   0.005375  -0.041617
    12  C   -0.000000  -0.000000  -0.000000  -0.000012  -0.000325   0.368678
    13  C    0.000000   0.000000   0.000000   0.000118   0.001133  -0.060267
    14  C   -0.000000  -0.000000   0.000000   0.000749   0.002161   0.000524
    15  C    0.000001   0.000000   0.000001   0.000702  -0.006653   0.000047
    16  C    0.000003  -0.000000   0.000000   0.000020   0.027993  -0.000007
    17  H   -0.000073   0.000001  -0.000000   0.000003   0.000844  -0.000000
    18  H   -0.000121   0.000015  -0.000000   0.000010   0.006417  -0.000000
    19  H    0.530058  -0.000593  -0.000030   0.000003  -0.000012   0.000000
    20  H   -0.000593   0.435438  -0.002690   0.000008   0.000003   0.000000
    21  H   -0.000030  -0.002690   0.415413   0.003134  -0.000015   0.000000
    22  H    0.000003   0.000008   0.003134   0.657168   0.008399   0.000000
    23  H   -0.000012   0.000003  -0.000015   0.008399   0.588327   0.000002
    24  H    0.000000   0.000000   0.000000   0.000000   0.000002   0.582015
    25  H   -0.000000  -0.000000  -0.000000  -0.000606  -0.000714  -0.000096
    26  H   -0.000000   0.000000  -0.000000   0.000005   0.002791  -0.000041
              25         26
     1  C    0.000073  -0.040223
     2  C    0.000026   0.003082
     3  C   -0.000015   0.000030
     4  C    0.000000  -0.000002
     5  N   -0.000000  -0.000000
     6  N   -0.000001   0.000000
     7  C    0.000242  -0.000034
     8  C    0.003605  -0.000303
     9  C    0.001652   0.001110
    10  C   -0.010055  -0.017292
    11  C    0.007481   0.000420
    12  C    0.001329   0.000437
    13  C   -0.033493  -0.000422
    14  C    0.322330   0.002879
    15  C   -0.025015  -0.026436
    16  C    0.002808   0.306148
    17  H    0.000001   0.006364
    18  H    0.000002   0.001062
    19  H   -0.000000  -0.000000
    20  H   -0.000000   0.000000
    21  H   -0.000000  -0.000000
    22  H   -0.000606   0.000005
    23  H   -0.000714   0.002791
    24  H   -0.000096  -0.000041
    25  H    0.599842   0.000001
    26  H    0.000001   0.631442
 Mulliken charges:
               1
     1  C   -0.028522
     2  C   -0.390939
     3  C    0.158800
     4  C   -0.081325
     5  N   -0.238316
     6  N   -0.356020
     7  C    0.387172
     8  C   -0.314516
     9  C   -0.349491
    10  C    0.241789
    11  C   -0.051392
    12  C   -0.191827
    13  C    0.108936
    14  C   -0.325423
    15  C    0.215932
    16  C   -0.429307
    17  H    0.103210
    18  H    0.103830
    19  H    0.152523
    20  H    0.282631
    21  H    0.286084
    22  H    0.081540
    23  H    0.225394
    24  H    0.149655
    25  H    0.130601
    26  H    0.128980
 Sum of Mulliken charges =  -0.00000
 Mulliken charges with hydrogens summed into heavy atoms:
               1
     1  C    0.074688
     2  C   -0.287108
     3  C    0.158800
     4  C    0.071198
     5  N    0.044314
     6  N   -0.069935
     7  C    0.387172
     8  C   -0.232975
     9  C   -0.124097
    10  C    0.241789
    11  C   -0.051392
    12  C   -0.042172
    13  C    0.108936
    14  C   -0.194822
    15  C    0.215932
    16  C   -0.300327
 Electronic spatial extent (au):  <R**2>=           3649.0192
 Charge=             -0.0000 electrons
 Dipole moment (field-independent basis, Debye):
    X=             -6.6655    Y=             -3.1163    Z=             -1.1679  Tot=              7.4501
 Quadrupole moment (field-independent basis, Debye-Ang):
   XX=            -57.3057   YY=            -87.2890   ZZ=           -102.4797
   XY=              9.1423   XZ=             -6.0529   YZ=             -4.0076
 Traceless Quadrupole moment (field-independent basis, Debye-Ang):
   XX=             25.0524   YY=             -4.9309   ZZ=            -20.1215
   XY=              9.1423   XZ=             -6.0529   YZ=             -4.0076
 Octapole moment (field-independent basis, Debye-Ang**2):
  XXX=           -149.3203  YYY=            -33.4293  ZZZ=             -6.5070  XYY=            -39.4144
  XXY=            -26.7630  XXZ=            -17.6710  XZZ=            -22.2081  YZZ=             -4.2987
  YYZ=              5.9546  XYZ=             -1.4594
 Hexadecapole moment (field-independent basis, Debye-Ang**3):
 XXXX=          -2753.5820 YYYY=           -762.7919 ZZZZ=           -370.3991 XXXY=            197.0833
 XXXZ=            -84.0330 YYYX=             87.3942 YYYZ=            -21.0343 ZZZX=            -26.3789
 ZZZY=            -13.3685 XXYY=           -702.3427 XXZZ=           -787.8367 YYZZ=           -206.7209
 XXYZ=            -16.1031 YYXZ=            -27.3424 ZZXY=              6.5025
 N-N= 9.610720046793D+02 E-N=-3.425892512171D+03  KE= 6.432706395624D+02
 PrsmSu:  requested number of processors reduced to:  13 ShMem   1 Linda.
 Calling FoFJK, ICntrl=      2127 FMM=F ISym2X=0 I1Cent= 0 IOpClX= 0 NMat=1 NMatS=1 NMatT=0.
 ***** Axes restored to original set *****
 -------------------------------------------------------------------
 Center     Atomic                   Forces (Hartrees/Bohr)
 Number     Number              X              Y              Z
 -------------------------------------------------------------------
      1        6          -0.016124679    0.036505689    0.047271009
      2        6           0.065013921    0.006416184   -0.008932217
      3        6          -0.008304474   -0.022979011    0.007094224
      4        6           0.015243867   -0.000582151    0.009959568
      5        7          -0.028316373   -0.025603622   -0.008934826
      6        7           0.020231928    0.034692122    0.001994612
      7        6          -0.041745954   -0.015126277   -0.032868633
      8        6           0.050932050    0.045575160   -0.009489650
      9        6          -0.016175258   -0.061612393    0.038083187
     10        6           0.036910633    0.073246129   -0.030012716
     11        6          -0.002224057   -0.086680373   -0.036370497
     12        6           0.018175880    0.101383962   -0.017270978
     13        6          -0.022466669    0.009554876    0.019960584
     14        6           0.001996931   -0.048987869    0.045832749
     15        6           0.015679014   -0.016069934   -0.010953046
     16        6          -0.029385434   -0.041371782   -0.029535025
     17        1           0.003660221    0.009140105    0.014854789
     18        1          -0.002084478    0.012718985    0.001380804
     19        1           0.001363702    0.000309397    0.002406474
     20        1           0.010088647    0.014345644    0.004825336
     21        1          -0.011284072   -0.007167296   -0.004686143
     22        1           0.004513647   -0.004349396   -0.004063691
     23        1          -0.026979322   -0.004905010   -0.025960213
     24        1           0.004463091   -0.016796043   -0.016218847
     25        1          -0.041684069   -0.008405384    0.026422206
     26        1          -0.001498695    0.016748288    0.015210940
 -------------------------------------------------------------------
 Cartesian Forces:  Max     0.101383962 RMS     0.029670994

 GradGradGradGradGradGradGradGradGradGradGradGradGradGradGradGradGradGrad
 Berny optimization.
 FormGI is forming the generalized inverse of G from B-inverse, IUseBI=4.
 Internal  Forces:  Max     0.061870195 RMS     0.018979136
 Search for a local minimum.
 Step number   1 out of a maximum of  152
 All quantities printed in internal units (Hartrees-Bohrs-Radians)
 Mixed Optimization -- RFO/linear search
 Second derivative matrix not updated -- first step.
 ITU=  0
     Eigenvalues ---    0.00689   0.00992   0.01022   0.01221   0.01361
     Eigenvalues ---    0.01417   0.01646   0.01791   0.01874   0.01965
     Eigenvalues ---    0.01997   0.02060   0.02294   0.02407   0.02467
     Eigenvalues ---    0.02571   0.02790   0.03106   0.03528   0.04150
     Eigenvalues ---    0.05049   0.06209   0.07368   0.10069   0.11260
     Eigenvalues ---    0.11737   0.12559   0.12988   0.13931   0.14389
     Eigenvalues ---    0.15237   0.15918   0.15982   0.15989   0.17742
     Eigenvalues ---    0.19269   0.20659   0.21318   0.22042   0.22333
     Eigenvalues ---    0.22725   0.23650   0.23722   0.23913   0.24565
     Eigenvalues ---    0.25790   0.26763   0.27613   0.28655   0.30109
     Eigenvalues ---    0.31325   0.32661   0.32888   0.33634   0.34126
     Eigenvalues ---    0.34805   0.35202   0.35235   0.35818   0.42714
     Eigenvalues ---    0.43290   0.44272   0.44648   0.44912   0.46563
     Eigenvalues ---    0.48991   0.49461   0.50866   0.51852   0.52245
     Eigenvalues ---    0.52486   0.56925
 RFO step:  Lambda=-1.46642819D-01 EMin= 6.88900477D-03
 Linear search not attempted -- first point.
 Maximum step size (   0.300) exceeded in Quadratic search.
    -- Step size scaled by   0.575
 Iteration  1 RMS(Cart)=  0.08934825 RMS(Int)=  0.00455960
 Iteration  2 RMS(Cart)=  0.00631318 RMS(Int)=  0.00095605
 Iteration  3 RMS(Cart)=  0.00003391 RMS(Int)=  0.00095591
 Iteration  4 RMS(Cart)=  0.00000010 RMS(Int)=  0.00095591
 Variable       Old X    -DE/DX   Delta X   Delta X   Delta X     New X
                                 (Linear)    (Quad)   (Total)
    R1        2.58476   0.03903   0.00000   0.03109   0.03130   2.61606
    R2        3.08763  -0.05329   0.00000  -0.08771  -0.08742   3.00021
    R3        2.07953  -0.00203   0.00000  -0.00242  -0.00242   2.07711
    R4        2.81952   0.00128   0.00000  -0.00066  -0.00024   2.81928
    R5        2.07118   0.00255   0.00000   0.00301   0.00301   2.07418
    R6        2.56648   0.00410   0.00000   0.00330   0.00338   2.56986
    R7        2.88344  -0.02730   0.00000  -0.03744  -0.03717   2.84627
    R8        2.61335  -0.01132   0.00000  -0.00943  -0.00952   2.60383
    R9        2.04368  -0.00214   0.00000  -0.00243  -0.00243   2.04125
   R10        2.57860   0.00743   0.00000   0.00717   0.00703   2.58563
   R11        1.92831  -0.01213   0.00000  -0.01183  -0.01183   1.91648
   R12        2.63378  -0.01711   0.00000  -0.01634  -0.01635   2.61743
   R13        1.92078  -0.01069   0.00000  -0.01032  -0.01032   1.91046
   R14        2.58232   0.00534   0.00000   0.00544   0.00518   2.58750
   R15        2.93984  -0.04545   0.00000  -0.06113  -0.06156   2.87829
   R16        2.05993   0.00025   0.00000   0.00029   0.00029   2.06022
   R17        2.57115   0.01440   0.00000   0.01466   0.01426   2.58541
   R18        2.05348   0.02655   0.00000   0.03061   0.03061   2.08408
   R19        2.93354  -0.03741   0.00000  -0.05781  -0.05884   2.87469
   R20        2.72484   0.03054   0.00000   0.03699   0.03709   2.76193
   R21        2.46434   0.03837   0.00000   0.02531   0.02623   2.49056
   R22        3.05530   0.03815   0.00000   0.06316   0.05997   3.11527
   R23        2.49532   0.05600   0.00000   0.04444   0.04678   2.54210
   R24        2.09248  -0.01492   0.00000  -0.01803  -0.01803   2.07445
   R25        2.60329   0.06187   0.00000   0.05886   0.05958   2.66286
   R26        2.91096  -0.01150   0.00000  -0.01949  -0.01867   2.89229
   R27        2.14447  -0.01697   0.00000  -0.02179  -0.02179   2.12268
   R28        2.66299  -0.01030   0.00000  -0.00954  -0.00952   2.65347
   R29        2.12096  -0.00500   0.00000  -0.00625  -0.00625   2.11471
    A1        2.31642  -0.00885   0.00000  -0.02381  -0.02346   2.29296
    A2        1.94480   0.01939   0.00000   0.04019   0.03996   1.98476
    A3        2.02087  -0.01034   0.00000  -0.01577  -0.01597   2.00490
    A4        2.02050   0.03743   0.00000   0.05642   0.05624   2.07674
    A5        2.07862  -0.01655   0.00000  -0.02453  -0.02608   2.05254
    A6        1.81304   0.00345   0.00000   0.01948   0.01954   1.83258
    A7        2.23543   0.01388   0.00000   0.02622   0.02542   2.26085
    A8        2.19649  -0.01321   0.00000  -0.02591  -0.02490   2.17159
    A9        1.84903  -0.00049   0.00000   0.00041   0.00014   1.84917
   A10        1.92989   0.00109   0.00000   0.00174   0.00192   1.93180
   A11        2.25903   0.00089   0.00000   0.00172   0.00163   2.26066
   A12        2.09347  -0.00207   0.00000  -0.00365  -0.00375   2.08973
   A13        1.89822  -0.00806   0.00000  -0.01157  -0.01163   1.88659
   A14        2.11044   0.01462   0.00000   0.02572   0.02559   2.13603
   A15        2.18003  -0.00836   0.00000  -0.01980  -0.01968   2.16034
   A16        1.93409   0.00084   0.00000   0.00107   0.00113   1.93522
   A17        2.17410  -0.00933   0.00000  -0.01723  -0.01724   2.15686
   A18        2.13688   0.00836   0.00000   0.01603   0.01602   2.15290
   A19        1.81219   0.00639   0.00000   0.00783   0.00787   1.82006
   A20        2.20539   0.01018   0.00000   0.01265   0.01303   2.21841
   A21        2.26534  -0.01657   0.00000  -0.02048  -0.02089   2.24445
   A22        2.19514  -0.01717   0.00000  -0.02787  -0.02779   2.16735
   A23        2.07144   0.00703   0.00000   0.01059   0.01058   2.08203
   A24        2.01029   0.01010   0.00000   0.01758   0.01752   2.02781
   A25        2.41158   0.02853   0.00000   0.04173   0.04175   2.45333
   A26        1.36897   0.03015   0.00000   0.06432   0.06345   1.43241
   A27        1.57428  -0.00671   0.00000  -0.00295  -0.00447   1.56981
   A28        2.44627  -0.01068   0.00000  -0.02998  -0.02994   2.41633
   A29        1.96880   0.00267   0.00000   0.01059   0.01140   1.98021
   A30        1.82702   0.00840   0.00000   0.02075   0.01984   1.84686
   A31        2.43316   0.03976   0.00000   0.05853   0.05434   2.48749
   A32        1.68663   0.00296   0.00000   0.00445   0.00478   1.69141
   A33        2.63628  -0.00972   0.00000  -0.03072  -0.03196   2.60432
   A34        2.25826   0.03151   0.00000   0.04465   0.04622   2.30448
   A35        1.82148   0.01285   0.00000   0.02149   0.02177   1.84326
   A36        2.34923   0.05199   0.00000   0.09087   0.08655   2.43579
   A37        1.93231  -0.03525   0.00000  -0.03936  -0.04082   1.89148
   A38        1.68174   0.02594   0.00000   0.06674   0.06770   1.74944
   A39        2.02999   0.00509   0.00000   0.00935   0.01076   2.04075
   A40        1.63800   0.03359   0.00000   0.05590   0.05662   1.69462
   A41        2.13358   0.02355   0.00000   0.03638   0.03545   2.16903
   A42        2.51145  -0.05725   0.00000  -0.09260  -0.09261   2.41884
   A43        2.28864  -0.02772   0.00000  -0.04361  -0.04270   2.24594
   A44        1.57589   0.02388   0.00000   0.04961   0.05000   1.62589
   A45        1.97767  -0.00089   0.00000   0.00297   0.00310   1.98077
    D1        1.67717   0.02722   0.00000   0.07140   0.07209   1.74927
    D2       -0.50434   0.00015   0.00000   0.00869   0.00954  -0.49480
    D3       -1.41063   0.02229   0.00000   0.05658   0.05702  -1.35362
    D4        2.69104  -0.00478   0.00000  -0.00613  -0.00554   2.68550
    D5       -0.54948  -0.01102   0.00000  -0.04161  -0.04058  -0.59006
    D6        1.57975  -0.00293   0.00000  -0.01015  -0.01000   1.56974
    D7        2.53651  -0.00523   0.00000  -0.02499  -0.02403   2.51247
    D8       -1.61745   0.00287   0.00000   0.00647   0.00654  -1.61091
    D9        1.87227  -0.01282   0.00000  -0.03637  -0.03693   1.83534
   D10       -1.18738  -0.01616   0.00000  -0.04962  -0.05004  -1.23742
   D11       -2.09851  -0.00312   0.00000  -0.00860  -0.00758  -2.10609
   D12        1.12503  -0.00645   0.00000  -0.02185  -0.02070   1.10433
   D13       -3.02507   0.00232   0.00000   0.00098   0.00084  -3.02423
   D14        0.07287  -0.00013   0.00000  -0.00448  -0.00452   0.06836
   D15        0.04747   0.00447   0.00000   0.01084   0.01086   0.05832
   D16       -3.13777   0.00203   0.00000   0.00538   0.00550  -3.13227
   D17        3.02768  -0.00024   0.00000   0.00471   0.00440   3.03208
   D18       -0.13681  -0.00025   0.00000   0.00457   0.00445  -0.13236
   D19       -0.04685  -0.00370   0.00000  -0.00750  -0.00746  -0.05432
   D20        3.07184  -0.00372   0.00000  -0.00764  -0.00741   3.06443
   D21       -0.03028  -0.00343   0.00000  -0.00998  -0.00993  -0.04021
   D22       -2.73927   0.00335   0.00000   0.00855   0.00880  -2.73048
   D23       -3.13297  -0.00132   0.00000  -0.00525  -0.00531  -3.13828
   D24        0.44122   0.00546   0.00000   0.01328   0.01342   0.45464
   D25       -0.00277   0.00103   0.00000   0.00499   0.00501   0.00224
   D26       -2.85607  -0.00015   0.00000   0.00230   0.00219  -2.85388
   D27        2.68483   0.00099   0.00000  -0.00033  -0.00007   2.68475
   D28       -0.16847  -0.00020   0.00000  -0.00302  -0.00290  -0.17137
   D29        0.03005   0.00178   0.00000   0.00170   0.00169   0.03173
   D30       -3.08754   0.00128   0.00000   0.00121   0.00100  -3.08655
   D31        2.89055  -0.00046   0.00000  -0.00205  -0.00194   2.88862
   D32       -0.22704  -0.00095   0.00000  -0.00253  -0.00262  -0.22966
   D33       -0.25370  -0.00104   0.00000   0.00869   0.00847  -0.24523
   D34        3.01455  -0.00140   0.00000   0.00425   0.00391   3.01846
   D35        2.85895  -0.00061   0.00000   0.00907   0.00908   2.86803
   D36       -0.15598  -0.00097   0.00000   0.00462   0.00452  -0.15146
   D37        1.92423  -0.00252   0.00000   0.00028   0.00034   1.92457
   D38        0.57864  -0.01466   0.00000  -0.05238  -0.05311   0.52553
   D39       -1.34012  -0.00228   0.00000   0.00428   0.00445  -1.33568
   D40       -2.68571  -0.01443   0.00000  -0.04839  -0.04900  -2.73471
   D41        2.17989  -0.02054   0.00000  -0.05529  -0.05583   2.12406
   D42       -0.59378  -0.02493   0.00000  -0.06837  -0.06823  -0.66201
   D43       -2.83374   0.00820   0.00000   0.02587   0.02527  -2.80847
   D44        0.67577   0.00380   0.00000   0.01279   0.01288   0.68865
   D45       -2.64171   0.00047   0.00000   0.00431   0.00515  -2.63656
   D46       -2.01096  -0.02983   0.00000  -0.07043  -0.07013  -2.08110
   D47        0.15004   0.00423   0.00000   0.01633   0.01669   0.16673
   D48        0.78078  -0.02607   0.00000  -0.05841  -0.05859   0.72220
   D49        1.97098  -0.00052   0.00000   0.02468   0.02739   1.99837
   D50       -1.18530  -0.00642   0.00000   0.00817   0.00871  -1.17659
   D51       -0.93010   0.00036   0.00000   0.02651   0.02923  -0.90087
   D52        2.19680  -0.00553   0.00000   0.00999   0.01055   2.20736
   D53       -2.75694  -0.00284   0.00000  -0.00311  -0.00623  -2.76318
   D54       -0.25822   0.00622   0.00000   0.01472   0.01536  -0.24286
   D55        2.86742   0.01781   0.00000   0.03826   0.04085   2.90826
   D56        2.19070   0.01996   0.00000   0.04427   0.04237   2.23307
   D57       -0.30561   0.00536   0.00000   0.01672   0.01695  -0.28866
   D58        1.81076   0.01165   0.00000   0.04714   0.04760   1.85836
   D59        0.55807  -0.00608   0.00000  -0.02081  -0.02258   0.53549
   D60        2.67444   0.00020   0.00000   0.00961   0.00807   2.68251
   D61        0.77856  -0.02326   0.00000  -0.05347  -0.05283   0.72573
   D62       -2.34194  -0.01676   0.00000  -0.03293  -0.03223  -2.37418
   D63       -1.11691  -0.03570   0.00000  -0.11668  -0.11655  -1.23346
   D64        2.04576  -0.02920   0.00000  -0.09614  -0.09595   1.94981
   D65        0.80692   0.00512   0.00000   0.01662   0.01729   0.82421
   D66       -1.15764  -0.00827   0.00000  -0.02821  -0.02777  -1.18541
   D67       -2.35954  -0.00286   0.00000  -0.00809  -0.00790  -2.36745
   D68        1.95908  -0.01625   0.00000  -0.05292  -0.05296   1.90611
         Item               Value     Threshold  Converged?
 Maximum Force            0.061870     0.000450     NO 
 RMS     Force            0.018979     0.000300     NO 
 Maximum Displacement     0.540253     0.001800     NO 
 RMS     Displacement     0.091837     0.001200     NO 
 Predicted change in Energy=-7.221338D-02
 GradGradGradGradGradGradGradGradGradGradGradGradGradGradGradGradGradGrad

                          Input orientation:                          
 ---------------------------------------------------------------------
 Center     Atomic      Atomic             Coordinates (Angstroms)
 Number     Number       Type             X           Y           Z
 ---------------------------------------------------------------------
      1          6           0        1.761793    0.861372    0.666637
      2          6           0        2.510069    0.003482   -0.121117
      3          6           0        3.336278   -1.048804    0.539056
      4          6           0        3.119174   -2.388020    0.632460
      5          7           0        4.053673   -2.976244    1.456643
      6          7           0        4.927674   -2.007102    1.867755
      7          6           0        4.588068   -0.776210    1.331072
      8          6           0        5.243190    0.419744    1.454922
      9          6           0        4.991084    1.629699    0.564777
     10          6           0        4.450320    2.885364    0.616644
     11          6           0        4.882708    4.322243    0.366573
     12          6           0        4.645984    5.565059    0.735843
     13          6           0        4.608363    4.880500    1.893249
     14          6           0        3.835643    3.887135    2.527101
     15          6           0        3.252662    2.969064    1.450156
     16          6           0        2.029485    2.352607    1.141158
     17          1           0        0.836190    0.412224    1.053525
     18          1           0        3.169911    0.451050   -0.875463
     19          1           0        2.331567   -2.988492    0.201303
     20          1           0        4.291854   -3.959953    1.392635
     21          1           0        5.831313   -2.205511    2.275352
     22          1           0        6.075374    0.502130    2.154398
     23          1           0        3.977848    1.196258    0.522883
     24          1           0        4.699625    6.639828    0.518920
     25          1           0        4.606230    3.441880    3.212440
     26          1           0        1.520819    2.793917    0.247408
 ---------------------------------------------------------------------
                    Distance matrix (angstroms):
                    1          2          3          4          5
     1  C    0.000000
     2  C    1.384358   0.000000
     3  C    2.478720   1.491897   0.000000
     4  C    3.521676   2.580343   1.359911   0.000000
     5  N    4.539176   3.708208   2.252032   1.377887   0.000000
     6  N    4.437751   3.720602   2.283926   2.222999   1.368257
     7  C    3.333314   2.652330   1.506179   2.289899   2.267486
     8  C    3.596743   3.182315   2.575220   3.615442   3.598289
     9  C    3.320998   3.044745   3.148559   4.432910   4.784232
    10  C    3.365594   3.551635   4.089595   5.438822   5.934760
    11  C    4.669880   4.951662   5.591900   6.943225   7.425864
    12  C    5.517973   6.018942   6.745165   8.098969   8.592104
    13  C    5.075522   5.678539   6.213589   7.525865   7.888392
    14  C    4.113079   4.883950   5.344641   6.593979   6.949776
    15  C    2.697955   3.437298   4.120723   5.420774   5.999028
    16  C    1.587643   2.709739   3.693214   4.890781   5.709073
    17  H    1.099162   2.085359   2.941041   3.637400   4.690033
    18  H    2.128200   1.097610   2.068358   3.215077   4.238643
    19  H    3.919519   3.014586   2.210410   1.080180   2.131122
    20  H    5.493037   4.601633   3.180647   2.103335   1.014156
    21  H    5.343663   4.653319   3.252368   3.176177   2.103406
    22  H    4.577059   4.258875   3.537990   4.405494   4.083286
    23  H    2.245821   1.997955   2.334989   3.687326   4.276380
    24  H    6.484075   7.017470   7.808596   9.165847   9.683254
    25  H    4.607706   5.227722   5.378290   6.546400   6.676859
    26  H    1.992122   2.983446   4.259983   5.436494   6.416569
                    6          7          8          9         10
     6  N    0.000000
     7  C    1.385083   0.000000
     8  C    2.481846   1.369244   0.000000
     9  C    3.863689   2.556957   1.523124   0.000000
    10  C    5.072413   3.733164   2.722249   1.368142   0.000000
    11  C    6.505088   5.197239   4.067425   2.702004   1.521221
    12  C    7.661475   6.369408   5.229532   3.954165   2.689472
    13  C    6.895046   5.684613   4.526973   3.532566   2.373871
    14  C    6.030696   4.872722   3.892757   3.206522   2.243038
    15  C    5.267093   3.978010   3.234386   2.366412   1.461552
    16  C    5.285310   4.046222   3.763284   3.102561   2.533651
    17  H    4.822484   3.945377   4.425249   4.357094   4.401048
    18  H    4.081359   2.895882   3.119321   2.603878   3.129172
    19  H    3.237278   3.355945   4.654588   5.341614   6.258100
    20  H    2.107993   3.198086   4.482261   5.693723   6.890983
    21  H    1.010972   2.116654   2.812642   4.282626   5.529509
    22  H    2.774099   2.126993   1.090222   2.230244   3.268837
    23  H    3.601717   2.217243   1.752929   1.102849   1.756446
    24  H    8.754470   7.461210   6.313557   5.018809   3.764000
    25  H    5.621646   4.618675   3.553575   3.231445   2.659357
    26  H    6.105896   4.829923   4.577208   3.674081   2.954094
                   11         12         13         14         15
    11  C    0.000000
    12  C    1.317949   0.000000
    13  C    1.648531   1.345223   0.000000
    14  C    2.439989   2.584703   1.409127   0.000000
    15  C    2.379558   3.031631   2.384920   1.530533   0.000000
    16  C    3.552510   4.162955   3.688698   2.745509   1.404158
    17  H    5.668726   6.416164   5.907614   4.821115   3.540350
    18  H    4.411628   5.561312   5.418020   4.881324   3.428666
    19  H    7.744836   8.877247   8.364659   7.412545   6.156340
    20  H    8.366402   9.554195   8.860271   7.941784   7.006747
    21  H    6.866939   8.009797   7.200914   6.416105   5.840086
    22  H    4.383153   5.448734   4.624980   4.075973   3.814370
    23  H    3.258065   4.424724   3.981092   3.358263   2.128044
    24  H    2.329791   1.097752   2.234355   3.515192   4.054061
    25  H    2.991728   3.262362   1.951896   1.123275   2.271860
    26  H    3.694899   4.205289   4.073763   3.427906   2.115789
                   16         17         18         19         20
    16  C    0.000000
    17  H    2.279631   0.000000
    18  H    2.997208   3.027996   0.000000
    19  H    5.431567   3.811470   3.700364   0.000000
    20  H    6.710437   5.583238   5.085270   2.491132   0.000000
    21  H    6.042907   5.770325   4.905916   4.142821   2.495434
    22  H    4.562909   5.354349   4.198140   5.478606   4.865328
    23  H    2.348515   3.281204   1.778615   4.508413   5.238471
    24  H    5.088918   7.348127   6.525742   9.920339  10.643543
    25  H    3.480853   5.296501   5.264887   7.455919   7.628738
    26  H    1.119056   2.605955   3.077234   5.839152   7.389516
                   21         22         23         24         25
    21  H    0.000000
    22  H    2.721308   0.000000
    23  H    4.251883   2.746501   0.000000
    24  H    9.088772   6.499139   5.491214   0.000000
    25  H    5.854227   3.452530   3.559691   4.182182   0.000000
    26  H    6.905592   5.443608   2.943704   4.996955   4.327937
                   26
    26  H    0.000000
 Stoichiometry    C14H10N2
 Framework group  C1[X(C14H10N2)]
 Deg. of freedom    72
 Full point group                 C1      NOp   1
 Largest Abelian subgroup         C1      NOp   1
 Largest concise Abelian subgroup C1      NOp   1
                         Standard orientation:                         
 ---------------------------------------------------------------------
 Center     Atomic      Atomic             Coordinates (Angstroms)
 Number     Number       Type             X           Y           Z
 ---------------------------------------------------------------------
      1          6           0       -0.431912    2.124142    0.272030
      2          6           0       -1.253778    1.607417   -0.714874
      3          6           0       -2.242272    0.550399   -0.352456
      4          6           0       -3.590779    0.641216   -0.201989
      5          7           0       -4.106882   -0.540171    0.284359
      6          7           0       -3.079006   -1.435193    0.404921
      7          6           0       -1.880104   -0.866498    0.007839
      8          6           0       -0.643957   -1.449579   -0.074545
      9          6           0        0.533993   -0.854283   -0.834784
     10          6           0        1.754270   -0.277981   -0.609808
     11          6           0        3.211184   -0.517392   -0.976138
     12          6           0        4.442474   -0.329493   -0.545316
     13          6           0        3.774987   -0.700530    0.562121
     14          6           0        2.745489   -0.230687    1.401776
     15          6           0        1.776312    0.600671    0.557933
     16          6           0        1.080280    1.817023    0.645614
     17          1           0       -0.931657    2.851047    0.927790
     18          1           0       -0.777846    1.247422   -1.636091
     19          1           0       -4.245684    1.484233   -0.366950
     20          1           0       -5.074759   -0.808617    0.144138
     21          1           0       -3.214495   -2.431801    0.507289
     22          1           0       -0.499128   -2.452073    0.328710
     23          1           0        0.037806    0.091107   -0.558539
     24          1           0        5.514994   -0.243610   -0.762998
     25          1           0        2.359711   -1.204109    1.808436
     26          1           0        1.475160    2.607399   -0.041162
 ---------------------------------------------------------------------
 Rotational constants (GHZ):           1.4721338           0.3269042           0.2938227
 Standard basis: 6-31G(2df,p) (6D, 7F)
 There are   546 symmetry adapted cartesian basis functions of A   symmetry.
 There are   498 symmetry adapted basis functions of A   symmetry.
   498 basis functions,   774 primitive gaussians,   546 cartesian basis functions
    54 alpha electrons       54 beta electrons
       nuclear repulsion energy       960.2831042711 Hartrees.
 NAtoms=   26 NActive=   26 NUniq=   26 SFac= 1.00D+00 NAtFMM=   60 NAOKFM=F Big=F
 Integral buffers will be    131072 words long.
 Raffenetti 2 integral format.
 Two-electron integral symmetry is turned on.
 One-electron integrals computed using PRISM.
 PrsmSu:  requested number of processors reduced to:  12 ShMem   1 Linda.
 NBasis=   498 RedAO= T EigKep=  1.80D-04  NBF=   498
 NBsUse=   498 1.00D-06 EigRej= -1.00D+00 NBFU=   498
 Initial guess from the checkpoint file:  "c1cc2c[nH][nH]c-2ccc2c3cc-3cc2c1.chk"
 B after Tr=    -0.000000    0.000000   -0.000000
         Rot=    0.999495    0.031471   -0.001074    0.004282 Ang=   3.64 deg.
 ExpMin= 1.61D-01 ExpMax= 4.17D+03 ExpMxC= 6.27D+02 IAcc=2 IRadAn=         4 AccDes= 0.00D+00
 Harris functional with IExCor=  402 and IRadAn=       4 diagonalized for initial guess.
 HarFok:  IExCor=  402 AccDes= 0.00D+00 IRadAn=         4 IDoV= 1 UseB2=F ITyADJ=14
 ICtDFT=  3500011 ScaDFX=  1.000000  1.000000  1.000000  1.000000
 FoFCou: FMM=F IPFlag=           0 FMFlag=      100000 FMFlg1=           0
         NFxFlg=           0 DoJE=T BraDBF=F KetDBF=T FulRan=T
         wScrn=  0.000000 ICntrl=       500 IOpCl=  0 I1Cent=   200000004 NGrid=           0
[...]
 00009875,-0.00000680,-0.00006924,-0.00027192,0.00010721,0.00000671,0.0
 0007951,0.00000638,-0.00003863,-0.00000880,0.00001172,0.00003961,0.000
 02200,0.00004634,-0.00004228,-0.00004724,-0.00001796,-0.00004045,-0.00
 001132,-0.00007836,0.00000356,-0.00000391,-0.00003508,0.00001386,0.000
 01968,0.00009048,0.00006782,0.00001224,0.00011527,-0.00030844,0.000162
 70,0.30158862,-0.00042718,-0.00028156,0.00027834,0.00039902,0.00033169
 ,-0.00141493,-0.02323881,0.00002624,-0.00470558,-0.12206608,-0.1160335
 8,0.00319655,0.01486044,0.01054509,-0.00062300,0.00279983,-0.00140840,
 0.00413019,-0.00171438,-0.00281421,0.00528319,-0.00081074,0.00031513,-
 0.00037238,-0.00015387,-0.00003691,0.00026038,-0.00006355,0.00011237,0
 .00004847,-0.00000650,-0.00008117,-0.00004419,0.00000220,0.00004143,0.
 00001342,0.00002708,0.00000709,-0.00001128,0.00003425,-0.00001837,-0.0
 0001707,-0.00003843,-0.00000375,0.00009739,0.00026690,0.00002954,-0.00
 014557,0.00037696,-0.00016566,-0.00001747,-0.00010778,0.00015229,-0.00
 000725,0.12964940,0.10947339,0.00005253,-0.00029782,0.00019169,0.00050
 985,-0.00152944,-0.00236246,0.01071029,0.00314182,0.00487899,-0.014242
 06,0.00229014,-0.03702542,-0.01362825,-0.00852037,-0.00269118,-0.00307
 058,0.00041460,0.00128801,-0.00337711,0.00740129,0.00540553,0.00115606
 ,-0.00025316,0.00056226,-0.00005856,0.00016229,0.00061635,-0.00013224,
 0.00009484,-0.00010050,-0.00003014,-0.00000917,-0.00001952,-0.00002192
 ,-0.00002146,-0.00001290,-0.00002750,0.00006295,0.00006623,0.00002405,
 0.00003502,0.00000928,0.00008703,-0.00001418,0.00003892,0.00006536,-0.
 00000591,-0.00010589,0.00006074,-0.00001575,0.00011519,-0.00034221,0.0
 0074473,-0.00046248,0.02247305,-0.00418644,0.03017002,0.00041355,-0.00
 009478,-0.00006807,0.00049090,-0.00075820,-0.00160549,-0.00375566,0.00
 174605,-0.00169772,-0.00158992,0.02663004,0.01192810,-0.06564228,0.075
 69602,0.02165697,-0.00235077,-0.03666217,-0.00736202,-0.00553547,-0.00
 227160,-0.00216004,0.00169835,-0.00102674,0.00108896,-0.00073146,0.000
 00384,0.00052735,-0.00011750,0.00006759,-0.00002469,-0.00002182,-0.000
 03575,-0.00002046,0.00000975,0.00002136,0.00000155,-0.00000345,0.00004
 362,0.00003304,0.00004716,0.00001014,-0.00000357,-0.00006374,-0.000055
 20,-0.00002210,-0.00012126,0.00004000,0.00004669,-0.00001141,-0.000023
 41,0.00001029,-0.00013966,0.00061222,-0.00024867,-0.00019139,-0.000909
 35,-0.00028846,0.07886249,-0.00000783,0.00035796,-0.00018909,-0.000458
 64,0.00051298,0.00134224,0.00314407,0.00107820,-0.00051816,0.00793559,
 -0.01674019,-0.00269350,0.05568575,-0.32906481,-0.12071249,-0.00505352
 ,-0.01231287,-0.00488323,-0.00224811,-0.00462345,-0.00355370,0.0013609
 1,0.00089888,-0.00010440,-0.00015407,-0.00010311,0.00072911,-0.0001408
 5,0.00008805,-0.00009753,-0.00005099,-0.00003241,-0.00002195,-0.000011
 16,-0.00002541,0.00000325,-0.00002100,0.00009051,0.00007081,0.00004147
 ,0.00003416,0.00000343,0.00004133,0.00000038,-0.00009810,-0.00011344,-
 0.00000290,0.00005884,-0.00005254,0.00001112,-0.00000781,0.00005599,-0
 .00030464,0.00004285,0.00048957,-0.00014942,0.00045157,-0.05976656,0.3
 6258037,-0.00017222,-0.00023533,0.00016457,0.00091676,0.00054083,-0.00
 053304,-0.00402436,0.00094489,0.00060464,-0.00837011,0.02771323,-0.002
 62205,0.03332121,-0.17085887,-0.07605400,-0.00338749,0.01183713,0.0006
 4978,0.00405304,0.00417021,0.00004675,-0.00216950,-0.00098827,-0.00056
 883,-0.00029487,0.00051038,-0.00021843,0.00009158,0.00009420,0.0001053
 8,0.00007908,0.00001576,0.00000344,0.00001215,0.00009448,0.00002861,0.
 00011203,-0.00021381,-0.00016192,-0.00012843,-0.00011107,-0.00000716,-
 0.00006172,0.00008181,0.00013066,0.00013064,-0.00003150,-0.00007898,0.
 00007509,-0.00000311,-0.00000052,0.00001453,-0.00010127,-0.00000383,0.
 00048249,-0.00081459,0.00029791,-0.02051436,0.12956470,0.07849485,0.00
 001200,0.00005544,-0.00002097,-0.00045839,-0.00023371,-0.00027498,-0.0
 0158381,0.00132299,-0.00173769,-0.00433103,-0.00311699,-0.00101908,-0.
 01946732,-0.00581442,-0.02288002,-0.09961505,-0.03051418,-0.13948445,-
 0.00740230,0.00952181,-0.01185485,-0.00041754,-0.00384943,0.00132939,-
 0.00123684,0.00058666,0.00093513,0.00015805,0.00030178,0.00009563,0.00
 002240,0.00001122,0.00000915,0.00006976,0.00015832,0.00005079,0.000196
 13,-0.00026802,-0.00020957,-0.00012160,-0.00017785,-0.00004111,-0.0002
 2116,0.00002533,0.00009283,-0.00004344,0.00003221,0.00007308,0.0000698
 2,-0.00000719,-0.00004006,-0.00000062,0.00012478,-0.00002622,-0.000821
 81,0.00106311,-0.00045106,-0.00176649,-0.00058396,-0.00050731,0.135981
 10,-0.00014574,-0.00020396,0.00027905,0.00106278,0.00011240,-0.0001637
 4,0.00244526,-0.00469261,0.00269424,-0.00038874,-0.00449450,0.00117193
 ,-0.01406772,-0.00501064,-0.01665434,-0.04043072,-0.04066294,-0.030280
 49,0.02183703,0.00002108,0.03083587,0.00087552,0.00203352,-0.00119151,
 0.00091919,-0.00084071,-0.00100098,-0.00001510,-0.00015129,0.00008550,
 -0.00007566,-0.00004511,0.00002111,-0.00003181,-0.00007536,-0.00001740
 ,-0.00000036,0.00008997,0.00003147,-0.00001503,-0.00000251,-0.00002551
 ,0.00023298,0.00006295,-0.00005124,0.00005284,-0.00012553,-0.00010789,
 -0.00002064,0.00001802,0.00001797,0.00003803,-0.00008416,0.00005108,-0
 .00031843,0.00066012,0.00031253,-0.00311971,-0.00227247,-0.00201474,0.
 03224080,0.05543543,-0.00004055,0.00012018,0.00000544,-0.00000915,0.00
 000752,0.00040704,0.00122816,0.00060973,0.00012722,0.00298489,0.001948
 77,-0.00006814,0.01198474,-0.00213445,0.01150661,-0.19207476,-0.009022
 16,-0.34775560,0.00036765,-0.00821633,-0.01069192,-0.00001165,0.000851
 54,0.00146811,-0.00018832,0.00070026,0.00126364,-0.00041138,-0.0000164
 2,-0.00023432,0.00002828,0.00002705,-0.00005381,-0.00005926,-0.0000787
 4,-0.00003680,-0.00012564,0.00009396,0.00013620,0.00007148,0.00013014,
 0.00004578,0.00011778,0.00002633,-0.00004570,0.00003486,-0.00001892,-0
 .00007596,-0.00003732,0.00000159,0.00001804,0.00000715,-0.00008091,0.0
 0000471,0.00072960,-0.00054362,0.00038045,-0.00112207,0.00031533,-0.00
 017437,0.17615001,0.01555297,0.34481462,0.00002755,-0.00053665,-0.0003
 7007,-0.00071271,0.00123651,-0.00149854,0.00074039,-0.00145352,-0.0023
 2946,-0.00021640,-0.00018433,-0.00017749,0.00001227,0.00006448,-0.0001
 8687,-0.00085877,0.00085833,0.00080183,-0.00383610,0.00183427,-0.00272
 781,-0.30071756,-0.09775344,-0.05214963,-0.01037246,-0.00800663,0.0002
 7163,0.00072194,-0.00103972,-0.00019994,0.00028370,-0.00049375,-0.0002
 5448,-0.00022344,0.00058364,0.00024221,0.00022665,0.00024186,0.0001953
 5,0.00010765,-0.00003033,-0.00006355,-0.00035560,0.00000041,0.00028956
 ,0.00000942,0.00012171,0.00015189,-0.00019982,0.00010135,0.00012183,-0
 .00066673,-0.00042958,0.00009831,-0.00008431,0.00003822,0.00042986,0.0
 0012174,-0.00012836,0.00013531,0.00025901,-0.00069097,0.00033037,0.315
 71108,0.00019396,0.00064720,0.00021974,0.00231544,-0.00242169,0.002135
 67,-0.00115579,-0.00322517,0.00398875,-0.00128434,0.00042996,-0.000291
 86,-0.00000954,-0.00038841,0.00034099,0.00117585,0.00116993,-0.0012566
 5,-0.02622709,-0.00188546,-0.00698199,-0.09505459,-0.08619057,-0.00737
 185,0.01565070,0.00690908,0.00103495,-0.00059996,0.00162593,0.00030710
 ,-0.00035723,0.00054330,0.00021260,0.00022491,-0.00061956,-0.00018528,
 -0.00033751,-0.00011304,-0.00016790,0.00000832,0.00012672,0.00011035,0
 .00023920,-0.00001798,-0.00031724,-0.00004002,-0.00003888,-0.00003703,
 0.00025426,-0.00004533,-0.00018691,0.00056865,0.00049423,-0.00010301,0
 .00013063,-0.00060672,-0.00016978,-0.00011577,0.00005508,-0.00005924,-
 0.00040859,-0.00014323,-0.00012460,0.10545434,0.08337449,-0.00044236,-
 0.00072867,-0.00020005,-0.00102023,0.00183942,0.00070989,-0.00238793,0
 .00449105,0.00707430,0.00044913,-0.00024016,0.00089539,0.00045397,-0.0
 0013748,0.00024175,0.00116898,-0.00264173,-0.00152805,0.00781826,0.003
 82395,0.00329096,-0.05469330,-0.00938691,-0.03887747,-0.00877114,-0.00
 643160,-0.00123178,-0.00010814,-0.00018589,-0.00011767,0.00023365,-0.0
 0012597,-0.00006828,-0.00013264,0.00012649,0.00006366,0.00002412,0.000
 07862,0.00004692,0.00007410,0.00006831,0.00000613,0.00000615,-0.000006
 08,0.00010523,0.00008280,0.00003899,-0.00004787,-0.00025339,0.00026770
 ,0.00002944,-0.00016097,-0.00007991,-0.00010965,0.00049326,-0.00039239
 ,-0.00124849,-0.00036196,0.00023249,-0.00008951,-0.00057644,0.00072294
 ,-0.00109708,0.05731617,0.00876007,0.03221511,-0.00174351,-0.00293833,
 -0.00012290,-0.00956699,-0.00569096,0.02155532,-0.00202006,-0.00106514
 ,-0.00053371,0.00100573,-0.00048296,0.00072232,-0.00055376,0.00015608,
 -0.00013574,-0.00122227,0.00229813,0.00057540,-0.00237124,-0.00218565,
 -0.00204357,0.00617021,0.01045962,-0.02289293,-0.06156854,-0.01386317,
 0.05850380,0.00033995,0.00152267,0.00664785,-0.00039278,-0.00121502,-0
 .00024465,0.00001897,0.00024605,0.00039607,0.00029573,0.00070693,-0.00
 060226,-0.00020418,-0.00021443,-0.00012851,0.00059176,0.00075264,0.000
 41551,-0.00013584,-0.00001454,-0.00045725,-0.00087222,0.00011911,0.000
 78829,0.00103110,0.00041963,0.00042356,-0.00001477,0.00004373,0.000112
 06,0.00040614,0.00003030,0.00019640,0.00071168,-0.00035854,0.00003522,
 0.00001349,-0.00063626,0.00078499,0.07003686,-0.00011607,-0.00177616,-
 0.00047279,-0.00627274,-0.00306254,0.01419694,-0.00141329,-0.00137940,
 0.00149305,-0.00015269,-0.00046509,0.00020750,0.00001921,-0.00038772,-
 0.00008425,0.00111893,-0.00232361,-0.00083121,0.00167413,0.00208118,0.
 00201976,-0.00085331,-0.00742180,0.01834063,-0.01483203,-0.04917968,0.
 04023403,0.01064961,-0.00142436,-0.03089173,-0.00005325,0.00241735,0.0
 0083169,0.00038450,-0.00008723,-0.00029689,0.00146453,-0.00098943,-0.0
 0019262,0.00014646,-0.00182964,-0.00001500,-0.00217443,-0.00163832,-0.
 00137867,-0.00050203,0.00033289,-0.00001644,-0.00044597,0.00016520,0.0
 0035057,-0.00031140,0.00112488,0.00031413,0.00000391,-0.00008830,-0.00
 008923,-0.00007897,-0.00010216,-0.00005358,-0.00041269,0.00035962,-0.0
 0015781,0.00017099,0.00036801,-0.00012351,0.01184229,0.06559833,-0.000
 25416,0.00023824,0.00072150,-0.00181919,-0.00164449,0.00164761,0.00013
 181,-0.00017216,-0.00061817,0.00039000,-0.00023229,-0.00002027,-0.0000
 3318,0.00016430,-0.00004483,-0.00090990,0.00163959,0.00016630,-0.00227
 222,-0.00214044,-0.00054736,-0.00168554,0.00973742,-0.01176707,0.06474
 611,0.04130541,-0.26614758,0.00685945,-0.00341244,-0.01574558,0.000232
 95,0.00187781,0.00167772,0.00034212,-0.00053535,-0.00071664,0.00045828
 ,-0.00103450,0.00029696,0.00003065,-0.00080352,-0.00009096,-0.00140141
 ,-0.00091218,-0.00076206,-0.00041945,-0.00019992,-0.00003896,-0.000118
 88,0.00006394,-0.00009356,-0.00025681,-0.00009549,0.00244631,0.0000099
 2,0.00006616,0.00005895,0.00017903,-0.00000604,0.00006917,0.00042100,-
 0.00025212,0.00002666,-0.00038750,0.00005502,-0.00009294,-0.06420216,-
 0.04362934,0.28964773,0.00001386,-0.00020395,-0.00007498,0.00000717,0.
 00005159,-0.00011202,-0.00001899,-0.00000220,0.00002294,-0.00003464,0.
 00002904,-0.00002596,0.00000748,-0.00004371,0.00004860,0.00007295,-0.0
 0007853,0.00003672,0.00003412,0.00007196,-0.00003974,-0.00015308,-0.00
 010060,-0.00009135,0.00003815,-0.00006894,-0.00002891,0.00230237,0.000
 73835,0.00136395,0.00339506,-0.00141688,-0.00133317,-0.23539071,-0.138
 77509,0.01757365,-0.01351579,-0.00477765,0.00379919,0.00344784,-0.0039
 4241,-0.00132348,-0.00263285,-0.00122156,0.00144271,-0.00026081,0.0005
 1899,-0.00121284,0.00004125,-0.00015979,0.00012837,-0.00002429,-0.0000
 4745,-0.00001695,-0.00000723,0.00000249,0.00000667,-0.00000064,0.00000
 395,-0.00001557,-0.00002606,0.00000398,0.00001461,0.00000356,0.0000241
 6,0.00000546,0.00003937,-0.00002793,-0.00002591,0.24272636,0.00017886,
 -0.00001990,-0.00008649,0.00014505,-0.00007284,0.00011759,-0.00012610,
 -0.00010084,-0.00002943,-0.00003124,0.00005050,-0.00006404,0.00002853,
 -0.00009980,0.00012655,0.00008599,-0.00012325,0.00000546,0.00004833,0.
 00018200,-0.00003511,-0.00000265,-0.00008851,-0.00004349,0.00013138,0.
 00032088,0.00008978,-0.00357715,0.00487895,0.00142775,-0.01077478,-0.0
 1229615,-0.00220657,-0.13927177,-0.14395813,0.00170344,0.00526520,0.00
 589243,-0.00013537,0.00024340,0.00335822,-0.00067263,-0.00103932,-0.00
 233452,-0.00185992,-0.00001344,-0.00001845,0.00182674,-0.00009787,0.00
 008428,-0.00017747,-0.00004306,0.00001291,0.00000998,-0.00000338,0.000
 00016,0.00000691,0.00000046,0.00001317,-0.00002822,-0.00003922,0.00001
 262,0.00001027,-0.00005682,0.00002254,0.00000253,0.00002137,-0.0000414
 3,-0.00000156,0.14930177,0.14443580,0.00002112,0.00002949,0.00003232,-
 0.00006012,0.00014401,-0.00031347,0.00006634,0.00008554,0.00006925,-0.
 00001547,-0.00000294,0.00001997,-0.00001887,0.00002021,-0.00004477,0.0
 0002580,-0.00000683,0.00002152,0.00000080,-0.00002718,-0.00002258,-0.0
 0011278,-0.00002806,-0.00006156,-0.00001692,0.00020409,0.00011503,-0.0
 0061361,-0.00036317,0.00498840,-0.00565976,-0.00604785,0.00117947,0.01
 747692,0.00166205,-0.03458939,0.00824955,0.00374794,0.00016409,0.00057
 777,0.00103194,0.00486225,0.00156839,-0.00175437,0.00112449,-0.0013827
 5,0.00165702,-0.00267644,0.00016360,-0.00018519,0.00042467,-0.00001112
 ,-0.00008903,-0.00001927,-0.00000456,0.00000229,0.00000414,0.00000009,
 -0.00000478,0.00000564,-0.00000387,-0.00000104,0.00001183,0.00001523,0
 .00001123,0.00001296,0.00009636,0.00007808,-0.00001019,-0.02021888,-0.
 00008047,0.02470064,0.00015471,0.00023750,-0.00000035,0.00000924,-0.00
 003893,0.00000666,0.00003554,0.00000680,-0.00003057,0.00003622,-0.0000
 3946,0.00004053,-0.00001759,0.00005829,-0.00007557,-0.00005322,0.00005
 513,0.00001090,0.00000952,-0.00010929,0.00003911,-0.00000021,-0.000077
 33,-0.00006277,0.00047827,-0.00022296,0.00017052,0.00104134,-0.0023849
 8,-0.00075995,-0.00380349,-0.00202244,0.00426954,0.00065531,0.00304898
 ,0.00090965,-0.01894757,0.00887312,0.00927347,-0.19919221,0.09616981,0
 .11132308,0.00449299,-0.00287328,-0.00365757,0.00028670,0.00067244,-0.
 00033446,0.00001477,0.00000185,0.00002244,0.00001366,0.00003285,0.0000
 0321,0.00000220,0.00000011,-0.00000142,-0.00000543,-0.00000797,0.00002
 016,0.00001225,-0.00000990,0.00000429,0.00000719,-0.00001233,0.0000105
 0,-0.00000343,0.00007108,-0.00004078,-0.00003681,-0.00020118,-0.000088
 65,0.21471087,-0.00025851,-0.00007629,0.00014711,0.00012357,0.00022038
 ,0.00004176,-0.00006040,0.00000479,0.00002832,-0.00003042,0.00001579,-
 0.00002081,-0.00000406,-0.00004823,0.00005929,0.00005957,-0.00009202,0
 .00001371,0.00009667,0.00013300,-0.00001348,-0.00012773,-0.00010975,-0
 .00005962,0.00069944,0.00055617,-0.00064733,0.00068369,-0.00354958,-0.
 00272640,-0.00484965,0.00044752,-0.00233294,-0.00052351,0.00187981,0.0
 0136913,-0.00974600,0.00581504,0.00886816,0.09493810,-0.11531507,-0.07
 840740,0.01995246,-0.00484509,-0.00914779,0.00118946,0.00081025,0.0005
 7348,-0.00003975,-0.00004132,-0.00004074,-0.00004721,-0.00003184,-0.00
 000018,-0.00000368,-0.00000313,0.00000081,0.00000429,0.00000565,-0.000
 01404,-0.00001564,0.00000338,0.00000364,0.00004185,-0.00002976,0.00001
 212,0.00001600,-0.00038857,-0.00015703,0.00012461,0.00004472,-0.000020
 69,-0.10145301,0.11474880,-0.00022373,-0.00006210,-0.00010458,0.000049
 31,-0.00003458,0.00007745,-0.00007607,-0.00007376,-0.00001810,-0.00002
 842,0.00001088,-0.00002094,-0.00001671,-0.00004029,0.00005144,0.000057
 62,-0.00010361,0.00004673,0.00010394,0.00013721,-0.00008797,-0.0000426
 5,-0.00038597,-0.00015148,0.00051123,0.00001367,0.00084839,0.00070054,
 -0.00169291,0.00090682,0.00300232,-0.00340049,0.00691764,-0.00071787,0
 .00003759,-0.00032018,0.00088714,0.00166414,-0.00496754,0.11063139,-0.
 07895733,-0.10292019,0.00675713,-0.00033687,-0.00430093,-0.00011472,0.
 00079402,-0.00098561,0.00000879,-0.00005733,0.00004895,-0.00002991,0.0
 0005452,0.00002450,-0.00000570,-0.00000100,0.00000766,0.00000180,0.000
 00646,-0.00001204,-0.00002326,0.00001072,0.00002021,-0.00006320,0.0000
 6360,0.00001462,0.00006048,0.00015949,0.00000922,0.00006708,0.00010868
 ,0.00000056,-0.12119741,0.08234282,0.10471982,0.00167584,-0.00179884,-
 0.00040633,0.00253858,-0.00217672,0.00274778,0.00066242,-0.00017531,-0
 .00047513,0.00008618,0.00001343,-0.00005786,0.00005838,0.00001924,0.00
 005707,-0.00009322,0.00014586,-0.00001555,-0.00011555,-0.00035916,0.00
 011942,0.00011929,0.00016618,0.00009745,0.00007359,-0.00044728,-0.0002
 9854,-0.00007304,-0.00346782,-0.00086449,-0.00079576,-0.00057149,0.000
 10288,-0.00031395,0.00015604,0.00007891,0.00013408,-0.00037302,-0.0002
 2053,0.00039607,0.00082238,-0.00017053,-0.01719231,0.01054433,0.012679
 30,-0.24924429,0.06426375,0.11398631,0.00032857,0.00120284,-0.00223444
 ,-0.00072146,0.00046593,0.00035796,0.00001078,-0.00002708,-0.00001604,
 -0.00000173,0.00001005,0.00000548,0.00002126,-0.00001936,-0.00000896,-
 0.00000174,-0.00000141,-0.00001304,0.00000859,0.00010117,0.00002577,-0
 .00002764,-0.00017236,-0.00005461,0.00009916,-0.00077016,-0.00029913,0
 .26236792,0.02637541,-0.00644493,-0.01462819,-0.00338410,-0.00102055,-
 0.00535749,-0.00058470,0.00054705,-0.00009035,-0.00001766,0.00009816,0
 .00005095,0.00009304,-0.00016964,0.00016601,0.00003066,-0.00002274,-0.
 00001194,-0.00005314,-0.00003137,0.00003802,0.00005401,0.00014027,-0.0
 0001580,-0.00034502,-0.00036076,0.00012228,-0.00181184,-0.00228864,-0.
 00136730,-0.00090588,-0.00049043,0.00001120,-0.00022490,0.00018304,0.0
 0030236,-0.00001289,-0.00016539,-0.00008314,0.00037007,0.00085056,0.00
 066587,-0.01676849,0.00946147,0.00995608,0.06189376,-0.07511336,-0.042
 69368,0.00102191,-0.00030150,0.00296095,0.00147086,-0.00084590,-0.0008
 8363,0.00000259,-0.00000335,-0.00000677,0.00004256,0.00000734,-0.00003
 998,-0.00000257,-0.00000410,-0.00000530,0.00005616,-0.00004066,0.00001
 562,0.00003045,0.00013798,0.00008096,-0.00000419,-0.00015536,-0.000062
 30,0.00022510,-0.00015465,-0.00025755,-0.06755117,0.07618745,0.0141288
 8,-0.00414088,-0.00466617,0.00162433,-0.00521345,0.00885505,0.00171273
 ,-0.00083601,-0.00131081,0.00010068,0.00025838,-0.00027838,0.00024271,
 -0.00025455,0.00057097,-0.00001731,0.00004727,0.00004769,-0.00018336,-
 0.00060796,0.00010497,0.00000626,0.00013414,0.00005368,-0.00024937,0.0
 0003071,-0.00015584,0.00000541,-0.00081922,0.00166969,-0.00008769,-0.0
 0011799,0.00016475,-0.00009010,0.00016445,-0.00016308,-0.00004382,0.00
 004645,0.00006881,-0.00035443,0.00051028,-0.00055834,-0.00068945,-0.00
 066608,0.00225875,0.11266503,-0.04335570,-0.10167654,-0.00235109,0.002
 81873,-0.00456606,-0.00155268,0.00077097,0.00063540,0.00002241,-0.0000
 7960,-0.00006273,0.00002581,0.00006965,-0.00007670,-0.00000605,-0.0000
 2639,-0.00000287,0.00000898,0.00001329,0.00000250,0.00005006,0.0000072
 3,-0.00007195,0.00000978,-0.00001493,0.00000043,0.00014545,0.00012810,
 0.00019558,-0.12512315,0.05113310,0.09896119\\0.00000552,-0.00000284,-
 0.00000659,0.00000866,-0.00000261,0.00002417,-0.00000364,0.00000796,-0
 .00002257,0.00002076,-0.00000489,0.00002313,-0.00001335,0.00001844,-0.
 00000560,-0.00000271,-0.00000409,0.00000636,0.00000631,0.00000569,-0.0
 0001067,-0.00001456,0.00001345,0.00000834,-0.00000312,-0.00000942,-0.0
 0001737,0.00000516,-0.00000734,-0.00000191,-0.00001521,-0.00000946,-0.
 00000140,0.00000720,0.00001209,-0.00000728,-0.00000147,-0.00000802,-0.
 00000977,-0.00000041,-0.00000451,0.00000020,-0.00000440,0.00000791,0.0
 0001931,0.00000079,-0.00001459,-0.00000356,-0.00000336,0.00000563,0.00
 000423,-0.00000186,0.00000174,0.00000049,-0.00000133,0.00000041,-0.000
 00614,-0.00000107,-0.00000296,-0.00000040,0.00000135,0.00000054,-0.000
 00584,0.00000140,-0.00000990,0.00000019,0.00000709,0.00000136,0.000010
 20,0.00000355,-0.00000363,0.00000542,-0.00000110,0.00000118,0.00000174
 ,-0.00000019,0.00000786,-0.00000467\\\@


 IF I HAVE SEEN FARTHER, IT IS BY STANDING ON THE
 SHOULDERS OF GIANTS. -- SIR ISAAC NEWTON
 Job cpu time:       0 days  9 hours 17 minutes 30.4 seconds.
 Elapsed time:       0 days  2 hours 19 minutes 23.7 seconds.
 File lengths (MBytes):  RWF=    465 Int=      0 D2E=      0 Chk=     21 Scr=      1
 Normal termination of Gaussian 16 at Sat May 20 17:06:33 2023.
### All Done ###
