### Starting Gaussian ###
 Entering Gaussian System, Link 0=g16
 Initial command:
 /cluster/software/gaussian/gaussian-16-A.03/avx2/g16/l1.exe "/local/scratch/yxie/Gau-11737.inp" -scrdir="/local/scratch/yxie/"
 Entering Link 1 = /cluster/software/gaussian/gaussian-16-A.03/avx2/g16/l1.exe PID=     11738.
  
 Copyright (c) 1988,1990,1992,1993,1995,1998,2003,2009,2016,
            Gaussian, Inc.  All Rights Reserved.
  
 This is part of the Gaussian(R) 16 program.  It is based on
 the Gaussian(R) 09 system (copyright 2009, Gaussian, Inc.),
 the Gaussian(R) 03 system (copyright 2003, Gaussian, Inc.),
 the Gaussian(R) 98 system (copyright 1998, Gaussian, Inc.),
 the Gaussian(R) 94 system (copyright 1995, Gaussian, Inc.),
 the Gaussian 92(TM) system (copyright 1992, Gaussian, Inc.),
 the Gaussian 90(TM) system (copyright 1990, Gaussian, Inc.),
 the Gaussian 88(TM) system (copyright 1988, Gaussian, Inc.),
 the Gaussian 86(TM) system (copyright 1986, Carnegie Mellon
 University), and the Gaussian 82(TM) system (copyright 1983,
 Carnegie Mellon University). Gaussian is a federally registered
 trademark of Gaussian, Inc.
  
 This software contains proprietary and confidential information,
 including trade secrets, belonging to Gaussian, Inc.
  
 This software is provided under written license and may be
 used, copied, transmitted, or stored only in accord with that
 written license.
  
 The following legend is applicable only to US Government
 contracts under FAR:
  
                    RESTRICTED RIGHTS LEGEND
  
 Use, reproduction and disclosure by the US Government is
 subject to restrictions as set forth in subparagraphs (a)
 and (c) of the Commercial Computer Software - Restricted
 Rights clause in FAR 52.227-19.
  
 Gaussian, Inc.
 340 Quinnipiac St., Bldg. 40, Wallingford CT 06492
  
  
 ---------------------------------------------------------------
 Warning -- This program may not be used in any manner that
 competes with the business of Gaussian, Inc. or will provide
 assistance to any competitor of Gaussian, Inc.  The licensee
 of this program is prohibited from giving any competitor of
 Gaussian, Inc. access to this program.  By using this program,
 the user acknowledges that Gaussian, Inc. is engaged in the
 business of creating and licensing software in the field of
 computational chemistry and represents and warrants to the
 licensee that it is not a competitor of Gaussian, Inc. and that
 it will not use this program in any manner prohibited above.
 ---------------------------------------------------------------
  

 Cite this work as:
 Gaussian 16, Revision A.03,
 M. J. Frisch, G. W. Trucks, H. B. Schlegel, G. E. Scuseria, 
 M. A. Robb, J. R. Cheeseman, G. Scalmani, V. Barone, 
 G. A. Petersson, H. Nakatsuji, X. Li, M. Caricato, A. V. Marenich, 
 J. Bloino, B. G. Janesko, R. Gomperts, B. Mennucci, H. P. Hratchian, 
 J. V. Ortiz, A. F. Izmaylov, J. L. Sonnenberg, D. Williams-Young, 
 F. Ding, F. Lipparini, F. Egidi, J. Goings, B. Peng, A. Petrone, 
 T. Henderson, D. Ranasinghe, V. G. Zakrzewski, J. Gao, N. Rega, 
 G. Zheng, W. Liang, M. Hada, M. Ehara, K. Toyota, R. Fukuda, 
 J. Hasegawa, M. Ishida, T. Nakajima, Y. Honda, O. Kitao, H. Nakai, 
 T. Vreven, K. Throssell, J. A. Montgomery, Jr., J. E. Peralta, 
 F. Ogliaro, M. J. Bearpark, J. J. Heyd, E. N. Brothers, K. N. Kudin, 
 V. N. Staroverov, T. A. Keith, R. Kobayashi, J. Normand, 
 K. Raghavachari, A. P. Rendell, J. C. Burant, S. S. Iyengar, 
 J. Tomasi, M. Cossi, J. M. Millam, M. Klene, C. Adamo, R. Cammi, 
 J. W. Ochterski, R. L. Martin, K. Morokuma, O. Farkas, 
 J. B. Foresman, and D. J. Fox, Gaussian, Inc., Wallingford CT, 2016.
 
 ******************************************
 Gaussian 16:  ES64L-G16RevA.03 25-Dec-2016
                20-May-2023 
 ******************************************
 %chk=c1ccc2ccnc-2nc2ccc-2c1.chk
 %NProcShared=20
 Will use up to   20 processors via shared memory.
 -----------------------------
 # opt freq b3lyp/6-31g(2df,p)
 -----------------------------
 1/18=20,19=15,26=3,38=1/1,3;
 2/9=110,12=2,17=6,18=5,40=1/2;
 3/5=1,6=6,7=104,11=2,25=1,30=1,71=1,74=-5/1,2,3;
 4//1;
 5/5=2,38=5/2;
 6/7=2,8=2,9=2,10=2,28=1/1;
 7//1,2,3,16;
 1/18=20,19=15,26=3/3(2);
 2/9=110/2;
 99//99;
 2/9=110/2;
 3/5=1,6=6,7=104,11=2,25=1,30=1,71=1,74=-5/1,2,3;
 4/5=5,16=3,69=1/1;
 5/5=2,38=5/2;
 7//1,2,3,16;
 1/18=20,19=15,26=3/3(-5);
 2/9=110/2;
 6/7=2,8=2,9=2,10=2,19=2,28=1/1;
 99/9=1/99;
 -------------------
 Title Card Required
 -------------------
 Symbolic Z-matrix:
 Charge =  0 Multiplicity = 1
 C                     1.31231   0.04347  -0.41746 
 C                     2.60618  -0.48553  -0.15446 
 C                     3.35702  -0.66981  -1.23818 
 C                     4.71418  -0.35602  -1.16281 
 C                     5.64326  -0.9289   -0.39816 
 C                     6.85135  -0.35731  -0.94942 
 N                     6.6753    0.55762  -1.85448 
 C                     5.31111   0.70538  -1.93298 
 N                     4.74061   1.65517  -2.60864 
 C                     3.38316   1.97786  -2.65317 
 C                     2.903     2.74281  -3.65389 
 C                     1.5762    2.59532  -3.16235 
 C                     2.01121   1.87126  -2.09599 
 C                     1.32779   1.34986  -0.76628 
 H                     0.7647   -0.59431  -1.1361 
 H                     3.02798  -0.26689   0.82552 
 H                     2.91731  -0.61121  -2.23709 
 H                     5.47128  -1.71293   0.30104 
 H                     7.81421  -0.76035  -0.60396 
 H                     3.41672   3.18611  -4.50013 
 H                     0.69665   2.99989  -3.6417 
 H                     0.38954   1.7512   -0.3551 
 

 GradGradGradGradGradGradGradGradGradGradGradGradGradGradGradGradGradGrad
 Berny optimization.
 Initialization pass.
                           ----------------------------
                           !    Initial Parameters    !
                           ! (Angstroms and Degrees)  !
 --------------------------                            --------------------------
 ! Name  Definition              Value          Derivative Info.                !
 --------------------------------------------------------------------------------
 ! R1    R(1,2)                  1.4224         estimate D2E/DX2                !
 ! R2    R(1,14)                 1.3522         estimate D2E/DX2                !
 ! R3    R(1,15)                 1.1059         estimate D2E/DX2                !
 ! R4    R(2,3)                  1.3312         estimate D2E/DX2                !
 ! R5    R(2,16)                 1.0891         estimate D2E/DX2                !
 ! R6    R(3,4)                  1.395          estimate D2E/DX2                !
 ! R7    R(3,17)                 1.093          estimate D2E/DX2                !
 ! R8    R(4,5)                  1.3327         estimate D2E/DX2                !
 ! R9    R(4,8)                  1.4409         estimate D2E/DX2                !
 ! R10   R(5,6)                  1.4457         estimate D2E/DX2                !
 ! R11   R(5,18)                 1.0645         estimate D2E/DX2                !
 ! R12   R(6,7)                  1.2989         estimate D2E/DX2                !
 ! R13   R(6,19)                 1.0995         estimate D2E/DX2                !
 ! R14   R(7,8)                  1.3744         estimate D2E/DX2                !
 ! R15   R(8,9)                  1.2977         estimate D2E/DX2                !
 ! R16   R(9,10)                 1.396          estimate D2E/DX2                !
 ! R17   R(10,11)                1.348          estimate D2E/DX2                !
 ! R18   R(10,13)                1.4846         estimate D2E/DX2                !
 ! R19   R(11,12)                1.4226         estimate D2E/DX2                !
 ! R20   R(11,20)                1.0847         estimate D2E/DX2                !
 ! R21   R(12,13)                1.3604         estimate D2E/DX2                !
 ! R22   R(12,21)                1.0803         estimate D2E/DX2                !
 ! R23   R(13,14)                1.5834         estimate D2E/DX2                !
 ! R24   R(14,22)                1.1002         estimate D2E/DX2                !
 ! A1    A(2,1,14)             113.3651         estimate D2E/DX2                !
 ! A2    A(2,1,15)             110.8607         estimate D2E/DX2                !
 ! A3    A(14,1,15)            113.2773         estimate D2E/DX2                !
 ! A4    A(1,2,3)              114.4581         estimate D2E/DX2                !
 ! A5    A(1,2,16)             116.3614         estimate D2E/DX2                !
 ! A6    A(3,2,16)             122.8113         estimate D2E/DX2                !
 ! A7    A(2,3,4)              118.2682         estimate D2E/DX2                !
 ! A8    A(2,3,17)             120.6426         estimate D2E/DX2                !
 ! A9    A(4,3,17)             115.3857         estimate D2E/DX2                !
 ! A10   A(3,4,5)              127.7734         estimate D2E/DX2                !
 ! A11   A(3,4,8)              122.6749         estimate D2E/DX2                !
 ! A12   A(5,4,8)              109.544          estimate D2E/DX2                !
 ! A13   A(4,5,6)              101.176          estimate D2E/DX2                !
 ! A14   A(4,5,18)             125.5099         estimate D2E/DX2                !
 ! A15   A(6,5,18)             132.5831         estimate D2E/DX2                !
 ! A16   A(5,6,7)              115.5255         estimate D2E/DX2                !
 ! A17   A(5,6,19)             117.8434         estimate D2E/DX2                !
 ! A18   A(7,6,19)             126.571          estimate D2E/DX2                !
 ! A19   A(6,7,8)              104.4804         estimate D2E/DX2                !
 ! A20   A(4,8,7)              107.5467         estimate D2E/DX2                !
 ! A21   A(4,8,9)              129.4434         estimate D2E/DX2                !
 ! A22   A(7,8,9)              123.0087         estimate D2E/DX2                !
 ! A23   A(8,9,10)             127.8262         estimate D2E/DX2                !
 ! A24   A(9,10,11)            120.0806         estimate D2E/DX2                !
 ! A25   A(9,10,13)            150.4628         estimate D2E/DX2                !
 ! A26   A(11,10,13)            89.438          estimate D2E/DX2                !
 ! A27   A(10,11,12)            90.9669         estimate D2E/DX2                !
 ! A28   A(10,11,20)           129.9702         estimate D2E/DX2                !
 ! A29   A(12,11,20)           138.9085         estimate D2E/DX2                !
 ! A30   A(11,12,13)            91.5924         estimate D2E/DX2                !
 ! A31   A(11,12,21)           124.5555         estimate D2E/DX2                !
 ! A32   A(13,12,21)           143.8515         estimate D2E/DX2                !
 ! A33   A(10,13,12)            87.8852         estimate D2E/DX2                !
 ! A34   A(10,13,14)           137.5356         estimate D2E/DX2                !
 ! A35   A(12,13,14)           134.0705         estimate D2E/DX2                !
 ! A36   A(1,14,13)            122.6635         estimate D2E/DX2                !
 ! A37   A(1,14,22)            104.2556         estimate D2E/DX2                !
 ! A38   A(13,14,22)           124.1818         estimate D2E/DX2                !
 ! D1    D(14,1,2,3)           -72.8131         estimate D2E/DX2                !
 ! D2    D(14,1,2,16)           80.033          estimate D2E/DX2                !
 ! D3    D(15,1,2,3)            55.8919         estimate D2E/DX2                !
 ! D4    D(15,1,2,16)         -151.2619         estimate D2E/DX2                !
 ! D5    D(2,1,14,13)           64.8107         estimate D2E/DX2                !
 ! D6    D(2,1,14,22)         -146.82           estimate D2E/DX2                !
 ! D7    D(15,1,14,13)         -62.6438         estimate D2E/DX2                !
 ! D8    D(15,1,14,22)          85.7255         estimate D2E/DX2                !
 ! D9    D(1,2,3,4)            140.1217         estimate D2E/DX2                !
 ! D10   D(1,2,3,17)           -12.0455         estimate D2E/DX2                !
 ! D11   D(16,2,3,4)           -10.7644         estimate D2E/DX2                !
 ! D12   D(16,2,3,17)         -162.9317         estimate D2E/DX2                !
 ! D13   D(2,3,4,5)             64.0647         estimate D2E/DX2                !
 ! D14   D(2,3,4,8)           -114.8161         estimate D2E/DX2                !
 ! D15   D(17,3,4,5)          -142.3349         estimate D2E/DX2                !
 ! D16   D(17,3,4,8)            38.7843         estimate D2E/DX2                !
 ! D17   D(3,4,5,6)            169.5452         estimate D2E/DX2                !
 ! D18   D(3,4,5,18)            -1.6842         estimate D2E/DX2                !
 ! D19   D(8,4,5,6)            -11.4545         estimate D2E/DX2                !
 ! D20   D(8,4,5,18)           177.3161         estimate D2E/DX2                !
 ! D21   D(3,4,8,7)           -166.9263         estimate D2E/DX2                !
 ! D22   D(3,4,8,9)             12.6833         estimate D2E/DX2                !
 ! D23   D(5,4,8,7)             14.0125         estimate D2E/DX2                !
 ! D24   D(5,4,8,9)           -166.378          estimate D2E/DX2                !
 ! D25   D(4,5,6,7)              5.9095         estimate D2E/DX2                !
 ! D26   D(4,5,6,19)          -171.458          estimate D2E/DX2                !
 ! D27   D(18,5,6,7)           176.2047         estimate D2E/DX2                !
 ! D28   D(18,5,6,19)           -1.1629         estimate D2E/DX2                !
 ! D29   D(5,6,7,8)              2.5139         estimate D2E/DX2                !
 ! D30   D(19,6,7,8)           179.6153         estimate D2E/DX2                !
 ! D31   D(6,7,8,4)             -9.4899         estimate D2E/DX2                !
 ! D32   D(6,7,8,9)            170.8697         estimate D2E/DX2                !
 ! D33   D(4,8,9,10)             7.2246         estimate D2E/DX2                !
 ! D34   D(7,8,9,10)          -173.2193         estimate D2E/DX2                !
 ! D35   D(8,9,10,11)         -162.2734         estimate D2E/DX2                !
 ! D36   D(8,9,10,13)           15.486          estimate D2E/DX2                !
 ! D37   D(9,10,11,12)         176.3807         estimate D2E/DX2                !
 ! D38   D(9,10,11,20)           0.275          estimate D2E/DX2                !
 ! D39   D(13,10,11,12)         -2.5149         estimate D2E/DX2                !
 ! D40   D(13,10,11,20)       -178.6206         estimate D2E/DX2                !
 ! D41   D(9,10,13,12)        -175.4298         estimate D2E/DX2                !
 ! D42   D(9,10,13,14)          12.4386         estimate D2E/DX2                !
 ! D43   D(11,10,13,12)          2.6314         estimate D2E/DX2                !
 ! D44   D(11,10,13,14)       -169.5002         estimate D2E/DX2                !
 ! D45   D(10,11,12,13)          2.7456         estimate D2E/DX2                !
 ! D46   D(10,11,12,21)       -177.0197         estimate D2E/DX2                !
 ! D47   D(20,11,12,13)        178.2036         estimate D2E/DX2                !
 ! D48   D(20,11,12,21)         -1.5617         estimate D2E/DX2                !
 ! D49   D(11,12,13,10)         -2.4942         estimate D2E/DX2                !
 ! D50   D(11,12,13,14)        170.1149         estimate D2E/DX2                !
 ! D51   D(21,12,13,10)        177.1782         estimate D2E/DX2                !
 ! D52   D(21,12,13,14)        -10.2127         estimate D2E/DX2                !
 ! D53   D(10,13,14,1)         -67.0766         estimate D2E/DX2                !
 ! D54   D(10,13,14,22)        150.834          estimate D2E/DX2                !
 ! D55   D(12,13,14,1)         123.9            estimate D2E/DX2                !
 ! D56   D(12,13,14,22)        -18.1894         estimate D2E/DX2                !
 --------------------------------------------------------------------------------
 Trust Radius=3.00D-01 FncErr=1.00D-07 GrdErr=1.00D-06 EigMax=2.50D+02 EigMin=1.00D-04
 Number of steps in this run=    128 maximum allowed number of steps=    132.
 GradGradGradGradGradGradGradGradGradGradGradGradGradGradGradGradGradGrad

                          Input orientation:                          
 ---------------------------------------------------------------------
 Center     Atomic      Atomic             Coordinates (Angstroms)
 Number     Number       Type             X           Y           Z
 ---------------------------------------------------------------------
      1          6           0        1.312310    0.043470   -0.417460
      2          6           0        2.606180   -0.485530   -0.154460
      3          6           0        3.357020   -0.669810   -1.238180
      4          6           0        4.714180   -0.356020   -1.162810
      5          6           0        5.643260   -0.928900   -0.398160
      6          6           0        6.851350   -0.357310   -0.949420
      7          7           0        6.675300    0.557620   -1.854480
      8          6           0        5.311110    0.705380   -1.932980
      9          7           0        4.740610    1.655170   -2.608640
     10          6           0        3.383160    1.977860   -2.653170
     11          6           0        2.903000    2.742810   -3.653890
     12          6           0        1.576200    2.595320   -3.162350
     13          6           0        2.011210    1.871260   -2.095990
     14          6           0        1.327790    1.349860   -0.766280
     15          1           0        0.764700   -0.594310   -1.136100
     16          1           0        3.027980   -0.266890    0.825520
     17          1           0        2.917310   -0.611210   -2.237090
     18          1           0        5.471280   -1.712930    0.301040
     19          1           0        7.814210   -0.760350   -0.603960
     20          1           0        3.416720    3.186110   -4.500130
     21          1           0        0.696650    2.999890   -3.641700
     22          1           0        0.389540    1.751200   -0.355100
 ---------------------------------------------------------------------
                    Distance matrix (angstroms):
                    1          2          3          4          5
     1  C    0.000000
     2  C    1.422361   0.000000
     3  C    2.315856   1.331228   0.000000
     4  C    3.505404   2.340343   1.395001   0.000000
     5  C    4.438807   3.078932   2.449419   1.332693   0.000000
     6  C    5.578940   4.320865   3.520139   2.147797   1.445712
     7  N    5.575934   4.531663   3.591294   2.271373   2.322868
     8  C    4.327277   3.449354   2.488446   1.440853   2.266466
     9  N    4.376310   3.893763   3.032823   2.477097   3.518297
    10  C    3.609527   3.593820   3.002172   3.072423   4.317682
    11  C    4.504577   4.770355   4.205682   4.369050   5.620521
    12  C    3.757126   4.427177   4.187460   4.749262   6.049946
    13  C    2.578127   3.110946   3.000680   3.624589   4.890328
    14  C    1.352246   2.318892   2.901643   3.812466   4.894031
    15  H    1.105931   2.089617   2.595427   3.956752   4.945387
    16  H    2.141225   1.089073   2.128255   2.608576   2.962320
    17  H    2.513103   2.109489   1.092978   2.109014   3.303543
    18  H    4.571457   3.150046   2.815563   2.134774   1.064500
    19  H    6.554053   5.234611   4.502996   3.175844   2.187187
    20  H    5.565332   5.746544   5.050941   5.036645   6.222294
    21  H    4.417599   5.287277   5.130417   5.792027   7.101049
    22  H    1.942096   3.155426   3.930274   4.878041   5.897997
                    6          7          8          9         10
     6  C    0.000000
     7  N    1.298932   0.000000
     8  C    2.114010   1.374412   0.000000
     9  N    3.355341   2.348701   1.297724   0.000000
    10  C    4.514878   3.673305   2.419684   1.395988   0.000000
    11  C    5.702137   4.716267   3.593278   2.377461   1.348014
    12  C    6.437569   5.644782   4.362657   3.347233   1.976266
    13  C    5.450514   4.851568   3.503597   2.785521   1.484608
    14  C    5.784262   5.514317   4.200403   3.890353   2.859945
    15  H    6.094122   6.064504   4.795212   4.799624   3.971636
    16  H    4.216248   4.600561   3.710433   4.291954   4.155279
    17  H    4.147195   3.954117   2.748849   2.932397   2.663348
    18  H    2.303465   3.354300   3.296168   4.510456   5.168127
    19  H    1.099492   2.144286   3.190638   4.393233   5.597433
    20  H    6.079478   4.952451   4.041410   2.770234   2.207319
    21  H    7.509960   6.700977   5.429341   4.385099   3.039584
    22  H    6.823051   6.571419   5.273073   4.900967   3.780775
                   11         12         13         14         15
    11  C    0.000000
    12  C    1.422590   0.000000
    13  C    1.995480   1.360375   0.000000
    14  C    3.572099   2.711831   1.583367   0.000000
    15  H    4.695526   3.864966   2.924758   2.057580   0.000000
    16  H    5.398058   5.118888   3.760416   2.835199   3.012904
    17  H    3.641013   3.596737   2.646428   2.921584   2.417890
    18  H    6.487769   6.762229   5.528495   5.261973   5.046640
    19  H    6.759748   7.531178   6.544183   6.822974   7.071516
    20  H    1.084687   2.350788   3.079639   4.655865   5.713273
    21  H    2.221310   1.080306   2.321873   3.374756   4.381887
    22  H    4.264128   3.162492   2.382210   1.100207   2.500425
                   16         17         18         19         20
    16  H    0.000000
    17  H    3.083891   0.000000
    18  H    2.887183   3.765455   0.000000
    19  H    5.019454   5.164202   2.686216   0.000000
    20  H    6.359000   4.448640   7.160520   7.077613   0.000000
    21  H    6.005248   4.465905   7.781578   8.603890   2.858384
    22  H    3.525325   3.938590   6.185046   7.841909   5.329546
                   21         22
    21  H    0.000000
    22  H    3.529204   0.000000
 Stoichiometry    C12H8N2
 Framework group  C1[X(C12H8N2)]
 Deg. of freedom    60
 Full point group                 C1      NOp   1
 Largest Abelian subgroup         C1      NOp   1
 Largest concise Abelian subgroup C1      NOp   1
                         Standard orientation:                         
 ---------------------------------------------------------------------
 Center     Atomic      Atomic             Coordinates (Angstroms)
 Number     Number       Type             X           Y           Z
 ---------------------------------------------------------------------
      1          6           0       -1.509199    2.355128    0.003629
      2          6           0       -0.092434    2.231084   -0.018758
      3          6           0        0.388195    1.260824    0.755684
      4          6           0        1.449795    0.495146    0.273222
      5          6           0        2.685266    0.902855   -0.015663
      6          6           0        3.359042   -0.361263   -0.210897
      7          7           0        2.597104   -1.412710   -0.177228
      8          6           0        1.327958   -0.912236   -0.010486
      9          7           0        0.261231   -1.645711   -0.101024
     10          6           0       -1.070202   -1.226622   -0.080215
     11          6           0       -2.053739   -2.113235    0.172203
     12          6           0       -3.029108   -1.078327    0.135006
     13          6           0       -2.087324   -0.150258   -0.184919
     14          6           0       -2.145113    1.360400   -0.655687
     15          1           0       -1.875689    2.498499    1.037173
     16          1           0        0.407799    2.563410   -0.927277
     17          1           0       -0.252585    0.764191    1.488730
     18          1           0        3.039577    1.903812    0.059890
     19          1           0        4.452336   -0.347942   -0.326723
     20          1           0       -1.996907   -3.175837    0.382421
     21          1           0       -4.081810   -1.221120    0.331197
     22          1           0       -3.039900    1.842948   -1.076352
 ---------------------------------------------------------------------
 Rotational constants (GHZ):           1.2744902           0.6658903           0.4536984
 Standard basis: 6-31G(2df,p) (6D, 7F)
 There are   474 symmetry adapted cartesian basis functions of A   symmetry.
 There are   432 symmetry adapted basis functions of A   symmetry.
   432 basis functions,   672 primitive gaussians,   474 cartesian basis functions
    47 alpha electrons       47 beta electrons
       nuclear repulsion energy       788.2765984359 Hartrees.
 NAtoms=   22 NActive=   22 NUniq=   22 SFac= 1.00D+00 NAtFMM=   60 NAOKFM=F Big=F
 Integral buffers will be    131072 words long.
 Raffenetti 2 integral format.
 Two-electron integral symmetry is turned on.
 One-electron integrals computed using PRISM.
 PrsmSu:  requested number of processors reduced to:  13 ShMem   1 Linda.
 NBasis=   432 RedAO= T EigKep=  9.83D-05  NBF=   432
 NBsUse=   432 1.00D-06 EigRej= -1.00D+00 NBFU=   432
 ExpMin= 1.61D-01 ExpMax= 4.17D+03 ExpMxC= 6.27D+02 IAcc=3 IRadAn=         5 AccDes= 0.00D+00
 Harris functional with IExCor=  402 and IRadAn=       5 diagonalized for initial guess.
 HarFok:  IExCor=  402 AccDes= 0.00D+00 IRadAn=         5 IDoV= 1 UseB2=F ITyADJ=14
 ICtDFT=  3500011 ScaDFX=  1.000000  1.000000  1.000000  1.000000
 FoFCou: FMM=F IPFlag=           0 FMFlag=      100000 FMFlg1=           0
         NFxFlg=           0 DoJE=T BraDBF=F KetDBF=T FulRan=T
         wScrn=  0.000000 ICntrl=       500 IOpCl=  0 I1Cent=   200000004 NGrid=           0
         NMat0=    1 NMatS0=      1 NMatT0=    0 NMatD0=    1 NMtDS0=    0 NMtDT0=    0
 Petite list used in FoFCou.
 Requested convergence on RMS density matrix=1.00D-08 within 128 cycles.
 Requested convergence on MAX density matrix=1.00D-06.
 Requested convergence on             energy=1.00D-06.
 No special actions if energy rises.
 Integral accuracy reduced to 1.0D-05 until final iterations.
 EnCoef did     2 forward-backward iterations
 EnCoef did     4 forward-backward iterations
 EnCoef did     9 forward-backward iterations
 EnCoef did     3 forward-backward iterations
 EnCoef did     1 forward-backward iterations
 Initial convergence to 1.0D-05 achieved.  Increase integral accuracy.
 SCF Done:  E(RB3LYP) =  -571.216156205     A.U. after   26 cycles
            NFock= 26  Conv=0.23D-08     -V/T= 2.0064

 **********************************************************************

            Population analysis using the SCF density.

 **********************************************************************

 Orbital symmetries:
       Occupied  (A) (A) (A) (A) (A) (A) (A) (A) (A) (A) (A) (A)
                 (A) (A) (A) (A) (A) (A) (A) (A) (A) (A) (A) (A)
                 (A) (A) (A) (A) (A) (A) (A) (A) (A) (A) (A) (A)
                 (A) (A) (A) (A) (A) (A) (A) (A) (A) (A) (A)
       Virtual   (A) (A) (A) (A) (A) (A) (A) (A) (A) (A) (A) (A)
                 (A) (A) (A) (A) (A) (A) (A) (A) (A) (A) (A) (A)
                 (A) (A) (A) (A) (A) (A) (A) (A) (A) (A) (A) (A)
                 (A) (A) (A) (A) (A) (A) (A) (A) (A) (A) (A) (A)
                 (A) (A) (A) (A) (A) (A) (A) (A) (A) (A) (A) (A)
                 (A) (A) (A) (A) (A) (A) (A) (A) (A) (A) (A) (A)
                 (A) (A) (A) (A) (A) (A) (A) (A) (A) (A) (A) (A)
                 (A) (A) (A) (A) (A) (A) (A) (A) (A) (A) (A) (A)
                 (A) (A) (A) (A) (A) (A) (A) (A) (A) (A) (A) (A)
                 (A) (A) (A) (A) (A) (A) (A) (A) (A) (A) (A) (A)
                 (A) (A) (A) (A) (A) (A) (A) (A) (A) (A) (A) (A)
                 (A) (A) (A) (A) (A) (A) (A) (A) (A) (A) (A) (A)
                 (A) (A) (A) (A) (A) (A) (A) (A) (A) (A) (A) (A)
                 (A) (A) (A) (A) (A) (A) (A) (A) (A) (A) (A) (A)
                 (A) (A) (A) (A) (A) (A) (A) (A) (A) (A) (A) (A)
                 (A) (A) (A) (A) (A) (A) (A) (A) (A) (A) (A) (A)
                 (A) (A) (A) (A) (A) (A) (A) (A) (A) (A) (A) (A)
                 (A) (A) (A) (A) (A) (A) (A) (A) (A) (A) (A) (A)
                 (A) (A) (A) (A) (A) (A) (A) (A) (A) (A) (A) (A)
                 (A) (A) (A) (A) (A) (A) (A) (A) (A) (A) (A) (A)
                 (A) (A) (A) (A) (A) (A) (A) (A) (A) (A) (A) (A)
                 (A) (A) (A) (A) (A) (A) (A) (A) (A) (A) (A) (A)
                 (A) (A) (A) (A) (A) (A) (A) (A) (A) (A) (A) (A)
                 (A) (A) (A) (A) (A) (A) (A) (A) (A) (A) (A) (A)
                 (A) (A) (A) (A) (A) (A) (A) (A) (A) (A) (A) (A)
                 (A) (A) (A) (A) (A) (A) (A) (A) (A) (A) (A) (A)
                 (A) (A) (A) (A) (A) (A) (A) (A) (A) (A) (A) (A)
                 (A) (A) (A) (A) (A) (A) (A) (A) (A) (A) (A) (A)
                 (A) (A) (A) (A) (A) (A) (A) (A) (A) (A) (A) (A)
                 (A) (A) (A) (A) (A) (A) (A) (A) (A) (A) (A) (A)
                 (A) (A) (A) (A) (A) (A) (A) (A) (A) (A) (A) (A)
                 (A) (A) (A) (A) (A) (A) (A) (A) (A) (A) (A) (A)
                 (A)
 The electronic state is 1-A.
 Alpha  occ. eigenvalues --  -14.34281 -14.29211 -10.26033 -10.24911 -10.22899
 Alpha  occ. eigenvalues --  -10.22719 -10.22500 -10.22243 -10.22051 -10.21332
 Alpha  occ. eigenvalues --  -10.21183 -10.20352 -10.18103 -10.16062  -0.96945
 Alpha  occ. eigenvalues --   -0.94477  -0.88467  -0.86736  -0.80020  -0.73615
 Alpha  occ. eigenvalues --   -0.71283  -0.66292  -0.65011  -0.61775  -0.57499
 Alpha  occ. eigenvalues --   -0.56314  -0.54322  -0.53351  -0.49506  -0.48046
 Alpha  occ. eigenvalues --   -0.46351  -0.44446  -0.43492  -0.42872  -0.41944
 Alpha  occ. eigenvalues --   -0.41008  -0.39203  -0.39042  -0.37962  -0.35788
 Alpha  occ. eigenvalues --   -0.31004  -0.29629  -0.27452  -0.24287  -0.22719
 Alpha  occ. eigenvalues --   -0.21609  -0.16928
 Alpha virt. eigenvalues --   -0.13332  -0.09329  -0.05824  -0.01537   0.07199
 Alpha virt. eigenvalues --    0.08152   0.10073   0.10328   0.12182   0.13227
 Alpha virt. eigenvalues --    0.13640   0.14487   0.14868   0.15865   0.16711
 Alpha virt. eigenvalues --    0.17848   0.21142   0.22508   0.24654   0.26078
 Alpha virt. eigenvalues --    0.27428   0.27947   0.30198   0.31661   0.32072
 Alpha virt. eigenvalues --    0.33457   0.35492   0.37820   0.39531   0.40401
 Alpha virt. eigenvalues --    0.41793   0.42439   0.44769   0.45278   0.45590
 Alpha virt. eigenvalues --    0.46580   0.48674   0.49363   0.50727   0.51285
 Alpha virt. eigenvalues --    0.52069   0.52656   0.53842   0.54441   0.55233
 Alpha virt. eigenvalues --    0.55799   0.57034   0.57532   0.58065   0.58499
 Alpha virt. eigenvalues --    0.59516   0.61179   0.61468   0.63208   0.64205
 Alpha virt. eigenvalues --    0.65083   0.67367   0.67599   0.68754   0.69242
 Alpha virt. eigenvalues --    0.70025   0.70802   0.71818   0.72350   0.72807
 Alpha virt. eigenvalues --    0.74354   0.74746   0.75822   0.77122   0.77354
 Alpha virt. eigenvalues --    0.77950   0.79369   0.80285   0.81830   0.82533
 Alpha virt. eigenvalues --    0.82828   0.84773   0.86298   0.87548   0.88872
 Alpha virt. eigenvalues --    0.89677   0.90259   0.90688   0.92233   0.94166
 Alpha virt. eigenvalues --    0.94683   0.95111   0.96334   0.97227   0.98995
 Alpha virt. eigenvalues --    1.00100   1.01659   1.03759   1.07096   1.09722
 Alpha virt. eigenvalues --    1.10446   1.11842   1.13109   1.15659   1.18593
 Alpha virt. eigenvalues --    1.20194   1.20728   1.22689   1.23017   1.24170
 Alpha virt. eigenvalues --    1.26556   1.27685   1.30539   1.30855   1.32541
 Alpha virt. eigenvalues --    1.33221   1.34151   1.35711   1.36702   1.38470
 Alpha virt. eigenvalues --    1.40819   1.41235   1.42367   1.44248   1.45013
 Alpha virt. eigenvalues --    1.46900   1.47123   1.47674   1.49306   1.50501
 Alpha virt. eigenvalues --    1.51585   1.53833   1.55140   1.56307   1.56757
 Alpha virt. eigenvalues --    1.57905   1.61257   1.62158   1.63001   1.64558
 Alpha virt. eigenvalues --    1.66151   1.68013   1.68348   1.69647   1.70502
 Alpha virt. eigenvalues --    1.72919   1.74886   1.78997   1.81132   1.84232
 Alpha virt. eigenvalues --    1.85341   1.87153   1.88331   1.91062   1.92624
 Alpha virt. eigenvalues --    1.95361   1.95891   1.97165   2.01417   2.04148
 Alpha virt. eigenvalues --    2.07673   2.10949   2.13569   2.15779   2.18966
 Alpha virt. eigenvalues --    2.19598   2.21156   2.22981   2.24087   2.28419
 Alpha virt. eigenvalues --    2.30613   2.31680   2.33483   2.38629   2.39775
 Alpha virt. eigenvalues --    2.42804   2.45009   2.47450   2.48770   2.50589
 Alpha virt. eigenvalues --    2.52334   2.54615   2.57700   2.59184   2.62027
 Alpha virt. eigenvalues --    2.62658   2.64600   2.69351   2.70001   2.73583
 Alpha virt. eigenvalues --    2.75804   2.77405   2.78035   2.82135   2.82990
 Alpha virt. eigenvalues --    2.84347   2.86356   2.87364   2.88440   2.89719
 Alpha virt. eigenvalues --    2.90748   2.92009   2.92673   2.95012   2.96798
 Alpha virt. eigenvalues --    2.97153   2.99205   2.99834   3.00982   3.02658
 Alpha virt. eigenvalues --    3.03795   3.05269   3.06183   3.07008   3.07441
 Alpha virt. eigenvalues --    3.10112   3.11625   3.13912   3.14467   3.15734
 Alpha virt. eigenvalues --    3.15834   3.18025   3.20906   3.21094   3.23409
 Alpha virt. eigenvalues --    3.23883   3.25284   3.26780   3.27902   3.29621
 Alpha virt. eigenvalues --    3.31572   3.32105   3.33522   3.34788   3.35307
 Alpha virt. eigenvalues --    3.36896   3.37644   3.39187   3.41072   3.41691
 Alpha virt. eigenvalues --    3.42047   3.45887   3.46315   3.47152   3.49544
 Alpha virt. eigenvalues --    3.52663   3.53575   3.56002   3.57158   3.58284
 Alpha virt. eigenvalues --    3.60827   3.62775   3.64544   3.67076   3.67896
 Alpha virt. eigenvalues --    3.69114   3.71841   3.73449   3.74590   3.75891
 Alpha virt. eigenvalues --    3.79019   3.80826   3.82619   3.85888   3.88336
 Alpha virt. eigenvalues --    3.88971   3.90162   3.92070   3.93921   3.94743
 Alpha virt. eigenvalues --    3.96405   3.99363   4.01484   4.02680   4.04334
 Alpha virt. eigenvalues --    4.06350   4.07627   4.11493   4.12771   4.16110
 Alpha virt. eigenvalues --    4.17327   4.19572   4.22656   4.23683   4.26100
 Alpha virt. eigenvalues --    4.27633   4.29078   4.31283   4.33223   4.35277
 Alpha virt. eigenvalues --    4.36859   4.37553   4.38123   4.39644   4.41861
 Alpha virt. eigenvalues --    4.42879   4.43602   4.44922   4.45079   4.46102
 Alpha virt. eigenvalues --    4.48026   4.49206   4.49939   4.52231   4.52808
 Alpha virt. eigenvalues --    4.54006   4.55675   4.56684   4.58848   4.59365
 Alpha virt. eigenvalues --    4.60752   4.61690   4.61847   4.63979   4.64555
 Alpha virt. eigenvalues --    4.65215   4.66420   4.67589   4.68775   4.70431
 Alpha virt. eigenvalues --    4.70523   4.72591   4.74250   4.76020   4.78570
 Alpha virt. eigenvalues --    4.81558   4.84543   4.86569   4.86751   4.88038
 Alpha virt. eigenvalues --    4.89677   4.91763   4.93765   4.94940   4.98755
 Alpha virt. eigenvalues --    5.01401   5.02107   5.04279   5.08381   5.09028
 Alpha virt. eigenvalues --    5.12727   5.13973   5.14912   5.20263   5.21914
 Alpha virt. eigenvalues --    5.24142   5.25056   5.26724   5.31098   5.31966
 Alpha virt. eigenvalues --    5.33448   5.35053   5.37746   5.39281   5.39703
 Alpha virt. eigenvalues --    5.44346   5.47159   5.50239   5.52120   5.55506
 Alpha virt. eigenvalues --    5.59640   5.63742   5.69854   5.77838   5.80064
 Alpha virt. eigenvalues --    5.85028   5.89144   5.93746   6.01679   6.10728
 Alpha virt. eigenvalues --    6.29640   6.32920   6.80871   6.88417   9.83727
 Alpha virt. eigenvalues --   10.16994  10.50010  10.81633  11.04669  11.10020
 Alpha virt. eigenvalues --   11.27620  11.37297  11.47193  11.54496  11.73395
 Alpha virt. eigenvalues --   12.00055  12.25433  12.40529  18.26580  22.78469
          Condensed to atoms (all electrons):
               1          2          3          4          5          6
     1  C    5.027364   0.488846  -0.030076  -0.001007   0.001052  -0.000020
     2  C    0.488846   4.856077   0.520409  -0.008264  -0.011095   0.000224
     3  C   -0.030076   0.520409   5.165596   0.399928  -0.084988   0.005427
     4  C   -0.001007  -0.008264   0.399928   4.483637   0.537462   0.031753
     5  C    0.001052  -0.011095  -0.084988   0.537462   5.143571   0.461844
     6  C   -0.000020   0.000224   0.005427   0.031753   0.461844   4.780778
     7  N    0.000017   0.000090   0.007265  -0.126268  -0.045180   0.578205
     8  C   -0.000714  -0.000473  -0.042279   0.479462  -0.011794  -0.140902
     9  N    0.001094   0.001582  -0.026571  -0.057484   0.009460  -0.006140
    10  C   -0.003170  -0.000494   0.016006  -0.012648  -0.000257   0.000194
    11  C   -0.000300   0.000169  -0.000514   0.001936  -0.000033   0.000013
    12  C    0.006765   0.001173  -0.002043   0.000010   0.000010  -0.000001
    13  C   -0.019303  -0.013445   0.008679  -0.001912  -0.000057   0.000012
    14  C    0.430927  -0.050646  -0.016784   0.003128  -0.000026   0.000005
    15  H    0.358108  -0.039880  -0.012798   0.000829   0.000025  -0.000000
    16  H   -0.050334   0.376270  -0.047098  -0.012101   0.005106   0.000001
    17  H   -0.014628  -0.050310   0.358707  -0.030112   0.005625  -0.000177
    18  H   -0.000007   0.002436  -0.005490  -0.025325   0.355416  -0.035097
    19  H    0.000000   0.000001  -0.000342  -0.001364  -0.050052   0.357919
    20  H    0.000001   0.000004   0.000002  -0.000007  -0.000000   0.000001
    21  H    0.000065  -0.000003  -0.000000  -0.000000   0.000000   0.000000
    22  H   -0.065401   0.005906   0.001185  -0.000038  -0.000001  -0.000000
               7          8          9         10         11         12
     1  C    0.000017  -0.000714   0.001094  -0.003170  -0.000300   0.006765
     2  C    0.000090  -0.000473   0.001582  -0.000494   0.000169   0.001173
     3  C    0.007265  -0.042279  -0.026571   0.016006  -0.000514  -0.002043
     4  C   -0.126268   0.479462  -0.057484  -0.012648   0.001936   0.000010
     5  C   -0.045180  -0.011794   0.009460  -0.000257  -0.000033   0.000010
     6  C    0.578205  -0.140902  -0.006140   0.000194   0.000013  -0.000001
     7  N    6.463351   0.438862   0.001682  -0.000520  -0.000291   0.000013
     8  C    0.438862   4.567455   0.503695  -0.069161   0.003052  -0.000449
     9  N    0.001682   0.503695   6.529338   0.526163  -0.013032   0.004625
    10  C   -0.000520  -0.069161   0.526163   4.633909   0.370602  -0.042098
    11  C   -0.000291   0.003052  -0.013032   0.370602   5.032793   0.421663
    12  C    0.000013  -0.000449   0.004625  -0.042098   0.421663   5.191618
    13  C   -0.000088   0.003361  -0.048878   0.315535  -0.056068   0.368322
    14  C   -0.000015  -0.000139  -0.001423  -0.035188   0.008323  -0.068283
    15  H    0.000000  -0.000037   0.000010  -0.000730   0.000248   0.001218
    16  H   -0.000007  -0.000303   0.000034   0.000062   0.000008   0.000017
    17  H    0.000141  -0.008151   0.001564   0.005801   0.000165  -0.000151
    18  H    0.004445   0.005542  -0.000021  -0.000009  -0.000000  -0.000000
    19  H   -0.024701   0.008865  -0.000027   0.000003  -0.000000   0.000000
    20  H   -0.000005   0.000335  -0.002525  -0.018629   0.349432  -0.029685
    21  H   -0.000000   0.000001  -0.000143   0.002233  -0.027848   0.362480
    22  H    0.000000  -0.000001  -0.000025   0.001623   0.000345  -0.005209
              13         14         15         16         17         18
     1  C   -0.019303   0.430927   0.358108  -0.050334  -0.014628  -0.000007
     2  C   -0.013445  -0.050646  -0.039880   0.376270  -0.050310   0.002436
     3  C    0.008679  -0.016784  -0.012798  -0.047098   0.358707  -0.005490
     4  C   -0.001912   0.003128   0.000829  -0.012101  -0.030112  -0.025325
     5  C   -0.000057  -0.000026   0.000025   0.005106   0.005625   0.355416
     6  C    0.000012   0.000005  -0.000000   0.000001  -0.000177  -0.035097
     7  N   -0.000088  -0.000015   0.000000  -0.000007   0.000141   0.004445
     8  C    0.003361  -0.000139  -0.000037  -0.000303  -0.008151   0.005542
     9  N   -0.048878  -0.001423   0.000010   0.000034   0.001564  -0.000021
    10  C    0.315535  -0.035188  -0.000730   0.000062   0.005801  -0.000009
    11  C   -0.056068   0.008323   0.000248   0.000008   0.000165  -0.000000
    12  C    0.368322  -0.068283   0.001218   0.000017  -0.000151  -0.000000
    13  C    4.861441   0.500762  -0.015868  -0.000205   0.003386   0.000006
    14  C    0.500762   5.190998  -0.071688  -0.001031  -0.001899   0.000002
    15  H   -0.015868  -0.071688   0.648289   0.006677   0.002742  -0.000001
    16  H   -0.000205  -0.001031   0.006677   0.593123   0.005616   0.000526
    17  H    0.003386  -0.001899   0.002742   0.005616   0.602095  -0.000081
    18  H    0.000006   0.000002  -0.000001   0.000526  -0.000081   0.594363
    19  H    0.000000  -0.000000   0.000000   0.000004   0.000010   0.000738
    20  H    0.006960  -0.000299   0.000001   0.000000  -0.000016   0.000000
    21  H   -0.017745  -0.000933  -0.000003  -0.000000   0.000001  -0.000000
    22  H   -0.040777   0.353386   0.000157  -0.000350  -0.000054  -0.000000
              19         20         21         22
     1  C    0.000000   0.000001   0.000065  -0.065401
     2  C    0.000001   0.000004  -0.000003   0.005906
     3  C   -0.000342   0.000002  -0.000000   0.001185
     4  C   -0.001364  -0.000007  -0.000000  -0.000038
     5  C   -0.050052  -0.000000   0.000000  -0.000001
     6  C    0.357919   0.000001   0.000000  -0.000000
     7  N   -0.024701  -0.000005  -0.000000   0.000000
     8  C    0.008865   0.000335   0.000001  -0.000001
     9  N   -0.000027  -0.002525  -0.000143  -0.000025
    10  C    0.000003  -0.018629   0.002233   0.001623
    11  C   -0.000000   0.349432  -0.027848   0.000345
    12  C    0.000000  -0.029685   0.362480  -0.005209
    13  C    0.000000   0.006960  -0.017745  -0.040777
    14  C   -0.000000  -0.000299  -0.000933   0.353386
    15  H    0.000000   0.000001  -0.000003   0.000157
    16  H    0.000004   0.000000  -0.000000  -0.000350
    17  H    0.000010  -0.000016   0.000001  -0.000054
    18  H    0.000738   0.000000  -0.000000  -0.000000
    19  H    0.606617  -0.000000  -0.000000   0.000000
    20  H   -0.000000   0.539626   0.000896   0.000004
    21  H   -0.000000   0.000896   0.539410   0.000168
    22  H    0.000000   0.000004   0.000168   0.642507
 Mulliken charges:
               1
     1  C   -0.129280
     2  C   -0.078578
     3  C   -0.214221
     4  C    0.338384
     5  C   -0.316088
     6  C   -0.034038
     7  N   -0.296997
     8  C    0.263774
     9  N   -0.422978
    10  C    0.310773
    11  C   -0.090663
    12  C   -0.209994
    13  C    0.145882
    14  C   -0.239178
    15  H    0.122700
    16  H    0.123984
    17  H    0.119729
    18  H    0.102558
    19  H    0.102328
    20  H    0.153906
    21  H    0.141423
    22  H    0.106574
 Sum of Mulliken charges =  -0.00000
 Mulliken charges with hydrogens summed into heavy atoms:
               1
     1  C   -0.006580
     2  C    0.045406
     3  C   -0.094492
     4  C    0.338384
     5  C   -0.213530
     6  C    0.068290
     7  N   -0.296997
     8  C    0.263774
     9  N   -0.422978
    10  C    0.310773
    11  C    0.063243
    12  C   -0.068571
    13  C    0.145882
    14  C   -0.132605
 Electronic spatial extent (au):  <R**2>=           2376.2435
 Charge=             -0.0000 electrons
 Dipole moment (field-independent basis, Debye):
    X=             -4.2579    Y=              2.5544    Z=              1.0500  Tot=              5.0751
 Quadrupole moment (field-independent basis, Debye-Ang):
   XX=            -72.6813   YY=            -79.1027   ZZ=            -79.4115
   XY=             10.4500   XZ=             -1.4631   YZ=             -2.2217
 Traceless Quadrupole moment (field-independent basis, Debye-Ang):
   XX=              4.3839   YY=             -2.0375   ZZ=             -2.3463
   XY=             10.4500   XZ=             -1.4631   YZ=             -2.2217
 Octapole moment (field-independent basis, Debye-Ang**2):
  XXX=            -18.3615  YYY=             -0.9760  ZZZ=              2.7607  XYY=            -25.1890
  XXY=              7.4167  XXZ=              2.6137  XZZ=             -0.5279  YZZ=              0.3911
  YYZ=              2.1628  XYZ=              0.0402
 Hexadecapole moment (field-independent basis, Debye-Ang**3):
 XXXX=          -1869.5084 YYYY=          -1072.7629 ZZZZ=           -144.7091 XXXY=             75.1915
 XXXZ=            -18.9995 YYYX=             77.3811 YYYZ=            -21.8578 ZZZX=             -5.0006
 ZZZY=              0.1897 XXYY=           -520.2337 XXZZ=           -381.5462 YYZZ=           -203.2604
 XXYZ=            -14.1900 YYXZ=             -4.5340 ZZXY=             -4.7795
 N-N= 7.882765984359D+02 E-N=-2.902653657000D+03  KE= 5.676094804157D+02
 PrsmSu:  requested number of processors reduced to:  13 ShMem   1 Linda.
 Calling FoFJK, ICntrl=      2127 FMM=F ISym2X=0 I1Cent= 0 IOpClX= 0 NMat=1 NMatS=1 NMatT=0.
 ***** Axes restored to original set *****
 -------------------------------------------------------------------
 Center     Atomic                   Forces (Hartrees/Bohr)
 Number     Number              X              Y              Z
 -------------------------------------------------------------------
      1        6           0.037468526   -0.097214205   -0.019778449
      2        6          -0.025129710    0.005285584    0.050640105
      3        6           0.006241339   -0.005005078   -0.034118246
      4        6          -0.038410431   -0.001810274   -0.006865996
      5        6           0.039162465    0.003662676    0.001659963
      6        6           0.014330386   -0.041414523    0.044713942
      7        7          -0.000456152    0.032348153   -0.010996682
      8        6           0.023687443   -0.017910186   -0.008618160
      9        7          -0.072304262    0.028666353   -0.008373450
     10        6           0.130824040   -0.077101315    0.041831235
     11        6          -0.054258181    0.039540939   -0.047069785
     12        6          -0.006532069    0.073333324   -0.081636826
     13        6          -0.030499526   -0.069576012    0.160843760
     14        6          -0.005223627    0.110859253   -0.069820845
     15        1          -0.013723459    0.000817580    0.008631159
     16        1           0.008866945    0.003289167   -0.005716746
     17        1          -0.004191079   -0.007260544    0.004228962
     18        1           0.006203695   -0.010499527    0.005513532
     19        1          -0.000431256    0.010750710   -0.011351388
     20        1          -0.005512248    0.002412130    0.001821241
     21        1          -0.008371309   -0.007353055    0.011384781
     22        1          -0.001741527    0.024178851   -0.026922107
 -------------------------------------------------------------------
 Cartesian Forces:  Max     0.160843760 RMS     0.043674243

 GradGradGradGradGradGradGradGradGradGradGradGradGradGradGradGradGradGrad
 Berny optimization.
 FormGI is forming the generalized inverse of G from B-inverse, IUseBI=4.
 Internal  Forces:  Max     0.102405019 RMS     0.022024432
 Search for a local minimum.
 Step number   1 out of a maximum of  128
 All quantities printed in internal units (Hartrees-Bohrs-Radians)
 Mixed Optimization -- RFO/linear search
 Second derivative matrix not updated -- first step.
 ITU=  0
     Eigenvalues ---    0.00912   0.01198   0.01673   0.01930   0.01937
     Eigenvalues ---    0.02007   0.02103   0.02164   0.02180   0.02247
     Eigenvalues ---    0.02333   0.02416   0.02432   0.02556   0.02602
     Eigenvalues ---    0.02915   0.03148   0.04539   0.07266   0.10629
     Eigenvalues ---    0.13245   0.14372   0.14952   0.15488   0.15632
     Eigenvalues ---    0.15868   0.15985   0.15999   0.18669   0.22490
     Eigenvalues ---    0.22627   0.23357   0.23755   0.24565   0.24870
     Eigenvalues ---    0.24925   0.24994   0.30890   0.33035   0.33659
     Eigenvalues ---    0.33738   0.34471   0.34920   0.35129   0.35434
     Eigenvalues ---    0.35957   0.37934   0.38433   0.39734   0.41450
     Eigenvalues ---    0.45077   0.45268   0.46285   0.47576   0.53739
     Eigenvalues ---    0.54256   0.55766   0.57734   0.64484   0.66992
 RFO step:  Lambda=-1.22909084D-01 EMin= 9.12118682D-03
 Linear search not attempted -- first point.
 Maximum step size (   0.300) exceeded in Quadratic search.
    -- Step size scaled by   0.612
 Iteration  1 RMS(Cart)=  0.06609823 RMS(Int)=  0.00167032
 Iteration  2 RMS(Cart)=  0.00207803 RMS(Int)=  0.00032272
 Iteration  3 RMS(Cart)=  0.00000277 RMS(Int)=  0.00032272
 Iteration  4 RMS(Cart)=  0.00000000 RMS(Int)=  0.00032272
 Variable       Old X    -DE/DX   Delta X   Delta X   Delta X     New X
                                 (Linear)    (Quad)   (Total)
    R1        2.68787   0.01721   0.00000   0.02033   0.02015   2.70802
    R2        2.55538   0.10241   0.00000   0.09400   0.09402   2.64939
    R3        2.08991   0.00072   0.00000   0.00097   0.00097   2.09087
    R4        2.51566   0.03888   0.00000   0.03461   0.03475   2.55040
    R5        2.05805  -0.00105   0.00000  -0.00136  -0.00136   2.05669
    R6        2.63617   0.02460   0.00000   0.02631   0.02612   2.66229
    R7        2.06543  -0.00257   0.00000  -0.00336  -0.00336   2.06207
    R8        2.51842   0.05439   0.00000   0.04789   0.04794   2.56637
    R9        2.72282   0.01805   0.00000   0.02279   0.02294   2.74576
   R10        2.73200  -0.00094   0.00000  -0.00128  -0.00141   2.73059
   R11        2.01161   0.01035   0.00000   0.01261   0.01261   2.02422
   R12        2.45463   0.03179   0.00000   0.02341   0.02330   2.47792
   R13        2.07774  -0.00789   0.00000  -0.01048  -0.01048   2.06726
   R14        2.59726   0.00488   0.00000   0.00407   0.00414   2.60141
   R15        2.45234   0.02819   0.00000   0.02130   0.02146   2.47380
   R16        2.63803  -0.05451   0.00000  -0.05796  -0.05782   2.58022
   R17        2.54738   0.09336   0.00000   0.08518   0.08535   2.63273
   R18        2.80550   0.02988   0.00000   0.04037   0.04072   2.84623
   R19        2.68831  -0.01551   0.00000  -0.01969  -0.02001   2.66830
   R20        2.04976  -0.00305   0.00000  -0.00390  -0.00390   2.04586
   R21        2.57074   0.07973   0.00000   0.07386   0.07369   2.64442
   R22        2.04148  -0.00099   0.00000  -0.00125  -0.00125   2.04023
   R23        2.99213  -0.09681   0.00000  -0.16070  -0.16082   2.83131
   R24        2.07909   0.00024   0.00000   0.00032   0.00032   2.07941
    A1        1.97859   0.00449   0.00000   0.02097   0.01960   1.99820
    A2        1.93488   0.00490   0.00000   0.01596   0.01535   1.95023
    A3        1.97706   0.00440   0.00000   0.01786   0.01737   1.99443
    A4        1.99767  -0.01223   0.00000  -0.01521  -0.01523   1.98244
    A5        2.03089   0.01142   0.00000   0.02007   0.01987   2.05076
    A6        2.14346  -0.00162   0.00000  -0.00900  -0.00894   2.13452
    A7        2.06417   0.00954   0.00000   0.01546   0.01472   2.07889
    A8        2.10561  -0.01284   0.00000  -0.02619  -0.02578   2.07983
    A9        2.01386   0.00214   0.00000   0.00717   0.00737   2.02123
   A10        2.23007   0.02925   0.00000   0.04259   0.04261   2.27268
   A11        2.14108  -0.01300   0.00000  -0.01715  -0.01733   2.12375
   A12        1.91190  -0.01626   0.00000  -0.02549  -0.02532   1.88658
   A13        1.76585   0.00885   0.00000   0.02031   0.02030   1.78616
   A14        2.19056   0.00275   0.00000   0.00588   0.00591   2.19647
   A15        2.31401  -0.01151   0.00000  -0.02541  -0.02541   2.28860
   A16        2.01630  -0.00682   0.00000  -0.01224  -0.01241   2.00389
   A17        2.05676   0.01746   0.00000   0.03656   0.03664   2.09340
   A18        2.20908  -0.01059   0.00000  -0.02415  -0.02408   2.18500
   A19        1.82353   0.00737   0.00000   0.01037   0.01040   1.83393
   A20        1.87704   0.00790   0.00000   0.01236   0.01215   1.88919
   A21        2.25921  -0.00264   0.00000  -0.00074  -0.00106   2.25816
   A22        2.14691  -0.00520   0.00000  -0.01135  -0.01171   2.13520
   A23        2.23099   0.01597   0.00000   0.02847   0.02880   2.25979
   A24        2.09580   0.01259   0.00000   0.01887   0.01848   2.11428
   A25        2.62607   0.00663   0.00000   0.00905   0.00901   2.63508
   A26        1.56099  -0.01912   0.00000  -0.02752  -0.02722   1.53377
   A27        1.58767   0.01436   0.00000   0.02390   0.02381   1.61148
   A28        2.26841  -0.00210   0.00000  -0.00085  -0.00081   2.26760
   A29        2.42441  -0.01215   0.00000  -0.02244  -0.02242   2.40199
   A30        1.59859   0.00196   0.00000  -0.00157  -0.00195   1.59664
   A31        2.17390   0.01521   0.00000   0.03578   0.03597   2.20987
   A32        2.51068  -0.01717   0.00000  -0.03422  -0.03403   2.47665
   A33        1.53389   0.00282   0.00000   0.00542   0.00559   1.53947
   A34        2.40045   0.01975   0.00000   0.03145   0.03127   2.43172
   A35        2.33997  -0.02264   0.00000  -0.03714  -0.03710   2.30287
   A36        2.14088  -0.01056   0.00000  -0.01498  -0.01547   2.12541
   A37        1.81960   0.04160   0.00000   0.09261   0.09309   1.91269
   A38        2.16738  -0.03016   0.00000  -0.06852  -0.06837   2.09902
    D1       -1.27083  -0.01032   0.00000  -0.05196  -0.05191  -1.32274
    D2        1.39684  -0.01569   0.00000  -0.06289  -0.06318   1.33366
    D3        0.97550   0.00367   0.00000   0.00376   0.00398   0.97947
    D4       -2.64002  -0.00170   0.00000  -0.00718  -0.00729  -2.64731
    D5        1.13116   0.00466   0.00000   0.00476   0.00441   1.13557
    D6       -2.56249  -0.00173   0.00000   0.00085   0.00116  -2.56133
    D7       -1.09334  -0.00995   0.00000  -0.05143  -0.05194  -1.14528
    D8        1.49619  -0.01634   0.00000  -0.05534  -0.05518   1.44101
    D9        2.44559  -0.00436   0.00000  -0.01099  -0.01151   2.43408
   D10       -0.21023  -0.00245   0.00000  -0.00513  -0.00537  -0.21561
   D11       -0.18787  -0.00226   0.00000  -0.00788  -0.00823  -0.19610
   D12       -2.84369  -0.00035   0.00000  -0.00202  -0.00209  -2.84579
   D13        1.11814   0.01224   0.00000   0.04153   0.04132   1.15946
   D14       -2.00392   0.01251   0.00000   0.04444   0.04463  -1.95929
   D15       -2.48421   0.00617   0.00000   0.02663   0.02620  -2.45801
   D16        0.67691   0.00644   0.00000   0.02954   0.02951   0.70642
   D17        2.95912   0.00359   0.00000   0.01793   0.01842   2.97754
   D18       -0.02940   0.00418   0.00000   0.01576   0.01588  -0.01352
   D19       -0.19992   0.00330   0.00000   0.01530   0.01542  -0.18450
   D20        3.09475   0.00389   0.00000   0.01313   0.01288   3.10763
   D21       -2.91341  -0.00571   0.00000  -0.02638  -0.02673  -2.94015
   D22        0.22136   0.00474   0.00000   0.01872   0.01861   0.23997
   D23        0.24456  -0.00595   0.00000  -0.02464  -0.02477   0.21979
   D24       -2.90384   0.00451   0.00000   0.02046   0.02057  -2.88327
   D25        0.10314   0.00042   0.00000  -0.00101  -0.00129   0.10185
   D26       -2.99251  -0.00057   0.00000  -0.00401  -0.00421  -2.99672
   D27        3.07535   0.00191   0.00000   0.00610   0.00600   3.08135
   D28       -0.02030   0.00092   0.00000   0.00311   0.00308  -0.01722
   D29        0.04388  -0.00309   0.00000  -0.01162  -0.01163   0.03225
   D30        3.13488  -0.00114   0.00000  -0.00644  -0.00666   3.12822
   D31       -0.16563   0.00235   0.00000   0.01715   0.01765  -0.14798
   D32        2.98224  -0.00729   0.00000  -0.02442  -0.02387   2.95837
   D33        0.12609   0.00307   0.00000   0.00003  -0.00094   0.12516
   D34       -3.02325   0.01500   0.00000   0.05139   0.05012  -2.97313
   D35       -2.83220  -0.00491   0.00000  -0.03280  -0.03362  -2.86582
   D36        0.27028   0.00010   0.00000  -0.00974  -0.01040   0.25988
   D37        3.07842   0.00226   0.00000   0.01359   0.01361   3.09203
   D38        0.00480   0.00134   0.00000   0.00679   0.00667   0.01147
   D39       -0.04389  -0.00043   0.00000   0.00192   0.00205  -0.04185
   D40       -3.11752  -0.00134   0.00000  -0.00488  -0.00489  -3.12241
   D41       -3.06183  -0.00583   0.00000  -0.02401  -0.02394  -3.08577
   D42        0.21710  -0.00230   0.00000  -0.01707  -0.01711   0.19998
   D43        0.04593  -0.00126   0.00000  -0.00369  -0.00372   0.04221
   D44       -2.95834   0.00227   0.00000   0.00325   0.00311  -2.95522
   D45        0.04792  -0.00052   0.00000  -0.00280  -0.00289   0.04503
   D46       -3.08958  -0.00006   0.00000  -0.00064  -0.00047  -3.09005
   D47        3.11024   0.00152   0.00000   0.00712   0.00693   3.11717
   D48       -0.02726   0.00197   0.00000   0.00928   0.00935  -0.01791
   D49       -0.04353  -0.00065   0.00000   0.00174   0.00190  -0.04163
   D50        2.96907   0.00168   0.00000   0.00435   0.00468   2.97374
   D51        3.09234  -0.00109   0.00000  -0.00087  -0.00086   3.09148
   D52       -0.17825   0.00125   0.00000   0.00174   0.00192  -0.17633
   D53       -1.17071   0.01750   0.00000   0.06643   0.06612  -1.10458
   D54        2.63255   0.00140   0.00000   0.01680   0.01715   2.64970
   D55        2.16246   0.01822   0.00000   0.06924   0.06882   2.23128
   D56       -0.31747   0.00212   0.00000   0.01961   0.01984  -0.29762
         Item               Value     Threshold  Converged?
 Maximum Force            0.102405     0.000450     NO 
 RMS     Force            0.022024     0.000300     NO 
 Maximum Displacement     0.286210     0.001800     NO 
 RMS     Displacement     0.065858     0.001200     NO 
 Predicted change in Energy=-5.996042D-02
 GradGradGradGradGradGradGradGradGradGradGradGradGradGradGradGradGradGrad

                          Input orientation:                          
 ---------------------------------------------------------------------
 Center     Atomic      Atomic             Coordinates (Angstroms)
 Number     Number       Type             X           Y           Z
 ---------------------------------------------------------------------
      1          6           0        1.287712    0.040552   -0.465889
      2          6           0        2.575747   -0.490481   -0.130445
      3          6           0        3.356791   -0.731623   -1.204356
      4          6           0        4.728424   -0.416791   -1.138851
      5          6           0        5.716688   -0.956602   -0.379725
      6          6           0        6.903390   -0.357850   -0.946433
      7          7           0        6.676692    0.551492   -1.863552
      8          6           0        5.305681    0.649621   -1.939304
      9          7           0        4.707776    1.603127   -2.607902
     10          6           0        3.386240    1.945074   -2.638053
     11          6           0        2.877654    2.767843   -3.640718
     12          6           0        1.560383    2.655057   -3.144906
     13          6           0        1.993602    1.872019   -2.069078
     14          6           0        1.294644    1.393552   -0.833231
     15          1           0        0.742849   -0.618572   -1.167953
     16          1           0        2.988712   -0.230467    0.842368
     17          1           0        2.911945   -0.712104   -2.200573
     18          1           0        5.598263   -1.743954    0.336836
     19          1           0        7.892643   -0.702568   -0.631360
     20          1           0        3.377862    3.223816   -4.485674
     21          1           0        0.669613    3.082221   -3.580436
     22          1           0        0.357760    1.869330   -0.506556
 ---------------------------------------------------------------------
                    Distance matrix (angstroms):
                    1          2          3          4          5
     1  C    0.000000
     2  C    1.433023   0.000000
     3  C    2.328663   1.349615   0.000000
     4  C    3.535610   2.378304   1.408825   0.000000
     5  C    4.540657   3.185108   2.509929   1.358062   0.000000
     6  C    5.650264   4.405895   3.575555   2.184256   1.444965
     7  N    5.590673   4.572430   3.619761   2.293145   2.323295
     8  C    4.322729   3.467613   2.499231   1.452992   2.276217
     9  N    4.327435   3.881563   3.040750   2.497720   3.540464
    10  C    3.570619   3.588444   3.036620   3.102817   4.353246
    11  C    4.477228   4.798942   4.290886   4.452706   5.706635
    12  C    3.753280   4.473516   4.296791   4.847369   6.161588
    13  C    2.534317   3.111044   3.063491   3.685543   4.971557
    14  C    1.401997   2.384264   2.984384   3.893789   5.028256
    15  H    1.106442   2.110058   2.616638   3.990785   5.047240
    16  H    2.162958   1.088353   2.139093   2.643207   3.076140
    17  H    2.492740   2.108927   1.091200   2.124632   3.352886
    18  H    4.733886   3.305320   2.902461   2.166941   1.071171
    19  H    6.648663   5.344649   4.571993   3.217374   2.205138
    20  H    5.537198   5.779915   5.139357   5.126331   6.309106
    21  H    4.397067   5.319773   5.235655   5.888834   7.213155
    22  H    2.052046   3.260313   4.030641   4.972811   6.059710
                    6          7          8          9         10
     6  C    0.000000
     7  N    1.311260   0.000000
     8  C    2.133885   1.376605   0.000000
     9  N    3.380330   2.353003   1.309079   0.000000
    10  C    4.531598   3.656364   2.418822   1.365391   0.000000
    11  C    5.765040   4.743757   3.643760   2.402628   1.393179
    12  C    6.516027   5.678333   4.416164   3.361697   2.023544
    13  C    5.508055   4.870048   3.532841   2.780176   1.506158
    14  C    5.876925   5.544102   4.226730   3.852642   2.817150
    15  H    6.170033   6.087972   4.798200   4.767603   3.964971
    16  H    4.305896   4.640546   3.725668   4.268678   4.123632
    17  H    4.198809   3.985421   2.766320   2.958246   2.734399
    18  H    2.295957   3.357646   3.315964   4.546141   5.229908
    19  H    1.093948   2.137639   3.198672   4.400719   5.598615
    20  H    6.146862   4.989902   4.102069   2.814487   2.246988
    21  H    7.591576   6.740718   5.486709   4.409116   3.092127
    22  H    6.928138   6.595987   5.293617   4.838301   3.704148
                   11         12         13         14         15
    11  C    0.000000
    12  C    1.412003   0.000000
    13  C    2.013481   1.399369   0.000000
    14  C    3.503796   2.646857   1.498262   0.000000
    15  H    4.705292   3.910671   2.929070   2.113092   0.000000
    16  H    5.394466   5.124912   3.726555   2.883563   3.039064
    17  H    3.766328   3.749167   2.745603   2.986481   2.404169
    18  H    6.601437   6.912184   5.644224   5.452901   5.206334
    19  H    6.800743   7.595332   6.595014   6.925897   7.170393
    20  H    1.082621   2.329029   3.095718   4.585848   5.719660
    21  H    2.231123   1.079642   2.345579   3.284723   4.418292
    22  H    4.120700   3.004090   2.262180   1.100379   2.602959
                   16         17         18         19         20
    16  H    0.000000
    17  H    3.081778   0.000000
    18  H    3.058752   3.836595   0.000000
    19  H    5.142304   5.222056   2.699272   0.000000
    20  H    6.361725   4.574957   7.270868   7.117266   0.000000
    21  H    5.992772   4.618330   7.932753   8.671438   2.859041
    22  H    3.626383   4.007163   6.421059   7.962706   5.175812
                   21         22
    21  H    0.000000
    22  H    3.319201   0.000000
 Stoichiometry    C12H8N2
 Framework group  C1[X(C12H8N2)]
 Deg. of freedom    60
 Full point group                 C1      NOp   1
 Largest Abelian subgroup         C1      NOp   1
 Largest concise Abelian subgroup C1      NOp   1
                         Standard orientation:                         
 ---------------------------------------------------------------------
 Center     Atomic      Atomic             Coordinates (Angstroms)
 Number     Number       Type             X           Y           Z
 ---------------------------------------------------------------------
      1          6           0       -1.533365    2.334133    0.024208
      2          6           0       -0.104566    2.255804   -0.052944
      3          6           0        0.429130    1.315796    0.755149
      4          6           0        1.495051    0.527354    0.278744
      5          6           0        2.766322    0.876351   -0.047453
      6          6           0        3.399783   -0.408209   -0.238643
      7          7           0        2.589360   -1.436863   -0.171646
      8          6           0        1.339696   -0.895648    0.029515
      9          7           0        0.245743   -1.609919   -0.052763
     10          6           0       -1.057810   -1.203708   -0.058592
     11          6           0       -2.094426   -2.105321    0.172637
     12          6           0       -3.071651   -1.088539    0.102372
     13          6           0       -2.100872   -0.125956   -0.196385
     14          6           0       -2.208757    1.300893   -0.640516
     15          1           0       -1.878782    2.510416    1.060463
     16          1           0        0.365251    2.553212   -0.988536
     17          1           0       -0.196903    0.855418    1.521212
     18          1           0        3.177104    1.864537   -0.001029
     19          1           0        4.482699   -0.467060   -0.382010
     20          1           0       -2.058058   -3.166351    0.384680
     21          1           0       -4.133503   -1.203943    0.259790
     22          1           0       -3.154731    1.683547   -1.052270
 ---------------------------------------------------------------------
 Rotational constants (GHZ):           1.2817002           0.6466817           0.4455874
 Standard basis: 6-31G(2df,p) (6D, 7F)
 There are   474 symmetry adapted cartesian basis functions of A   symmetry.
 There are   432 symmetry adapted basis functions of A   symmetry.
   432 basis functions,   672 primitive gaussians,   474 cartesian basis functions
    47 alpha electrons       47 beta electrons
       nuclear repulsion energy       782.5123157322 Hartrees.
 NAtoms=   22 NActive=   22 NUniq=   22 SFac= 1.00D+00 NAtFMM=   60 NAOKFM=F Big=F
 Integral buffers will be    131072 words long.
 Raffenetti 2 integral format.
 Two-electron integral symmetry is turned on.
 One-electron integrals computed using PRISM.
 PrsmSu:  requested number of processors reduced to:  13 ShMem   1 Linda.
 NBasis=   432 RedAO= T EigKep=  1.04D-04  NBF=   432
 NBsUse=   432 1.00D-06 EigRej= -1.00D+00 NBFU=   432
 Initial guess from the checkpoint file:  "c1ccc2ccnc-2nc2ccc-2c1.chk"
 B after Tr=    -0.000000    0.000000    0.000000
         Rot=    0.999988    0.004385   -0.001413    0.001500 Ang=   0.56 deg.
 ExpMin= 1.61D-01 ExpMax= 4.17D+03 ExpMxC= 6.27D+02 IAcc=2 IRadAn=         4 AccDes= 0.00D+00
 Harris functional with IExCor=  402 and IRadAn=       4 diagonalized for initial guess.
 HarFok:  IExCor=  402 AccDes= 0.00D+00 IRadAn=         4 IDoV= 1 UseB2=F ITyADJ=14
 ICtDFT=  3500011 ScaDFX=  1.000000  1.000000  1.000000  1.000000
 FoFCou: FMM=F IPFlag=           0 FMFlag=      100000 FMFlg1=           0
         NFxFlg=           0 DoJE=T BraDBF=F KetDBF=T FulRan=T
         wScrn=  0.000000 ICntrl=       500 IOpCl=  0 I1Cent=   200000004 NGrid=           0
         NMat0=    1 NMatS0=      1 NMatT0=    0 NMatD0=    1 NMtDS0=    0 NMtDT0=    0
 Petite list used in FoFCou.
 Requested convergence on RMS density matrix=1.00D-08 within 128 cycles.
 Requested convergence on MAX density matrix=1.00D-06.
 Requested convergence on             energy=1.00D-06.
 No special actions if energy rises.
 Integral accuracy reduced to 1.0D-05 until final iterations.
 EnCoef did     3 forward-backward iterations
 Initial convergence to 1.0D-05 achieved.  Increase integral accuracy.
 EnCoef did     8 forward-backward iterations
 SCF Done:  E(RB3LYP) =  -571.279183706     A.U. after   17 cycles
            NFock= 17  Conv=0.75D-08     -V/T= 2.0074
 PrsmSu:  requested number of processors reduced to:  13 ShMem   1 Linda.
 Calling FoFJK, ICntrl=      2127 FMM=F ISym2X=0 I1Cent= 0 IOpClX= 0 NMat=1 NMatS=1 NMatT=0.
 ***** Axes restored to original set *****
 -------------------------------------------------------------------
 Center     Atomic                   Forces (Hartrees/Bohr)
 Number     Number              X              Y              Z
 -------------------------------------------------------------------
      1        6           0.039235644   -0.057198308   -0.011557840
      2        6          -0.026357965    0.011885733    0.027984666
      3        6           0.009815701   -0.001443682   -0.017417344
      4        6          -0.025076386   -0.007852692   -0.001157768
      5        6           0.024039980    0.007779029   -0.005170292
      6        6           0.001702917   -0.030396137    0.033379704
      7        7          -0.007901216    0.026055645   -0.006954718
      8        6           0.025592428   -0.016249462   -0.005200656
      9        7          -0.060484279    0.022002136   -0.004899098
     10        6           0.088413410   -0.054552563    0.016674685
     11        6          -0.047988511    0.023103419   -0.022990111
     12        6           0.018176740    0.055377849   -0.057164991
     13        6          -0.021762385   -0.049446198    0.121868657
     14        6          -0.006133214    0.060993761   -0.055845639
     15        1          -0.010901178    0.005641656    0.008549186
     16        1           0.007234372    0.002903110   -0.005172076
     17        1          -0.002578572   -0.006150807    0.002655447
     18        1           0.005133334   -0.006433105    0.002297490
     19        1          -0.000533659    0.007527052   -0.008403374
     20        1          -0.003616237    0.002168471    0.000535843
     21        1          -0.006606077   -0.005402743    0.009899886
     22        1           0.000595155    0.009687834   -0.021911658
 -------------------------------------------------------------------
 Cartesian Forces:  Max     0.121868657 RMS     0.030979133

 GradGradGradGradGradGradGradGradGradGradGradGradGradGradGradGradGradGrad
 Berny optimization.
 Using GEDIIS/GDIIS optimizer.
 FormGI is forming the generalized inverse of G from B-inverse, IUseBI=4.
 Internal  Forces:  Max     0.075016237 RMS     0.014559310
 Search for a local minimum.
 Step number   2 out of a maximum of  128
 All quantities printed in internal units (Hartrees-Bohrs-Radians)
 Mixed Optimization -- RFO/linear search
 Update second derivatives using D2CorX and points    1    2
 DE= -6.30D-02 DEPred=-6.00D-02 R= 1.05D+00
 TightC=F SS=  1.41D+00  RLast= 3.56D-01 DXNew= 5.0454D-01 1.0680D+00
 Trust test= 1.05D+00 RLast= 3.56D-01 DXMaxT set to 5.05D-01
 ITU=  1  0
 Use linear search instead of GDIIS.
 Linear search step of   0.586 exceeds DXMaxT=   0.505 but not scaled.
 Quartic linear search produced a step of  1.95473.
 Iteration  1 RMS(Cart)=  0.12162576 RMS(Int)=  0.01284801
 Iteration  2 RMS(Cart)=  0.01882011 RMS(Int)=  0.00182621
 Iteration  3 RMS(Cart)=  0.00009055 RMS(Int)=  0.00182443
 Iteration  4 RMS(Cart)=  0.00000016 RMS(Int)=  0.00182443
 Variable       Old X    -DE/DX   Delta X   Delta X   Delta X     New X
                                 (Linear)    (Quad)   (Total)
    R1        2.70802  -0.00023   0.03939   0.00000   0.03814   2.74616
    R2        2.64939   0.05011   0.18377   0.00000   0.18379   2.83318
    R3        2.09087  -0.00342   0.00189   0.00000   0.00189   2.09276
    R4        2.55040   0.02293   0.06792   0.00000   0.06872   2.61912
    R5        2.05669  -0.00118  -0.00266   0.00000  -0.00266   2.05403
    R6        2.66229   0.00817   0.05107   0.00000   0.04992   2.71222
    R7        2.06207  -0.00148  -0.00657   0.00000  -0.00657   2.05550
    R8        2.56637   0.02694   0.09371   0.00000   0.09394   2.66030
    R9        2.74576   0.01101   0.04484   0.00000   0.04580   2.79156
   R10        2.73059  -0.00777  -0.00276   0.00000  -0.00357   2.72701
   R11        2.02422   0.00570   0.02464   0.00000   0.02464   2.04886
   R12        2.47792   0.02155   0.04554   0.00000   0.04493   2.52286
   R13        2.06726  -0.00527  -0.02048   0.00000  -0.02048   2.04678
   R14        2.60141  -0.00608   0.00810   0.00000   0.00854   2.60995
   R15        2.47380   0.01978   0.04194   0.00000   0.04290   2.51670
   R16        2.58022  -0.04776  -0.11302   0.00000  -0.11219   2.46802
   R17        2.63273   0.05742   0.16683   0.00000   0.16778   2.80050
   R18        2.84623   0.01526   0.07961   0.00000   0.08140   2.92763
   R19        2.66830  -0.02485  -0.03911   0.00000  -0.04067   2.62763
   R20        2.04586  -0.00118  -0.00763   0.00000  -0.00763   2.03823
   R21        2.64442   0.05175   0.14404   0.00000   0.14298   2.78741
   R22        2.04023  -0.00068  -0.00245   0.00000  -0.00245   2.03778
   R23        2.83131  -0.07502  -0.31437   0.00000  -0.31502   2.51629
   R24        2.07941  -0.00282   0.00063   0.00000   0.00063   2.08005
    A1        1.99820   0.00108   0.03832   0.00000   0.03062   2.02882
    A2        1.95023   0.00577   0.03001   0.00000   0.02672   1.97695
    A3        1.99443   0.00120   0.03395   0.00000   0.03142   2.02585
    A4        1.98244  -0.00766  -0.02978   0.00000  -0.02991   1.95252
    A5        2.05076   0.00837   0.03885   0.00000   0.03766   2.08842
    A6        2.13452  -0.00226  -0.01747   0.00000  -0.01706   2.11746
    A7        2.07889   0.00486   0.02877   0.00000   0.02433   2.10322
    A8        2.07983  -0.00809  -0.05039   0.00000  -0.04787   2.03196
    A9        2.02123   0.00242   0.01440   0.00000   0.01554   2.03677
   A10        2.27268   0.01849   0.08329   0.00000   0.08320   2.35588
   A11        2.12375  -0.00872  -0.03388   0.00000  -0.03493   2.08881
   A12        1.88658  -0.00979  -0.04949   0.00000  -0.04841   1.83818
   A13        1.78616   0.00504   0.03969   0.00000   0.03962   1.82578
   A14        2.19647   0.00259   0.01155   0.00000   0.01176   2.20823
   A15        2.28860  -0.00753  -0.04967   0.00000  -0.04964   2.23897
   A16        2.00389  -0.00266  -0.02425   0.00000  -0.02520   1.97869
   A17        2.09340   0.01167   0.07163   0.00000   0.07210   2.16550
   A18        2.18500  -0.00895  -0.04707   0.00000  -0.04665   2.13835
   A19        1.83393   0.00211   0.02033   0.00000   0.02057   1.85450
   A20        1.88919   0.00619   0.02374   0.00000   0.02224   1.91143
   A21        2.25816  -0.00238  -0.00207   0.00000  -0.00398   2.25418
   A22        2.13520  -0.00413  -0.02289   0.00000  -0.02461   2.11059
   A23        2.25979   0.01035   0.05630   0.00000   0.05845   2.31824
   A24        2.11428   0.01000   0.03613   0.00000   0.03391   2.14819
   A25        2.63508   0.00047   0.01761   0.00000   0.01744   2.65252
   A26        1.53377  -0.01045  -0.05320   0.00000  -0.05147   1.48230
   A27        1.61148   0.00870   0.04654   0.00000   0.04609   1.65758
   A28        2.26760  -0.00049  -0.00158   0.00000  -0.00142   2.26617
   A29        2.40199  -0.00808  -0.04383   0.00000  -0.04373   2.35825
   A30        1.59664   0.00516  -0.00381   0.00000  -0.00601   1.59063
   A31        2.20987   0.01072   0.07030   0.00000   0.07137   2.28124
   A32        2.47665  -0.01589  -0.06653   0.00000  -0.06542   2.41122
   A33        1.53947  -0.00331   0.01092   0.00000   0.01185   1.55132
   A34        2.43172   0.01854   0.06112   0.00000   0.05976   2.49148
   A35        2.30287  -0.01528  -0.07252   0.00000  -0.07192   2.23095
   A36        2.12541  -0.00254  -0.03024   0.00000  -0.03337   2.09205
   A37        1.91269   0.02376   0.18196   0.00000   0.18430   2.09699
   A38        2.09902  -0.01917  -0.13364   0.00000  -0.13232   1.96670
    D1       -1.32274  -0.00729  -0.10148   0.00000  -0.10099  -1.42373
    D2        1.33366  -0.01112  -0.12350   0.00000  -0.12492   1.20874
    D3        0.97947   0.00108   0.00777   0.00000   0.00877   0.98825
    D4       -2.64731  -0.00276  -0.01426   0.00000  -0.01516  -2.66247
    D5        1.13557  -0.00063   0.00862   0.00000   0.00684   1.14241
    D6       -2.56133  -0.00254   0.00228   0.00000   0.00313  -2.55820
    D7       -1.14528  -0.01140  -0.10152   0.00000  -0.10379  -1.24906
    D8        1.44101  -0.01331  -0.10787   0.00000  -0.10749   1.33352
    D9        2.43408  -0.00200  -0.02250   0.00000  -0.02535   2.40872
   D10       -0.21561  -0.00089  -0.01050   0.00000  -0.01203  -0.22764
   D11       -0.19610  -0.00116  -0.01609   0.00000  -0.01799  -0.21409
   D12       -2.84579  -0.00005  -0.00409   0.00000  -0.00466  -2.85045
   D13        1.15946   0.00923   0.08078   0.00000   0.07941   1.23887
   D14       -1.95929   0.01059   0.08724   0.00000   0.08796  -1.87133
   D15       -2.45801   0.00523   0.05122   0.00000   0.04872  -2.40929
   D16        0.70642   0.00660   0.05768   0.00000   0.05728   0.76370
   D17        2.97754   0.00420   0.03600   0.00000   0.03874   3.01628
   D18       -0.01352   0.00427   0.03104   0.00000   0.03162   0.01811
   D19       -0.18450   0.00293   0.03014   0.00000   0.03091  -0.15359
   D20        3.10763   0.00301   0.02518   0.00000   0.02379   3.13142
   D21       -2.94015  -0.00551  -0.05226   0.00000  -0.05386  -2.99400
   D22        0.23997   0.00397   0.03637   0.00000   0.03571   0.27569
   D23        0.21979  -0.00476  -0.04842   0.00000  -0.04918   0.17061
   D24       -2.88327   0.00472   0.04021   0.00000   0.04039  -2.84288
   D25        0.10185   0.00035  -0.00253   0.00000  -0.00420   0.09765
   D26       -2.99672  -0.00057  -0.00823   0.00000  -0.00934  -3.00606
   D27        3.08135   0.00165   0.01172   0.00000   0.01104   3.09239
   D28       -0.01722   0.00072   0.00602   0.00000   0.00590  -0.01132
   D29        0.03225  -0.00280  -0.02272   0.00000  -0.02269   0.00956
   D30        3.12822  -0.00122  -0.01302   0.00000  -0.01428   3.11393
   D31       -0.14798   0.00316   0.03450   0.00000   0.03735  -0.11063
   D32        2.95837  -0.00549  -0.04666   0.00000  -0.04315   2.91522
   D33        0.12516   0.00138  -0.00183   0.00000  -0.00704   0.11812
   D34       -2.97313   0.01184   0.09798   0.00000   0.09048  -2.88265
   D35       -2.86582  -0.00655  -0.06571   0.00000  -0.07044  -2.93626
   D36        0.25988  -0.00205  -0.02033   0.00000  -0.02422   0.23566
   D37        3.09203   0.00295   0.02660   0.00000   0.02674   3.11877
   D38        0.01147   0.00137   0.01304   0.00000   0.01241   0.02388
   D39       -0.04185   0.00076   0.00400   0.00000   0.00472  -0.03713
   D40       -3.12241  -0.00081  -0.00956   0.00000  -0.00961  -3.13202
   D41       -3.08577  -0.00593  -0.04680   0.00000  -0.04646  -3.13223
   D42        0.19998  -0.00288  -0.03345   0.00000  -0.03383   0.16615
   D43        0.04221  -0.00200  -0.00726   0.00000  -0.00734   0.03487
   D44       -2.95522   0.00105   0.00609   0.00000   0.00529  -2.94993
   D45        0.04503  -0.00147  -0.00566   0.00000  -0.00617   0.03885
   D46       -3.09005  -0.00051  -0.00092   0.00000   0.00010  -3.08995
   D47        3.11717   0.00091   0.01354   0.00000   0.01246   3.12962
   D48       -0.01791   0.00188   0.01827   0.00000   0.01873   0.00082
   D49       -0.04163   0.00069   0.00371   0.00000   0.00460  -0.03703
   D50        2.97374   0.00250   0.00914   0.00000   0.01088   2.98463
   D51        3.09148  -0.00033  -0.00168   0.00000  -0.00146   3.09002
   D52       -0.17633   0.00149   0.00375   0.00000   0.00482  -0.17150
   D53       -1.10458   0.01488   0.12925   0.00000   0.12741  -0.97717
   D54        2.64970   0.00324   0.03352   0.00000   0.03492   2.68462
[...]
 RFO step:  Lambda=-7.85730661D-03 EMin= 6.13635366D-04
 Quartic linear search produced a step of  0.39707.
 Iteration  1 RMS(Cart)=  0.09299534 RMS(Int)=  0.02399534
 Iteration  2 RMS(Cart)=  0.02726410 RMS(Int)=  0.00234046
 Iteration  3 RMS(Cart)=  0.00120335 RMS(Int)=  0.00196946
 Iteration  4 RMS(Cart)=  0.00000110 RMS(Int)=  0.00196945
 Iteration  5 RMS(Cart)=  0.00000000 RMS(Int)=  0.00196945
 Variable       Old X    -DE/DX   Delta X   Delta X   Delta X     New X
                                 (Linear)    (Quad)   (Total)
    R1        2.55934  -0.00092  -0.01840  -0.02091  -0.03875   2.52060
    R2        2.71428   0.00045   0.02258   0.02089   0.04237   2.75665
    R3        2.06064  -0.00080   0.00129   0.00004   0.00132   2.06197
    R4        2.71034   0.00441   0.03144   0.04563   0.07827   2.78861
    R5        2.05579  -0.00045  -0.00101   0.00036  -0.00065   2.05514
    R6        2.57704   0.00786  -0.03459  -0.01461  -0.04774   2.52929
    R7        2.05797   0.00128  -0.00202  -0.00149  -0.00351   2.05446
    R8        2.67840   0.00348   0.02183   0.03315   0.05578   2.73418
    R9        2.84278   0.00056   0.00137   0.01429   0.01688   2.85967
   R10        2.60362   0.00165  -0.02182  -0.03166  -0.05326   2.55036
   R11        2.04242   0.00008  -0.00001   0.00033   0.00032   2.04274
   R12        2.58364   0.00165   0.02158   0.03333   0.05437   2.63801
   R13        2.04661  -0.00014  -0.00031  -0.00097  -0.00128   2.04533
   R14        2.49999   0.00334  -0.01794  -0.02373  -0.04237   2.45762
   R15        2.58473   0.00125   0.01216   0.01741   0.02983   2.61456
   R16        2.39578  -0.00110   0.00074  -0.01355  -0.01336   2.38241
   R17        2.85612  -0.00223  -0.01768  -0.00953  -0.02731   2.82881
   R18        2.89826   0.00072   0.02465   0.02334   0.04672   2.94498
   R19        2.55226  -0.00102   0.00531   0.00163   0.00697   2.55923
   R20        2.04345   0.00008  -0.00081   0.00034  -0.00047   2.04298
   R21        2.82119  -0.00161  -0.00655  -0.00388  -0.01019   2.81100
   R22        2.04148   0.00028   0.00066   0.00013   0.00079   2.04227
   R23        2.56935   0.00049  -0.01075  -0.01939  -0.03195   2.53740
   R24        2.05635  -0.00005   0.00002  -0.00033  -0.00031   2.05605
    A1        2.11967  -0.00175   0.01598  -0.01079   0.00407   2.12373
    A2        2.10976   0.00022  -0.00863   0.00336  -0.00564   2.10412
    A3        2.03735   0.00141  -0.00825   0.00112  -0.00653   2.03082
    A4        2.16508   0.00152   0.00263   0.03764   0.04297   2.20805
    A5        2.08721  -0.00082   0.00979  -0.00905  -0.00099   2.08622
    A6        2.03085  -0.00070  -0.01217  -0.02837  -0.04221   1.98865
    A7        2.14617   0.00067  -0.00427  -0.04470  -0.05539   2.09078
    A8        2.03920  -0.00100  -0.00430   0.00449  -0.00096   2.03824
    A9        2.09744   0.00032   0.00865   0.03740   0.04439   2.14183
   A10        2.33592  -0.00117   0.00368  -0.03285  -0.03385   2.30206
   A11        2.09414   0.00158   0.01794   0.05746   0.07113   2.16527
   A12        1.81704  -0.00020  -0.00410  -0.00526  -0.01154   1.80550
   A13        1.84883  -0.00000   0.00084  -0.00196  -0.00061   1.84822
   A14        2.19855  -0.00035  -0.00603  -0.00741  -0.01536   2.18318
   A15        2.22345   0.00020   0.00254   0.00050   0.00117   2.22462
   A16        1.97129  -0.00002  -0.00163   0.00375   0.00220   1.97349
   A17        2.21842   0.00040   0.00501   0.00718   0.01194   2.23037
   A18        2.09271  -0.00032  -0.00288  -0.01036  -0.01349   2.07923
   A19        1.87567  -0.00027   0.00247   0.00123   0.00262   1.87828
   A20        1.90566   0.00030   0.00268   0.00145   0.00503   1.91069
   A21        2.25671  -0.00086   0.00033  -0.00884  -0.00960   2.24711
   A22        2.03091   0.00051   0.00073  -0.02142  -0.02172   2.00919
   A23        2.37770  -0.00121  -0.00879  -0.00705  -0.01922   2.35848
   A24        2.21240  -0.00178   0.00471   0.00950   0.01663   2.22903
   A25        2.53101   0.00270   0.00128  -0.01306  -0.01541   2.51561
   A26        1.49759  -0.00073   0.00060   0.00276   0.00353   1.50112
   A27        1.61938   0.00107   0.00202  -0.00210  -0.00054   1.61884
   A28        2.30759  -0.00063  -0.00356   0.00102  -0.00232   2.30527
   A29        2.35570  -0.00045   0.00145   0.00129   0.00296   2.35866
   A30        1.63148  -0.00034   0.00395   0.00938   0.01332   1.64480
   A31        2.35343  -0.00063  -0.00613  -0.00752  -0.01357   2.33986
   A32        2.29047   0.00103   0.00254  -0.00201   0.00052   2.29099
   A33        1.51086   0.00009  -0.00909  -0.01137  -0.02033   1.49053
   A34        2.43910  -0.00028  -0.00778  -0.02712  -0.03598   2.40312
   A35        2.25294   0.00002   0.02060   0.03052   0.05255   2.30549
   A36        2.11438   0.00131  -0.00311  -0.04153  -0.04668   2.06770
   A37        2.09078  -0.00158   0.00340   0.02206   0.02613   2.11691
   A38        2.03712   0.00028   0.00366   0.02348   0.02849   2.06561
    D1       -0.54776   0.00006   0.04146  -0.01027   0.03301  -0.51475
    D2        2.58334   0.00043   0.05311   0.01586   0.07016   2.65350
    D3        2.79380   0.00060   0.04793   0.02765   0.07771   2.87151
    D4       -0.35828   0.00097   0.05957   0.05379   0.11486  -0.24343
    D5       -0.65162  -0.00025  -0.02500  -0.10068  -0.12243  -0.77405
    D6        2.80323  -0.00031  -0.03957  -0.11990  -0.15818   2.64505
    D7        2.29791  -0.00088  -0.03138  -0.13679  -0.16532   2.13259
    D8       -0.53042  -0.00094  -0.04596  -0.15600  -0.20107  -0.73149
    D9        2.38362  -0.00340  -0.04059  -0.09459  -0.13622   2.24740
   D10       -0.78734  -0.00352  -0.06672  -0.20417  -0.27033  -1.05767
   D11       -0.74778  -0.00376  -0.05236  -0.12004  -0.17178  -0.91957
   D12        2.36444  -0.00388  -0.07849  -0.22963  -0.30589   2.05855
   D13        2.43433   0.00261  -0.03952   0.17083   0.12837   2.56271
   D14       -1.04277   0.00360   0.02270   0.26063   0.28304  -0.75973
   D15       -0.67694   0.00276  -0.01281   0.28454   0.27162  -0.40532
   D16        2.12914   0.00374   0.04941   0.37433   0.42629   2.55543
   D17        2.92242   0.00237   0.04944   0.07970   0.12532   3.04774
   D18       -0.37783   0.00142   0.02957   0.02339   0.05058  -0.32725
   D19        0.07929   0.00121  -0.01020  -0.01014  -0.01934   0.05995
   D20        3.06223   0.00026  -0.03007  -0.06645  -0.09407   2.96816
   D21       -2.92067  -0.00078  -0.02664  -0.03386  -0.06676  -2.98743
   D22       -0.24727  -0.00071  -0.01741  -0.10954  -0.13187  -0.37914
   D23       -0.02647  -0.00034   0.01945   0.02355   0.04255   0.01607
   D24        2.64693  -0.00027   0.02869  -0.05213  -0.02257   2.62437
   D25       -0.11151  -0.00175  -0.00079  -0.00466  -0.00571  -0.11722
   D26        2.98767  -0.00012   0.00956   0.01098   0.02082   3.00849
   D27       -3.09145  -0.00072   0.02016   0.05367   0.07338  -3.01808
   D28        0.00773   0.00091   0.03052   0.06930   0.09990   0.10763
   D29        0.09562   0.00155   0.01397   0.02097   0.03529   0.13091
   D30       -3.00696   0.00003   0.00410   0.00614   0.01064  -2.99631
   D31       -0.03857  -0.00067  -0.01951  -0.02560  -0.04495  -0.08352
   D32       -2.77981  -0.00033  -0.02718   0.03631   0.00794  -2.77187
   D33       -0.00384  -0.00132  -0.02301  -0.05744  -0.08737  -0.09121
   D34        2.64203  -0.00133  -0.01281  -0.13236  -0.14948   2.49255
   D35       -2.74048   0.00127   0.03440   0.12287   0.15279  -2.58769
   D36       -0.03050   0.00168   0.06463   0.12121   0.18002   0.14953
   D37        2.74214   0.00148   0.00815  -0.00931  -0.00188   2.74025
   D38       -0.36825   0.00152   0.01125  -0.01548  -0.00498  -0.37322
   D39       -0.15658   0.00031  -0.00844  -0.00384  -0.01157  -0.16815
   D40        3.01622   0.00036  -0.00534  -0.01002  -0.01466   3.00156
   D41       -2.65724  -0.00010  -0.01653   0.00255  -0.01376  -2.67100
   D42        0.91991   0.00026  -0.03242   0.01083  -0.02351   0.89641
   D43        0.14164  -0.00027   0.00820   0.00387   0.01165   0.15329
   D44       -2.56439   0.00009  -0.00769   0.01214   0.00190  -2.56249
   D45        0.16076  -0.00020   0.01021   0.00560   0.01554   0.17630
   D46       -3.10948   0.00036   0.01360   0.00475   0.01856  -3.09092
   D47       -3.01351  -0.00025   0.00685   0.01205   0.01863  -2.99487
   D48       -0.00056   0.00032   0.01024   0.01120   0.02165   0.02109
   D49       -0.15850   0.00037  -0.00810  -0.00383  -0.01113  -0.16964
   D50        2.62424  -0.00005  -0.00536  -0.03181  -0.03638   2.58786
   D51        3.10435   0.00003  -0.01021  -0.00233  -0.01233   3.09202
   D52       -0.39610  -0.00039  -0.00748  -0.03031  -0.03757  -0.43367
   D53       -0.11142   0.00048  -0.00658   0.00173  -0.00514  -0.11656
   D54        2.72611   0.00021   0.00757   0.02060   0.02966   2.75578
   D55       -2.67951   0.00099  -0.01793   0.02879   0.00957  -2.66994
   D56        0.15803   0.00072  -0.00378   0.04765   0.04437   0.20240
         Item               Value     Threshold  Converged?
 Maximum Force            0.007860     0.000450     NO 
 RMS     Force            0.001575     0.000300     NO 
 Maximum Displacement     0.500797     0.001800     NO 
 RMS     Displacement     0.109802     0.001200     NO 
 Predicted change in Energy=-8.120909D-03
 GradGradGradGradGradGradGradGradGradGradGradGradGradGradGradGradGradGrad

                          Input orientation:                          
 ---------------------------------------------------------------------
 Center     Atomic      Atomic             Coordinates (Angstroms)
 Number     Number       Type             X           Y           Z
 ---------------------------------------------------------------------
      1          6           0        1.322538    0.468509   -0.371620
      2          6           0        2.500792   -0.045519   -0.015773
      3          6           0        3.393681   -0.862004   -0.860579
      4          6           0        4.684573   -0.529056   -0.979649
      5          6           0        5.877324   -1.330169   -1.149892
      6          6           0        6.887873   -0.454411   -1.332201
      7          7           0        6.452599    0.866953   -1.447413
      8          6           0        5.179517    0.886535   -1.182425
      9          7           0        4.493375    1.981302   -1.677345
     10          6           0        3.350022    2.169320   -2.174137
     11          6           0        2.957358    3.170686   -3.215249
     12          6           0        1.872118    2.452527   -3.590197
     13          6           0        1.966942    1.505146   -2.447314
     14          6           0        1.032645    0.835451   -1.753386
     15          1           0        0.628093    0.839248    0.383958
     16          1           0        2.869206    0.108290    0.995829
     17          1           0        2.992480   -1.801612   -1.232225
     18          1           0        5.953741   -2.385568   -0.929000
     19          1           0        7.948215   -0.666000   -1.380833
     20          1           0        3.413158    4.096030   -3.538921
     21          1           0        1.117853    2.574057   -4.354577
     22          1           0        0.016971    0.812974   -2.142839
 ---------------------------------------------------------------------
                    Distance matrix (angstroms):
                    1          2          3          4          5
     1  C    0.000000
     2  C    1.333842   0.000000
     3  C    2.509777   1.475668   0.000000
     4  C    3.559230   2.435522   1.338445   0.000000
     5  C    4.958530   3.786492   2.543887   1.446865   0.000000
     6  C    5.722539   4.598550   3.549357   2.232576   1.349592
     7  N    5.256769   4.301044   3.562393   2.300774   2.290591
     8  C    3.963387   3.066817   2.519957   1.513270   2.324171
     9  N    3.748022   3.292296   3.156077   2.612515   3.627584
    10  C    3.201955   3.207060   3.303977   3.238682   4.436525
    11  C    4.249779   4.559503   4.690142   4.655026   5.748878
    12  C    3.820681   4.405901   4.555445   4.859496   6.025409
    13  C    2.407983   2.932908   3.186960   3.698315   5.001340
    14  C    1.458754   2.439439   3.041866   3.974560   5.340883
    15  H    1.091146   2.109407   3.477299   4.492963   5.883323
    16  H    2.095676   1.087532   2.159351   2.757587   3.965105
    17  H    2.946658   2.192116   1.087173   2.132222   2.924271
    18  H    5.468498   4.269973   2.979905   2.249442   1.080971
    19  H    6.797443   5.650028   4.588340   3.291058   2.187018
    20  H    5.249895   5.513385   5.635246   5.436708   6.420531
    21  H    4.509898   5.253562   5.403140   5.808695   6.940140
    22  H    2.227190   3.380944   3.981446   4.994053   6.318444
                    6          7          8          9         10
     6  C    0.000000
     7  N    1.395972   0.000000
     8  C    2.176936   1.300515   0.000000
     9  N    3.432993   2.265657   1.383565   0.000000
    10  C    4.484329   3.442422   2.444603   1.260718   0.000000
    11  C    5.668875   4.544132   3.779909   2.477727   1.496941
    12  C    6.221465   5.299658   4.380478   3.279031   2.066309
    13  C    5.412846   4.639850   3.507600   2.683736   1.558416
    14  C    6.010394   5.428675   4.186305   3.646287   2.706746
    15  H    6.618429   6.105699   4.813653   4.526992   3.965077
    16  H    4.678252   4.402921   3.269250   3.645814   3.811524
    17  H    4.122989   4.374925   3.465796   4.094051   4.096746
    18  H    2.182783   3.331141   3.371988   4.665002   5.392283
    19  H    1.082341   2.142719   3.180475   4.362574   5.460014
    20  H    6.135941   4.903014   4.355911   3.017351   2.361956
    21  H    7.183279   6.310730   5.422858   4.348917   3.146539
    22  H    7.033683   6.473317   5.251636   4.649717   3.598594
                   11         12         13         14         15
    11  C    0.000000
    12  C    1.354284   0.000000
    13  C    2.084387   1.487515   0.000000
    14  C    3.360786   2.587184   1.342736   0.000000
    15  H    4.880099   4.465890   3.201881   2.175297   0.000000
    16  H    5.207612   5.246072   3.823680   3.385248   2.435421
    17  H    5.353257   4.991286   3.669171   3.326659   3.895705
    18  H    6.713956   6.866496   5.773863   5.939003   6.362847
    19  H    6.556973   7.178124   6.451890   7.086485   7.678832
    20  H    1.081101   2.253561   3.161617   4.414335   5.809664
    21  H    2.244507   1.080723   2.345458   3.129889   5.069826
    22  H    3.918513   2.867848   2.091458   1.088013   2.599781
                   16         17         18         19         20
    16  H    0.000000
    17  H    2.937201   0.000000
    18  H    4.408928   3.033483   0.000000
    19  H    5.660776   5.086356   2.671890   0.000000
    20  H    6.063161   6.346653   7.434875   6.921056   0.000000
    21  H    6.146063   5.692959   7.727759   8.123729   2.872302
    22  H    4.299193   4.064348   6.851957   8.103867   4.925606
                   21         22
    21  H    0.000000
    22  H    3.033998   0.000000
 Stoichiometry    C12H8N2
 Framework group  C1[X(C12H8N2)]
 Deg. of freedom    60
 Full point group                 C1      NOp   1
 Largest Abelian subgroup         C1      NOp   1
 Largest concise Abelian subgroup C1      NOp   1
                         Standard orientation:                         
 ---------------------------------------------------------------------
 Center     Atomic      Atomic             Coordinates (Angstroms)
 Number     Number       Type             X           Y           Z
 ---------------------------------------------------------------------
      1          6           0       -1.602255    2.075192   -0.574324
      2          6           0       -0.272090    2.014934   -0.652832
      3          6           0        0.655284    1.638338    0.431488
      4          6           0        1.582934    0.697766    0.216490
      5          6           0        2.926109    0.530660    0.727737
      6          6           0        3.352584   -0.662581    0.263307
      7          7           0        2.354083   -1.381574   -0.396074
      8          6           0        1.318278   -0.603374   -0.509443
      9          7           0        0.113769   -1.254188   -0.709073
     10          6           0       -1.073786   -1.073115   -0.326537
     11          6           0       -2.118409   -2.111658   -0.060033
     12          6           0       -2.816891   -1.292079    0.761246
     13          6           0       -2.027151   -0.082318    0.407000
     14          6           0       -2.355749    1.217528    0.333763
     15          1           0       -2.179962    2.597604   -1.338483
     16          1           0        0.222690    2.283587   -1.583286
     17          1           0        0.644379    2.259898    1.323390
     18          1           0        3.522595    1.313399    1.174976
     19          1           0        4.345737   -1.086457    0.337048
     20          1           0       -2.224861   -3.134517   -0.393510
     21          1           0       -3.706339   -1.411537    1.363387
     22          1           0       -3.312364    1.532599    0.745334
 ---------------------------------------------------------------------
 Rotational constants (GHZ):           1.2862500           0.6302824           0.4643231
 Standard basis: 6-31G(2df,p) (6D, 7F)
 There are   474 symmetry adapted cartesian basis functions of A   symmetry.
 There are   432 symmetry adapted basis functions of A   symmetry.
   432 basis functions,   672 primitive gaussians,   474 cartesian basis functions
    47 alpha electrons       47 beta electrons
       nuclear repulsion energy       780.9328902087 Hartrees.
 NAtoms=   22 NActive=   22 NUniq=   22 SFac= 1.00D+00 NAtFMM=   60 NAOKFM=F Big=F
 Integral buffers will be    131072 words long.
 Raffenetti 2 integral format.
 Two-electron integral symmetry is turned on.
 One-electron integrals computed using PRISM.
 PrsmSu:  requested number of processors reduced to:  13 ShMem   1 Linda.
 NBasis=   432 RedAO= T EigKep=  1.52D-04  NBF=   432
 NBsUse=   432 1.00D-06 EigRej= -1.00D+00 NBFU=   432
 Initial guess from the checkpoint file:  "c1ccc2ccnc-2nc2ccc-2c1.chk"
 B after Tr=     0.000000    0.000000   -0.000000
         Rot=    0.999977    0.002056   -0.002404    0.005991 Ang=   0.78 deg.
 ExpMin= 1.61D-01 ExpMax= 4.17D+03 ExpMxC= 6.27D+02 IAcc=2 IRadAn=         4 AccDes= 0.00D+00
 Harris functional with IExCor=  402 and IRadAn=       4 diagonalized for initial guess.
 HarFok:  IExCor=  402 AccDes= 0.00D+00 IRadAn=         4 IDoV= 1 UseB2=F ITyADJ=14
 ICtDFT=  3500011 ScaDFX=  1.000000  1.000000  1.000000  1.000000
 FoFCou: FMM=F IPFlag=           0 FMFlag=      100000 FMFlg1=           0
         NFxFlg=           0 DoJE=T BraDBF=F KetDBF=T FulRan=T
         wScrn=  0.000000 ICntrl=       500 IOpCl=  0 I1Cent=   200000004 NGrid=           0
         NMat0=    1 NMatS0=      1 NMatT0=    0 NMatD0=    1 NMtDS0=    0 NMtDT0=    0
 Petite list used in FoFCou.
 Requested convergence on RMS density matrix=1.00D-08 within 128 cycles.
 Requested convergence on MAX density matrix=1.00D-06.
 Requested convergence on             energy=1.00D-06.
 No special actions if energy rises.
 Integral accuracy reduced to 1.0D-05 until final iterations.
 Initial convergence to 1.0D-05 achieved.  Increase integral accuracy.
 SCF Done:  E(RB3LYP) =  -571.421833323     A.U. after   15 cycles
            NFock= 15  Conv=0.41D-08     -V/T= 2.0078
 PrsmSu:  requested number of processors reduced to:  13 ShMem   1 Linda.
 Calling FoFJK, ICntrl=      2127 FMM=F ISym2X=0 I1Cent= 0 IOpClX= 0 NMat=1 NMatS=1 NMatT=0.
slurmstepd: error: *** JOB 27449678 ON lewis4-r630-hpc4-node226 CANCELLED AT 2023-05-20T20:33:56 ***
