### Starting Gaussian ###
 Entering Gaussian System, Link 0=g16
 Initial command:
 /cluster/software/gaussian/gaussian-16-A.03/avx2/g16/l1.exe "/local/scratch/ks29c/Gau-11412.inp" -scrdir="/local/scratch/ks29c/"
 Entering Link 1 = /cluster/software/gaussian/gaussian-16-A.03/avx2/g16/l1.exe PID=     11418.
  
 Copyright (c) 1988,1990,1992,1993,1995,1998,2003,2009,2016,
            Gaussian, Inc.  All Rights Reserved.
  
 This is part of the Gaussian(R) 16 program.  It is based on
 the Gaussian(R) 09 system (copyright 2009, Gaussian, Inc.),
 the Gaussian(R) 03 system (copyright 2003, Gaussian, Inc.),
 the Gaussian(R) 98 system (copyright 1998, Gaussian, Inc.),
 the Gaussian(R) 94 system (copyright 1995, Gaussian, Inc.),
 the Gaussian 92(TM) system (copyright 1992, Gaussian, Inc.),
 the Gaussian 90(TM) system (copyright 1990, Gaussian, Inc.),
 the Gaussian 88(TM) system (copyright 1988, Gaussian, Inc.),
 the Gaussian 86(TM) system (copyright 1986, Carnegie Mellon
 University), and the Gaussian 82(TM) system (copyright 1983,
 Carnegie Mellon University). Gaussian is a federally registered
 trademark of Gaussian, Inc.
  
 This software contains proprietary and confidential information,
 including trade secrets, belonging to Gaussian, Inc.
  
 This software is provided under written license and may be
 used, copied, transmitted, or stored only in accord with that
 written license.
  
 The following legend is applicable only to US Government
 contracts under FAR:
  
                    RESTRICTED RIGHTS LEGEND
  
 Use, reproduction and disclosure by the US Government is
 subject to restrictions as set forth in subparagraphs (a)
 and (c) of the Commercial Computer Software - Restricted
 Rights clause in FAR 52.227-19.
  
 Gaussian, Inc.
 340 Quinnipiac St., Bldg. 40, Wallingford CT 06492
  
  
 ---------------------------------------------------------------
 Warning -- This program may not be used in any manner that
 competes with the business of Gaussian, Inc. or will provide
 assistance to any competitor of Gaussian, Inc.  The licensee
 of this program is prohibited from giving any competitor of
 Gaussian, Inc. access to this program.  By using this program,
 the user acknowledges that Gaussian, Inc. is engaged in the
 business of creating and licensing software in the field of
 computational chemistry and represents and warrants to the
 licensee that it is not a competitor of Gaussian, Inc. and that
 it will not use this program in any manner prohibited above.
 ---------------------------------------------------------------
  

 Cite this work as:
 Gaussian 16, Revision A.03,
 M. J. Frisch, G. W. Trucks, H. B. Schlegel, G. E. Scuseria, 
 M. A. Robb, J. R. Cheeseman, G. Scalmani, V. Barone, 
 G. A. Petersson, H. Nakatsuji, X. Li, M. Caricato, A. V. Marenich, 
 J. Bloino, B. G. Janesko, R. Gomperts, B. Mennucci, H. P. Hratchian, 
 J. V. Ortiz, A. F. Izmaylov, J. L. Sonnenberg, D. Williams-Young, 
 F. Ding, F. Lipparini, F. Egidi, J. Goings, B. Peng, A. Petrone, 
 T. Henderson, D. Ranasinghe, V. G. Zakrzewski, J. Gao, N. Rega, 
 G. Zheng, W. Liang, M. Hada, M. Ehara, K. Toyota, R. Fukuda, 
 J. Hasegawa, M. Ishida, T. Nakajima, Y. Honda, O. Kitao, H. Nakai, 
 T. Vreven, K. Throssell, J. A. Montgomery, Jr., J. E. Peralta, 
 F. Ogliaro, M. J. Bearpark, J. J. Heyd, E. N. Brothers, K. N. Kudin, 
 V. N. Staroverov, T. A. Keith, R. Kobayashi, J. Normand, 
 K. Raghavachari, A. P. Rendell, J. C. Burant, S. S. Iyengar, 
 J. Tomasi, M. Cossi, J. M. Millam, M. Klene, C. Adamo, R. Cammi, 
 J. W. Ochterski, R. L. Martin, K. Morokuma, O. Farkas, 
 J. B. Foresman, and D. J. Fox, Gaussian, Inc., Wallingford CT, 2016.
 
 ******************************************
 Gaussian 16:  ES64L-G16RevA.03 25-Dec-2016
                16-May-2023 
 ******************************************
 %chk=C1dCdC2CdCNCNCdCCdCCdC2N2CdNC2dCCd1.chk
 %NProcShared=20
 Will use up to   20 processors via shared memory.
 -----------------------------
 # opt freq b3lyp/6-31g(2df,p)
 -----------------------------
 1/18=20,19=15,26=3,38=1/1,3;
 2/9=110,12=2,17=6,18=5,40=1/2;
 3/5=1,6=6,7=104,11=2,25=1,30=1,71=1,74=-5/1,2,3;
 4//1;
 5/5=2,38=5/2;
 6/7=2,8=2,9=2,10=2,28=1/1;
 7//1,2,3,16;
 1/18=20,19=15,26=3/3(2);
 2/9=110/2;
 99//99;
 2/9=110/2;
 3/5=1,6=6,7=104,11=2,25=1,30=1,71=1,74=-5/1,2,3;
 4/5=5,16=3,69=1/1;
 5/5=2,38=5/2;
 7//1,2,3,16;
 1/18=20,19=15,26=3/3(-5);
 2/9=110/2;
 6/7=2,8=2,9=2,10=2,19=2,28=1/1;
 99/9=1/99;
 -------------------
 Title Card Required
 -------------------
 Symbolic Z-matrix:
 Charge =  0 Multiplicity = 1
 C                     1.7166    0.06524  -0.04983 
 C                     3.34946   0.11451  -0.31354 
 C                     5.25978   0.08071  -0.63298 
 C                     4.3967    0.24081  -1.55755 
 C                     5.67879   0.27223  -1.57447 
 N                     6.37615   0.39723  -2.70509 
 C                     7.70009   0.47222  -2.92913 
 N                     8.11078   0.57214  -4.14046 
 C                     9.29      0.75756  -4.40043 
 C                     9.82312   0.69769  -5.62813 
 C                     10.78333   1.4275   -4.91814 
 C                     10.74083   0.14994  -4.74577 
 C                     9.31232   0.08435  -2.69872 
 C                     7.56916  -0.00486  -1.22934 
 N                     5.83214  -0.13503   0.57244 
 C                     4.84616   0.19951   2.41066 
 N                     3.49027  -0.34706   3.27707 
 C                     4.00893  -0.63519   1.45125 
 C                     2.053    -1.14581   1.68791 
 C                     0.34862  -0.45998   0.66399 
 H                     3.82481   0.3386   -2.30915 
 H                     6.60916   0.23495  -0.41159 
 H                     5.93499   0.47026  -3.49636 
 H                     8.363    -0.80049  -2.31063 
 H                     8.40415   1.36526  -2.0598 
 H                     7.62293   0.62242  -4.8549 
 H                     10.50769   0.73141  -3.09999 
 H                     9.53482   0.82571  -6.5394 
 H                     12.2045   0.78066  -4.68869 
 H                     11.32106   0.66466  -6.49581 
 H                     10.91221   0.11887  -3.83258 
 H                     4.57526   0.87267   3.96303 
 H                     1.6238   -2.5622    2.50707 
 H                    -0.99576   0.19816  -0.10062 
 
 Add virtual bond connecting atoms H31        and H27        Dist= 1.96D+00.
 Add virtual bond connecting atoms H24        and C13        Dist= 2.56D+00.
 Add virtual bond connecting atoms H25        and C7         Dist= 2.70D+00.
 Add virtual bond connecting atoms H29        and C11        Dist= 2.98D+00.
 Add virtual bond connecting atoms H29        and C12        Dist= 3.01D+00.
 Add virtual bond connecting atoms H29        and H31        Dist= 3.19D+00.
 Add virtual bond connecting atoms H34        and C20        Dist= 3.18D+00.
 Add virtual bond connecting atoms H33        and C19        Dist= 3.20D+00.
 Add virtual bond connecting atoms H32        and C16        Dist= 3.24D+00.
 Add virtual bond connecting atoms H32        and N17        Dist= 3.35D+00.
 Add virtual bond connecting atoms H30        and C10        Dist= 3.27D+00.
 Add virtual bond connecting atoms H30        and C11        Dist= 3.46D+00.
 Add virtual bond connecting atoms H30        and H28        Dist= 3.39D+00.
 Add virtual bond connecting atoms C16        and N15        Dist= 3.99D+00.
 Add virtual bond connecting atoms C18        and C2         Dist= 3.83D+00.
 Add virtual bond connecting atoms C18        and N15        Dist= 3.94D+00.
 Add virtual bond connecting atoms C19        and C1         Dist= 4.05D+00.
 Add virtual bond connecting atoms C19        and C18        Dist= 3.85D+00.
 Add virtual bond connecting atoms C19        and C20        Dist= 3.97D+00.

 GradGradGradGradGradGradGradGradGradGradGradGradGradGradGradGradGradGrad
 Berny optimization.
 Initialization pass.
                           ----------------------------
                           !    Initial Parameters    !
                           ! (Angstroms and Degrees)  !
 --------------------------                            --------------------------
 ! Name  Definition              Value          Derivative Info.                !
 --------------------------------------------------------------------------------
 ! R1    R(1,2)                  1.6548         estimate D2E/DX2                !
 ! R2    R(1,19)                 2.1447         estimate D2E/DX2                !
 ! R3    R(1,20)                 1.63           estimate D2E/DX2                !
 ! R4    R(2,4)                  1.631          estimate D2E/DX2                !
 ! R5    R(2,18)                 2.0277         estimate D2E/DX2                !
 ! R6    R(3,4)                  1.2749         estimate D2E/DX2                !
 ! R7    R(3,5)                  1.0482         estimate D2E/DX2                !
 ! R8    R(3,15)                 1.3517         estimate D2E/DX2                !
 ! R9    R(4,5)                  1.2826         estimate D2E/DX2                !
 ! R10   R(4,21)                 0.9495         estimate D2E/DX2                !
 ! R11   R(5,6)                  1.3343         estimate D2E/DX2                !
 ! R12   R(6,7)                  1.3449         estimate D2E/DX2                !
 ! R13   R(6,23)                 0.9089         estimate D2E/DX2                !
 ! R14   R(7,8)                  1.283          estimate D2E/DX2                !
 ! R15   R(7,13)                 1.6742         estimate D2E/DX2                !
 ! R16   R(7,14)                 1.7703         estimate D2E/DX2                !
 ! R17   R(7,25)                 1.4314         estimate D2E/DX2                !
 ! R18   R(8,9)                  1.2217         estimate D2E/DX2                !
 ! R19   R(8,26)                 0.8666         estimate D2E/DX2                !
 ! R20   R(9,10)                 1.3398         estimate D2E/DX2                !
 ! R21   R(9,11)                 1.7166         estimate D2E/DX2                !
 ! R22   R(9,12)                 1.6104         estimate D2E/DX2                !
 ! R23   R(9,13)                 1.8302         estimate D2E/DX2                !
 ! R24   R(10,11)                1.3995         estimate D2E/DX2                !
 ! R25   R(10,12)                1.3859         estimate D2E/DX2                !
 ! R26   R(10,28)                0.9643         estimate D2E/DX2                !
 ! R27   R(10,30)                1.7314         estimate D2E/DX2                !
 ! R28   R(11,12)                1.2898         estimate D2E/DX2                !
 ! R29   R(11,29)                1.5782         estimate D2E/DX2                !
 ! R30   R(11,30)                1.8331         estimate D2E/DX2                !
 ! R31   R(12,29)                1.5948         estimate D2E/DX2                !
 ! R32   R(12,31)                0.9297         estimate D2E/DX2                !
 ! R33   R(13,24)                1.3545         estimate D2E/DX2                !
 ! R34   R(14,22)                1.2837         estimate D2E/DX2                !
 ! R35   R(15,16)                2.1126         estimate D2E/DX2                !
 ! R36   R(15,18)                2.0848         estimate D2E/DX2                !
 ! R37   R(16,17)                1.6994         estimate D2E/DX2                !
 ! R38   R(16,18)                1.5225         estimate D2E/DX2                !
 ! R39   R(16,32)                1.7136         estimate D2E/DX2                !
 ! R40   R(17,32)                1.7707         estimate D2E/DX2                !
 ! R41   R(18,19)                2.0353         estimate D2E/DX2                !
 ! R42   R(19,20)                2.1033         estimate D2E/DX2                !
 ! R43   R(19,33)                1.6916         estimate D2E/DX2                !
 ! R44   R(20,34)                1.6808         estimate D2E/DX2                !
 ! R45   R(27,31)                1.0371         estimate D2E/DX2                !
 ! R46   R(28,30)                1.794          estimate D2E/DX2                !
 ! R47   R(29,31)                1.6855         estimate D2E/DX2                !
 ! A1    A(2,1,19)              89.4936         estimate D2E/DX2                !
 ! A2    A(2,1,20)             155.1698         estimate D2E/DX2                !
 ! A3    A(1,2,4)              139.239          estimate D2E/DX2                !
 ! A4    A(1,2,18)              99.8588         estimate D2E/DX2                !
 ! A5    A(4,2,18)             118.9235         estimate D2E/DX2                !
 ! A6    A(4,3,15)             162.4411         estimate D2E/DX2                !
 ! A7    A(5,3,15)             131.3683         estimate D2E/DX2                !
 ! A8    A(2,4,3)               82.6354         estimate D2E/DX2                !
 ! A9    A(2,4,5)              130.8278         estimate D2E/DX2                !
 ! A10   A(2,4,21)             103.0029         estimate D2E/DX2                !
 ! A11   A(5,4,21)             126.0943         estimate D2E/DX2                !
 ! A12   A(4,5,6)              122.407          estimate D2E/DX2                !
 ! A13   A(5,6,7)              131.37           estimate D2E/DX2                !
 ! A14   A(5,6,23)             119.4433         estimate D2E/DX2                !
 ! A15   A(7,6,23)             109.1672         estimate D2E/DX2                !
 ! A16   A(6,7,8)              118.4745         estimate D2E/DX2                !
 ! A17   A(6,7,13)             155.8091         estimate D2E/DX2                !
 ! A18   A(6,7,14)              75.6533         estimate D2E/DX2                !
 ! A19   A(6,7,25)             114.6975         estimate D2E/DX2                !
 ! A20   A(8,7,13)              80.7767         estimate D2E/DX2                !
 ! A21   A(8,7,14)             162.0303         estimate D2E/DX2                !
 ! A22   A(8,7,25)             111.5538         estimate D2E/DX2                !
 ! A23   A(13,7,14)             82.9141         estimate D2E/DX2                !
 ! A24   A(13,7,25)             65.6249         estimate D2E/DX2                !
 ! A25   A(14,7,25)             67.7519         estimate D2E/DX2                !
 ! A26   A(7,8,9)              121.4478         estimate D2E/DX2                !
 ! A27   A(7,8,26)             127.0651         estimate D2E/DX2                !
 ! A28   A(9,8,26)             111.048          estimate D2E/DX2                !
 ! A29   A(8,9,10)             124.91           estimate D2E/DX2                !
 ! A30   A(8,9,11)             164.3817         estimate D2E/DX2                !
 ! A31   A(8,9,12)             149.0888         estimate D2E/DX2                !
 ! A32   A(8,9,13)              76.0004         estimate D2E/DX2                !
 ! A33   A(10,9,13)            146.1734         estimate D2E/DX2                !
 ! A34   A(11,9,13)            114.416          estimate D2E/DX2                !
 ! A35   A(12,9,13)             92.8439         estimate D2E/DX2                !
 ! A36   A(9,10,28)            137.819          estimate D2E/DX2                !
 ! A37   A(9,10,30)            143.5447         estimate D2E/DX2                !
 ! A38   A(11,10,28)           127.9725         estimate D2E/DX2                !
 ! A39   A(12,10,28)           148.4371         estimate D2E/DX2                !
 ! A40   A(12,10,30)            74.8492         estimate D2E/DX2                !
 ! A41   A(9,11,29)            125.4189         estimate D2E/DX2                !
 ! A42   A(9,11,30)            110.6307         estimate D2E/DX2                !
 ! A43   A(10,11,29)           118.5449         estimate D2E/DX2                !
 ! A44   A(12,11,30)            73.291          estimate D2E/DX2                !
 ! A45   A(29,11,30)            71.9653         estimate D2E/DX2                !
 ! A46   A(9,12,29)            132.0626         estimate D2E/DX2                !
 ! A47   A(9,12,31)             88.1688         estimate D2E/DX2                !
 ! A48   A(10,12,29)           118.3073         estimate D2E/DX2                !
 ! A49   A(10,12,31)           139.5227         estimate D2E/DX2                !
 ! A50   A(11,12,31)            99.1082         estimate D2E/DX2                !
 ! A51   A(7,13,9)              77.0011         estimate D2E/DX2                !
 ! A52   A(7,13,24)             61.0436         estimate D2E/DX2                !
 ! A53   A(9,13,24)            119.8772         estimate D2E/DX2                !
 ! A54   A(7,14,22)            128.07           estimate D2E/DX2                !
 ! A55   A(3,15,16)            123.5761         estimate D2E/DX2                !
 ! A56   A(3,15,18)             92.5159         estimate D2E/DX2                !
 ! A57   A(15,16,17)           139.9134         estimate D2E/DX2                !
 ! A58   A(15,16,32)           157.5547         estimate D2E/DX2                !
 ! A59   A(17,16,18)            72.9143         estimate D2E/DX2                !
 ! A60   A(18,16,32)           134.3695         estimate D2E/DX2                !
 ! A61   A(2,18,15)             80.145          estimate D2E/DX2                !
 ! A62   A(2,18,16)            121.6404         estimate D2E/DX2                !
 ! A63   A(2,18,19)             83.1892         estimate D2E/DX2                !
 ! A64   A(15,18,19)           161.7339         estimate D2E/DX2                !
 ! A65   A(16,18,19)           126.35           estimate D2E/DX2                !
 ! A66   A(1,19,18)             85.1155         estimate D2E/DX2                !
 ! A67   A(1,19,33)            145.6295         estimate D2E/DX2                !
 ! A68   A(18,19,20)           129.8172         estimate D2E/DX2                !
 ! A69   A(18,19,33)           120.6782         estimate D2E/DX2                !
 ! A70   A(20,19,33)           107.6484         estimate D2E/DX2                !
 ! A71   A(1,20,34)            110.2362         estimate D2E/DX2                !
 ! A72   A(11,29,31)            62.8935         estimate D2E/DX2                !
 ! A73   A(11,30,28)            72.0296         estimate D2E/DX2                !
 ! A74   A(12,31,27)           127.0307         estimate D2E/DX2                !
 ! A75   A(27,31,29)           115.211          estimate D2E/DX2                !
 ! A76   L(3,4,21,2,-1)        185.6383         estimate D2E/DX2                !
 ! A77   L(3,5,6,14,-1)        171.5653         estimate D2E/DX2                !
 ! A78   L(19,20,34,1,-1)      179.0232         estimate D2E/DX2                !
 ! A79   L(3,4,21,2,-2)        181.6635         estimate D2E/DX2                !
 ! A80   L(3,5,6,14,-2)        176.2264         estimate D2E/DX2                !
 ! A81   L(19,20,34,1,-2)      184.3875         estimate D2E/DX2                !
 ! D1    D(19,1,2,4)           150.4067         estimate D2E/DX2                !
 ! D2    D(19,1,2,18)          -12.0454         estimate D2E/DX2                !
 ! D3    D(20,1,2,4)           140.1317         estimate D2E/DX2                !
 ! D4    D(20,1,2,18)          -22.3204         estimate D2E/DX2                !
 ! D5    D(2,1,19,18)           11.8635         estimate D2E/DX2                !
 ! D6    D(2,1,19,33)         -129.5914         estimate D2E/DX2                !
 ! D7    D(2,1,20,34)         -173.1371         estimate D2E/DX2                !
 ! D8    D(1,2,4,3)           -175.8257         estimate D2E/DX2                !
 ! D9    D(1,2,4,5)            179.4422         estimate D2E/DX2                !
 ! D10   D(1,2,4,21)             2.5108         estimate D2E/DX2                !
 ! D11   D(18,2,4,3)           -15.665          estimate D2E/DX2                !
 ! D12   D(18,2,4,5)           -20.3972         estimate D2E/DX2                !
 ! D13   D(18,2,4,21)          162.6714         estimate D2E/DX2                !
 ! D14   D(1,2,18,15)         -174.7117         estimate D2E/DX2                !
 ! D15   D(1,2,18,16)         -116.0757         estimate D2E/DX2                !
 ! D16   D(1,2,18,19)           12.7944         estimate D2E/DX2                !
 ! D17   D(4,2,18,15)           18.2857         estimate D2E/DX2                !
 ! D18   D(4,2,18,16)           76.9217         estimate D2E/DX2                !
 ! D19   D(4,2,18,19)         -154.2081         estimate D2E/DX2                !
 ! D20   D(15,3,4,2)             4.082          estimate D2E/DX2                !
 ! D21   D(15,3,6,7)            -3.8353         estimate D2E/DX2                !
 ! D22   D(15,3,6,23)          174.7937         estimate D2E/DX2                !
 ! D23   D(4,3,15,16)          -22.5707         estimate D2E/DX2                !
 ! D24   D(4,3,15,18)            8.5374         estimate D2E/DX2                !
 ! D25   D(5,3,15,16)          156.5669         estimate D2E/DX2                !
 ! D26   D(5,3,15,18)         -172.3249         estimate D2E/DX2                !
 ! D27   D(2,4,5,6)           -179.1803         estimate D2E/DX2                !
 ! D28   D(21,4,5,6)            -2.8813         estimate D2E/DX2                !
 ! D29   D(4,5,6,7)            178.7193         estimate D2E/DX2                !
 ! D30   D(4,5,6,23)             0.5144         estimate D2E/DX2                !
 ! D31   D(5,6,7,8)            179.0008         estimate D2E/DX2                !
 ! D32   D(5,6,7,13)            39.326          estimate D2E/DX2                !
 ! D33   D(5,6,7,14)            10.9762         estimate D2E/DX2                !
 ! D34   D(5,6,7,25)           -45.8091         estimate D2E/DX2                !
 ! D35   D(23,6,7,8)            -2.6541         estimate D2E/DX2                !
 ! D36   D(23,6,7,13)         -142.3289         estimate D2E/DX2                !
 ! D37   D(23,6,7,14)         -170.6787         estimate D2E/DX2                !
 ! D38   D(23,6,7,25)          132.536          estimate D2E/DX2                !
 ! D39   D(6,7,8,9)            173.7096         estimate D2E/DX2                !
 ! D40   D(6,7,8,26)             2.016          estimate D2E/DX2                !
 ! D41   D(13,7,8,9)           -21.8745         estimate D2E/DX2                !
 ! D42   D(13,7,8,26)          166.432          estimate D2E/DX2                !
 ! D43   D(14,7,8,9)           -46.9509         estimate D2E/DX2                !
 ! D44   D(14,7,8,26)          141.3556         estimate D2E/DX2                !
 ! D45   D(25,7,8,9)            37.2155         estimate D2E/DX2                !
 ! D46   D(25,7,8,26)         -134.478          estimate D2E/DX2                !
 ! D47   D(6,7,13,9)           157.3869         estimate D2E/DX2                !
 ! D48   D(6,7,13,24)           21.9875         estimate D2E/DX2                !
 ! D49   D(8,7,13,9)            12.5771         estimate D2E/DX2                !
 ! D50   D(8,7,13,24)         -122.8223         estimate D2E/DX2                !
 ! D51   D(14,7,13,9)         -174.9944         estimate D2E/DX2                !
 ! D52   D(14,7,13,24)          49.6062         estimate D2E/DX2                !
 ! D53   D(25,7,13,9)         -106.251          estimate D2E/DX2                !
 ! D54   D(25,7,13,24)         118.3496         estimate D2E/DX2                !
 ! D55   D(6,7,14,22)          -27.0727         estimate D2E/DX2                !
 ! D56   D(8,7,14,22)         -170.8311         estimate D2E/DX2                !
 ! D57   D(13,7,14,22)         164.2353         estimate D2E/DX2                !
 ! D58   D(25,7,14,22)          97.7189         estimate D2E/DX2                !
 ! D59   D(7,8,9,10)           170.7485         estimate D2E/DX2                !
 ! D60   D(7,8,9,11)          -113.3822         estimate D2E/DX2                !
 ! D61   D(7,8,9,12)            91.8127         estimate D2E/DX2                !
 ! D62   D(7,8,9,13)            20.286          estimate D2E/DX2                !
 ! D63   D(26,8,9,10)          -16.3467         estimate D2E/DX2                !
 ! D64   D(26,8,9,11)           59.5225         estimate D2E/DX2                !
 ! D65   D(26,8,9,12)          -95.2826         estimate D2E/DX2                !
 ! D66   D(26,8,9,13)         -166.8093         estimate D2E/DX2                !
 ! D67   D(8,9,10,28)           26.8183         estimate D2E/DX2                !
 ! D68   D(8,9,10,30)         -169.1257         estimate D2E/DX2                !
 ! D69   D(13,9,10,28)         147.5816         estimate D2E/DX2                !
 ! D70   D(13,9,10,30)         -48.3625         estimate D2E/DX2                !
 ! D71   D(8,9,11,29)          173.274          estimate D2E/DX2                !
 ! D72   D(8,9,11,30)         -104.669          estimate D2E/DX2                !
 ! D73   D(13,9,11,29)          43.6996         estimate D2E/DX2                !
 ! D74   D(13,9,11,30)         125.7566         estimate D2E/DX2                !
 ! D75   D(8,9,12,29)         -162.3801         estimate D2E/DX2                !
 ! D76   D(8,9,12,31)          -89.0242         estimate D2E/DX2                !
 ! D77   D(13,9,12,29)         -95.2435         estimate D2E/DX2                !
 ! D78   D(13,9,12,31)         -21.8876         estimate D2E/DX2                !
 ! D79   D(8,9,13,7)           -13.4517         estimate D2E/DX2                !
 ! D80   D(8,9,13,24)           31.6655         estimate D2E/DX2                !
 ! D81   D(10,9,13,7)         -146.8803         estimate D2E/DX2                !
 ! D82   D(10,9,13,24)        -101.763          estimate D2E/DX2                !
 ! D83   D(11,9,13,7)          154.1989         estimate D2E/DX2                !
 ! D84   D(11,9,13,24)        -160.6838         estimate D2E/DX2                !
 ! D85   D(12,9,13,7)         -164.2531         estimate D2E/DX2                !
 ! D86   D(12,9,13,24)        -119.1358         estimate D2E/DX2                !
 ! D87   D(28,10,11,29)       -103.9553         estimate D2E/DX2                !
 ! D88   D(28,10,12,29)         71.2217         estimate D2E/DX2                !
 ! D89   D(28,10,12,31)        178.4819         estimate D2E/DX2                !
 ! D90   D(30,10,12,29)         40.6663         estimate D2E/DX2                !
 ! D91   D(30,10,12,31)        147.9265         estimate D2E/DX2                !
 ! D92   D(30,11,12,31)        150.4832         estimate D2E/DX2                !
 ! D93   D(9,11,29,31)         -12.0981         estimate D2E/DX2                !
 ! D94   D(10,11,29,31)        -70.9382         estimate D2E/DX2                !
 ! D95   D(30,11,29,31)       -114.9922         estimate D2E/DX2                !
 ! D96   D(9,11,30,28)          36.5577         estimate D2E/DX2                !
 ! D97   D(12,11,30,28)         88.154          estimate D2E/DX2                !
 ! D98   D(29,11,30,28)        158.474          estimate D2E/DX2                !
 ! D99   D(9,12,31,27)         -27.6933         estimate D2E/DX2                !
 ! D100  D(10,12,31,27)        -15.2019         estimate D2E/DX2                !
 ! D101  D(11,12,31,27)         43.3597         estimate D2E/DX2                !
 ! D102  D(3,15,16,17)          61.6246         estimate D2E/DX2                !
 ! D103  D(3,15,16,32)        -121.6841         estimate D2E/DX2                !
 ! D104  D(3,15,18,2)          -11.2567         estimate D2E/DX2                !
 ! D105  D(3,15,18,19)          13.1897         estimate D2E/DX2                !
 ! D106  D(17,16,18,2)         124.1893         estimate D2E/DX2                !
 ! D107  D(17,16,18,19)         17.8989         estimate D2E/DX2                !
 ! D108  D(32,16,18,2)         111.695          estimate D2E/DX2                !
 ! D109  D(32,16,18,19)          5.4046         estimate D2E/DX2                !
 ! D110  D(2,18,19,1)           -9.7272         estimate D2E/DX2                !
 ! D111  D(2,18,19,20)         -16.3329         estimate D2E/DX2                !
 ! D112  D(2,18,19,33)         146.129          estimate D2E/DX2                !
 ! D113  D(15,18,19,1)         -33.9717         estimate D2E/DX2                !
 ! D114  D(15,18,19,20)        -40.5775         estimate D2E/DX2                !
 ! D115  D(15,18,19,33)        121.8844         estimate D2E/DX2                !
 ! D116  D(16,18,19,1)         114.888          estimate D2E/DX2                !
 ! D117  D(16,18,19,20)        108.2823         estimate D2E/DX2                !
 ! D118  D(16,18,19,33)        -89.2558         estimate D2E/DX2                !
 ! D119  D(34,19,20,1)          77.3943         estimate D2E/DX2                !
 ! D120  D(11,29,31,27)        -68.3954         estimate D2E/DX2                !
 --------------------------------------------------------------------------------
 Trust Radius=3.00D-01 FncErr=1.00D-07 GrdErr=1.00D-06 EigMax=2.50D+02 EigMin=1.00D-04
 Number of steps in this run=    204 maximum allowed number of steps=    204.
 GradGradGradGradGradGradGradGradGradGradGradGradGradGradGradGradGradGrad

                          Input orientation:                          
 ---------------------------------------------------------------------
 Center     Atomic      Atomic             Coordinates (Angstroms)
 Number     Number       Type             X           Y           Z
 ---------------------------------------------------------------------
      1          6           0        1.716600    0.065240   -0.049830
      2          6           0        3.349460    0.114510   -0.313540
      3          6           0        5.259780    0.080710   -0.632980
      4          6           0        4.396700    0.240810   -1.557550
      5          6           0        5.678790    0.272230   -1.574470
      6          7           0        6.376150    0.397230   -2.705090
      7          6           0        7.700090    0.472220   -2.929130
      8          7           0        8.110780    0.572140   -4.140460
      9          6           0        9.290000    0.757560   -4.400430
     10          6           0        9.823120    0.697690   -5.628130
     11          6           0       10.783330    1.427500   -4.918140
     12          6           0       10.740830    0.149940   -4.745770
     13          6           0        9.312320    0.084350   -2.698720
     14          6           0        7.569160   -0.004860   -1.229340
     15          7           0        5.832140   -0.135030    0.572440
     16          6           0        4.846160    0.199510    2.410660
     17          7           0        3.490270   -0.347060    3.277070
     18          6           0        4.008930   -0.635190    1.451250
     19          6           0        2.053000   -1.145810    1.687910
     20          6           0        0.348620   -0.459980    0.663990
     21          1           0        3.824810    0.338600   -2.309150
     22          1           0        6.609160    0.234950   -0.411590
     23          1           0        5.934990    0.470260   -3.496360
     24          1           0        8.363000   -0.800490   -2.310630
     25          1           0        8.404150    1.365260   -2.059800
     26          1           0        7.622930    0.622420   -4.854900
     27          1           0       10.507690    0.731410   -3.099990
     28          1           0        9.534820    0.825710   -6.539400
     29          1           0       12.204500    0.780660   -4.688690
     30          1           0       11.321060    0.664660   -6.495810
     31          1           0       10.912210    0.118870   -3.832580
     32          1           0        4.575260    0.872670    3.963030
     33          1           0        1.623800   -2.562200    2.507070
     34          1           0       -0.995760    0.198160   -0.100620
 ---------------------------------------------------------------------
                    Distance matrix (angstroms):
                    1          2          3          4          5
     1  C    0.000000
     2  C    1.654751   0.000000
     3  C    3.590881   1.937139   0.000000
     4  C    3.080094   1.631019   1.274900   0.000000
     5  C    4.250450   2.653413   1.048166   1.282587   0.000000
     6  N    5.373270   3.867854   2.374891   2.293368   1.334255
     7  C    6.652680   5.088934   3.373529   3.584295   2.441465
     8  N    7.607611   6.125758   4.546660   4.536033   3.548074
     9  C    8.761473   7.239213   5.558280   5.682727   4.611121
    10  C    9.860684   8.396025   6.793840   6.798852   5.812800
    11  C   10.380838   8.842438   7.119413   7.313743   6.210564
    12  C   10.173286   8.618484   6.852864   7.100774   5.974642
    13  C    8.044374   6.422281   4.548667   5.048769   3.808120
    14  C    5.970646   4.319584   2.386672   3.198840   1.941492
    15  N    4.167133   2.647816   1.351731   2.595882   2.190571
    16  C    3.983238   3.109437   3.073913   3.993797   4.071833
    17  N    3.792646   3.622893   4.313078   4.953863   5.358225
    18  C    2.828183   2.027667   2.533999   3.157629   3.573069
    19  C    2.144656   2.697224   4.144191   4.236585   5.079401
    20  C    1.629958   3.207903   5.108226   4.670471   5.827310
    21  H    3.102225   2.063646   2.221529   0.949486   1.995345
    22  H    4.908851   3.263398   1.376092   2.491634   1.489721
    23  H    5.462364   4.116050   2.967592   2.485552   1.948978
    24  H    7.073566   5.473680   3.636069   4.169289   2.982892
    25  H    7.103053   5.492148   3.684148   4.192410   2.976214
    26  H    7.634388   6.256554   4.868525   4.628899   3.829299
    27  H    9.329015   7.706175   5.835247   6.321709   5.084912
    28  H   10.189082   8.804875   7.329174   7.180614   6.310772
    29  H   11.490296   9.899365   8.072661   8.429544   7.248569
    30  H   11.582556  10.102947   8.452981   8.515446   7.497253
    31  H    9.943406   8.341394   6.495295   6.902355   5.701865
    32  H    4.992687   4.512920   4.713712   5.559490   5.678223
    33  H    3.667396   4.254235   5.483178   5.662771   6.413728
    34  H    2.716090   4.351238   6.279250   5.585973   6.835740
                    6          7          8          9         10
     6  N    0.000000
     7  C    1.344855   0.000000
     8  N    2.258278   1.282954   0.000000
     9  C    3.390359   2.184939   1.221689   0.000000
    10  C    4.529464   3.441322   2.271791   1.339794   0.000000
    11  C    5.038083   3.791450   2.911864   1.716647   1.399540
    12  C    4.824516   3.556704   2.731632   1.610394   1.385922
    13  C    2.952800   1.674162   1.939137   1.830171   3.036206
    14  C    1.939791   1.770320   3.016770   3.687599   4.992321
    15  N    3.364736   4.014845   5.282397   6.122332   7.420809
    16  C    5.343301   6.060746   7.328968   8.151692   9.467865
    17  N    6.683450   7.543920   8.787138   9.685095  10.977207
    18  C    4.893341   5.834274   7.039179   8.004474   9.257375
    19  C    6.353664   7.471593   8.580090   9.647014  10.830406
    20  C    6.958206   8.235510   9.186900  10.347900  11.432284
    21  H    2.582546   3.926834   4.666666   5.866624   6.864714
    22  H    2.311011   2.753985   4.033985   4.834343   6.144588
    23  H    0.908880   1.854004   2.271411   3.486542   4.440014
    24  H    2.353233   1.562620   2.301305   2.766607   3.922028
    25  H    2.338005   1.431417   2.245941   2.575379   3.897705
    26  H    2.495366   1.933159   0.866574   1.733184   2.333321
    27  H    4.163802   2.824711   2.617847   1.781740   2.619402
    28  H    4.986254   4.065125   2.801268   2.154013   0.964323
    29  H    6.168578   4.845709   4.135527   2.928812   2.561328
    30  H    6.236442   5.086223   3.982729   2.919667   1.731411
    31  H    4.682367   3.355412   2.854515   1.833560   2.178336
    32  H    6.923371   7.578047   8.846286   9.601536  10.934395
    33  H    7.649161   8.699499   9.802788  10.839972  12.001550
    34  H    7.820994   9.148409   9.969415  11.162354  12.159402
                   11         12         13         14         15
    11  C    0.000000
    12  C    1.289836   0.000000
    13  C    2.982239   2.497070   0.000000
    14  C    5.098018   4.738009   2.281588   0.000000
    15  N    7.556603   7.242914   4.781241   2.506111   0.000000
    16  C    9.511533   9.271682   6.787165   4.550395   2.112611
    17  N   11.113022  10.825137   8.354187   6.087871   3.583899
    18  C    9.524511   9.183570   6.772439   4.500902   2.084841
    19  C   11.246354  10.888048   8.570504   6.343511   4.067905
    20  C   11.983569  11.731817   9.589162   7.478505   5.493903
    21  H    7.510894   7.335124   5.507193   3.912047   3.543622
    22  H    6.257385   5.988576   3.544110   1.283676   1.307272
    23  H    5.142389   4.975915   3.491635   2.834719   4.114862
    24  H    4.197743   3.533737   1.354535   1.559614   3.893608
    25  H    3.719473   3.761849   1.695206   1.806682   3.974266
    26  H    3.261944   3.155384   2.791535   3.679817   5.765126
    27  H    1.966262   1.760981   1.417256   3.560391   6.008180
    28  H    2.132935   2.264560   3.917900   5.722797   8.075341
    29  H    1.578218   1.594803   3.579041   5.836996   8.314142
    30  H    1.833063   1.914221   4.334707   6.500824   8.984871
    31  H    1.705158   0.929652   1.961244   4.238886   6.728728
    32  H   10.850030  10.694849   8.212192   6.057574   3.753839
    33  H   12.447829  11.961590   9.654937   7.473155   5.229156
    34  H   12.785411  12.622491  10.631067   8.641359   6.869079
                   16         17         18         19         20
    16  C    0.000000
    17  N    1.699365   0.000000
    18  C    1.522546   1.919804   0.000000
    19  C    3.183394   2.286739   2.035289   0.000000
    20  C    4.869666   4.087897   3.748112   2.103256   0.000000
    21  H    4.831057   5.638076   3.888801   4.617280   4.643403
    22  H    3.327840   4.865431   3.314893   5.203171   6.390161
    23  H    6.012632   7.247346   5.423151   6.675192   7.027189
    24  H    5.971494   7.427751   5.756474   7.478213   8.555384
    25  H    5.831233   7.453887   5.970530   7.790244   8.697246
    26  H    7.789587   9.173206   7.376321   8.772635   9.194853
    27  H    7.918529   9.543279   8.050793   9.895945  10.899250
    28  H   10.123203  11.587711   9.824468  11.293943  11.744279
    29  H   10.241273  11.860139  10.337836  12.141881  13.067221
    30  H   11.021157  12.563997  10.877160  12.495920  13.149981
    31  H    8.705258  10.288314   8.725981  10.514791  11.495375
    32  H    1.713588   1.770730   2.983858   3.951231   5.524863
    33  H    4.244990   2.997241   3.242988   1.691566   3.072842
    34  H    6.358817   5.641854   5.305629   3.781538   1.680814
                   21         22         23         24         25
    21  H    0.000000
    22  H    3.371065   0.000000
    23  H    2.424801   3.166336   0.000000
    24  H    4.678963   2.784680   2.985966   0.000000
    25  H    4.699634   2.686296   2.993573   2.180615   0.000000
    26  H    4.581169   4.573933   2.172079   3.007605   2.995780
    27  H    6.740965   4.761565   4.597270   2.751273   2.430770
    28  H    7.122956   6.816050   4.727072   4.679763   4.651488
    29  H    8.722203   7.063938   6.389425   4.786682   4.657841
    30  H    8.592334   7.707424   6.168001   5.330339   5.355127
    31  H    7.252610   5.498444   5.000924   3.108058   3.314604
    32  H    6.339452   4.866286   7.592977   7.516997   7.153847
    33  H    6.037803   6.418445   7.988951   8.469396   9.069421
    34  H    5.304265   7.611364   7.722719   9.667876   9.672581
                   26         27         28         29         30
    26  H    0.000000
    27  H    3.378377   0.000000
    28  H    2.556206   3.575599   0.000000
    29  H    4.587314   2.324985   3.248746   0.000000
    30  H    4.046052   3.492509   1.794015   2.014846   0.000000
    31  H    3.481101   1.037078   3.118285   1.685498   2.749152
    32  H    9.333103   9.224962  11.614666  11.535425  12.447346
    33  H   10.016485  11.009564  12.486024  13.225161  13.619887
    34  H    9.852157  11.899997  12.358998  13.987014  13.885969
                   31         32         33         34
    31  H    0.000000
    32  H   10.074556   0.000000
    33  H   11.560876   4.757023   0.000000
    34  H   12.479325   6.928526   4.613212   0.000000
 Stoichiometry    C16H14N4
 Framework group  C1[X(C16H14N4)]
 Deg. of freedom    96
 Full point group                 C1      NOp   1
 Largest Abelian subgroup         C1      NOp   1
 Largest concise Abelian subgroup C1      NOp   1
                         Standard orientation:                         
 ---------------------------------------------------------------------
 Center     Atomic      Atomic             Coordinates (Angstroms)
 Number     Number       Type             X           Y           Z
 ---------------------------------------------------------------------
      1          6           0       -4.298130   -1.754546   -0.279175
      2          6           0       -2.874510   -0.912979   -0.221978
      3          6           0       -1.211980    0.068475   -0.063071
      4          6           0       -1.270527   -1.201583   -0.157381
      5          6           0       -0.273923   -0.394815   -0.126823
      6          7           0        0.989995   -0.820727   -0.090120
      7          6           0        2.154552   -0.148210   -0.077362
      8          7           0        3.247183   -0.818163   -0.019991
      9          6           0        4.335562   -0.272220   -0.119507
     10          6           0        5.515059   -0.867091    0.104016
     11          6           0        5.880380    0.249881   -0.656000
     12          6           0        5.600182    0.427891    0.590386
     13          6           0        3.202077    1.083504    0.356677
     14          6           0        0.926105    1.096597    0.197240
     15          7           0       -1.560097    1.370455    0.041044
     16          6           0       -3.443472    2.126800   -0.545444
     17          7           0       -5.090412    1.952650   -0.164522
     18          6           0       -3.567973    0.903692    0.352695
     19          6           0       -5.272043   -0.139136    0.741358
     20          6           0       -5.855392   -2.054489    0.097299
     21          1           0       -1.222219   -2.149057   -0.195880
     22          1           0       -0.301410    1.093763   -0.178292
     23          1           0        1.160921   -1.713384   -0.093448
     24          1           0        2.132931    0.823078    1.146531
     25          1           0        2.240371    0.917256   -1.029398
     26          1           0        3.331211   -1.680613   -0.011632
     27          1           0        4.442348    1.505139   -0.184216
     28          1           0        5.885075   -1.756825    0.066855
     29          1           0        6.754031    1.373289    0.026248
     30          1           0        7.208836   -0.569648    0.305092
     31          1           0        5.149862    1.238615    0.525656
     32          1           0       -4.561151    3.103080   -1.402213
     33          1           0       -6.273206    0.294226    2.034133
     34          1           0       -6.330080   -3.539052   -0.531890
 ---------------------------------------------------------------------
 Rotational constants (GHZ):           1.2589987           0.1307038           0.1204074
 Standard basis: 6-31G(2df,p) (6D, 7F)
 There are   690 symmetry adapted cartesian basis functions of A   symmetry.
 There are   630 symmetry adapted basis functions of A   symmetry.
   630 basis functions,   978 primitive gaussians,   690 cartesian basis functions
    69 alpha electrons       69 beta electrons
       nuclear repulsion energy      1361.2112245127 Hartrees.
 NAtoms=   34 NActive=   34 NUniq=   34 SFac= 1.00D+00 NAtFMM=   60 NAOKFM=F Big=F
 Integral buffers will be    131072 words long.
 Raffenetti 2 integral format.
 Two-electron integral symmetry is turned on.
 One-electron integrals computed using PRISM.
 PrsmSu:  requested number of processors reduced to:  12 ShMem   1 Linda.
 NBasis=   630 RedAO= T EigKep=  3.32D-05  NBF=   630
 NBsUse=   630 1.00D-06 EigRej= -1.00D+00 NBFU=   630
 ExpMin= 1.61D-01 ExpMax= 4.17D+03 ExpMxC= 6.27D+02 IAcc=3 IRadAn=         5 AccDes= 0.00D+00
 Harris functional with IExCor=  402 and IRadAn=       5 diagonalized for initial guess.
 HarFok:  IExCor=  402 AccDes= 0.00D+00 IRadAn=         5 IDoV= 1 UseB2=F ITyADJ=14
 ICtDFT=  3500011 ScaDFX=  1.000000  1.000000  1.000000  1.000000
 FoFCou: FMM=F IPFlag=           0 FMFlag=      100000 FMFlg1=           0
         NFxFlg=           0 DoJE=T BraDBF=F KetDBF=T FulRan=T
         wScrn=  0.000000 ICntrl=       500 IOpCl=  0 I1Cent=   200000004 NGrid=           0
         NMat0=    1 NMatS0=      1 NMatT0=    0 NMatD0=    1 NMtDS0=    0 NMtDT0=    0
 Petite list used in FoFCou.
 Requested convergence on RMS density matrix=1.00D-08 within 128 cycles.
 Requested convergence on MAX density matrix=1.00D-06.
 Requested convergence on             energy=1.00D-06.
 No special actions if energy rises.
 Integral accuracy reduced to 1.0D-05 until final iterations.
 EnCoef did     6 forward-backward iterations
 EnCoef did   100 forward-backward iterations
 EnCoef did   100 forward-backward iterations
 EnCoef did     3 forward-backward iterations
 EnCoef did     5 forward-backward iterations
 EnCoef did     2 forward-backward iterations
 EnCoef did     4 forward-backward iterations
 Initial convergence to 1.0D-05 achieved.  Increase integral accuracy.
 SCF Done:  E(RB3LYP) =  -833.887886291     A.U. after   35 cycles
            NFock= 35  Conv=0.57D-08     -V/T= 2.0013

 **********************************************************************

            Population analysis using the SCF density.

 **********************************************************************

 Orbital symmetries:
       Occupied  (A) (A) (A) (A) (A) (A) (A) (A) (A) (A) (A) (A)
                 (A) (A) (A) (A) (A) (A) (A) (A) (A) (A) (A) (A)
                 (A) (A) (A) (A) (A) (A) (A) (A) (A) (A) (A) (A)
                 (A) (A) (A) (A) (A) (A) (A) (A) (A) (A) (A) (A)
                 (A) (A) (A) (A) (A) (A) (A) (A) (A) (A) (A) (A)
                 (A) (A) (A) (A) (A) (A) (A) (A) (A)
       Virtual   (A) (A) (A) (A) (A) (A) (A) (A) (A) (A) (A) (A)
                 (A) (A) (A) (A) (A) (A) (A) (A) (A) (A) (A) (A)
                 (A) (A) (A) (A) (A) (A) (A) (A) (A) (A) (A) (A)
                 (A) (A) (A) (A) (A) (A) (A) (A) (A) (A) (A) (A)
                 (A) (A) (A) (A) (A) (A) (A) (A) (A) (A) (A) (A)
                 (A) (A) (A) (A) (A) (A) (A) (A) (A) (A) (A) (A)
                 (A) (A) (A) (A) (A) (A) (A) (A) (A) (A) (A) (A)
                 (A) (A) (A) (A) (A) (A) (A) (A) (A) (A) (A) (A)
                 (A) (A) (A) (A) (A) (A) (A) (A) (A) (A) (A) (A)
                 (A) (A) (A) (A) (A) (A) (A) (A) (A) (A) (A) (A)
                 (A) (A) (A) (A) (A) (A) (A) (A) (A) (A) (A) (A)
                 (A) (A) (A) (A) (A) (A) (A) (A) (A) (A) (A) (A)
                 (A) (A) (A) (A) (A) (A) (A) (A) (A) (A) (A) (A)
                 (A) (A) (A) (A) (A) (A) (A) (A) (A) (A) (A) (A)
                 (A) (A) (A) (A) (A) (A) (A) (A) (A) (A) (A) (A)
                 (A) (A) (A) (A) (A) (A) (A) (A) (A) (A) (A) (A)
                 (A) (A) (A) (A) (A) (A) (A) (A) (A) (A) (A) (A)
                 (A) (A) (A) (A) (A) (A) (A) (A) (A) (A) (A) (A)
                 (A) (A) (A) (A) (A) (A) (A) (A) (A) (A) (A) (A)
                 (A) (A) (A) (A) (A) (A) (A) (A) (A) (A) (A) (A)
                 (A) (A) (A) (A) (A) (A) (A) (A) (A) (A) (A) (A)
                 (A) (A) (A) (A) (A) (A) (A) (A) (A) (A) (A) (A)
                 (A) (A) (A) (A) (A) (A) (A) (A) (A) (A) (A) (A)
                 (A) (A) (A) (A) (A) (A) (A) (A) (A) (A) (A) (A)
                 (A) (A) (A) (A) (A) (A) (A) (A) (A) (A) (A) (A)
                 (A) (A) (A) (A) (A) (A) (A) (A) (A) (A) (A) (A)
                 (A) (A) (A) (A) (A) (A) (A) (A) (A) (A) (A) (A)
                 (A) (A) (A) (A) (A) (A) (A) (A) (A) (A) (A) (A)
                 (A) (A) (A) (A) (A) (A) (A) (A) (A) (A) (A) (A)
                 (A) (A) (A) (A) (A) (A) (A) (A) (A) (A) (A) (A)
                 (A) (A) (A) (A) (A) (A) (A) (A) (A) (A) (A) (A)
                 (A) (A) (A) (A) (A) (A) (A) (A) (A) (A) (A) (A)
                 (A) (A) (A) (A) (A) (A) (A) (A) (A) (A) (A) (A)
                 (A) (A) (A) (A) (A) (A) (A) (A) (A) (A) (A) (A)
                 (A) (A) (A) (A) (A) (A) (A) (A) (A) (A) (A) (A)
                 (A) (A) (A) (A) (A) (A) (A) (A) (A) (A) (A) (A)
                 (A) (A) (A) (A) (A) (A) (A) (A) (A) (A) (A) (A)
                 (A) (A) (A) (A) (A) (A) (A) (A) (A) (A) (A) (A)
                 (A) (A) (A) (A) (A) (A) (A) (A) (A) (A) (A) (A)
                 (A) (A) (A) (A) (A) (A) (A) (A) (A) (A) (A) (A)
                 (A) (A) (A) (A) (A) (A) (A) (A) (A) (A) (A) (A)
                 (A) (A) (A) (A) (A) (A) (A) (A) (A) (A) (A) (A)
                 (A) (A) (A) (A) (A) (A) (A) (A) (A) (A) (A) (A)
                 (A) (A) (A) (A) (A) (A) (A) (A) (A) (A) (A) (A)
                 (A) (A) (A) (A) (A) (A) (A) (A) (A) (A) (A) (A)
                 (A) (A) (A) (A) (A) (A) (A) (A) (A) (A) (A) (A)
                 (A) (A) (A) (A) (A) (A) (A) (A) (A)
 The electronic state is 1-A.
 Alpha  occ. eigenvalues --  -14.44043 -14.42928 -14.39227 -14.33323 -10.34171
 Alpha  occ. eigenvalues --  -10.33392 -10.30236 -10.29873 -10.29157 -10.29147
 Alpha  occ. eigenvalues --  -10.29132 -10.28980 -10.28786 -10.27756 -10.27410
 Alpha  occ. eigenvalues --  -10.26799 -10.25122 -10.24818 -10.23454 -10.21285
 Alpha  occ. eigenvalues --   -1.16051  -1.14208  -1.08840  -1.04671  -0.91350
 Alpha  occ. eigenvalues --   -0.86361  -0.83169  -0.80830  -0.77828  -0.76470
 Alpha  occ. eigenvalues --   -0.72826  -0.70712  -0.70414  -0.64767  -0.64537
 Alpha  occ. eigenvalues --   -0.62820  -0.61100  -0.60875  -0.59304  -0.59053
 Alpha  occ. eigenvalues --   -0.57202  -0.56883  -0.53243  -0.52883  -0.50278
 Alpha  occ. eigenvalues --   -0.46034  -0.45077  -0.41994  -0.39905  -0.39844
 Alpha  occ. eigenvalues --   -0.37843  -0.36614  -0.35552  -0.34368  -0.33556
 Alpha  occ. eigenvalues --   -0.32764  -0.31112  -0.29594  -0.29225  -0.28144
 Alpha  occ. eigenvalues --   -0.26748  -0.24349  -0.23350  -0.22281  -0.21654
 Alpha  occ. eigenvalues --   -0.19997  -0.19652  -0.19356  -0.18505
 Alpha virt. eigenvalues --   -0.15091  -0.12594  -0.12187  -0.10763  -0.10221
 Alpha virt. eigenvalues --   -0.09498  -0.08444  -0.06719  -0.06057  -0.05236
 Alpha virt. eigenvalues --   -0.04440  -0.03194  -0.02190  -0.00813  -0.00545
 Alpha virt. eigenvalues --    0.03247   0.04638   0.05162   0.05810   0.06972
 Alpha virt. eigenvalues --    0.07965   0.08266   0.09009   0.09699   0.11449
 Alpha virt. eigenvalues --    0.13230   0.13806   0.15732   0.16229   0.16681
 Alpha virt. eigenvalues --    0.17623   0.22201   0.22598   0.23367   0.25128
 Alpha virt. eigenvalues --    0.25991   0.27860   0.28743   0.28930   0.30022
 Alpha virt. eigenvalues --    0.32410   0.32545   0.32892   0.34711   0.37766
 Alpha virt. eigenvalues --    0.39279   0.40133   0.41070   0.43110   0.43567
 Alpha virt. eigenvalues --    0.44005   0.44186   0.45395   0.45892   0.46436
 Alpha virt. eigenvalues --    0.46841   0.47698   0.48236   0.49240   0.49572
 Alpha virt. eigenvalues --    0.50147   0.50782   0.51850   0.52433   0.52658
 Alpha virt. eigenvalues --    0.53255   0.53963   0.55180   0.55411   0.55678
 Alpha virt. eigenvalues --    0.56645   0.57613   0.57914   0.58535   0.58670
 Alpha virt. eigenvalues --    0.59096   0.59287   0.60048   0.61193   0.61395
 Alpha virt. eigenvalues --    0.62457   0.63124   0.63906   0.64311   0.65272
 Alpha virt. eigenvalues --    0.65642   0.66530   0.66972   0.67506   0.67976
 Alpha virt. eigenvalues --    0.68439   0.68898   0.69301   0.69468   0.70453
 Alpha virt. eigenvalues --    0.70660   0.71620   0.72539   0.73092   0.74298
 Alpha virt. eigenvalues --    0.74619   0.74923   0.75795   0.76355   0.76604
 Alpha virt. eigenvalues --    0.77676   0.77834   0.78154   0.79745   0.80080
 Alpha virt. eigenvalues --    0.81411   0.81654   0.82624   0.83180   0.83856
 Alpha virt. eigenvalues --    0.84740   0.85810   0.86964   0.87531   0.88541
 Alpha virt. eigenvalues --    0.89097   0.89582   0.92136   0.93338   0.93889
 Alpha virt. eigenvalues --    0.94390   0.94825   0.95799   0.96261   0.97502
 Alpha virt. eigenvalues --    0.97944   0.98558   0.99583   1.00218   1.01563
 Alpha virt. eigenvalues --    1.02305   1.02536   1.04091   1.05245   1.05859
 Alpha virt. eigenvalues --    1.06458   1.07171   1.07971   1.08616   1.09442
 Alpha virt. eigenvalues --    1.10946   1.12606   1.13190   1.13649   1.13978
 Alpha virt. eigenvalues --    1.15337   1.16978   1.17131   1.17568   1.19014
 Alpha virt. eigenvalues --    1.19499   1.21169   1.22295   1.23352   1.24771
 Alpha virt. eigenvalues --    1.25163   1.25897   1.27414   1.28059   1.28656
 Alpha virt. eigenvalues --    1.29768   1.30184   1.31417   1.32171   1.32957
 Alpha virt. eigenvalues --    1.34792   1.35625   1.37337   1.37549   1.38452
 Alpha virt. eigenvalues --    1.39431   1.39820   1.40682   1.42425   1.43277
 Alpha virt. eigenvalues --    1.44445   1.44775   1.45201   1.47221   1.48793
 Alpha virt. eigenvalues --    1.48960   1.51242   1.52101   1.53327   1.53464
 Alpha virt. eigenvalues --    1.54728   1.55325   1.56063   1.57400   1.57824
 Alpha virt. eigenvalues --    1.58356   1.59369   1.60280   1.62002   1.62639
 Alpha virt. eigenvalues --    1.64677   1.65149   1.66120   1.67157   1.68104
 Alpha virt. eigenvalues --    1.69932   1.70652   1.71408   1.72483   1.74827
 Alpha virt. eigenvalues --    1.76011   1.76408   1.77536   1.78983   1.80434
 Alpha virt. eigenvalues --    1.80961   1.81731   1.84496   1.87040   1.87727
 Alpha virt. eigenvalues --    1.88977   1.89360   1.91429   1.92929   1.94247
 Alpha virt. eigenvalues --    1.95396   1.97899   2.00166   2.02134   2.03500
 Alpha virt. eigenvalues --    2.06213   2.06885   2.07714   2.09263   2.10083
 Alpha virt. eigenvalues --    2.10774   2.12861   2.14719   2.16883   2.18848
 Alpha virt. eigenvalues --    2.19951   2.20599   2.22156   2.24188   2.25351
 Alpha virt. eigenvalues --    2.27302   2.29512   2.29771   2.33434   2.36159
 Alpha virt. eigenvalues --    2.37039   2.37798   2.38512   2.39889   2.40626
 Alpha virt. eigenvalues --    2.41976   2.42510   2.43404   2.44262   2.45955
 Alpha virt. eigenvalues --    2.48890   2.50065   2.51170   2.51773   2.52169
 Alpha virt. eigenvalues --    2.53843   2.55246   2.56088   2.58185   2.59426
 Alpha virt. eigenvalues --    2.59992   2.61870   2.62387   2.62559   2.64564
 Alpha virt. eigenvalues --    2.65203   2.66059   2.68049   2.68596   2.69047
 Alpha virt. eigenvalues --    2.70917   2.71714   2.73694   2.75566   2.76632
 Alpha virt. eigenvalues --    2.76935   2.78106   2.79469   2.79887   2.80539
 Alpha virt. eigenvalues --    2.81427   2.83019   2.83703   2.84975   2.86283
 Alpha virt. eigenvalues --    2.87040   2.87462   2.88197   2.89297   2.91126
 Alpha virt. eigenvalues --    2.91560   2.92484   2.93035   2.93994   2.95249
 Alpha virt. eigenvalues --    2.95472   2.96339   2.97867   2.98547   3.00071
 Alpha virt. eigenvalues --    3.00710   3.01871   3.02145   3.03368   3.04238
 Alpha virt. eigenvalues --    3.05685   3.07101   3.08021   3.09126   3.09661
 Alpha virt. eigenvalues --    3.10356   3.12128   3.12220   3.13419   3.13660
 Alpha virt. eigenvalues --    3.14505   3.15257   3.16361   3.16797   3.18387
 Alpha virt. eigenvalues --    3.19780   3.20210   3.20947   3.22017   3.22828
 Alpha virt. eigenvalues --    3.24920   3.25568   3.27002   3.27781   3.28243
 Alpha virt. eigenvalues --    3.29197   3.30875   3.31322   3.32213   3.33082
 Alpha virt. eigenvalues --    3.34365   3.35552   3.36601   3.38784   3.39436
 Alpha virt. eigenvalues --    3.40270   3.42998   3.43139   3.45658   3.46828
 Alpha virt. eigenvalues --    3.48091   3.49146   3.49547   3.51344   3.54107
 Alpha virt. eigenvalues --    3.54310   3.56110   3.56347   3.58659   3.60442
 Alpha virt. eigenvalues --    3.61063   3.62229   3.62950   3.64281   3.64563
 Alpha virt. eigenvalues --    3.66902   3.67931   3.69557   3.70082   3.71246
 Alpha virt. eigenvalues --    3.71667   3.73101   3.74534   3.75214   3.76581
 Alpha virt. eigenvalues --    3.76938   3.78210   3.78926   3.79335   3.80176
 Alpha virt. eigenvalues --    3.84611   3.85016   3.87482   3.87920   3.89136
 Alpha virt. eigenvalues --    3.90961   3.92230   3.93087   3.93445   3.94485
 Alpha virt. eigenvalues --    3.94968   3.96209   3.97906   3.99213   4.00853
 Alpha virt. eigenvalues --    4.01767   4.03671   4.05085   4.06154   4.07480
 Alpha virt. eigenvalues --    4.09074   4.11820   4.12215   4.13707   4.15387
 Alpha virt. eigenvalues --    4.16903   4.19709   4.20302   4.20958   4.21558
 Alpha virt. eigenvalues --    4.23555   4.24220   4.24745   4.25782   4.26106
 Alpha virt. eigenvalues --    4.27918   4.29117   4.30054   4.30974   4.32613
 Alpha virt. eigenvalues --    4.34150   4.35054   4.35260   4.36158   4.37503
 Alpha virt. eigenvalues --    4.38367   4.38847   4.40424   4.41289   4.42598
 Alpha virt. eigenvalues --    4.43677   4.44585   4.44937   4.45360   4.45740
 Alpha virt. eigenvalues --    4.47084   4.48650   4.49368   4.51119   4.52151
 Alpha virt. eigenvalues --    4.52733   4.53312   4.54397   4.55926   4.56882
 Alpha virt. eigenvalues --    4.58004   4.58365   4.59259   4.60269   4.60401
 Alpha virt. eigenvalues --    4.63071   4.63988   4.64795   4.65094   4.66546
 Alpha virt. eigenvalues --    4.67056   4.67969   4.69937   4.71317   4.71443
 Alpha virt. eigenvalues --    4.72583   4.73581   4.75138   4.75763   4.77138
 Alpha virt. eigenvalues --    4.78527   4.79093   4.79659   4.81219   4.83017
 Alpha virt. eigenvalues --    4.85295   4.85762   4.87149   4.87655   4.88742
 Alpha virt. eigenvalues --    4.91036   4.91753   4.94868   4.95789   4.96636
 Alpha virt. eigenvalues --    4.98223   4.98756   4.99650   5.01506   5.01745
 Alpha virt. eigenvalues --    5.04004   5.04703   5.05966   5.07227   5.08794
 Alpha virt. eigenvalues --    5.11992   5.13209   5.13337   5.16638   5.18918
 Alpha virt. eigenvalues --    5.19271   5.21858   5.23222   5.25701   5.26529
 Alpha virt. eigenvalues --    5.26855   5.29705   5.32639   5.33906   5.34955
 Alpha virt. eigenvalues --    5.37627   5.38918   5.41589   5.43735   5.46163
 Alpha virt. eigenvalues --    5.50865   5.52186   5.56025   5.62787   5.65849
 Alpha virt. eigenvalues --    5.71121   5.74651   5.76620   5.92645   5.97500
 Alpha virt. eigenvalues --    6.00955   6.05865   6.13613   6.20695   6.36761
 Alpha virt. eigenvalues --    6.45759   6.58357   6.94579   6.98184   7.04816
 Alpha virt. eigenvalues --    7.21738   7.41008   8.45643   9.70068  10.21800
 Alpha virt. eigenvalues --   10.38591  10.49121  10.67975  10.72752  11.13798
 Alpha virt. eigenvalues --   11.19336  11.19892  11.29818  11.33857  11.35347
 Alpha virt. eigenvalues --   11.37264  11.46382  11.76913  11.85364  11.97335
 Alpha virt. eigenvalues --   12.27592  12.30937  13.26523  21.39329  29.05264
 Alpha virt. eigenvalues --   32.48301
          Condensed to atoms (all electrons):
               1          2          3          4          5          6
     1  C    5.193524   0.344338  -0.001682  -0.018698   0.003070  -0.000004
     2  C    0.344338   5.427059   0.003365   0.324359  -0.025394   0.000521
     3  C   -0.001682   0.003365   5.007959   0.214209   0.178471  -0.031480
     4  C   -0.018698   0.324359   0.214209   5.438243   0.088688  -0.037423
     5  C    0.003070  -0.025394   0.178471   0.088688   5.151069   0.412996
     6  N   -0.000004   0.000521  -0.031480  -0.037423   0.412996   6.611147
     7  C    0.000000   0.000024  -0.008706   0.008875  -0.076999   0.412090
     8  N    0.000000  -0.000001  -0.000207  -0.000240   0.008616  -0.008583
     9  C   -0.000000  -0.000000  -0.000057  -0.000017   0.000465   0.005685
    10  C    0.000000   0.000000  -0.000000  -0.000000  -0.000009  -0.000226
    11  C    0.000000  -0.000000  -0.000000  -0.000000   0.000000   0.000090
    12  C   -0.000000   0.000000   0.000000   0.000000   0.000002  -0.000184
    13  C   -0.000000  -0.000001  -0.000982   0.000044  -0.000466   0.004898
    14  C    0.000017   0.000514  -0.025013   0.019312  -0.087045  -0.171029
    15  N    0.001832  -0.036859   0.512316  -0.039041  -0.112929  -0.001783
    16  C    0.000501  -0.013161  -0.009600  -0.000732   0.001950   0.000011
    17  N   -0.001919   0.003366   0.000075   0.000073  -0.000079   0.000000
    18  C   -0.030662   0.140330  -0.019946  -0.009769  -0.006139  -0.000012
    19  C    0.125210  -0.043349   0.001615   0.001638   0.000103   0.000000
    20  C    0.400299  -0.019145  -0.000083   0.000058   0.000003   0.000000
    21  H   -0.002067  -0.037597   0.036769   0.351843  -0.067487  -0.013573
    22  H   -0.000007   0.001551  -0.165289  -0.005980   0.014918   0.006080
    23  H    0.000004  -0.000485   0.010960  -0.004299  -0.084103   0.309565
    24  H   -0.000000   0.000003   0.001073  -0.000643   0.003974  -0.009693
    25  H   -0.000000  -0.000009  -0.000517  -0.000432   0.016643  -0.014456
    26  H    0.000000  -0.000000  -0.000137   0.000043  -0.001915  -0.014517
    27  H    0.000000   0.000000   0.000016  -0.000000  -0.000069   0.000115
    28  H   -0.000000  -0.000000  -0.000000  -0.000000   0.000000   0.000000
    29  H    0.000000  -0.000000  -0.000000  -0.000000  -0.000000  -0.000000
    30  H   -0.000000   0.000000   0.000000  -0.000000   0.000000  -0.000000
    31  H    0.000000   0.000000   0.000001   0.000000  -0.000003  -0.000030
    32  H   -0.000065  -0.000719  -0.000041  -0.000003   0.000018   0.000000
    33  H   -0.002223   0.001253  -0.000008  -0.000009  -0.000001   0.000000
    34  H   -0.007648   0.000456   0.000001   0.000002  -0.000000  -0.000000
               7          8          9         10         11         12
     1  C    0.000000   0.000000  -0.000000   0.000000   0.000000  -0.000000
     2  C    0.000024  -0.000001  -0.000000   0.000000  -0.000000   0.000000
     3  C   -0.008706  -0.000207  -0.000057  -0.000000  -0.000000   0.000000
     4  C    0.008875  -0.000240  -0.000017  -0.000000  -0.000000   0.000000
     5  C   -0.076999   0.008616   0.000465  -0.000009   0.000000   0.000002
     6  N    0.412090  -0.008583   0.005685  -0.000226   0.000090  -0.000184
     7  C    5.284213   0.486129  -0.214116   0.009314  -0.010362  -0.001081
     8  N    0.486129   6.344810   0.282967  -0.022583  -0.018410   0.005253
     9  C   -0.214116   0.282967   5.256878   0.376758   0.073421  -0.021843
    10  C    0.009314  -0.022583   0.376758   5.071487   0.236917   0.336847
    11  C   -0.010362  -0.018410   0.073421   0.236917   5.823275   0.331155
    12  C   -0.001081   0.005253  -0.021843   0.336847   0.331155   5.365788
    13  C    0.042035  -0.168492   0.109409  -0.008984  -0.040553  -0.067836
    14  C   -0.020757   0.010044   0.001874   0.000047   0.000012  -0.000071
    15  N    0.003092  -0.000026  -0.000000   0.000000  -0.000000   0.000000
    16  C   -0.000001  -0.000000   0.000000   0.000000   0.000000   0.000000
    17  N   -0.000000   0.000000  -0.000000  -0.000000   0.000000  -0.000000
    18  C   -0.000000  -0.000000  -0.000000  -0.000000  -0.000000   0.000000
    19  C   -0.000000   0.000000   0.000000   0.000000   0.000000  -0.000000
    20  C   -0.000000   0.000000   0.000000  -0.000000   0.000000  -0.000000
    21  H   -0.000856   0.000034  -0.000001   0.000000   0.000000  -0.000000
    22  H   -0.001978  -0.000098   0.000081  -0.000000   0.000002  -0.000001
    23  H   -0.069245  -0.012018  -0.005217   0.000096  -0.000048   0.000013
    24  H   -0.030875  -0.013803   0.008900  -0.000220  -0.000209   0.003759
    25  H    0.061999  -0.012623   0.036242  -0.000490   0.002509   0.001829
    26  H   -0.041857   0.307049  -0.049101  -0.003684  -0.000122  -0.000528
    27  H    0.019712   0.004152  -0.122778   0.009647   0.013376  -0.085060
    28  H   -0.000481  -0.001736  -0.016531   0.343105  -0.040850  -0.019285
    29  H   -0.000112  -0.000949   0.022087  -0.035897   0.079885   0.073832
    30  H   -0.000040  -0.000178   0.031676  -0.082323  -0.036043  -0.104210
    31  H    0.008206   0.009525  -0.164589   0.020208  -0.101080   0.375760
    32  H    0.000000  -0.000000  -0.000000   0.000000  -0.000000   0.000000
    33  H    0.000000  -0.000000  -0.000000  -0.000000  -0.000000   0.000000
    34  H   -0.000000  -0.000000   0.000000  -0.000000   0.000000   0.000000
              13         14         15         16         17         18
     1  C   -0.000000   0.000017   0.001832   0.000501  -0.001919  -0.030662
     2  C   -0.000001   0.000514  -0.036859  -0.013161   0.003366   0.140330
     3  C   -0.000982  -0.025013   0.512316  -0.009600   0.000075  -0.019946
     4  C    0.000044   0.019312  -0.039041  -0.000732   0.000073  -0.009769
     5  C   -0.000466  -0.087045  -0.112929   0.001950  -0.000079  -0.006139
     6  N    0.004898  -0.171029  -0.001783   0.000011   0.000000  -0.000012
     7  C    0.042035  -0.020757   0.003092  -0.000001  -0.000000  -0.000000
     8  N   -0.168492   0.010044  -0.000026  -0.000000   0.000000  -0.000000
     9  C    0.109409   0.001874  -0.000000   0.000000  -0.000000  -0.000000
    10  C   -0.008984   0.000047   0.000000   0.000000  -0.000000  -0.000000
    11  C   -0.040553   0.000012  -0.000000   0.000000   0.000000  -0.000000
    12  C   -0.067836  -0.000071   0.000000   0.000000  -0.000000   0.000000
    13  C    6.246051  -0.165594   0.000078   0.000000  -0.000000   0.000000
    14  C   -0.165594   6.536473  -0.030362   0.000133  -0.000003   0.000515
    15  N    0.000078  -0.030362   7.133677  -0.028766   0.006804  -0.014765
    16  C    0.000000   0.000133  -0.028766   5.451293   0.103878   0.439093
    17  N   -0.000000  -0.000003   0.006804   0.103878   7.073672   0.002177
    18  C    0.000000   0.000515  -0.014765   0.439093   0.002177   5.312804
    19  C    0.000000   0.000001  -0.000360  -0.012791   0.061740   0.057563
    20  C    0.000000  -0.000000  -0.000017  -0.000211   0.001019   0.004426
    21  H   -0.000003   0.001796  -0.001497  -0.000082   0.000005   0.000250
    22  H    0.003820   0.129570   0.173076   0.002487  -0.000055   0.000995
    23  H    0.001686   0.046987  -0.000879  -0.000002   0.000000  -0.000003
    24  H    0.177071   0.130106   0.000523   0.000001  -0.000000  -0.000001
    25  H    0.030096   0.062173  -0.000267  -0.000000  -0.000000   0.000000
    26  H    0.044310   0.000452  -0.000001  -0.000000   0.000000  -0.000000
    27  H    0.170589   0.001833   0.000001   0.000000  -0.000000  -0.000000
    28  H    0.000079  -0.000001   0.000000   0.000000  -0.000000   0.000000
    29  H    0.004197   0.000003  -0.000000  -0.000000   0.000000  -0.000000
    30  H    0.000768   0.000002   0.000000   0.000000   0.000000   0.000000
    31  H    0.020568  -0.000662   0.000000  -0.000000   0.000000   0.000000
    32  H    0.000000  -0.000001  -0.001020   0.060275   0.084181  -0.002020
    33  H   -0.000000  -0.000000  -0.000001   0.000344  -0.000292  -0.005988
    34  H    0.000000   0.000000   0.000000   0.000001  -0.000010  -0.000057
              19         20         21         22         23         24
     1  C    0.125210   0.400299  -0.002067  -0.000007   0.000004  -0.000000
     2  C   -0.043349  -0.019145  -0.037597   0.001551  -0.000485   0.000003
     3  C    0.001615  -0.000083   0.036769  -0.165289   0.010960   0.001073
     4  C    0.001638   0.000058   0.351843  -0.005980  -0.004299  -0.000643
     5  C    0.000103   0.000003  -0.067487   0.014918  -0.084103   0.003974
     6  N    0.000000   0.000000  -0.013573   0.006080   0.309565  -0.009693
     7  C   -0.000000  -0.000000  -0.000856  -0.001978  -0.069245  -0.030875
     8  N    0.000000   0.000000   0.000034  -0.000098  -0.012018  -0.013803
     9  C    0.000000   0.000000  -0.000001   0.000081  -0.005217   0.008900
    10  C    0.000000  -0.000000   0.000000  -0.000000   0.000096  -0.000220
    11  C    0.000000   0.000000   0.000000   0.000002  -0.000048  -0.000209
    12  C   -0.000000  -0.000000  -0.000000  -0.000001   0.000013   0.003759
    13  C    0.000000   0.000000  -0.000003   0.003820   0.001686   0.177071
    14  C    0.000001  -0.000000   0.001796   0.129570   0.046987   0.130106
    15  N   -0.000360  -0.000017  -0.001497   0.173076  -0.000879   0.000523
    16  C   -0.012791  -0.000211  -0.000082   0.002487  -0.000002   0.000001
    17  N    0.061740   0.001019   0.000005  -0.000055   0.000000  -0.000000
    18  C    0.057563   0.004426   0.000250   0.000995  -0.000003  -0.000001
    19  C    5.563421   0.040301   0.000058  -0.000030  -0.000000   0.000000
    20  C    0.040301   5.583654   0.000006  -0.000000  -0.000000   0.000000
    21  H    0.000058   0.000006   0.471189  -0.001840   0.012853  -0.000033
    22  H   -0.000030  -0.000000  -0.001840   0.534144  -0.002478  -0.002433
    23  H   -0.000000  -0.000000   0.012853  -0.002478   0.601637  -0.003278
    24  H    0.000000   0.000000  -0.000033  -0.002433  -0.003278   0.460140
    25  H    0.000000   0.000000  -0.000030   0.002639  -0.006847  -0.012130
    26  H    0.000000  -0.000000   0.000028   0.000007   0.015718  -0.002627
    27  H   -0.000000  -0.000000  -0.000000  -0.000056   0.000050  -0.004375
    28  H    0.000000   0.000000  -0.000000   0.000000  -0.000047   0.000047
    29  H    0.000000   0.000000   0.000000  -0.000000   0.000000  -0.000015
    30  H   -0.000000   0.000000  -0.000000  -0.000000  -0.000001   0.000019
    31  H   -0.000000  -0.000000   0.000000  -0.000003   0.000028  -0.000587
    32  H    0.000430   0.000016  -0.000000   0.000042  -0.000000   0.000000
    33  H    0.199112  -0.002452   0.000000   0.000000   0.000000   0.000000
    34  H    0.001743   0.151734   0.000004  -0.000000  -0.000000   0.000000
              25         26         27         28         29         30
     1  C   -0.000000   0.000000   0.000000  -0.000000   0.000000  -0.000000
     2  C   -0.000009  -0.000000   0.000000  -0.000000  -0.000000   0.000000
     3  C   -0.000517  -0.000137   0.000016  -0.000000  -0.000000   0.000000
     4  C   -0.000432   0.000043  -0.000000  -0.000000  -0.000000  -0.000000
     5  C    0.016643  -0.001915  -0.000069   0.000000  -0.000000   0.000000
     6  N   -0.014456  -0.014517   0.000115   0.000000  -0.000000  -0.000000
     7  C    0.061999  -0.041857   0.019712  -0.000481  -0.000112  -0.000040
     8  N   -0.012623   0.307049   0.004152  -0.001736  -0.000949  -0.000178
     9  C    0.036242  -0.049101  -0.122778  -0.016531   0.022087   0.031676
    10  C   -0.000490  -0.003684   0.009647   0.343105  -0.035897  -0.082323
    11  C    0.002509  -0.000122   0.013376  -0.040850   0.079885  -0.036043
    12  C    0.001829  -0.000528  -0.085060  -0.019285   0.073832  -0.104210
    13  C    0.030096   0.044310   0.170589   0.000079   0.004197   0.000768
    14  C    0.062173   0.000452   0.001833  -0.000001   0.000003   0.000002
    15  N   -0.000267  -0.000001   0.000001   0.000000  -0.000000   0.000000
    16  C   -0.000000  -0.000000   0.000000   0.000000  -0.000000   0.000000
    17  N   -0.000000   0.000000  -0.000000  -0.000000   0.000000   0.000000
    18  C    0.000000  -0.000000  -0.000000   0.000000  -0.000000   0.000000
    19  C    0.000000   0.000000  -0.000000   0.000000   0.000000  -0.000000
    20  C    0.000000  -0.000000  -0.000000   0.000000   0.000000   0.000000
    21  H   -0.000030   0.000028  -0.000000  -0.000000   0.000000  -0.000000
    22  H    0.002639   0.000007  -0.000056   0.000000  -0.000000  -0.000000
    23  H   -0.006847   0.015718   0.000050  -0.000047   0.000000  -0.000001
    24  H   -0.012130  -0.002627  -0.004375   0.000047  -0.000015   0.000019
    25  H    0.657365  -0.003499  -0.015165   0.000079  -0.000014   0.000021
    26  H   -0.003499   0.556831  -0.002495   0.004607   0.000109   0.000249
    27  H   -0.015165  -0.002495   0.771643  -0.001834  -0.015242  -0.003413
    28  H    0.000079   0.004607  -0.001834   0.552463   0.000258   0.018951
    29  H   -0.000014   0.000109  -0.015242   0.000258   0.672857   0.091988
    30  H    0.000021   0.000249  -0.003413   0.018951   0.091988   1.156855
    31  H   -0.002509  -0.001335   0.093639  -0.003798  -0.055097  -0.012558
    32  H   -0.000000   0.000000   0.000000  -0.000000  -0.000000   0.000000
    33  H   -0.000000  -0.000000   0.000000  -0.000000   0.000000   0.000000
    34  H    0.000000  -0.000000  -0.000000   0.000000   0.000000   0.000000
              31         32         33         34
     1  C    0.000000  -0.000065  -0.002223  -0.007648
     2  C    0.000000  -0.000719   0.001253   0.000456
     3  C    0.000001  -0.000041  -0.000008   0.000001
     4  C    0.000000  -0.000003  -0.000009   0.000002
     5  C   -0.000003   0.000018  -0.000001  -0.000000
     6  N   -0.000030   0.000000   0.000000  -0.000000
     7  C    0.008206   0.000000   0.000000  -0.000000
     8  N    0.009525  -0.000000  -0.000000  -0.000000
     9  C   -0.164589  -0.000000  -0.000000   0.000000
    10  C    0.020208   0.000000  -0.000000  -0.000000
    11  C   -0.101080  -0.000000  -0.000000   0.000000
    12  C    0.375760   0.000000   0.000000   0.000000
    13  C    0.020568   0.000000  -0.000000   0.000000
    14  C   -0.000662  -0.000001  -0.000000   0.000000
    15  N    0.000000  -0.001020  -0.000001   0.000000
    16  C   -0.000000   0.060275   0.000344   0.000001
    17  N    0.000000   0.084181  -0.000292  -0.000010
    18  C    0.000000  -0.002020  -0.005988  -0.000057
    19  C   -0.000000   0.000430   0.199112   0.001743
    20  C   -0.000000   0.000016  -0.002452   0.151734
    21  H    0.000000  -0.000000   0.000000   0.000004
    22  H   -0.000003   0.000042   0.000000  -0.000000
    23  H    0.000028  -0.000000   0.000000  -0.000000
    24  H   -0.000587   0.000000   0.000000   0.000000
    25  H   -0.002509  -0.000000  -0.000000   0.000000
    26  H   -0.001335   0.000000  -0.000000  -0.000000
    27  H    0.093639   0.000000   0.000000  -0.000000
    28  H   -0.003798  -0.000000  -0.000000   0.000000
    29  H   -0.055097  -0.000000   0.000000   0.000000
    30  H   -0.012558   0.000000   0.000000   0.000000
    31  H    0.706459   0.000000   0.000000  -0.000000
    32  H    0.000000   0.674372  -0.000059  -0.000000
    33  H    0.000000  -0.000059   0.738033  -0.000108
    34  H   -0.000000  -0.000000  -0.000108   0.912158
 Mulliken charges:
               1
     1  C   -0.003819
     2  C   -0.070417
     3  C    0.296918
     4  C   -0.330102
     5  C    0.581649
     6  N   -0.460204
     7  C    0.141776
     8  N   -0.198633
     9  C    0.387807
    10  C   -0.250009
    11  C   -0.312964
    12  C   -0.194143
    13  C   -0.402788
    14  C   -0.441327
    15  N   -0.562828
    16  C    0.005377
    17  N   -0.334633
    18  C    0.131208
    19  C    0.003596
    20  C   -0.159610
    21  H    0.250231
    22  H    0.310834
    23  H    0.189354
    24  H    0.295305
    25  H    0.197395
    26  H    0.192414
    27  H    0.165714
    28  H    0.164974
    29  H    0.162112
    30  H   -0.061761
    31  H    0.107855
    32  H    0.184594
    33  H    0.072399
    34  H   -0.058275
 Sum of Mulliken charges =  -0.00000
 Mulliken charges with hydrogens summed into heavy atoms:
               1
     1  C   -0.003819
     2  C   -0.070417
     3  C    0.296918
     4  C   -0.079871
     5  C    0.581649
     6  N   -0.270851
     7  C    0.339171
     8  N   -0.006219
     9  C    0.387807
    10  C   -0.146796
    11  C   -0.150853
    12  C   -0.086288
    13  C    0.058231
    14  C   -0.130492
    15  N   -0.562828
    16  C    0.189972
    17  N   -0.334633
    18  C    0.131208
    19  C    0.075995
    20  C   -0.217885
 Electronic spatial extent (au):  <R**2>=           8502.9159
 Charge=             -0.0000 electrons
 Dipole moment (field-independent basis, Debye):
    X=              6.4838    Y=             -5.2528    Z=              0.5957  Tot=              8.3658
 Quadrupole moment (field-independent basis, Debye-Ang):
   XX=           -175.4253   YY=           -120.3895   ZZ=           -124.4451
   XY=            -16.6900   XZ=              4.6826   YZ=             -1.2650
 Traceless Quadrupole moment (field-independent basis, Debye-Ang):
   XX=            -35.3387   YY=             19.6972   ZZ=             15.6415
   XY=            -16.6900   XZ=              4.6826   YZ=             -1.2650
 Octapole moment (field-independent basis, Debye-Ang**2):
  XXX=            100.1161  YYY=            -16.3784  ZZZ=              3.7945  XYY=             75.3312
  XXY=             37.8370  XXZ=             48.8128  XZZ=            -19.3080  YZZ=              1.9565
  YYZ=             -8.2755  XYZ=              9.8717
 Hexadecapole moment (field-independent basis, Debye-Ang**3):
 XXXX=         -14198.9157 YYYY=          -1223.0920 ZZZZ=           -252.0304 XXXY=           -541.5725
 XXXZ=            110.8748 YYYX=           -240.6312 YYYZ=            -21.3312 ZZZX=              3.6032
 ZZZY=             -4.7991 XXYY=          -2169.6272 XXZZ=          -2069.9111 YYZZ=           -246.4766
 XXYZ=            -14.4277 YYXZ=             36.7286 ZZXY=            -76.2962
 N-N= 1.361211224513D+03 E-N=-4.657755719995D+03  KE= 8.327760072759D+02
 PrsmSu:  requested number of processors reduced to:  12 ShMem   1 Linda.
 Calling FoFJK, ICntrl=      2127 FMM=F ISym2X=0 I1Cent= 0 IOpClX= 0 NMat=1 NMatS=1 NMatT=0.
 ***** Axes restored to original set *****
 -------------------------------------------------------------------
 Center     Atomic                   Forces (Hartrees/Bohr)
 Number     Number              X              Y              Z
 -------------------------------------------------------------------
      1        6           0.021514177   -0.060934504    0.054665096
      2        6          -0.077552748   -0.004500871    0.021983600
      3        6          -0.071307920   -0.174979033    0.796602129
      4        6          -0.302227381    0.012574630    0.023015778
      5        6           0.326711339    0.142075905   -0.706635648
      6        7          -0.004242523    0.009258900    0.011085937
      7        6          -0.027829961    0.028173907    0.028314301
      8        7          -0.105929028    0.019605983    0.070137810
      9        6           0.029032663    0.036810969    0.024295881
     10        6          -0.005578406   -0.035816055   -0.011899641
     11        6           0.091170357    0.268264364    0.008637405
     12        6           0.059076387   -0.222386610   -0.118957738
     13        6           0.123252221   -0.014433028    0.036609010
     14        6           0.112539827   -0.011859413    0.071681152
     15        7           0.005291401    0.007513599   -0.075507881
     16        6          -0.108995934   -0.055575841    0.034127637
     17        7           0.049869901    0.036499722   -0.025386074
     18        6          -0.002938459    0.047179201    0.035088602
     19        6           0.001119385   -0.023278846    0.001139562
     20        6           0.048975443    0.049400921   -0.067089064
     21        1          -0.079609874    0.009354900   -0.109675835
     22        1           0.096920839   -0.006847294    0.076393224
     23        1          -0.087000404    0.017042975   -0.112734877
     24        1           0.043570278    0.013792704    0.040682948
     25        1          -0.007695557   -0.033634543    0.017113420
     26        1          -0.149033509    0.014500606   -0.166073102
[...]
   D86       -2.59566   0.00014   0.00203  -0.01356  -0.01158  -2.60724
   D87       -1.59779  -0.00012   0.00113  -0.00256  -0.00140  -1.59919
   D88        0.15172   0.00135  -0.00186   0.03800   0.03609   0.18781
   D89       -2.33605   0.00201  -0.00271   0.03165   0.02906  -2.30698
   D90       -1.52631   0.00061   0.00069   0.00666   0.00713  -1.51919
   D91        2.26911   0.00127  -0.00017   0.00031   0.00010   2.26921
   D92        2.31513  -0.00033  -0.00134  -0.00497  -0.00634   2.30879
   D93       -0.91379  -0.00011   0.00094  -0.00944  -0.00849  -0.92227
   D94       -1.42294   0.00083   0.00044  -0.00087  -0.00053  -1.42346
   D95        2.65280   0.00008  -0.00011  -0.00461  -0.00479   2.64801
   D96       -1.38086  -0.00021  -0.00075   0.00557   0.00480  -1.37606
   D97        1.40507  -0.00032   0.00068  -0.00097  -0.00027   1.40479
   D98        1.31825  -0.00071   0.00114  -0.00838  -0.00729   1.31096
   D99       -0.23378   0.00049   0.00132   0.00291   0.00418  -0.22960
   D100      -0.86197   0.00014   0.00121   0.01140   0.01261  -0.84936
   D101       0.38580   0.00111   0.00161   0.01289   0.01446   0.40025
   D102       0.26052   0.00305   0.00779  -0.05780  -0.05035   0.21017
   D103      -3.05512  -0.00020   0.00694  -0.02812  -0.02206  -3.07718
   D104      -0.02643   0.00016   0.00278  -0.00982  -0.00709  -0.03352
   D105       0.64366  -0.00091  -0.00151  -0.02864  -0.03052   0.61314
   D106       0.19836  -0.00188   0.00186  -0.10375  -0.10114   0.09722
   D107       0.05875   0.00042   0.00272   0.00409   0.00693   0.06569
   D108      -2.97108  -0.00132   0.00591  -0.05812  -0.05155  -3.02263
   D109      -3.11068   0.00098   0.00677   0.04972   0.05652  -3.05416
   D110      -0.07422  -0.00052   0.00002   0.00433   0.00371  -0.07051
   D111      -0.07923  -0.00054  -0.00089  -0.05098  -0.05187  -0.13110
   D112       1.34128  -0.00072  -0.04354  -0.03853  -0.08264   1.25865
   D113      -0.74996   0.00008   0.00450   0.02268   0.02676  -0.72320
   D114      -0.75497   0.00006   0.00359  -0.03264  -0.02882  -0.78379
   D115       0.66555  -0.00012  -0.03906  -0.02019  -0.05959   0.60596
   D116       2.97812   0.00104   0.00070   0.07062   0.07221   3.05033
   D117       2.97311   0.00102  -0.00021   0.01531   0.01663   2.98974
   D118      -1.88955   0.00084  -0.04286   0.02776  -0.01415  -1.90370
   D119       0.32863   0.00018  -0.00468   0.12429   0.12215   0.45078
   D120       0.03289   0.00043  -0.00043   0.02405   0.02369   0.05658
         Item               Value     Threshold  Converged?
 Maximum Force            0.019747     0.000450     NO 
 RMS     Force            0.003290     0.000300     NO 
 Maximum Displacement     0.318952     0.001800     NO 
 RMS     Displacement     0.041852     0.001200     NO 
 Predicted change in Energy=-2.879050D-03
 GradGradGradGradGradGradGradGradGradGradGradGradGradGradGradGradGradGrad

                          Input orientation:                          
 ---------------------------------------------------------------------
 Center     Atomic      Atomic             Coordinates (Angstroms)
 Number     Number       Type             X           Y           Z
 ---------------------------------------------------------------------
      1          6           0        1.699683   -0.052341    0.383430
      2          6           0        3.356230    0.095009    0.317754
      3          6           0        6.280378    0.414756    0.252889
      4          6           0        4.085225    0.001490   -0.827947
      5          6           0        5.485833    0.187587   -0.881622
      6          7           0        6.145530    0.129491   -2.117985
      7          6           0        7.432185    0.230413   -2.380844
      8          7           0        7.930801    0.155913   -3.645320
      9          6           0        9.322367    0.339188   -3.991709
     10          6           0        9.515924    0.504157   -5.477736
     11          6           0        9.649203    1.703339   -4.584132
     12          6           0       10.763712    1.334200   -5.511050
     13          6           0       10.289147   -0.425189   -3.140088
     14          6           0       10.054424   -1.559847   -2.516118
     15          7           0        6.923740    0.606378    1.206436
     16          6           0        3.250918    0.284632    2.799758
     17          7           0        1.865348   -0.006173    2.867280
     18          6           0        3.750770    0.245997    1.577365
     19          6           0        1.193950   -0.123253    1.788759
     20          6           0        0.979138   -0.005765   -0.690023
     21          1           0        3.559417   -0.184386   -1.763269
     22          1           0       10.818023   -2.054196   -1.926230
     23          1           0        5.517296   -0.004842   -2.904401
     24          1           0        9.084628   -2.069928   -2.560690
     25          1           0        8.110522    0.332494   -1.565463
     26          1           0        7.280641    0.304389   -4.406114
     27          1           0       11.271697    0.033155   -3.028585
     28          1           0        8.789766    0.319112   -6.256596
     29          1           0       10.877888    1.962539   -6.382246
     30          1           0        9.040315    2.598725   -4.552061
     31          1           0       11.704223    0.942947   -5.131705
     32          1           0        3.770995    0.526483    3.721263
     33          1           0        0.124737   -0.300899    1.871784
     34          1           0        1.204197    0.199073   -1.734463
 ---------------------------------------------------------------------
                    Distance matrix (angstroms):
                    1          2          3          4          5
     1  C    0.000000
     2  C    1.664383   0.000000
     3  C    4.606299   2.942293   0.000000
     4  C    2.676032   1.361181   2.481469   0.000000
     5  C    3.999107   2.445871   1.403575   1.413936   0.000000
     6  N    5.104478   3.703270   2.391778   2.434222   1.402558
     7  C    6.370458   4.890212   2.880484   3.696759   2.457190
     8  N    7.423006   6.052798   4.241099   4.769684   3.690107
     9  C    8.797752   7.363823   5.222645   6.127893   4.941115
    10  C    9.785529   8.467405   6.581551   7.166986   6.120956
    11  C    9.536978   8.137367   6.033755   6.925537   5.774057
    12  C   10.900643   9.506911   7.359936   8.264972   7.113532
    13  C    9.291560   7.764832   5.318649   6.634507   5.343031
    14  C    8.971156   7.458900   5.080342   6.396798   5.157240
    15  N    5.329355   3.711925   1.166142   3.544259   2.569621
    16  C    2.891111   2.491463   3.959937   3.733160   4.307763
    17  N    2.489796   2.955173   5.148273   4.310756   5.215336
    18  C    2.391954   1.328562   2.860355   2.440732   3.010062
    19  C    1.495241   2.624300   5.340422   3.901563   5.064368
    20  C    1.293699   2.583860   5.400839   3.109157   4.514908
    21  H    2.843302   2.109504   3.439112   1.088968   2.150987
    22  H    9.616968   8.082877   5.606648   7.124790   5.877843
    23  H    5.038478   3.881039   3.275184   2.522405   2.032155
    24  H    8.202189   6.766605   4.685477   5.682182   4.568037
    25  H    6.711568   5.119200   2.581201   4.105668   2.716179
    26  H    7.363021   6.144899   4.766447   4.806840   3.956896
    27  H   10.162313   8.593977   5.985562   7.515928   6.173291
    28  H    9.720967   8.532036   6.977075   7.190537   6.310596
    29  H   11.579014  10.244658   8.219352   8.990896   7.904528
    30  H    9.234289   7.892561   5.956049   6.720682   5.649783
    31  H   11.467263  10.005229   7.661000   8.801011   7.569818
    32  H    3.970705   3.455730   4.282418   4.590171   4.923624
    33  H    2.181155   3.607533   6.405068   4.802651   6.046587
    34  H    2.189562   2.975511   5.455612   3.026737   4.365762
                    6          7          8          9         10
     6  N    0.000000
     7  C    1.317103   0.000000
     8  N    2.349604   1.361275   0.000000
     9  C    3.694199   2.485862   1.445694   0.000000
    10  C    4.773663   3.742679   2.447782   1.507632   0.000000
    11  C    4.564494   3.455309   2.495757   1.522727   1.501442
    12  C    5.855922   4.702724   3.590919   2.318604   1.499018
    13  C    4.303711   3.027953   2.480874   1.498063   2.631759
    14  C    4.276894   3.177966   2.954438   2.513883   3.649833
    15  N    3.447436   3.642587   4.975603   5.731101   7.169939
    16  C    5.708506   6.657669   7.965983   9.109857  10.383419
    17  N    6.572004   7.654309   8.901120  10.137659  11.332742
    18  C    4.405004   5.405596   6.690083   7.878195   9.114718
    19  C    6.312264   7.511741   8.659810   9.984931  11.065751
    20  C    5.361807   6.675063   7.555497   8.979398   9.800965
    21  H    2.629129   3.943575   4.771468   6.200940   7.053462
    22  H    5.161148   4.109746   4.021928   3.497353   4.566599
    23  H    1.015466   1.999063   2.529784   3.972299   4.782275
    24  H    3.697530   2.838042   2.731686   2.812148   3.914216
    25  H    2.051265   1.065555   2.095062   2.712063   4.160589
    26  H    2.560196   2.032279   1.011712   2.083647   2.486919
    27  H    5.207309   3.898761   3.399562   2.195712   3.050069
    28  H    4.914880   4.107597   2.753765   2.326753   1.080819
    29  H    6.628665   5.557369   4.409080   3.281704   2.190882
    30  H    4.516816   3.592933   2.832055   2.345007   2.338865
    31  H    6.375209   5.130814   4.131281   2.708755   2.258523
    32  H    6.316078   7.122336   8.468048   9.504880  10.845565
    33  H    7.235568   8.471477   9.569835  10.926420  11.952320
    34  H    4.956682   6.261519   6.992885   8.427306   9.120854
                   11         12         13         14         15
    11  C    0.000000
    12  C    1.495852   0.000000
    13  C    2.650551   2.990338   0.000000
    14  C    3.884491   4.224715   1.316010   0.000000
    15  N    6.493239   7.771727   5.593064   5.324577   0.000000
    16  C    9.872822  11.252253   9.237006   8.828835   4.016443
    17  N   10.910288  12.295280  10.354923   9.922492   5.359194
    18  C    8.653289  10.030512   8.090440   7.730053   3.214841
    19  C   10.744371  12.124016  10.349266   9.955088   5.805339
    20  C    9.656871  10.989800   9.636130   9.386725   6.269735
    21  H    6.971819   8.261588   6.873345   6.681600   4.556657
    22  H    4.748648   4.933063   2.099244   1.084174   5.661951
    23  H    4.776195   6.009371   4.796123   4.811894   4.387557
    24  H    4.318635   4.807498   2.119371   1.096665   5.101302
    25  H    3.655013   4.859063   2.792836   2.874622   3.027687
    26  H    2.756599   3.796469   3.344580   3.839444   5.631989
    27  H    2.800308   2.848403   1.089916   2.069307   6.096615
    28  H    2.334921   2.341518   3.537619   4.372759   7.698145
    29  H    2.193186   1.080199   4.069331   5.294549   8.663865
    30  H    1.083277   2.342815   3.563328   4.739958   6.450552
    31  H    2.258570   1.086987   2.800138   3.978330   7.945963
    32  H   10.242944  11.609742   9.511578   9.096107   4.033676
    33  H   11.679524  13.052494  11.333558  10.928738   6.891465
    34  H    9.038892  10.340961   9.214217   9.057113   6.444219
                   16         17         18         19         20
    16  C    0.000000
    17  N    1.417368   0.000000
    18  C    1.321207   2.298323   0.000000
    19  C    2.328005   1.275809   2.591981   0.000000
    20  C    4.174193   3.666030   3.589760   2.490846   0.000000
    21  H    4.597430   4.933925   3.373675   4.268030   2.800286
    22  H    9.223131  10.359659   8.216576  10.495355  10.125608
    23  H    6.144729   6.830009   4.823874   6.382092   5.049589
    24  H    8.265018   9.264985   7.137019   9.217920   8.570830
    25  H    6.532472   7.665906   5.375155   7.700487   7.192875
    26  H    8.256128   9.073264   6.947332   8.695238   7.322190
    27  H    9.917949  11.101449   8.821815  11.171046  10.554959
    28  H   10.615912  11.458556   9.314922  11.073386   9.596780
    29  H   12.053847  13.063515  10.821170  12.841126  11.587099
    30  H    9.639574  10.644824   8.431161  10.448953   9.310278
    31  H   11.610333  12.715662  10.428555  12.629151  11.647147
    32  H    1.085423   2.155110   2.162263   3.286014   5.247590
    33  H    3.313154   2.026722   3.678844   1.087045   2.716609
    34  H    4.975494   4.653523   4.177970   3.537950   1.087871
                   21         22         23         24         25
    21  H    0.000000
    22  H    7.497340   0.000000
    23  H    2.273259   5.766660   0.000000
    24  H    5.892291   1.845927   4.136251   0.000000
    25  H    4.584632   3.627258   2.937920   2.776867   0.000000
    26  H    4.590320   4.921973   2.336697   3.506757   2.959526
    27  H    7.818414   2.403756   5.755866   3.070041   3.496191
    28  H    6.913758   5.338398   4.695873   4.410689   4.740072
    29  H    8.916515   5.999486   6.685951   5.837882   5.789366
    30  H    6.750060   5.630711   4.680279   5.075810   3.862653
    31  H    8.885668   4.476973   6.643587   4.748664   5.099551
    32  H    5.534455   9.392267   6.872503   8.627802   6.842412
    33  H    5.002421  11.482392   7.209667  10.151647   8.717145
    34  H    2.386406   9.876216   4.473608   8.242100   6.909681
                   26         27         28         29         30
    26  H    0.000000
    27  H    4.230801   0.000000
    28  H    2.387877   4.081888   0.000000
    29  H    4.426595   3.889043   2.660243   0.000000
    30  H    2.895121   3.725882   2.857421   2.670390   0.000000
    31  H    4.527948   2.331933   3.185688   1.812802   3.189670
    32  H    8.855575  10.102690  11.170888  12.435879  10.025358
    33  H    9.538624  12.181130  11.896963  13.743450  11.364908
    34  H    6.638674  10.151691   8.832042  10.876213   8.666138
                   31         32         33         34
    31  H    0.000000
    32  H   11.894729   0.000000
    33  H   13.589721   4.171370   0.000000
    34  H   11.060974   6.038260   3.797397   0.000000
 Stoichiometry    C16H14N4
 Framework group  C1[X(C16H14N4)]
 Deg. of freedom    96
 Full point group                 C1      NOp   1
 Largest Abelian subgroup         C1      NOp   1
 Largest concise Abelian subgroup C1      NOp   1
                         Standard orientation:                         
 ---------------------------------------------------------------------
 Center     Atomic      Atomic             Coordinates (Angstroms)
 Number     Number       Type             X           Y           Z
 ---------------------------------------------------------------------
      1          6           0       -4.565412   -1.282429    0.249754
      2          6           0       -3.204064   -0.350654    0.029074
      3          6           0       -0.829640    1.326240   -0.426149
      4          6           0       -1.934050   -0.795794    0.233352
      5          6           0       -0.781762   -0.014724   -0.014389
      6          7           0        0.489553   -0.577679    0.170029
      7          6           0        1.674836   -0.018383    0.039442
      8          7           0        2.834610   -0.698736    0.251841
      9          6           0        4.157074   -0.152441    0.045239
     10          6           0        5.218185   -1.223248    0.064499
     11          6           0        4.828966   -0.601231   -1.245437
     12          6           0        6.261817   -0.604558   -0.815904
     13          6           0        4.378905    1.202996    0.643381
     14          6           0        3.769987    1.701720    1.698073
     15          7           0       -0.889273    2.438417   -0.771683
     16          6           0       -4.785114    1.507806   -0.474703
     17          7           0       -5.937931    0.760662   -0.125817
     18          6           0       -3.648477    0.856442   -0.303333
     19          6           0       -5.821897   -0.476484    0.163483
     20          6           0       -4.485115   -2.567169    0.378797
     21          1           0       -1.791871   -1.823263    0.564928
     22          1           0        3.999629    2.692782    2.072896
     23          1           0        0.462104   -1.557192    0.436434
     24          1           0        3.006842    1.147577    2.257725
     25          1           0        1.723266    1.018492   -0.201291
     26          1           0        2.785223   -1.709117    0.235961
     27          1           0        5.109587    1.824273    0.125660
     28          1           0        5.106400   -2.249362    0.385069
     29          1           0        6.905158   -1.302763   -1.331123
     30          1           0        4.360745   -1.064061   -2.105697
     31          1           0        6.763641    0.314672   -0.524817
     32          1           0       -4.921290    2.513504   -0.859635
     33          1           0       -6.728424   -1.035009    0.382400
     34          1           0       -3.665155   -3.277727    0.299830
 ---------------------------------------------------------------------
 Rotational constants (GHZ):           1.0085811           0.1190222           0.1112984
 Standard basis: 6-31G(2df,p) (6D, 7F)
 There are   690 symmetry adapted cartesian basis functions of A   symmetry.
 There are   630 symmetry adapted basis functions of A   symmetry.
   630 basis functions,   978 primitive gaussians,   690 cartesian basis functions
    69 alpha electrons       69 beta electrons
       nuclear repulsion energy      1299.4444002810 Hartrees.
 NAtoms=   34 NActive=   34 NUniq=   34 SFac= 1.00D+00 NAtFMM=   60 NAOKFM=F Big=F
 Integral buffers will be    131072 words long.
 Raffenetti 2 integral format.
 Two-electron integral symmetry is turned on.
 One-electron integrals computed using PRISM.
 PrsmSu:  requested number of processors reduced to:  12 ShMem   1 Linda.
 NBasis=   630 RedAO= T EigKep=  1.10D-04  NBF=   630
 NBsUse=   630 1.00D-06 EigRej= -1.00D+00 NBFU=   630
 Initial guess from the checkpoint file:  "C1dCdC2CdCNCNCdCCdCCdC2N2CdNC2dCCd1.chk"
 B after Tr=    -0.000000   -0.000000    0.000000
         Rot=    0.999966    0.008231    0.000103    0.000211 Ang=   0.94 deg.
 ExpMin= 1.61D-01 ExpMax= 4.17D+03 ExpMxC= 6.27D+02 IAcc=2 IRadAn=         4 AccDes= 0.00D+00
 Harris functional with IExCor=  402 and IRadAn=       4 diagonalized for initial guess.
 HarFok:  IExCor=  402 AccDes= 0.00D+00 IRadAn=         4 IDoV= 1 UseB2=F ITyADJ=14
 ICtDFT=  3500011 ScaDFX=  1.000000  1.000000  1.000000  1.000000
 FoFCou: FMM=F IPFlag=           0 FMFlag=      100000 FMFlg1=           0
         NFxFlg=           0 DoJE=T BraDBF=F KetDBF=T FulRan=T
         wScrn=  0.000000 ICntrl=       500 IOpCl=  0 I1Cent=   200000004 NGrid=           0
         NMat0=    1 NMatS0=      1 NMatT0=    0 NMatD0=    1 NMtDS0=    0 NMtDT0=    0
 Petite list used in FoFCou.
 Requested convergence on RMS density matrix=1.00D-08 within 128 cycles.
 Requested convergence on MAX density matrix=1.00D-06.
 Requested convergence on             energy=1.00D-06.
 No special actions if energy rises.
 Integral accuracy reduced to 1.0D-05 until final iterations.
 Initial convergence to 1.0D-05 achieved.  Increase integral accuracy.
 EnCoef did    20 forward-backward iterations
 SCF Done:  E(RB3LYP) =  -836.773390383     A.U. after   16 cycles
            NFock= 16  Conv=0.82D-08     -V/T= 2.0078
 PrsmSu:  requested number of processors reduced to:  12 ShMem   1 Linda.
 Calling FoFJK, ICntrl=      2127 FMM=F ISym2X=0 I1Cent= 0 IOpClX= 0 NMat=1 NMatS=1 NMatT=0.
slurmstepd: error: *** JOB 27448309 ON lewis4-r630-hpc4-node674 CANCELLED AT 2023-05-17T13:17:46 DUE TO TIME LIMIT ***
