### Starting Gaussian ###
 Entering Gaussian System, Link 0=g16
 Initial command:
 /cluster/software/gaussian/gaussian-16-A.03/avx2/g16/l1.exe "/local/scratch/linjian/Gau-8081.inp" -scrdir="/local/scratch/linjian/"
 Entering Link 1 = /cluster/software/gaussian/gaussian-16-A.03/avx2/g16/l1.exe PID=      8088.
  
 Copyright (c) 1988,1990,1992,1993,1995,1998,2003,2009,2016,
            Gaussian, Inc.  All Rights Reserved.
  
 This is part of the Gaussian(R) 16 program.  It is based on
 the Gaussian(R) 09 system (copyright 2009, Gaussian, Inc.),
 the Gaussian(R) 03 system (copyright 2003, Gaussian, Inc.),
 the Gaussian(R) 98 system (copyright 1998, Gaussian, Inc.),
 the Gaussian(R) 94 system (copyright 1995, Gaussian, Inc.),
 the Gaussian 92(TM) system (copyright 1992, Gaussian, Inc.),
 the Gaussian 90(TM) system (copyright 1990, Gaussian, Inc.),
 the Gaussian 88(TM) system (copyright 1988, Gaussian, Inc.),
 the Gaussian 86(TM) system (copyright 1986, Carnegie Mellon
 University), and the Gaussian 82(TM) system (copyright 1983,
 Carnegie Mellon University). Gaussian is a federally registered
 trademark of Gaussian, Inc.
  
 This software contains proprietary and confidential information,
 including trade secrets, belonging to Gaussian, Inc.
  
 This software is provided under written license and may be
 used, copied, transmitted, or stored only in accord with that
 written license.
  
 The following legend is applicable only to US Government
 contracts under FAR:
  
                    RESTRICTED RIGHTS LEGEND
  
 Use, reproduction and disclosure by the US Government is
 subject to restrictions as set forth in subparagraphs (a)
 and (c) of the Commercial Computer Software - Restricted
 Rights clause in FAR 52.227-19.
  
 Gaussian, Inc.
 340 Quinnipiac St., Bldg. 40, Wallingford CT 06492
  
  
 ---------------------------------------------------------------
 Warning -- This program may not be used in any manner that
 competes with the business of Gaussian, Inc. or will provide
 assistance to any competitor of Gaussian, Inc.  The licensee
 of this program is prohibited from giving any competitor of
 Gaussian, Inc. access to this program.  By using this program,
 the user acknowledges that Gaussian, Inc. is engaged in the
 business of creating and licensing software in the field of
 computational chemistry and represents and warrants to the
 licensee that it is not a competitor of Gaussian, Inc. and that
 it will not use this program in any manner prohibited above.
 ---------------------------------------------------------------
  

 Cite this work as:
 Gaussian 16, Revision A.03,
 M. J. Frisch, G. W. Trucks, H. B. Schlegel, G. E. Scuseria, 
 M. A. Robb, J. R. Cheeseman, G. Scalmani, V. Barone, 
 G. A. Petersson, H. Nakatsuji, X. Li, M. Caricato, A. V. Marenich, 
 J. Bloino, B. G. Janesko, R. Gomperts, B. Mennucci, H. P. Hratchian, 
 J. V. Ortiz, A. F. Izmaylov, J. L. Sonnenberg, D. Williams-Young, 
 F. Ding, F. Lipparini, F. Egidi, J. Goings, B. Peng, A. Petrone, 
 T. Henderson, D. Ranasinghe, V. G. Zakrzewski, J. Gao, N. Rega, 
 G. Zheng, W. Liang, M. Hada, M. Ehara, K. Toyota, R. Fukuda, 
 J. Hasegawa, M. Ishida, T. Nakajima, Y. Honda, O. Kitao, H. Nakai, 
 T. Vreven, K. Throssell, J. A. Montgomery, Jr., J. E. Peralta, 
 F. Ogliaro, M. J. Bearpark, J. J. Heyd, E. N. Brothers, K. N. Kudin, 
 V. N. Staroverov, T. A. Keith, R. Kobayashi, J. Normand, 
 K. Raghavachari, A. P. Rendell, J. C. Burant, S. S. Iyengar, 
 J. Tomasi, M. Cossi, J. M. Millam, M. Klene, C. Adamo, R. Cammi, 
 J. W. Ochterski, R. L. Martin, K. Morokuma, O. Farkas, 
 J. B. Foresman, and D. J. Fox, Gaussian, Inc., Wallingford CT, 2016.
 
 ******************************************
 Gaussian 16:  ES64L-G16RevA.03 25-Dec-2016
                16-May-2023 
 ******************************************
 %chk=C1dCOCdc2ccccc3cccn3ncc2dN1.chk
 %NProcShared=20
 Will use up to   20 processors via shared memory.
 -----------------------------
 # opt freq b3lyp/6-31g(2df,p)
 -----------------------------
 1/18=20,19=15,26=3,38=1/1,3;
 2/9=110,12=2,17=6,18=5,40=1/2;
 3/5=1,6=6,7=104,11=2,25=1,30=1,71=1,74=-5/1,2,3;
 4//1;
 5/5=2,38=5/2;
 6/7=2,8=2,9=2,10=2,28=1/1;
 7//1,2,3,16;
 1/18=20,19=15,26=3/3(2);
 2/9=110/2;
 99//99;
 2/9=110/2;
 3/5=1,6=6,7=104,11=2,25=1,30=1,71=1,74=-5/1,2,3;
 4/5=5,16=3,69=1/1;
 5/5=2,38=5/2;
 7//1,2,3,16;
 1/18=20,19=15,26=3/3(-5);
 2/9=110/2;
 6/7=2,8=2,9=2,10=2,19=2,28=1/1;
 99/9=1/99;
 -------------------
 Title Card Required
 -------------------
 Symbolic Z-matrix:
 Charge =  0 Multiplicity = 1
 C                     2.7661   -1.90429  -0.50949 
 C                     2.94301  -0.65943   0.10023 
 O                     3.94861  -0.78625   0.97878 
 C                     5.01467  -1.22904   0.20247 
 C                     5.65693  -2.41935   0.32571 
 C                     6.99981  -2.33504   0.52956 
 C                     7.53713  -3.47116   0.92295 
 C                     8.91646  -3.54522   0.85832 
 C                     9.4708   -4.69886   1.19982 
 C                     10.76411  -4.74214   0.86257 
 C                     11.79029  -3.99398   1.33301 
 C                     12.97437  -4.46653   0.87481 
 C                     12.49851  -5.40706  -0.13556 
 N                     10.73796  -5.44696  -0.27082 
 N                     9.01817  -5.35631  -1.01912 
 C                     7.32986  -4.80342  -1.03472 
 C                     5.60099  -3.69111  -0.6532 
 N                     3.93457  -3.27693  -0.82466 
 H                     1.47111  -1.71978  -0.2463 
 H                     2.90504   0.48865  -0.1766 
 H                     5.38207  -0.23516   0.01085 
 H                     7.42825  -1.41466   0.21049 
 H                     6.94662  -4.40854   1.03757 
 H                     9.45072  -2.72319   0.37614 
 H                     8.9793   -5.67748   1.20278 
 H                     11.60799  -3.20082   2.02483 
 H                     13.97273  -4.11736   1.28088 
 H                     13.3451  -6.13443  -0.3836 
 H                     7.37675  -6.01747  -1.14388 
 
 Add virtual bond connecting atoms H19        and C1         Dist= 2.52D+00.
 Add virtual bond connecting atoms C16        and N15        Dist= 3.36D+00.
 Add virtual bond connecting atoms H29        and N15        Dist= 3.35D+00.
 Add virtual bond connecting atoms N15        and N14        Dist= 3.55D+00.

 GradGradGradGradGradGradGradGradGradGradGradGradGradGradGradGradGradGrad
 Berny optimization.
 Initialization pass.
                           ----------------------------
                           !    Initial Parameters    !
                           ! (Angstroms and Degrees)  !
 --------------------------                            --------------------------
 ! Name  Definition              Value          Derivative Info.                !
 --------------------------------------------------------------------------------
 ! R1    R(1,2)                  1.3974         estimate D2E/DX2                !
 ! R2    R(1,19)                 1.3343         estimate D2E/DX2                !
 ! R3    R(2,3)                  1.3413         estimate D2E/DX2                !
 ! R4    R(2,20)                 1.1816         estimate D2E/DX2                !
 ! R5    R(3,4)                  1.3911         estimate D2E/DX2                !
 ! R6    R(4,5)                  1.3581         estimate D2E/DX2                !
 ! R7    R(4,21)                 1.0768         estimate D2E/DX2                !
 ! R8    R(5,6)                  1.3609         estimate D2E/DX2                !
 ! R9    R(5,17)                 1.6059         estimate D2E/DX2                !
 ! R10   R(6,7)                  1.3169         estimate D2E/DX2                !
 ! R11   R(6,22)                 1.0642         estimate D2E/DX2                !
 ! R12   R(7,8)                  1.3828         estimate D2E/DX2                !
 ! R13   R(7,23)                 1.1138         estimate D2E/DX2                !
 ! R14   R(8,9)                  1.3247         estimate D2E/DX2                !
 ! R15   R(8,24)                 1.0925         estimate D2E/DX2                !
 ! R16   R(9,10)                 1.3373         estimate D2E/DX2                !
 ! R17   R(9,25)                 1.0951         estimate D2E/DX2                !
 ! R18   R(10,11)                1.3543         estimate D2E/DX2                !
 ! R19   R(10,14)                1.3349         estimate D2E/DX2                !
 ! R20   R(11,12)                1.3547         estimate D2E/DX2                !
 ! R21   R(11,26)                1.0682         estimate D2E/DX2                !
 ! R22   R(12,13)                1.4601         estimate D2E/DX2                !
 ! R23   R(12,27)                1.1329         estimate D2E/DX2                !
 ! R24   R(13,28)                1.1434         estimate D2E/DX2                !
 ! R25   R(14,15)                1.8777         estimate D2E/DX2                !
 ! R26   R(15,16)                1.7766         estimate D2E/DX2                !
 ! R27   R(15,29)                1.774          estimate D2E/DX2                !
 ! R28   R(16,29)                1.2198         estimate D2E/DX2                !
 ! R29   R(17,18)                1.7257         estimate D2E/DX2                !
 ! A1    A(2,1,19)              85.0444         estimate D2E/DX2                !
 ! A2    A(1,2,3)              107.2457         estimate D2E/DX2                !
 ! A3    A(1,2,20)             139.4007         estimate D2E/DX2                !
 ! A4    A(3,2,20)             105.6292         estimate D2E/DX2                !
 ! A5    A(2,3,4)              103.8337         estimate D2E/DX2                !
 ! A6    A(3,4,5)              126.2086         estimate D2E/DX2                !
 ! A7    A(3,4,21)              93.8411         estimate D2E/DX2                !
 ! A8    A(5,4,21)             131.5855         estimate D2E/DX2                !
 ! A9    A(4,5,6)              115.2102         estimate D2E/DX2                !
 ! A10   A(4,5,17)             128.4845         estimate D2E/DX2                !
 ! A11   A(6,5,17)             100.0641         estimate D2E/DX2                !
 ! A12   A(5,6,7)              113.1986         estimate D2E/DX2                !
 ! A13   A(5,6,22)             113.9505         estimate D2E/DX2                !
 ! A14   A(7,6,22)             132.1786         estimate D2E/DX2                !
 ! A15   A(6,7,8)              116.0547         estimate D2E/DX2                !
 ! A16   A(6,7,23)             122.7174         estimate D2E/DX2                !
 ! A17   A(8,7,23)             119.2471         estimate D2E/DX2                !
 ! A18   A(7,8,9)              116.8722         estimate D2E/DX2                !
 ! A19   A(7,8,24)             117.9108         estimate D2E/DX2                !
 ! A20   A(9,8,24)             124.3597         estimate D2E/DX2                !
 ! A21   A(8,9,10)             111.5853         estimate D2E/DX2                !
 ! A22   A(8,9,25)             126.2364         estimate D2E/DX2                !
 ! A23   A(10,9,25)            113.9426         estimate D2E/DX2                !
 ! A24   A(9,10,11)            128.854          estimate D2E/DX2                !
 ! A25   A(9,10,14)            102.255          estimate D2E/DX2                !
 ! A26   A(11,10,14)           126.9737         estimate D2E/DX2                !
 ! A27   A(10,11,12)           110.6152         estimate D2E/DX2                !
 ! A28   A(10,11,26)           120.3897         estimate D2E/DX2                !
 ! A29   A(12,11,26)           128.847          estimate D2E/DX2                !
 ! A30   A(11,12,13)           100.0135         estimate D2E/DX2                !
 ! A31   A(11,12,27)           122.7846         estimate D2E/DX2                !
 ! A32   A(13,12,27)           137.2018         estimate D2E/DX2                !
 ! A33   A(12,13,28)           108.5777         estimate D2E/DX2                !
 ! A34   A(10,14,15)           109.3175         estimate D2E/DX2                !
 ! A35   A(14,15,16)           152.7348         estimate D2E/DX2                !
 ! A36   A(14,15,29)           149.0361         estimate D2E/DX2                !
 ! A37   A(5,17,18)             84.4985         estimate D2E/DX2                !
 ! D1    D(19,1,2,3)           132.0368         estimate D2E/DX2                !
 ! D2    D(19,1,2,20)          -85.2446         estimate D2E/DX2                !
 ! D3    D(1,2,3,4)             57.3054         estimate D2E/DX2                !
 ! D4    D(20,2,3,4)           -98.5323         estimate D2E/DX2                !
 ! D5    D(2,3,4,5)           -116.9919         estimate D2E/DX2                !
 ! D6    D(2,3,4,21)            92.1269         estimate D2E/DX2                !
 ! D7    D(3,4,5,6)           -123.3448         estimate D2E/DX2                !
 ! D8    D(3,4,5,17)           108.2649         estimate D2E/DX2                !
 ! D9    D(21,4,5,6)            16.179          estimate D2E/DX2                !
 ! D10   D(21,4,5,17)         -112.2113         estimate D2E/DX2                !
 ! D11   D(4,5,6,7)            166.4312         estimate D2E/DX2                !
 ! D12   D(4,5,6,22)           -21.7973         estimate D2E/DX2                !
 ! D13   D(17,5,6,7)           -52.1136         estimate D2E/DX2                !
 ! D14   D(17,5,6,22)          119.6578         estimate D2E/DX2                !
 ! D15   D(4,5,17,18)          -37.7148         estimate D2E/DX2                !
 ! D16   D(6,5,17,18)         -171.6417         estimate D2E/DX2                !
 ! D17   D(5,6,7,8)            165.9226         estimate D2E/DX2                !
 ! D18   D(5,6,7,23)             2.0832         estimate D2E/DX2                !
 ! D19   D(22,6,7,8)            -3.9112         estimate D2E/DX2                !
 ! D20   D(22,6,7,23)         -167.7507         estimate D2E/DX2                !
 ! D21   D(6,7,8,9)           -177.4022         estimate D2E/DX2                !
 ! D22   D(6,7,8,24)            -7.5321         estimate D2E/DX2                !
 ! D23   D(23,7,8,9)           -12.9704         estimate D2E/DX2                !
 ! D24   D(23,7,8,24)          156.8997         estimate D2E/DX2                !
 ! D25   D(7,8,9,10)           168.1973         estimate D2E/DX2                !
 ! D26   D(7,8,9,25)            21.9931         estimate D2E/DX2                !
 ! D27   D(24,8,9,10)           -0.9507         estimate D2E/DX2                !
 ! D28   D(24,8,9,25)         -147.1548         estimate D2E/DX2                !
 ! D29   D(8,9,10,11)           65.0675         estimate D2E/DX2                !
 ! D30   D(8,9,10,14)          -99.7987         estimate D2E/DX2                !
 ! D31   D(25,9,10,11)        -144.3316         estimate D2E/DX2                !
 ! D32   D(25,9,10,14)          50.8021         estimate D2E/DX2                !
 ! D33   D(9,10,11,12)         171.5753         estimate D2E/DX2                !
 ! D34   D(9,10,11,26)          -4.3793         estimate D2E/DX2                !
 ! D35   D(14,10,11,12)        -27.0476         estimate D2E/DX2                !
 ! D36   D(14,10,11,26)        156.9977         estimate D2E/DX2                !
 ! D37   D(9,10,14,15)          21.6623         estimate D2E/DX2                !
 ! D38   D(11,10,14,15)       -143.5948         estimate D2E/DX2                !
 ! D39   D(10,11,12,13)         11.1203         estimate D2E/DX2                !
 ! D40   D(10,11,12,27)       -168.7794         estimate D2E/DX2                !
 ! D41   D(26,11,12,13)       -173.3611         estimate D2E/DX2                !
 ! D42   D(26,11,12,27)          6.7392         estimate D2E/DX2                !
 ! D43   D(11,12,13,28)       -161.8562         estimate D2E/DX2                !
 ! D44   D(27,12,13,28)         18.0197         estimate D2E/DX2                !
 ! D45   D(10,14,15,16)          0.6522         estimate D2E/DX2                !
 ! D46   D(10,14,15,29)        -88.9328         estimate D2E/DX2                !
 ! D47   D(14,15,16,29)       -127.1291         estimate D2E/DX2                !
 --------------------------------------------------------------------------------
 Trust Radius=3.00D-01 FncErr=1.00D-07 GrdErr=1.00D-06 EigMax=2.50D+02 EigMin=1.00D-04
 Number of steps in this run=    123 maximum allowed number of steps=    174.
 GradGradGradGradGradGradGradGradGradGradGradGradGradGradGradGradGradGrad

                          Input orientation:                          
 ---------------------------------------------------------------------
 Center     Atomic      Atomic             Coordinates (Angstroms)
 Number     Number       Type             X           Y           Z
 ---------------------------------------------------------------------
      1          6           0        2.766100   -1.904290   -0.509490
      2          6           0        2.943010   -0.659430    0.100230
      3          8           0        3.948610   -0.786250    0.978780
      4          6           0        5.014670   -1.229040    0.202470
      5          6           0        5.656930   -2.419350    0.325710
      6          6           0        6.999810   -2.335040    0.529560
      7          6           0        7.537130   -3.471160    0.922950
      8          6           0        8.916460   -3.545220    0.858320
      9          6           0        9.470800   -4.698860    1.199820
     10          6           0       10.764110   -4.742140    0.862570
     11          6           0       11.790290   -3.993980    1.333010
     12          6           0       12.974370   -4.466530    0.874810
     13          6           0       12.498510   -5.407060   -0.135560
     14          7           0       10.737960   -5.446960   -0.270820
     15          7           0        9.018170   -5.356310   -1.019120
     16          6           0        7.329860   -4.803420   -1.034720
     17          6           0        5.600990   -3.691110   -0.653200
     18          7           0        3.934570   -3.276930   -0.824660
     19          1           0        1.471110   -1.719780   -0.246300
     20          1           0        2.905040    0.488650   -0.176600
     21          1           0        5.382070   -0.235160    0.010850
     22          1           0        7.428250   -1.414660    0.210490
     23          1           0        6.946620   -4.408540    1.037570
     24          1           0        9.450720   -2.723190    0.376140
     25          1           0        8.979300   -5.677480    1.202780
     26          1           0       11.607990   -3.200820    2.024830
     27          1           0       13.972730   -4.117360    1.280880
     28          1           0       13.345100   -6.134430   -0.383600
     29          1           0        7.376750   -6.017470   -1.143880
 ---------------------------------------------------------------------
                    Distance matrix (angstroms):
                    1          2          3          4          5
     1  C    0.000000
     2  C    1.397402   0.000000
     3  O    2.205287   1.341329   0.000000
     4  C    2.453348   2.150973   1.391116   0.000000
     5  C    3.052826   3.242456   2.451912   1.358133   0.000000
     6  C    4.380579   4.410172   3.451140   2.295867   1.360878
     7  C    5.222039   5.448728   4.482113   3.450942   2.235655
     8  C    6.510797   6.677169   5.683833   4.584626   3.489383
     9  C    7.462196   7.754878   6.771407   5.735107   4.528337
    10  C    8.596750   8.855467   7.881219   6.770056   5.636210
    11  C    9.444449   9.534848   8.479797   7.404866   6.411881
    12  C   10.615561  10.757424   9.747800   8.619177   7.618227
    13  C   10.350315  10.672543   9.782353   8.577761   7.479732
    14  N    8.726857   9.155292   8.329405   7.125370   5.944673
    15  N    7.159926   7.760232   7.111785   5.878321   4.661785
    16  C    5.432194   6.140457   5.623583   4.434742   3.214538
    17  C    3.354099   4.101658   3.719130   2.671653   1.605854
    18  N    1.829971   2.947867   3.075074   2.532877   2.241722
    19  H    1.334283   1.846866   2.917243   3.605418   4.282252
    20  H    2.419976   1.181594   2.012290   2.746760   4.035056
    21  H    3.146434   2.477298   1.815323   1.076800   2.223819
    22  H    4.742758   4.549715   3.618434   2.420720   2.039670
    23  H    5.112867   5.564470   4.702394   3.813010   2.475262
    24  H    6.792576   6.832680   5.864139   4.684142   3.806272
    25  H    7.468111   7.926742   7.020125   6.042146   4.735272
    26  H    9.288853   9.232802   8.098794   7.119044   6.238014
    27  H   11.562511  11.619206  10.567428   9.473764   8.540967
    28  H   11.394085  11.764914  10.897391   9.685164   8.568133
    29  H    6.211183   7.065016   6.604808   5.506464   4.250170
                    6          7          8          9         10
     6  C    0.000000
     7  C    1.316904   0.000000
     8  C    2.290451   1.382828   0.000000
     9  C    3.484636   2.307159   1.324689   0.000000
    10  C    4.480511   3.468780   2.201465   1.337259   0.000000
    11  C    5.132866   4.304749   2.947137   2.427886   1.354290
    12  C    6.352780   5.527808   4.161216   3.526274   2.227411
    13  C    6.333671   5.429866   4.157563   3.384053   2.108679
    14  N    4.929343   3.946414   2.865211   2.080416   1.334926
    15  N    3.949716   3.085272   2.610589   2.358137   2.639369
    16  C    2.940885   2.377046   2.771997   3.096405   3.923970
    17  C    2.279154   2.506245   3.646686   4.407343   5.482703
    18  N    3.480914   4.008778   5.265323   6.063848   7.185833
    19  H    5.616674   6.421143   7.745041   8.658015   9.834841
    20  H    5.023846   6.192363   7.313025   8.480212   9.497685
    21  H    2.701044   3.993483   4.915955   6.168953   7.071397
    22  H    1.064174   2.179139   2.678384   3.992086   4.756605
    23  H    2.135487   1.113787   2.158176   2.545996   3.836032
    24  H    2.486193   2.126097   1.092550   2.140590   2.457187
    25  H    3.942526   2.650662   2.160818   1.095116   2.043563
    26  H    4.921456   4.226006   2.953589   2.737215   2.106810
    27  H    7.236212   6.477857   5.106052   4.540054   3.295539
    28  H    7.451975   6.521702   5.278184   4.424735   3.186365
    29  H    4.062361   3.283474   3.534336   3.408329   4.138420
                   11         12         13         14         15
    11  C    0.000000
    12  C    1.354731   0.000000
    13  C    2.157561   1.460098   0.000000
    14  N    2.406412   2.697265   1.766189   0.000000
    15  N    3.882410   4.475511   3.591103   1.877724   0.000000
    16  C    5.114369   5.968274   5.280891   3.551455   1.776604
    17  C    6.507242   7.569863   7.126585   5.442213   3.818888
    18  N    8.178144   9.274768   8.851745   7.162533   5.495873
    19  H   10.684179  11.879668  11.628063   9.988342   8.413068
    20  H   10.065812  11.271676  11.260362   9.828274   8.499633
    21  H    7.546000   8.734640   8.798506   7.478486   6.364608
    22  H    5.190408   6.365114   6.462704   5.238825   4.424522
    23  H    4.870347   6.030226   5.761663   4.143001   3.069130
    24  H    2.829151   3.962829   4.093167   3.081309   3.011174
    25  H    3.279146   4.187427   3.774801   2.305975   2.245329
    26  H    1.068153   2.188964   3.213690   3.327477   4.540808
    27  H    2.186546   1.132932   2.417220   3.826140   5.601130
    28  H    3.153682   2.122010   1.143375   2.698613   4.442036
    29  H    5.450581   6.149299   5.255638   3.519297   1.773967
                   16         17         18         19         20
    16  C    0.000000
    17  C    2.090881   0.000000
    18  N    3.728578   1.725659   0.000000
    19  H    6.667488   4.594303   2.971170   0.000000
    20  H    6.951360   4.996568   3.957209   2.634042   0.000000
    21  H    5.075047   3.525972   3.470691   4.191161   2.587415
    22  H    3.611637   3.044185   4.092113   5.982414   4.922586
    23  H    2.144106   2.276868   3.717645   6.233696   6.464600
    24  H    3.288758   4.100833   5.672430   8.066501   7.312138
    25  H    2.913939   4.336278   5.943270   8.610235   8.764729
    26  H    5.498324   6.595171   8.185766  10.493229   9.705659
    27  H    7.068267   8.602813  10.290980  12.820732  12.076147
    28  H    6.195051   8.124884   9.844690  12.668845  12.365391
    29  H    1.219849   2.967497   4.411470   7.358830   7.953705
                   21         22         23         24         25
    21  H    0.000000
    22  H    2.370217   0.000000
    23  H    4.573737   3.143143   0.000000
    24  H    4.783058   2.414555   3.090050   0.000000
    25  H    6.631712   4.643493   2.401935   3.103772   0.000000
    26  H    7.184242   4.894121   4.915449   2.756832   3.704001
    27  H    9.512302   7.161043   7.036349   4.817763   5.232057
    28  H    9.918005   7.591988   6.777829   5.232586   4.667506
    29  H    6.224730   4.798211   2.744520   4.179006   2.861918
                   26         27         28         29
    26  H    0.000000
    27  H    2.643010   0.000000
    28  H    4.174225   2.689421   0.000000
    29  H    5.989794   7.279892   6.017716   0.000000
 Stoichiometry    C14H11N3O
 Framework group  C1[X(C14H11N3O)]
 Deg. of freedom    81
 Full point group                 C1      NOp   1
 Largest Abelian subgroup         C1      NOp   1
 Largest concise Abelian subgroup C1      NOp   1
                         Standard orientation:                         
 ---------------------------------------------------------------------
 Center     Atomic      Atomic             Coordinates (Angstroms)
 Number     Number       Type             X           Y           Z
 ---------------------------------------------------------------------
      1          6           0        5.116326    0.661722   -0.059434
      2          6           0        5.402976   -0.690154   -0.266784
      3          8           0        4.379555   -1.395545    0.237397
      4          6           0        3.270536   -0.907513   -0.446053
      5          6           0        2.210547   -0.260076    0.103285
      6          6           0        0.996725   -0.825547   -0.139343
      7          6           0        0.039166   -0.347870    0.628214
      8          6           0       -1.254650   -0.646098    0.241805
      9          6           0       -2.231761   -0.129531    0.972020
     10          6           0       -3.419224   -0.266656    0.372530
     11          6           0       -4.098837   -1.401779    0.083179
     12          6           0       -5.345795   -1.111417   -0.359632
     13          6           0       -5.216815    0.329861   -0.554487
     14          7           0       -3.605425    0.940206   -0.166768
     15          7           0       -1.946460    1.799713   -0.353661
     16          6           0       -0.177965    1.869878   -0.199310
     17          6           0        1.822874    1.294430   -0.006216
     18          7           0        3.526091    1.554988    0.088966
     19          1           0        6.364343    0.735711    0.406711
     20          1           0        5.899359   -1.387317   -1.081481
     21          1           0        3.329399   -1.653064   -1.220770
     22          1           0        0.978039   -1.457948   -0.995021
     23          1           0        0.211775    0.463485    1.371470
     24          1           0       -1.399728   -1.138320   -0.722733
     25          1           0       -2.159980    0.750453    1.619905
     26          1           0       -3.661849   -2.357216    0.275878
     27          1           0       -6.151191   -1.898365   -0.484474
     28          1           0       -6.264116    0.786077   -0.602799
     29          1           0       -0.686545    2.841016    0.335730
 ---------------------------------------------------------------------
 Rotational constants (GHZ):           1.5315215           0.1721038           0.1586447
 Standard basis: 6-31G(2df,p) (6D, 7F)
 There are   613 symmetry adapted cartesian basis functions of A   symmetry.
 There are   559 symmetry adapted basis functions of A   symmetry.
   559 basis functions,   869 primitive gaussians,   613 cartesian basis functions
    62 alpha electrons       62 beta electrons
       nuclear repulsion energy      1132.5572421523 Hartrees.
 NAtoms=   29 NActive=   29 NUniq=   29 SFac= 1.00D+00 NAtFMM=   60 NAOKFM=F Big=F
 Integral buffers will be    131072 words long.
 Raffenetti 2 integral format.
 Two-electron integral symmetry is turned on.
 One-electron integrals computed using PRISM.
 PrsmSu:  requested number of processors reduced to:  12 ShMem   1 Linda.
 NBasis=   559 RedAO= T EigKep=  2.30D-04  NBF=   559
 NBsUse=   559 1.00D-06 EigRej= -1.00D+00 NBFU=   559
 ExpMin= 1.61D-01 ExpMax= 5.48D+03 ExpMxC= 8.25D+02 IAcc=3 IRadAn=         5 AccDes= 0.00D+00
 Harris functional with IExCor=  402 and IRadAn=       5 diagonalized for initial guess.
 HarFok:  IExCor=  402 AccDes= 0.00D+00 IRadAn=         5 IDoV= 1 UseB2=F ITyADJ=14
 ICtDFT=  3500011 ScaDFX=  1.000000  1.000000  1.000000  1.000000
 FoFCou: FMM=F IPFlag=           0 FMFlag=      100000 FMFlg1=           0
         NFxFlg=           0 DoJE=T BraDBF=F KetDBF=T FulRan=T
         wScrn=  0.000000 ICntrl=       500 IOpCl=  0 I1Cent=   200000004 NGrid=           0
         NMat0=    1 NMatS0=      1 NMatT0=    0 NMatD0=    1 NMtDS0=    0 NMtDT0=    0
 Petite list used in FoFCou.
 Requested convergence on RMS density matrix=1.00D-08 within 128 cycles.
 Requested convergence on MAX density matrix=1.00D-06.
 Requested convergence on             energy=1.00D-06.
 No special actions if energy rises.
 Integral accuracy reduced to 1.0D-05 until final iterations.
 EnCoef did     5 forward-backward iterations
 EnCoef did     4 forward-backward iterations
 EnCoef did     7 forward-backward iterations
 EnCoef did     4 forward-backward iterations
 EnCoef did     7 forward-backward iterations
 EnCoef did   100 forward-backward iterations
 EnCoef did    12 forward-backward iterations
 EnCoef did     5 forward-backward iterations
 EnCoef did     3 forward-backward iterations
 EnCoef did     3 forward-backward iterations
 Initial convergence to 1.0D-05 achieved.  Increase integral accuracy.
 SCF Done:  E(RB3LYP) =  -778.324951303     A.U. after   36 cycles
            NFock= 36  Conv=0.81D-08     -V/T= 2.0073

 **********************************************************************

            Population analysis using the SCF density.

 **********************************************************************

 Orbital symmetries:
       Occupied  (A) (A) (A) (A) (A) (A) (A) (A) (A) (A) (A) (A)
                 (A) (A) (A) (A) (A) (A) (A) (A) (A) (A) (A) (A)
                 (A) (A) (A) (A) (A) (A) (A) (A) (A) (A) (A) (A)
                 (A) (A) (A) (A) (A) (A) (A) (A) (A) (A) (A) (A)
                 (A) (A) (A) (A) (A) (A) (A) (A) (A) (A) (A) (A)
                 (A) (A)
       Virtual   (A) (A) (A) (A) (A) (A) (A) (A) (A) (A) (A) (A)
                 (A) (A) (A) (A) (A) (A) (A) (A) (A) (A) (A) (A)
                 (A) (A) (A) (A) (A) (A) (A) (A) (A) (A) (A) (A)
                 (A) (A) (A) (A) (A) (A) (A) (A) (A) (A) (A) (A)
                 (A) (A) (A) (A) (A) (A) (A) (A) (A) (A) (A) (A)
                 (A) (A) (A) (A) (A) (A) (A) (A) (A) (A) (A) (A)
                 (A) (A) (A) (A) (A) (A) (A) (A) (A) (A) (A) (A)
                 (A) (A) (A) (A) (A) (A) (A) (A) (A) (A) (A) (A)
                 (A) (A) (A) (A) (A) (A) (A) (A) (A) (A) (A) (A)
                 (A) (A) (A) (A) (A) (A) (A) (A) (A) (A) (A) (A)
                 (A) (A) (A) (A) (A) (A) (A) (A) (A) (A) (A) (A)
                 (A) (A) (A) (A) (A) (A) (A) (A) (A) (A) (A) (A)
                 (A) (A) (A) (A) (A) (A) (A) (A) (A) (A) (A) (A)
                 (A) (A) (A) (A) (A) (A) (A) (A) (A) (A) (A) (A)
                 (A) (A) (A) (A) (A) (A) (A) (A) (A) (A) (A) (A)
                 (A) (A) (A) (A) (A) (A) (A) (A) (A) (A) (A) (A)
                 (A) (A) (A) (A) (A) (A) (A) (A) (A) (A) (A) (A)
                 (A) (A) (A) (A) (A) (A) (A) (A) (A) (A) (A) (A)
                 (A) (A) (A) (A) (A) (A) (A) (A) (A) (A) (A) (A)
                 (A) (A) (A) (A) (A) (A) (A) (A) (A) (A) (A) (A)
                 (A) (A) (A) (A) (A) (A) (A) (A) (A) (A) (A) (A)
                 (A) (A) (A) (A) (A) (A) (A) (A) (A) (A) (A) (A)
                 (A) (A) (A) (A) (A) (A) (A) (A) (A) (A) (A) (A)
                 (A) (A) (A) (A) (A) (A) (A) (A) (A) (A) (A) (A)
                 (A) (A) (A) (A) (A) (A) (A) (A) (A) (A) (A) (A)
                 (A) (A) (A) (A) (A) (A) (A) (A) (A) (A) (A) (A)
                 (A) (A) (A) (A) (A) (A) (A) (A) (A) (A) (A) (A)
                 (A) (A) (A) (A) (A) (A) (A) (A) (A) (A) (A) (A)
                 (A) (A) (A) (A) (A) (A) (A) (A) (A) (A) (A) (A)
                 (A) (A) (A) (A) (A) (A) (A) (A) (A) (A) (A) (A)
                 (A) (A) (A) (A) (A) (A) (A) (A) (A) (A) (A) (A)
                 (A) (A) (A) (A) (A) (A) (A) (A) (A) (A) (A) (A)
                 (A) (A) (A) (A) (A) (A) (A) (A) (A) (A) (A) (A)
                 (A) (A) (A) (A) (A) (A) (A) (A) (A) (A) (A) (A)
                 (A) (A) (A) (A) (A) (A) (A) (A) (A) (A) (A) (A)
                 (A) (A) (A) (A) (A) (A) (A) (A) (A) (A) (A) (A)
                 (A) (A) (A) (A) (A) (A) (A) (A) (A) (A) (A) (A)
                 (A) (A) (A) (A) (A) (A) (A) (A) (A) (A) (A) (A)
                 (A) (A) (A) (A) (A) (A) (A) (A) (A) (A) (A) (A)
                 (A) (A) (A) (A) (A) (A) (A) (A) (A) (A) (A) (A)
                 (A) (A) (A) (A) (A) (A) (A) (A) (A) (A) (A) (A)
                 (A) (A) (A) (A) (A)
 The electronic state is 1-A.
 Alpha  occ. eigenvalues --  -19.18811 -14.42158 -14.36751 -14.36324 -10.31245
 Alpha  occ. eigenvalues --  -10.29240 -10.28440 -10.27609 -10.25570 -10.25262
 Alpha  occ. eigenvalues --  -10.21769 -10.21103 -10.20575 -10.19795 -10.19466
 Alpha  occ. eigenvalues --  -10.19162 -10.18973 -10.17788  -1.11677  -0.94952
 Alpha  occ. eigenvalues --   -0.88787  -0.83453  -0.80752  -0.77793  -0.76896
 Alpha  occ. eigenvalues --   -0.75979  -0.71482  -0.69431  -0.65590  -0.61971
 Alpha  occ. eigenvalues --   -0.60451  -0.59254  -0.57591  -0.55952  -0.55262
 Alpha  occ. eigenvalues --   -0.52214  -0.51171  -0.50249  -0.49105  -0.47133
 Alpha  occ. eigenvalues --   -0.45274  -0.43285  -0.42618  -0.40633  -0.40341
 Alpha  occ. eigenvalues --   -0.38534  -0.38333  -0.37653  -0.35805  -0.35501
 Alpha  occ. eigenvalues --   -0.34221  -0.33628  -0.31910  -0.30815  -0.28209
 Alpha  occ. eigenvalues --   -0.26399  -0.25839  -0.23127  -0.21850  -0.20257
 Alpha  occ. eigenvalues --   -0.19214  -0.18917
 Alpha virt. eigenvalues --   -0.14965  -0.13922  -0.11433  -0.08797  -0.07030
 Alpha virt. eigenvalues --   -0.04629  -0.02951  -0.01821   0.01297   0.03390
 Alpha virt. eigenvalues --    0.05712   0.07260   0.08270   0.08868   0.09008
 Alpha virt. eigenvalues --    0.09976   0.10710   0.11130   0.13342   0.14277
 Alpha virt. eigenvalues --    0.14867   0.15642   0.15918   0.17088   0.17488
 Alpha virt. eigenvalues --    0.22081   0.24524   0.24836   0.25421   0.27330
 Alpha virt. eigenvalues --    0.28111   0.30305   0.32245   0.32927   0.34390
 Alpha virt. eigenvalues --    0.37226   0.37738   0.38566   0.40097   0.40768
 Alpha virt. eigenvalues --    0.43145   0.43339   0.44460   0.45890   0.46317
 Alpha virt. eigenvalues --    0.46742   0.47869   0.49099   0.49344   0.50444
 Alpha virt. eigenvalues --    0.51218   0.51549   0.52513   0.53533   0.54640
 Alpha virt. eigenvalues --    0.55047   0.55561   0.56409   0.56567   0.57388
 Alpha virt. eigenvalues --    0.58651   0.59479   0.60503   0.60679   0.61594
 Alpha virt. eigenvalues --    0.61946   0.62626   0.62910   0.63347   0.63984
 Alpha virt. eigenvalues --    0.64431   0.64642   0.65194   0.66438   0.67535
 Alpha virt. eigenvalues --    0.68818   0.69031   0.69968   0.70412   0.71099
 Alpha virt. eigenvalues --    0.71964   0.72622   0.73126   0.73582   0.74700
 Alpha virt. eigenvalues --    0.75452   0.75761   0.76605   0.77116   0.77413
 Alpha virt. eigenvalues --    0.78196   0.78920   0.80887   0.81850   0.82537
 Alpha virt. eigenvalues --    0.82864   0.84144   0.84370   0.85288   0.85674
 Alpha virt. eigenvalues --    0.86188   0.87149   0.87727   0.88481   0.89749
 Alpha virt. eigenvalues --    0.90192   0.90922   0.91515   0.92909   0.93441
 Alpha virt. eigenvalues --    0.94546   0.95234   0.96375   0.97437   0.97993
 Alpha virt. eigenvalues --    0.98648   1.00157   1.01925   1.02225   1.03204
 Alpha virt. eigenvalues --    1.03368   1.04926   1.05704   1.07456   1.08397
 Alpha virt. eigenvalues --    1.09185   1.10247   1.11291   1.12645   1.13952
 Alpha virt. eigenvalues --    1.15398   1.15539   1.17849   1.18188   1.20180
 Alpha virt. eigenvalues --    1.22182   1.22874   1.23359   1.23659   1.24748
 Alpha virt. eigenvalues --    1.26300   1.27186   1.27968   1.29230   1.31008
 Alpha virt. eigenvalues --    1.32319   1.32757   1.34735   1.35259   1.36631
 Alpha virt. eigenvalues --    1.38308   1.38599   1.38919   1.41094   1.42122
 Alpha virt. eigenvalues --    1.43789   1.44760   1.45793   1.47142   1.48017
 Alpha virt. eigenvalues --    1.48688   1.50370   1.50751   1.51151   1.52012
 Alpha virt. eigenvalues --    1.52160   1.53848   1.56138   1.57321   1.58692
 Alpha virt. eigenvalues --    1.59271   1.60704   1.60860   1.61712   1.63419
 Alpha virt. eigenvalues --    1.64039   1.65917   1.66302   1.68389   1.68887
 Alpha virt. eigenvalues --    1.70371   1.72126   1.73289   1.74365   1.75157
 Alpha virt. eigenvalues --    1.76749   1.78694   1.79437   1.81134   1.82950
 Alpha virt. eigenvalues --    1.84293   1.86145   1.87695   1.88627   1.89655
 Alpha virt. eigenvalues --    1.90734   1.92487   1.96188   1.97061   1.99087
 Alpha virt. eigenvalues --    2.00096   2.02704   2.04523   2.05982   2.08024
 Alpha virt. eigenvalues --    2.09432   2.10983   2.15005   2.16216   2.16885
 Alpha virt. eigenvalues --    2.17760   2.18933   2.19295   2.20158   2.22902
 Alpha virt. eigenvalues --    2.28003   2.30376   2.32575   2.34130   2.35188
 Alpha virt. eigenvalues --    2.36440   2.39152   2.40725   2.42274   2.44445
 Alpha virt. eigenvalues --    2.45566   2.46637   2.51125   2.51643   2.52168
 Alpha virt. eigenvalues --    2.57146   2.57570   2.58778   2.60342   2.62687
 Alpha virt. eigenvalues --    2.64341   2.65959   2.66957   2.68448   2.71937
 Alpha virt. eigenvalues --    2.72038   2.72962   2.74353   2.76716   2.77897
 Alpha virt. eigenvalues --    2.78949   2.81398   2.81895   2.82722   2.83486
 Alpha virt. eigenvalues --    2.84315   2.84972   2.86884   2.87477   2.88167
 Alpha virt. eigenvalues --    2.89938   2.90614   2.91605   2.93150   2.94148
 Alpha virt. eigenvalues --    2.95046   2.95915   2.98114   2.99302   2.99909
 Alpha virt. eigenvalues --    3.01459   3.01898   3.03389   3.04454   3.05180
 Alpha virt. eigenvalues --    3.05709   3.06485   3.08017   3.09627   3.10028
 Alpha virt. eigenvalues --    3.11715   3.11966   3.13073   3.13953   3.15201
 Alpha virt. eigenvalues --    3.15797   3.16351   3.17798   3.19565   3.20264
 Alpha virt. eigenvalues --    3.21385   3.23143   3.24156   3.25327   3.26239
 Alpha virt. eigenvalues --    3.27099   3.27892   3.29519   3.30553   3.31280
 Alpha virt. eigenvalues --    3.31713   3.33450   3.34338   3.35090   3.36486
 Alpha virt. eigenvalues --    3.37554   3.38763   3.39515   3.39838   3.41682
 Alpha virt. eigenvalues --    3.42213   3.42775   3.43969   3.45693   3.48107
 Alpha virt. eigenvalues --    3.48291   3.49920   3.50500   3.51937   3.55027
 Alpha virt. eigenvalues --    3.55700   3.58009   3.59023   3.60333   3.61921
 Alpha virt. eigenvalues --    3.62488   3.63374   3.64348   3.64907   3.66701
 Alpha virt. eigenvalues --    3.67625   3.69658   3.71323   3.71773   3.73111
 Alpha virt. eigenvalues --    3.74299   3.76409   3.77806   3.79298   3.80198
 Alpha virt. eigenvalues --    3.81790   3.83739   3.85837   3.87405   3.87732
 Alpha virt. eigenvalues --    3.90562   3.91881   3.92894   3.95050   3.95909
 Alpha virt. eigenvalues --    3.96692   3.98541   4.00773   4.01098   4.03532
 Alpha virt. eigenvalues --    4.05477   4.07680   4.08936   4.09790   4.11708
 Alpha virt. eigenvalues --    4.12430   4.13213   4.13792   4.14952   4.17168
 Alpha virt. eigenvalues --    4.17317   4.19465   4.20961   4.22902   4.23818
 Alpha virt. eigenvalues --    4.25451   4.26284   4.27914   4.29468   4.30527
 Alpha virt. eigenvalues --    4.30607   4.31352   4.33999   4.35610   4.37456
 Alpha virt. eigenvalues --    4.38440   4.38944   4.39482   4.40377   4.42016
 Alpha virt. eigenvalues --    4.43198   4.44403   4.45252   4.45605   4.46841
 Alpha virt. eigenvalues --    4.48312   4.49402   4.50310   4.51297   4.51468
 Alpha virt. eigenvalues --    4.52683   4.53305   4.55378   4.56077   4.56636
 Alpha virt. eigenvalues --    4.57922   4.58455   4.59744   4.60270   4.62438
 Alpha virt. eigenvalues --    4.63804   4.64459   4.64635   4.65496   4.66168
 Alpha virt. eigenvalues --    4.67908   4.69821   4.71800   4.72759   4.73555
 Alpha virt. eigenvalues --    4.74347   4.75730   4.77373   4.78398   4.78775
 Alpha virt. eigenvalues --    4.79455   4.80714   4.81221   4.84257   4.85578
 Alpha virt. eigenvalues --    4.86198   4.88108   4.89211   4.90109   4.91805
 Alpha virt. eigenvalues --    4.93691   4.94340   4.95378   4.97148   4.98077
 Alpha virt. eigenvalues --    5.00083   5.02418   5.02888   5.04172   5.07229
 Alpha virt. eigenvalues --    5.08478   5.10538   5.10963   5.12165   5.13306
 Alpha virt. eigenvalues --    5.15345   5.20598   5.22933   5.23465   5.27978
 Alpha virt. eigenvalues --    5.29259   5.32666   5.33174   5.34295   5.35408
 Alpha virt. eigenvalues --    5.38340   5.40557   5.41634   5.42303   5.48258
 Alpha virt. eigenvalues --    5.50998   5.53920   5.56453   5.61114   5.67791
 Alpha virt. eigenvalues --    5.70509   5.75435   5.77523   5.83630   5.91858
 Alpha virt. eigenvalues --    5.93781   6.00547   6.04947   6.12458   6.16081
 Alpha virt. eigenvalues --    6.20363   6.27362   6.38553   6.51119   6.89364
 Alpha virt. eigenvalues --    7.05608   7.85638   8.52803  10.00844  10.15689
 Alpha virt. eigenvalues --   10.28361  10.59760  10.74824  10.86147  11.07406
 Alpha virt. eigenvalues --   11.16966  11.27753  11.30510  11.40829  11.50711
 Alpha virt. eigenvalues --   11.54357  11.95115  12.09547  12.27814  12.31809
 Alpha virt. eigenvalues --   13.40560  15.21685
          Condensed to atoms (all electrons):
               1          2          3          4          5          6
     1  C    5.380950   0.384180  -0.105997   0.007636  -0.017035   0.001020
     2  C    0.384180   5.030888   0.382483  -0.048221  -0.002070   0.000250
     3  O   -0.105997   0.382483   7.733439   0.246802   0.003276   0.002272
     4  C    0.007636  -0.048221   0.246802   5.044065   0.494518  -0.053554
     5  C   -0.017035  -0.002070   0.003276   0.494518   4.780037   0.407099
     6  C    0.001020   0.000250   0.002272  -0.053554   0.407099   4.853880
     7  C   -0.000017   0.000003   0.000048  -0.005847  -0.014224   0.590485
     8  C   -0.000000   0.000000  -0.000001  -0.000133   0.001951  -0.005432
     9  C    0.000000  -0.000000  -0.000000   0.000010  -0.000151  -0.001298
    10  C   -0.000000   0.000000   0.000000  -0.000000  -0.000003  -0.000706
    11  C   -0.000000   0.000000  -0.000000   0.000000  -0.000000  -0.000041
    12  C    0.000000  -0.000000   0.000000  -0.000000  -0.000000   0.000001
    13  C    0.000000  -0.000000   0.000000  -0.000000   0.000000  -0.000001
    14  N   -0.000000   0.000000  -0.000000   0.000000  -0.000000   0.000040
    15  N   -0.000000   0.000000   0.000000  -0.000001   0.000018  -0.001113
    16  C    0.000008  -0.000005  -0.000003   0.000324  -0.011094   0.003993
    17  C   -0.004419  -0.000524  -0.000557  -0.014623   0.333601  -0.086104
    18  N    0.235247  -0.018813  -0.008574  -0.025151  -0.036919   0.003661
    19  H    0.281690  -0.039857   0.004001  -0.000263   0.000598   0.000002
    20  H   -0.033059   0.335976  -0.046195   0.007337   0.000317   0.000098
    21  H    0.001667   0.006087  -0.066489   0.379980  -0.065399  -0.004446
    22  H   -0.000051  -0.000044  -0.000588   0.007289  -0.054799   0.351113
    23  H   -0.000012   0.000002   0.000001   0.000341  -0.007940  -0.033233
    24  H   -0.000000  -0.000000   0.000000  -0.000049   0.000543  -0.005258
    25  H    0.000000  -0.000000  -0.000000   0.000001  -0.000006   0.000281
    26  H    0.000000  -0.000000   0.000000   0.000000   0.000000  -0.000012
    27  H    0.000000  -0.000000   0.000000  -0.000000   0.000000  -0.000000
    28  H   -0.000000   0.000000  -0.000000   0.000000  -0.000000   0.000000
    29  H   -0.000000  -0.000000   0.000000   0.000000   0.000389   0.000157
               7          8          9         10         11         12
     1  C   -0.000017  -0.000000   0.000000  -0.000000  -0.000000   0.000000
     2  C    0.000003   0.000000  -0.000000   0.000000   0.000000  -0.000000
     3  O    0.000048  -0.000001  -0.000000   0.000000  -0.000000   0.000000
     4  C   -0.005847  -0.000133   0.000010  -0.000000   0.000000  -0.000000
     5  C   -0.014224   0.001951  -0.000151  -0.000003  -0.000000  -0.000000
     6  C    0.590485  -0.005432  -0.001298  -0.000706  -0.000041   0.000001
     7  C    4.921797   0.421692  -0.006413   0.004658   0.001202  -0.000051
     8  C    0.421692   4.812116   0.568466  -0.035113  -0.012768   0.000180
     9  C   -0.006413   0.568466   5.259001   0.399522  -0.088305   0.012869
    10  C    0.004658  -0.035113   0.399522   4.431049   0.442386   0.037887
    11  C    0.001202  -0.012768  -0.088305   0.442386   5.007140   0.408645
    12  C   -0.000051   0.000180   0.012869   0.037887   0.408645   4.990898
    13  C   -0.000011   0.000822   0.005070  -0.101827  -0.020151   0.495261
    14  N    0.000481  -0.019982  -0.133095   0.450621  -0.000059  -0.032893
    15  N   -0.016499  -0.008063   0.018802  -0.032808  -0.001630   0.000303
    16  C    0.004776  -0.036367  -0.021912   0.002023   0.000272  -0.000006
    17  C   -0.036376   0.000051   0.000319   0.000002  -0.000000   0.000000
    18  N    0.000594  -0.000026  -0.000001   0.000000   0.000000  -0.000000
    19  H    0.000000   0.000000  -0.000000  -0.000000   0.000000   0.000000
    20  H    0.000000  -0.000000   0.000000   0.000000   0.000000  -0.000000
    21  H    0.000314   0.000024   0.000000   0.000000   0.000000  -0.000000
    22  H   -0.038851  -0.004095   0.000455  -0.000034  -0.000005   0.000000
    23  H    0.360075  -0.035246  -0.004864   0.000606  -0.000002  -0.000000
    24  H   -0.047266   0.387147  -0.051660  -0.005745   0.004344  -0.000155
    25  H   -0.004332  -0.040792   0.332447  -0.006237   0.005448  -0.000290
    26  H    0.000082   0.005082  -0.008763  -0.057318   0.382725  -0.068999
    27  H    0.000000  -0.000009  -0.000154   0.004505  -0.027568   0.360338
    28  H    0.000000  -0.000015  -0.000590   0.003071   0.003541  -0.042256
    29  H    0.000783   0.001676   0.002211  -0.000240  -0.000017   0.000000
              13         14         15         16         17         18
     1  C    0.000000  -0.000000  -0.000000   0.000008  -0.004419   0.235247
     2  C   -0.000000   0.000000   0.000000  -0.000005  -0.000524  -0.018813
     3  O    0.000000  -0.000000   0.000000  -0.000003  -0.000557  -0.008574
     4  C   -0.000000   0.000000  -0.000001   0.000324  -0.014623  -0.025151
     5  C    0.000000  -0.000000   0.000018  -0.011094   0.333601  -0.036919
     6  C   -0.000001   0.000040  -0.001113   0.003993  -0.086104   0.003661
     7  C   -0.000011   0.000481  -0.016499   0.004776  -0.036376   0.000594
     8  C    0.000822  -0.019982  -0.008063  -0.036367   0.000051  -0.000026
     9  C    0.005070  -0.133095   0.018802  -0.021912   0.000319  -0.000001
    10  C   -0.101827   0.450621  -0.032808   0.002023   0.000002   0.000000
    11  C   -0.020151  -0.000059  -0.001630   0.000272  -0.000000   0.000000
    12  C    0.495261  -0.032893   0.000303  -0.000006   0.000000  -0.000000
    13  C    5.243167   0.228439  -0.000120  -0.000104   0.000000  -0.000000
    14  N    0.228439   6.737694   0.068852   0.004301  -0.000027   0.000000
    15  N   -0.000120   0.068852   6.981888   0.180052  -0.000483   0.000001
    16  C   -0.000104   0.004301   0.180052   5.602142   0.133272  -0.003472
    17  C    0.000000  -0.000027  -0.000483   0.133272   5.448702   0.241819
    18  N   -0.000000   0.000000   0.000001  -0.003472   0.241819   6.951277
    19  H   -0.000000   0.000000   0.000000  -0.000000   0.000093  -0.007529
    20  H   -0.000000  -0.000000   0.000000  -0.000000  -0.000014   0.000396
    21  H   -0.000000   0.000000  -0.000000  -0.000028   0.003585   0.001017
    22  H   -0.000000  -0.000001  -0.000024  -0.000002   0.008265  -0.000265
    23  H    0.000001  -0.000058  -0.000642  -0.003284   0.002649   0.000166
    24  H    0.000007   0.000241  -0.000357   0.000286  -0.000107   0.000001
    25  H    0.000630  -0.004972   0.005453   0.000555   0.000043  -0.000000
    26  H    0.011384   0.005929   0.000024   0.000002   0.000000   0.000000
    27  H   -0.032761   0.000831   0.000002  -0.000000   0.000000  -0.000000
    28  H    0.315925  -0.012871  -0.000060   0.000001  -0.000000   0.000000
    29  H    0.000007  -0.000364   0.004879   0.236154  -0.005356  -0.000031
              19         20         21         22         23         24
     1  C    0.281690  -0.033059   0.001667  -0.000051  -0.000012  -0.000000
     2  C   -0.039857   0.335976   0.006087  -0.000044   0.000002  -0.000000
     3  O    0.004001  -0.046195  -0.066489  -0.000588   0.000001   0.000000
     4  C   -0.000263   0.007337   0.379980   0.007289   0.000341  -0.000049
     5  C    0.000598   0.000317  -0.065399  -0.054799  -0.007940   0.000543
     6  C    0.000002   0.000098  -0.004446   0.351113  -0.033233  -0.005258
     7  C    0.000000   0.000000   0.000314  -0.038851   0.360075  -0.047266
     8  C    0.000000  -0.000000   0.000024  -0.004095  -0.035246   0.387147
     9  C   -0.000000   0.000000   0.000000   0.000455  -0.004864  -0.051660
    10  C   -0.000000   0.000000   0.000000  -0.000034   0.000606  -0.005745
    11  C    0.000000   0.000000   0.000000  -0.000005  -0.000002   0.004344
    12  C    0.000000  -0.000000  -0.000000   0.000000  -0.000000  -0.000155
    13  C   -0.000000  -0.000000  -0.000000  -0.000000   0.000001   0.000007
    14  N    0.000000  -0.000000   0.000000  -0.000001  -0.000058   0.000241
    15  N    0.000000   0.000000  -0.000000  -0.000024  -0.000642  -0.000357
    16  C   -0.000000  -0.000000  -0.000028  -0.000002  -0.003284   0.000286
    17  C    0.000093  -0.000014   0.003585   0.008265   0.002649  -0.000107
    18  N   -0.007529   0.000396   0.001017  -0.000265   0.000166   0.000001
    19  H    0.615970   0.003586  -0.000189  -0.000000   0.000000   0.000000
    20  H    0.003586   0.588900   0.001015  -0.000011  -0.000000  -0.000000
    21  H   -0.000189   0.001015   0.612029   0.008140  -0.000008  -0.000004
    22  H   -0.000000  -0.000011   0.008140   0.596760   0.004268   0.002988
    23  H    0.000000  -0.000000  -0.000008   0.004268   0.557191   0.004681
    24  H    0.000000  -0.000000  -0.000004   0.002988   0.004681   0.591106
    25  H   -0.000000   0.000000  -0.000000  -0.000006   0.003239   0.004615
    26  H   -0.000000  -0.000000  -0.000000  -0.000000   0.000007   0.001306
    27  H    0.000000  -0.000000  -0.000000  -0.000000   0.000000  -0.000000
    28  H    0.000000   0.000000   0.000000   0.000000  -0.000000   0.000003
    29  H   -0.000000  -0.000000   0.000000   0.000005   0.001993  -0.000019
              25         26         27         28         29
     1  C    0.000000   0.000000   0.000000  -0.000000  -0.000000
     2  C   -0.000000  -0.000000  -0.000000   0.000000  -0.000000
     3  O   -0.000000   0.000000   0.000000  -0.000000   0.000000
     4  C    0.000001   0.000000  -0.000000   0.000000   0.000000
     5  C   -0.000006   0.000000   0.000000  -0.000000   0.000389
     6  C    0.000281  -0.000012  -0.000000   0.000000   0.000157
     7  C   -0.004332   0.000082   0.000000   0.000000   0.000783
     8  C   -0.040792   0.005082  -0.000009  -0.000015   0.001676
     9  C    0.332447  -0.008763  -0.000154  -0.000590   0.002211
    10  C   -0.006237  -0.057318   0.004505   0.003071  -0.000240
    11  C    0.005448   0.382725  -0.027568   0.003541  -0.000017
    12  C   -0.000290  -0.068999   0.360338  -0.042256   0.000000
    13  C    0.000630   0.011384  -0.032761   0.315925   0.000007
    14  N   -0.004972   0.005929   0.000831  -0.012871  -0.000364
    15  N    0.005453   0.000024   0.000002  -0.000060   0.004879
    16  C    0.000555   0.000002  -0.000000   0.000001   0.236154
    17  C    0.000043   0.000000   0.000000  -0.000000  -0.005356
    18  N   -0.000000   0.000000  -0.000000   0.000000  -0.000031
    19  H   -0.000000  -0.000000   0.000000   0.000000  -0.000000
    20  H    0.000000  -0.000000  -0.000000   0.000000  -0.000000
    21  H   -0.000000  -0.000000  -0.000000   0.000000   0.000000
    22  H   -0.000006  -0.000000  -0.000000   0.000000   0.000005
    23  H    0.003239   0.000007   0.000000  -0.000000   0.001993
    24  H    0.004615   0.001306  -0.000000   0.000003  -0.000019
    25  H    0.570749   0.000028   0.000004   0.000030   0.000526
    26  H    0.000028   0.626225  -0.003303  -0.000347  -0.000000
    27  H    0.000004  -0.003303   0.564918  -0.000573   0.000000
    28  H    0.000030  -0.000347  -0.000573   0.609153  -0.000000
    29  H    0.000526  -0.000000   0.000000  -0.000000   0.551494
 Mulliken charges:
               1
     1  C   -0.131807
     2  C   -0.030336
     3  O   -0.143919
     4  C   -0.040461
     5  C    0.187294
     6  C   -0.023153
     7  C   -0.137104
     8  C   -0.001165
     9  C   -0.281966
    10  C    0.463702
    11  C   -0.105157
    12  C   -0.161734
    13  C   -0.145739
    14  N   -0.293107
    15  N   -0.198474
    16  C   -0.091884
    17  C   -0.023811
    18  N   -0.333398
    19  H    0.141898
    20  H    0.141653
    21  H    0.122706
    22  H    0.119492
    23  H    0.150069
    24  H    0.113352
    25  H    0.132585
    26  H    0.105950
    27  H    0.133771
    28  H    0.124989
    29  H    0.205753
 Sum of Mulliken charges =  -0.00000
 Mulliken charges with hydrogens summed into heavy atoms:
               1
     1  C    0.010091
     2  C    0.111317
     3  O   -0.143919
     4  C    0.082246
     5  C    0.187294
     6  C    0.096340
     7  C    0.012966
     8  C    0.112187
     9  C   -0.149382
    10  C    0.463702
    11  C    0.000793
    12  C   -0.027964
    13  C   -0.020750
    14  N   -0.293107
    15  N   -0.198474
    16  C    0.113869
    17  C   -0.023811
    18  N   -0.333398
 Electronic spatial extent (au):  <R**2>=           6374.5602
 Charge=             -0.0000 electrons
 Dipole moment (field-independent basis, Debye):
    X=             -0.7149    Y=             -5.2588    Z=             -0.4379  Tot=              5.3252
 Quadrupole moment (field-independent basis, Debye-Ang):
   XX=            -86.7052   YY=           -106.1859   ZZ=           -104.5149
   XY=             -5.1059   XZ=             -6.9307   YZ=              7.5766
 Traceless Quadrupole moment (field-independent basis, Debye-Ang):
   XX=             12.4301   YY=             -7.0506   ZZ=             -5.3795
   XY=             -5.1059   XZ=             -6.9307   YZ=              7.5766
 Octapole moment (field-independent basis, Debye-Ang**2):
  XXX=             12.7506  YYY=            -29.4433  ZZZ=              2.8533  XYY=            -26.2899
  XXY=            -97.2820  XXZ=            -21.3712  XZZ=              9.9273  YZZ=             -6.5704
  YYZ=             -1.3288  XYZ=              7.8839
 Hexadecapole moment (field-independent basis, Debye-Ang**3):
 XXXX=          -6283.4909 YYYY=           -874.0047 ZZZZ=           -228.4646 XXXY=           -105.2672
 XXXZ=            -27.4256 YYYX=            -47.3620 YYYZ=             23.3280 ZZZX=            -13.1956
 ZZZY=             11.8554 XXYY=          -1460.9950 XXZZ=          -1354.4804 YYZZ=           -185.6522
 XXYZ=             89.4598 YYXZ=            -22.8108 ZZXY=            -33.9405
 N-N= 1.132557242152D+03 E-N=-4.075882748229D+03  KE= 7.726725435675D+02
 PrsmSu:  requested number of processors reduced to:  13 ShMem   1 Linda.
 Calling FoFJK, ICntrl=      2127 FMM=F ISym2X=0 I1Cent= 0 IOpClX= 0 NMat=1 NMatS=1 NMatT=0.
 ***** Axes restored to original set *****
 -------------------------------------------------------------------
 Center     Atomic                   Forces (Hartrees/Bohr)
 Number     Number              X              Y              Z
 -------------------------------------------------------------------
      1        6          -0.051613024    0.017237491   -0.005850879
      2        6           0.039686484    0.017689474   -0.035579536
      3        8           0.025964375   -0.015314715    0.045542250
      4        6          -0.018260844    0.055835219    0.053414439
      5        6           0.026448005   -0.056495819   -0.067680781
      6        6          -0.006400994    0.038221731   -0.010247250
      7        6           0.032050004   -0.027864073    0.002064684
      8        6          -0.018274410    0.014391377    0.033053738
      9        6          -0.057135100    0.003968114    0.034193495
     10        6          -0.018441999   -0.008309418   -0.049783635
     11        6          -0.011464203    0.026613217    0.038804561
     12        6           0.005614216   -0.035889742   -0.048268530
     13        6           0.079639440   -0.001385429   -0.001006197
     14        7           0.135608274   -0.024447724    0.018440215
     15        7          -0.082165343    0.047708970    0.006781300
     16        6           0.062337254   -0.062319307   -0.019986478
     17        6          -0.130994888    0.087359508    0.052514671
     18        7          -0.018954951   -0.054130737   -0.031604235
     19        1           0.055262972   -0.047198187   -0.035319349
     20        1          -0.029409358   -0.044483355    0.001836295
     21        1           0.037281570   -0.003064822   -0.016014605
     22        1           0.026784512    0.012270808    0.010195315
     23        1           0.008152872    0.019828853    0.015546718
     24        1           0.003589220   -0.002285304    0.013309653
     25        1          -0.008413199    0.013614602    0.020373640
     26        1          -0.000087146    0.002812441    0.015205537
     27        1          -0.020786757   -0.017484961   -0.023589538
     28        1          -0.036835518    0.005558235   -0.015135469
     29        1          -0.029181462    0.037563554   -0.001210026
 -------------------------------------------------------------------
 Cartesian Forces:  Max     0.135608274 RMS     0.039541431

 GradGradGradGradGradGradGradGradGradGradGradGradGradGradGradGradGradGrad
 Berny optimization.
 FormGI is forming the generalized inverse of G from B-inverse, IUseBI=4.
 Internal  Forces:  Max     0.279640401 RMS     0.060677675
 Search for a local minimum.
 Step number   1 out of a maximum of  123
 All quantities printed in internal units (Hartrees-Bohrs-Radians)
 Mixed Optimization -- RFO/linear search
 Second derivative matrix not updated -- first step.
 ITU=  0
     Eigenvalues ---    0.00230   0.00230   0.01294   0.01809   0.02078
     Eigenvalues ---    0.02083   0.02123   0.02316   0.02468   0.02553
     Eigenvalues ---    0.02606   0.02643   0.02688   0.02693   0.02703
     Eigenvalues ---    0.02795   0.02908   0.02919   0.02927   0.03011
     Eigenvalues ---    0.03085   0.03188   0.03189   0.03494   0.03704
     Eigenvalues ---    0.03822   0.06481   0.11600   0.12217   0.14504
     Eigenvalues ---    0.14949   0.14989   0.15154   0.15625   0.15835
     Eigenvalues ---    0.15849   0.15965   0.16000   0.16000   0.16000
     Eigenvalues ---    0.16829   0.16983   0.19872   0.22000   0.22004
     Eigenvalues ---    0.22013   0.22034   0.22054   0.22079   0.22190
     Eigenvalues ---    0.22273   0.23094   0.23099   0.23399   0.24325
     Eigenvalues ---    0.24725   0.25000   0.25000   0.25000   0.26059
     Eigenvalues ---    0.29307   0.30288   0.32202   0.34228   0.34520
     Eigenvalues ---    0.36384   0.36952   0.37465   0.37976   0.46054
     Eigenvalues ---    0.47125   0.48589   0.52770   0.53327   0.54027
     Eigenvalues ---    0.54119   0.56908   0.57824   0.58357   0.60778
     Eigenvalues ---    0.62709
 RFO step:  Lambda=-5.62743449D-01 EMin= 2.30000000D-03
 Linear search not attempted -- first point.
 Maximum step size (   0.300) exceeded in Quadratic search.
    -- Step size scaled by   0.438
 Iteration  1 RMS(Cart)=  0.23879459 RMS(Int)=  0.01904573
 Iteration  2 RMS(Cart)=  0.16631562 RMS(Int)=  0.00569692
 Iteration  3 RMS(Cart)=  0.00935046 RMS(Int)=  0.00020616
 Iteration  4 RMS(Cart)=  0.00001818 RMS(Int)=  0.00020583
 Iteration  5 RMS(Cart)=  0.00000000 RMS(Int)=  0.00020583
 Variable       Old X    -DE/DX   Delta X   Delta X   Delta X     New X
                                 (Linear)    (Quad)   (Total)
    R1        2.64071   0.04419   0.00000   0.01893   0.01893   2.65963
    R2        2.52143  -0.06713   0.00000  -0.04016  -0.04016   2.48127
    R3        2.53475   0.03326   0.00000   0.01288   0.01288   2.54762
    R4        2.23289  -0.04271   0.00000  -0.02273  -0.02273   2.21016
    R5        2.62883  -0.06990   0.00000  -0.02963  -0.02963   2.59920
    R6        2.56650  -0.04550   0.00000  -0.01819  -0.01819   2.54830
    R7        2.03486   0.01274   0.00000   0.00603   0.00603   2.04088
    R8        2.57169   0.07218   0.00000   0.02901   0.02901   2.60070
    R9        3.03462  -0.03384   0.00000  -0.01861  -0.01861   3.01601
   R10        2.48859   0.03646   0.00000   0.01343   0.01343   2.50202
   R11        2.01100   0.01834   0.00000   0.00853   0.00853   2.01952
   R12        2.61317   0.00300   0.00000   0.00125   0.00125   2.61442
   R13        2.10475  -0.01941   0.00000  -0.00961  -0.00961   2.09514
   R14        2.50330   0.01178   0.00000   0.00441   0.00441   2.50771
   R15        2.06462  -0.00584   0.00000  -0.00282  -0.00282   2.06180
   R16        2.52705   0.10254   0.00000   0.03939   0.03939   2.56644
   R17        2.06947  -0.00834   0.00000  -0.00404  -0.00404   2.06543
   R18        2.55924  -0.01055   0.00000  -0.00419  -0.00419   2.55505
   R19        2.52264  -0.00432   0.00000  -0.00165  -0.00165   2.52099
   R20        2.56007   0.07108   0.00000   0.02824   0.02824   2.58831
   R21        2.01852   0.01195   0.00000   0.00559   0.00559   2.02410
   R22        2.75919  -0.00547   0.00000  -0.00257  -0.00257   2.75662
   R23        2.14093  -0.03216   0.00000  -0.01628  -0.01628   2.12465
   R24        2.16066  -0.02753   0.00000  -0.01410  -0.01410   2.14657
   R25        3.54838   0.05174   0.00000   0.03341   0.03341   3.58179
   R26        3.35729  -0.06111   0.00000  -0.03789  -0.03789   3.31940
   R27        3.35231   0.03024   0.00000   0.02092   0.02092   3.37323
   R28        2.30518  -0.05021   0.00000  -0.02716  -0.02715   2.27803
   R29        3.26102   0.00845   0.00000   0.00507   0.00507   3.26609
    A1        1.48431   0.11303   0.00000   0.06854   0.06854   1.55285
    A2        1.87179  -0.06176   0.00000  -0.03516  -0.03545   1.83634
    A3        2.43300  -0.02450   0.00000  -0.01718  -0.01728   2.41572
    A4        1.84358   0.06013   0.00000   0.03429   0.03393   1.87751
    A5        1.81224  -0.27964   0.00000  -0.15079  -0.15079   1.66145
    A6        2.20276  -0.08949   0.00000  -0.04806  -0.04830   2.15446
    A7        1.63784   0.10034   0.00000   0.06107   0.06080   1.69863
    A8        2.29660   0.02470   0.00000   0.01549   0.01535   2.31195
    A9        2.01080   0.05136   0.00000   0.03032   0.03070   2.04149
   A10        2.24248  -0.09047   0.00000  -0.05149  -0.05177   2.19071
   A11        1.74645   0.04475   0.00000   0.02630   0.02671   1.77316
   A12        1.97569  -0.05821   0.00000  -0.03280  -0.03295   1.94274
   A13        1.98881   0.04542   0.00000   0.02595   0.02579   2.01460
   A14        2.30695   0.00682   0.00000   0.00251   0.00239   2.30934
   A15        2.02554   0.07081   0.00000   0.03912   0.03901   2.06454
   A16        2.14182  -0.04042   0.00000  -0.02349  -0.02360   2.11823
   A17        2.08125  -0.04083   0.00000  -0.02365  -0.02376   2.05749
   A18        2.03981  -0.07051   0.00000  -0.03992  -0.04035   1.99946
   A19        2.05793   0.03374   0.00000   0.01834   0.01790   2.07583
   A20        2.17049   0.02514   0.00000   0.01307   0.01264   2.18312
   A21        1.94753   0.05000   0.00000   0.02696   0.02687   1.97440
   A22        2.20324  -0.04283   0.00000  -0.02623  -0.02629   2.17696
   A23        1.98867  -0.02847   0.00000  -0.01710  -0.01722   1.97145
   A24        2.24893   0.09660   0.00000   0.05280   0.05290   2.30183
   A25        1.78469   0.04650   0.00000   0.02550   0.02558   1.81027
   A26        2.21611  -0.13873   0.00000  -0.07518  -0.07532   2.14079
   A27        1.93060  -0.09420   0.00000  -0.05271  -0.05272   1.87788
   A28        2.10120   0.04610   0.00000   0.02580   0.02579   2.12699
   A29        2.24880   0.04868   0.00000   0.02737   0.02737   2.27617
   A30        1.74557   0.02827   0.00000   0.01583   0.01578   1.76134
   A31        2.14300   0.00284   0.00000   0.00238   0.00233   2.14532
   A32        2.39462  -0.03106   0.00000  -0.01817  -0.01822   2.37640
   A33        1.89504   0.06307   0.00000   0.03824   0.03824   1.93328
   A34        1.90795  -0.01594   0.00000  -0.00859  -0.00859   1.89936
   A35        2.66573   0.03080   0.00000   0.01857   0.01859   2.68432
   A36        2.60117   0.00772   0.00000   0.00457   0.00461   2.60578
   A37        1.47478   0.20838   0.00000   0.11236   0.11236   1.58714
    D1        2.30448   0.02478   0.00000   0.01817   0.01788   2.32235
    D2       -1.48780  -0.01567   0.00000  -0.01133  -0.01104  -1.49884
    D3        1.00017  -0.10487   0.00000  -0.07709  -0.07736   0.92281
    D4       -1.71971  -0.06067   0.00000  -0.04641  -0.04615  -1.76586
    D5       -2.04189   0.10612   0.00000   0.07931   0.07912  -1.96278
    D6        1.60792   0.02588   0.00000   0.02029   0.02049   1.62840
    D7       -2.15277  -0.09216   0.00000  -0.07068  -0.07107  -2.22384
    D8        1.88958  -0.13146   0.00000  -0.09603  -0.09587   1.79371
    D9        0.28238   0.01781   0.00000   0.01149   0.01133   0.29371
   D10       -1.95846  -0.02149   0.00000  -0.01386  -0.01347  -1.97193
   D11        2.90477   0.04279   0.00000   0.02738   0.02704   2.93181
   D12       -0.38043   0.00722   0.00000   0.00128   0.00077  -0.37966
   D13       -0.90955   0.00397   0.00000   0.00705   0.00755  -0.90200
   D14        2.08842  -0.03160   0.00000  -0.01905  -0.01871   2.06971
   D15       -0.65825   0.00583   0.00000   0.00086   0.00059  -0.65765
   D16       -2.99571  -0.04336   0.00000  -0.02997  -0.02970  -3.02541
   D17        2.89590  -0.08205   0.00000  -0.06073  -0.06063   2.83526
   D18        0.03636  -0.03501   0.00000  -0.02559  -0.02553   0.01083
   D19       -0.06826  -0.04044   0.00000  -0.03002  -0.03008  -0.09834
   D20       -2.92780   0.00659   0.00000   0.00512   0.00502  -2.92278
   D21       -3.09625   0.08594   0.00000   0.06394   0.06394  -3.03232
   D22       -0.13146   0.02051   0.00000   0.01552   0.01554  -0.11592
   D23       -0.22638   0.03986   0.00000   0.02964   0.02962  -0.19675
   D24        2.73842  -0.02557   0.00000  -0.01878  -0.01878   2.71964
   D25        2.93560  -0.10204   0.00000  -0.07571  -0.07561   2.85998
   D26        0.38385  -0.05775   0.00000  -0.04234  -0.04237   0.34149
   D27       -0.01659  -0.03197   0.00000  -0.02390  -0.02388  -0.04047
   D28       -2.56834   0.01232   0.00000   0.00946   0.00937  -2.55896
   D29        1.13564   0.04826   0.00000   0.03768   0.03821   1.17386
   D30       -1.74182   0.05716   0.00000   0.03959   0.03913  -1.70268
   D31       -2.51906   0.00041   0.00000   0.00304   0.00349  -2.51557
   D32        0.88666   0.00931   0.00000   0.00495   0.00441   0.89108
   D33        2.99455   0.02693   0.00000   0.02096   0.02125   3.01581
   D34       -0.07643   0.01732   0.00000   0.01382   0.01413  -0.06231
   D35       -0.47207   0.05444   0.00000   0.03951   0.03920  -0.43287
   D36        2.74013   0.04483   0.00000   0.03237   0.03208   2.77221
   D37        0.37808   0.06633   0.00000   0.04689   0.04655   0.42463
   D38       -2.50620   0.02703   0.00000   0.02267   0.02301  -2.48319
   D39        0.19409   0.01953   0.00000   0.01451   0.01457   0.20866
   D40       -2.94576  -0.00125   0.00000  -0.00110  -0.00118  -2.94693
   D41       -3.02572   0.02922   0.00000   0.02189   0.02197  -3.00376
   D42        0.11762   0.00844   0.00000   0.00628   0.00622   0.12384
   D43       -2.82492  -0.01563   0.00000  -0.01176  -0.01165  -2.83657
   D44        0.31450   0.01016   0.00000   0.00760   0.00748   0.32199
   D45        0.01138   0.02376   0.00000   0.01673   0.01672   0.02810
   D46       -1.55217  -0.00778   0.00000  -0.00434  -0.00433  -1.55650
   D47       -2.21882   0.00287   0.00000   0.00067   0.00067  -2.21815
         Item               Value     Threshold  Converged?
 Maximum Force            0.279640     0.000450     NO 
 RMS     Force            0.060678     0.000300     NO 
 Maximum Displacement     1.535108     0.001800     NO 
 RMS     Displacement     0.398648     0.001200     NO 
 Predicted change in Energy=-2.348909D-01
 GradGradGradGradGradGradGradGradGradGradGradGradGradGradGradGradGradGrad

                          Input orientation:                          
 ---------------------------------------------------------------------
 Center     Atomic      Atomic             Coordinates (Angstroms)
 Number     Number       Type             X           Y           Z
 ---------------------------------------------------------------------
      1          6           0        3.271076   -2.279058   -0.643091
      2          6           0        2.971736   -1.022851   -0.083481
      3          8           0        3.797214   -0.901487    0.975457
      4          6           0        4.946356   -1.170163    0.268977
      5          6           0        5.686947   -2.282496    0.449822
      6          6           0        7.030809   -2.105664    0.688083
      7          6           0        7.598508   -3.228951    1.099121
      8          6           0        8.976478   -3.330876    1.029444
      9          6           0        9.457101   -4.529322    1.335576
     10          6           0       10.741719   -4.707679    0.932609
     11          6           0       11.900591   -4.137154    1.332137
     12          6           0       12.924568   -4.798529    0.707585
     13          6           0       12.187872   -5.576398   -0.282422
     14          7           0       10.622634   -5.361995   -0.223844
     15          7           0        8.916639   -4.992751   -0.962622
     16          6           0        7.341581   -4.215352   -0.980517
     17          6           0        5.696523   -3.556499   -0.511455
     18          7           0        3.996008   -3.402597   -0.779270
     19          1           0        1.984110   -2.532124   -0.704149
     20          1           0        2.703979    0.055740   -0.447938
     21          1           0        5.209732   -0.147986    0.040579
     22          1           0        7.436148   -1.172836    0.360025
     23          1           0        7.014124   -4.164906    1.207277
     24          1           0        9.540639   -2.535069    0.540750
     25          1           0        8.875182   -5.454468    1.326644
     26          1           0       11.923037   -3.354211    2.062734
     27          1           0       14.003959   -4.659023    0.989613
     28          1           0       12.827011   -6.424813   -0.684910
     29          1           0        7.185747   -5.403803   -1.108915
 ---------------------------------------------------------------------
                    Distance matrix (angstroms):
                    1          2          3          4          5
     1  C    0.000000
     2  C    1.407417   0.000000
     3  O    2.189571   1.348145   0.000000
     4  C    2.206373   2.011232   1.375438   0.000000
     5  C    2.651584   3.040310   2.398868   1.348504   0.000000
     6  C    3.992203   4.271285   3.462480   2.322877   1.376229
     7  C    4.760700   5.260460   4.458948   3.458563   2.229671
     8  C    6.037823   6.528592   5.720981   4.635609   3.500869
     9  C    6.873552   7.507931   6.732399   5.724369   4.477371
    10  C    8.011962   8.659275   7.919286   6.822072   5.627195
    11  C    9.045583   9.561763   8.732782   7.635098   6.544281
    12  C   10.067868  10.674287   9.928106   8.775493   7.666814
    13  C    9.513768  10.281612   9.687115   8.494616   7.324480
    14  N    7.982836   8.796824   8.241409   7.073504   5.856462
    15  N    6.272050   7.202421   6.833967   5.647314   4.446503
    16  C    4.520188   5.485643   5.231642   4.070812   2.918838
    17  C    2.744445   3.745264   3.587112   2.620386   1.596004
    18  N    1.344028   2.682619   3.061722   2.643056   2.371617
    19  H    1.313032   1.907495   2.960980   3.402472   3.886510
    20  H    2.410595   1.169564   2.034084   2.654253   3.895050
    21  H    2.960956   2.406118   1.853906   1.079989   2.225162
    22  H    4.424681   4.488895   3.700572   2.491458   2.073431
    23  H    4.581560   5.280102   4.588263   3.758266   2.424584
    24  H    6.385487   6.769561   5.987027   4.800444   3.863031
    25  H    6.735658   7.515208   6.829255   5.908435   4.582038
    26  H    9.128739   9.495645   8.557279   7.527397   6.529846
    27  H   11.114168  11.665471  10.876439   9.733017   8.666715
    28  H   10.416570  11.254748  10.714532   9.519767   8.332282
    29  H    5.030475   6.164589   6.008130   4.983691   3.797186
                    6          7          8          9         10
     6  C    0.000000
     7  C    1.324012   0.000000
     8  C    2.324500   1.383491   0.000000
     9  C    3.490022   2.280624   1.327022   0.000000
    10  C    4.538847   3.477663   2.240768   1.358101   0.000000
    11  C    5.315687   4.403073   3.048302   2.474763   1.352074
    12  C    6.479838   5.566309   4.224336   3.534144   2.196296
    13  C    6.291516   5.336800   4.132362   3.342364   2.079021
    14  N    4.933205   3.930070   2.899311   2.117451   1.334051
    15  N    3.823147   3.016495   2.594944   2.405946   2.646523
    16  C    2.707691   2.316007   2.737723   3.152505   3.932350
    17  C    2.307409   2.513720   3.630893   4.301146   5.372573
    18  N    3.611811   4.066510   5.299214   5.963691   7.080846
    19  H    5.252557   5.937913   7.248211   7.999679   9.171027
    20  H    4.968266   6.094177   7.279840   8.355140   9.444646
    21  H    2.751016   4.039691   5.029614   6.238050   7.224223
    22  H    1.068686   2.190944   2.734570   4.037567   4.873374
    23  H    2.123751   1.108699   2.139641   2.473337   3.776905
    24  H    2.550557   2.136616   1.091058   2.148435   2.513241
    25  H    3.876075   2.575770   2.146679   1.092980   2.048639
    26  H    5.232822   4.432358   3.122570   2.826745   2.122398
    27  H    7.432051   6.564061   5.200108   4.561845   3.263100
    28  H    7.357725   6.382284   5.228581   4.362516   3.148548
    29  H    3.759113   3.126624   3.475101   3.449536   4.159008
                   11         12         13         14         15
    11  C    0.000000
    12  C    1.369675   0.000000
    13  C    2.181915   1.458738   0.000000
    14  N    2.356796   2.546361   1.580940   0.000000
    15  N    3.860302   4.346356   3.391796   1.895403   0.000000
    16  C    5.112637   5.861700   5.081960   3.557057   1.756552
    17  C    6.498188   7.434604   6.802210   5.254437   3.554647
    18  N    8.214624   9.158523   8.489929   6.932525   5.174438
    19  H   10.249838  11.261581  10.656558   9.102909   7.360805
    20  H   10.262879  11.373636  11.031437   9.597247   8.021801
    21  H    7.896149   9.032782   8.846831   7.520327   6.182177
    22  H    5.446415   6.587048   6.510221   5.295625   4.304997
    23  H    4.888140   5.965276   5.565894   4.062323   3.002224
    24  H    2.960126   4.074563   4.115232   3.121991   2.947830
    25  H    3.299765   4.148617   3.684817   2.337981   2.335731
    26  H    1.071110   2.219358   3.241606   3.309182   4.569029
    27  H    2.194043   1.124315   2.399546   3.660602   5.459251
    28  H    3.187494   2.143213   1.135915   2.490270   4.173600
    29  H    5.458286   6.049801   5.072882   3.549266   1.785035
                   16         17         18         19         20
    16  C    0.000000
    17  C    1.833118   0.000000
    18  N    3.448757   1.728341   0.000000
    19  H    5.622467   3.855968   2.193422   0.000000
    20  H    6.327181   4.691228   3.706645   2.698314   0.000000
    21  H    4.704347   3.487071   3.569001   4.079629   2.561044
    22  H    3.326094   3.076950   4.254926   5.718816   4.955363
    23  H    2.212739   2.249505   3.692765   5.623217   6.255473
    24  H    3.158078   4.114327   5.765240   7.658389   7.377649
    25  H    3.034853   4.133372   5.696612   7.755713   8.461399
    26  H    5.567107   6.740686   8.421230  10.349577  10.145061
    27  H    6.961719   8.513651  10.240441  12.323526  12.328223
    28  H    5.921068   7.687728   9.334308  11.520499  12.022042
    29  H    1.205483   2.446892   3.779938   5.955452   7.094346
                   21         22         23         24         25
    21  H    0.000000
    22  H    2.471698   0.000000
    23  H    4.555509   3.138220   0.000000
    24  H    4.970422   2.513408   3.079595   0.000000
    25  H    6.576339   4.619258   2.267323   3.095699   0.000000
    26  H    7.709569   5.271602   5.048411   2.943340   3.773901
    27  H    9.929176   7.462306   7.010657   4.963253   5.201026
    28  H    9.896860   7.598458   6.517454   5.237613   4.539259
    29  H    5.731456   4.485708   2.632312   4.061594   2.964575
                   26         27         28         29
    26  H    0.000000
    27  H    2.680366   0.000000
    28  H    4.218450   2.703192   0.000000
    29  H    6.058226   7.172623   5.748573   0.000000
 Stoichiometry    C14H11N3O
 Framework group  C1[X(C14H11N3O)]
 Deg. of freedom    81
 Full point group                 C1      NOp   1
 Largest Abelian subgroup         C1      NOp   1
 Largest concise Abelian subgroup C1      NOp   1
                         Standard orientation:                         
 ---------------------------------------------------------------------
 Center     Atomic      Atomic             Coordinates (Angstroms)
 Number     Number       Type             X           Y           Z
 ---------------------------------------------------------------------
      1          6           0        4.514122    0.890491   -0.037158
      2          6           0        5.237423   -0.295250   -0.264487
      3          8           0        4.459087   -1.283092    0.221161
      4          6           0        3.339592   -0.921223   -0.491308
      5          6           0        2.219970   -0.433835    0.080850
      6          6           0        1.034597   -1.056430   -0.237384
      7          6           0        0.056248   -0.667805    0.565616
[...]
   R25        2.54516  -0.00742   0.00799   0.02073   0.02872   2.57388
   R26        2.40690   0.00115   0.02733  -0.00056   0.02674   2.43364
   R27        3.61386   0.00107   0.00515   0.00830   0.01354   3.62740
   R28        2.09997  -0.00811  -0.00334  -0.02044  -0.02389   2.07608
   R29        2.68016   0.01860   0.00416   0.00607   0.01023   2.69039
    A1        2.04098   0.01437   0.00746   0.01113   0.01860   2.05957
    A2        1.94123  -0.00110   0.02862  -0.00067   0.02797   1.96920
    A3        2.06117   0.01935  -0.00420   0.00270  -0.00147   2.05969
    A4        2.05293  -0.00332  -0.01144  -0.00155  -0.01297   2.03997
    A5        1.11212  -0.12214  -0.02598  -0.01108  -0.03706   1.07506
    A6        2.05045  -0.02900   0.01070  -0.01984  -0.00913   2.04133
    A7        1.96099   0.01175   0.00603   0.00435   0.01037   1.97136
    A8        2.01523   0.02374  -0.01098   0.01051  -0.00043   2.01480
    A9        2.06665  -0.00395   0.00049   0.00794   0.00844   2.07509
   A10        2.05195  -0.04189   0.00643  -0.00294   0.00349   2.05544
   A11        2.16353   0.04558  -0.00677  -0.00512  -0.01189   2.15164
   A12        2.00094   0.04651   0.00060  -0.00046   0.00014   2.00109
   A13        2.10799  -0.01572   0.00233   0.00074   0.00307   2.11106
   A14        2.15078  -0.02650  -0.00174  -0.00083  -0.00256   2.14822
   A15        2.16332   0.00481   0.01346   0.00077   0.01424   2.17756
   A16        2.00700  -0.00224  -0.00582   0.00074  -0.00507   2.00193
   A17        2.00249   0.00857  -0.00309  -0.00147  -0.00455   1.99793
   A18        1.94687   0.07652   0.00998   0.00377   0.01390   1.96076
   A19        2.11619  -0.02560   0.00408  -0.01789  -0.01368   2.10251
   A20        2.10177  -0.03388  -0.00281  -0.00276  -0.00539   2.09638
   A21        2.13781   0.00307  -0.02408   0.00661  -0.01738   2.12043
   A22        2.00968   0.00288   0.00797   0.00539   0.01345   2.02313
   A23        1.99290   0.00764   0.00605  -0.00631  -0.00016   1.99275
   A24        2.40510  -0.01498   0.02020  -0.01936   0.00060   2.40570
   A25        1.99781   0.07087  -0.00749   0.01244   0.00471   2.00252
   A26        1.87906  -0.05551  -0.01209   0.00821  -0.00411   1.87495
   A27        1.89941  -0.04310  -0.01426   0.00949  -0.00454   1.89486
   A28        2.16990   0.02230   0.00245  -0.00248   0.00018   2.17009
   A29        2.21291   0.02065   0.00956  -0.00633   0.00345   2.21636
   A30        1.87359  -0.02031   0.01330  -0.01188   0.00118   1.87477
   A31        2.21087   0.01020  -0.00385   0.00511   0.00102   2.21189
   A32        2.19871   0.01003  -0.00981   0.00666  -0.00339   2.19533
   A33        2.31448   0.00134   0.00806  -0.00051   0.00756   2.32203
   A34        2.41358   0.02673  -0.01183  -0.00863  -0.02046   2.39311
   A35        2.55576   0.00294   0.00173   0.00841   0.00987   2.56564
   A36        3.07145   0.00205  -0.00295   0.00024  -0.00267   3.06878
   A37        2.06052  -0.01412   0.01884   0.00716   0.02600   2.08652
    D1        1.85675   0.00661  -0.00070   0.01468   0.01398   1.87072
    D2       -0.59476  -0.01065  -0.01410   0.01479   0.00069  -0.59407
    D3        1.84179  -0.04334  -0.04828   0.02013  -0.02813   1.81366
    D4       -1.98630  -0.01632  -0.03212   0.02186  -0.01027  -1.99657
    D5       -1.89760   0.03406  -0.03707  -0.00407  -0.04121  -1.93880
    D6        1.98475   0.01517  -0.03929  -0.00314  -0.04236   1.94239
    D7       -1.72736  -0.00648  -0.01336   0.00590  -0.00748  -1.73484
    D8        1.36676  -0.01117  -0.00998   0.00301  -0.00700   1.35976
    D9        0.65098   0.00709  -0.00386   0.00185  -0.00196   0.64901
   D10       -2.53809   0.00239  -0.00048  -0.00103  -0.00149  -2.53957
   D11        2.53941  -0.00340   0.00442   0.00783   0.01226   2.55167
   D12       -0.82602   0.01364   0.00985   0.00514   0.01499  -0.81103
   D13       -0.55145   0.00429   0.00045   0.01082   0.01126  -0.54018
   D14        2.36631   0.02133   0.00588   0.00812   0.01399   2.38030
   D15       -0.41737   0.01389   0.14401  -0.02181   0.12220  -0.29516
   D16        2.67388   0.00725   0.14781  -0.02448   0.12333   2.79721
   D17        2.18786   0.04821   0.01411   0.01718   0.03130   2.21915
   D18       -0.43881   0.02182   0.00551   0.01753   0.02303  -0.41577
   D19       -0.72373   0.02880   0.00796   0.01972   0.02768  -0.69605
   D20        2.93280   0.00242  -0.00064   0.02007   0.01942   2.95221
   D21       -2.20079  -0.02562  -0.01901   0.02031   0.00136  -2.19943
   D22        0.43835   0.00025   0.00337  -0.01287  -0.00955   0.42881
   D23        0.42705  -0.00212  -0.01113   0.02054   0.00946   0.43651
   D24        3.06619   0.02375   0.01124  -0.01263  -0.00145   3.06474
   D25        2.10091   0.04819   0.01874  -0.01956  -0.00083   2.10008
   D26       -0.45884   0.02060   0.03396  -0.02798   0.00602  -0.45281
   D27       -0.54293   0.02024  -0.00546   0.01827   0.01277  -0.53016
   D28       -3.10268  -0.00735   0.00977   0.00985   0.01963  -3.08306
   D29        1.58509  -0.02540   0.00672  -0.03946  -0.03274   1.55235
   D30       -1.61810  -0.01683   0.02725  -0.00605   0.02119  -1.59691
   D31       -2.13331   0.00054  -0.00762  -0.02764  -0.03525  -2.16856
   D32        0.94669   0.00911   0.01291   0.00577   0.01868   0.96537
   D33       -3.10240  -0.01471  -0.04280   0.00596  -0.03699  -3.13939
   D34        0.08370  -0.01153  -0.01004  -0.00955  -0.01960   0.06409
   D35        0.09803  -0.02583  -0.06242  -0.02613  -0.08853   0.00950
   D36       -2.99906  -0.02265  -0.02966  -0.04164  -0.07114  -3.07020
   D37        0.07125  -0.01279  -0.00007  -0.01389  -0.01421   0.05704
   D38       -3.11375  -0.00670   0.01497   0.00860   0.02381  -3.08995
   D39       -0.00003  -0.02185  -0.00422  -0.03551  -0.03979  -0.03982
   D40       -3.13725  -0.00341   0.01575  -0.00951   0.00618  -3.13107
   D41        3.09567  -0.02514  -0.03855  -0.01938  -0.05787   3.03780
   D42       -0.04156  -0.00670  -0.01859   0.00663  -0.01190  -0.05346
   D43        3.09335   0.01141   0.00467   0.02905   0.03371   3.12706
   D44       -0.05257  -0.00686  -0.01497   0.00327  -0.01169  -0.06426
   D45        0.34461  -0.00790  -0.06130  -0.00578  -0.06706   0.27755
   D46       -1.25089   0.00006  -0.08064   0.04194  -0.03873  -1.28961
   D47       -3.01556  -0.00296   0.00519   0.00193   0.00716  -3.00840
         Item               Value     Threshold  Converged?
 Maximum Force            0.122144     0.000450     NO 
 RMS     Force            0.024095     0.000300     NO 
 Maximum Displacement     0.420833     0.001800     NO 
 RMS     Displacement     0.072673     0.001200     NO 
 Predicted change in Energy=-7.339267D-03
 GradGradGradGradGradGradGradGradGradGradGradGradGradGradGradGradGradGrad

                          Input orientation:                          
 ---------------------------------------------------------------------
 Center     Atomic      Atomic             Coordinates (Angstroms)
 Number     Number       Type             X           Y           Z
 ---------------------------------------------------------------------
      1          6           0        4.085004   -3.249514   -1.074654
      2          6           0        3.950378   -1.796300   -0.804212
      3          8           0        3.809914   -1.500146    0.595605
      4          6           0        5.082909   -1.249645   -0.034239
      5          6           0        6.219482   -2.126416    0.366957
      6          6           0        7.159186   -1.641917    1.326241
      7          6           0        7.672569   -2.596402    2.150763
      8          6           0        9.054536   -2.822239    2.362614
      9          6           0        9.406077   -4.109644    2.136792
     10          6           0       10.384597   -4.459154    1.136202
     11          6           0       11.741377   -4.616368    1.055890
     12          6           0       12.079057   -4.983467   -0.285799
     13          6           0       10.916140   -5.092314   -0.983097
     14          7           0        9.843781   -4.738877   -0.157513
     15          7           0        8.618754   -4.719685   -0.752565
     16          6           0        7.396755   -4.317162   -0.696066
     17          6           0        6.274450   -3.402247   -0.175527
     18          7           0        5.111347   -3.959547   -0.778440
     19          1           0        3.235199   -3.768550   -1.524322
     20          1           0        3.358089   -1.201792   -1.493828
     21          1           0        5.316125   -0.187723   -0.113886
     22          1           0        7.577679   -0.639881    1.243820
     23          1           0        7.048761   -3.479305    2.267589
     24          1           0        9.774317   -2.024176    2.201363
     25          1           0        8.615042   -4.849402    2.265558
     26          1           0       12.414825   -4.533219    1.895626
     27          1           0       13.065730   -5.187927   -0.669500
     28          1           0       10.694421   -5.331462   -2.007626
     29          1           0        6.861530   -4.808840   -1.519924
 ---------------------------------------------------------------------
                    Distance matrix (angstroms):
                    1          2          3          4          5
     1  C    0.000000
     2  C    1.484282   0.000000
     3  O    2.434282   1.437681   0.000000
     4  C    2.465310   1.474556   1.442211   0.000000
     5  C    2.809909   2.574771   2.500102   1.490464   0.000000
     6  C    4.218917   3.854751   3.430969   2.513107   1.427588
     7  C    4.868315   4.819413   4.305856   3.646139   2.348257
     8  C    6.057526   6.093748   5.690018   4.898141   3.536149
     9  C    6.274314   6.615565   6.364100   5.619853   4.149686
    10  C    6.784983   7.228773   7.230105   6.307042   4.835451
    11  C    8.063966   8.491903   8.534096   7.540451   6.096377
    12  C    8.217893   8.746554   9.016048   7.934154   6.551599
    13  C    7.075925   7.708277   8.117537   7.049328   5.716450
    14  N    6.018543   6.618850   6.889420   5.903884   4.498396
    15  N    4.777032   5.508410   5.942048   5.005934   3.706060
    16  C    3.500128   4.271293   4.740192   3.898918   2.704692
    17  C    2.371799   2.894066   3.207268   2.464432   1.387464
    18  N    1.282680   2.455229   3.103285   2.810376   2.429047
    19  H    1.092596   2.218064   3.157537   3.461107   3.896086
    20  H    2.212979   1.086194   2.158446   2.260020   3.536243
    21  H    3.437048   2.220211   2.120025   1.090143   2.192212
    22  H    4.938045   4.323083   3.918710   2.868645   2.196218
    23  H    4.472946   4.676370   4.147617   3.759571   2.475967
    24  H    6.678474   6.557718   6.198965   5.254248   4.001543
    25  H    5.851316   6.364275   6.090608   5.542859   4.093659
    26  H    8.936240   9.296597   9.215969   8.262157   6.819957
    27  H    9.196468   9.726814  10.043422   8.924071   7.570879
    28  H    6.992091   7.708935   8.297724   7.214191   5.994668
    29  H    3.215409   4.249993   4.973457   4.247190   3.341848
                    6          7          8          9         10
     6  C    0.000000
     7  C    1.361779   0.000000
     8  C    2.461622   1.416233   0.000000
     9  C    3.434412   2.301118   1.353509   0.000000
    10  C    4.286749   3.443004   2.439802   1.442511   0.000000
    11  C    5.469637   4.672709   3.485045   2.622736   1.368217
    12  C    6.161961   5.572437   4.564287   3.711783   2.273365
    13  C    5.599374   5.154746   4.451133   3.602726   2.274832
    14  N    4.358869   3.825245   3.263042   2.418957   1.429834
    15  N    3.990543   3.719262   3.673492   3.056208   2.598754
    16  C    3.362008   3.337892   3.786629   3.479299   3.507787
    17  C    2.477262   2.831210   3.808865   3.956554   4.441959
    18  N    3.740954   4.122894   5.168020   5.192861   5.632285
    19  H    5.295842   5.879662   7.061760   7.183302   7.659583
    20  H    4.753402   5.817449   7.067354   7.629885   8.179198
    21  H    2.754182   4.059951   5.200909   6.097108   6.745165
    22  H    1.089039   2.158593   2.862778   4.022399   4.741014
    23  H    2.067445   1.087338   2.112794   2.443639   3.656219
    24  H    2.784039   2.178840   1.086734   2.118713   2.726926
    25  H    3.645517   2.444881   2.076527   1.090669   2.135197
    26  H    6.025411   5.128874   3.799614   3.047974   2.168879
    27  H    7.172477   6.614837   5.556965   4.736140   3.313630
    28  H    6.101254   5.822743   5.299473   4.508755   3.277281
    29  H    4.268331   4.361950   4.881594   4.509453   4.425979
                   11         12         13         14         15
    11  C    0.000000
    12  C    1.431404   0.000000
    13  C    2.250557   1.360312   0.000000
    14  N    2.255709   2.252275   1.398735   0.000000
    15  N    3.609980   3.501592   2.338798   1.362038   0.000000
    16  C    4.694104   4.747235   3.615151   2.540831   1.287827
    17  C    5.733914   6.017133   5.005376   3.811434   2.750342
    18  N    6.910389   7.059752   5.917826   4.836201   3.588925
    19  H    8.929241   9.012424   7.812946   6.817848   5.521135
    20  H    9.404249   9.582050   8.515934   7.507390   6.371784
    21  H    7.890826   8.292525   7.494712   6.419859   5.643931
    22  H    5.760568   6.439634   5.994051   4.888837   4.659849
    23  H    4.978129   5.838336   5.303336   3.908935   3.622810
    24  H    3.449767   4.500578   4.567058   3.597044   4.162545
    25  H    3.360294   4.304277   3.988461   2.719060   3.020912
    26  H    1.079631   2.252571   3.293280   3.296656   4.632261
    27  H    2.248902   1.078217   2.174447   3.293134   4.472331
    28  H    3.315510   2.236740   1.075179   2.120770   2.501568
    29  H    5.521301   5.364341   4.099805   3.279464   1.919538
                   16         17         18         19         20
    16  C    0.000000
    17  C    1.538701   0.000000
    18  N    2.314684   1.423691   0.000000
    19  H    4.278496   3.345215   2.027991   0.000000
    20  H    5.162632   3.883951   3.345281   2.569879   0.000000
    21  H    4.660496   3.354900   3.835391   4.375146   2.601246
    22  H    4.161525   3.368029   4.603533   6.025638   5.061166
    23  H    3.099412   2.564042   3.641771   5.385675   5.740765
    24  H    4.393823   4.449467   5.862438   7.725518   7.449747
    25  H    3.246340   3.678522   4.725848   6.668893   7.421158
    26  H    5.651954   6.578221   7.798751   9.825797  10.227965
    27  H    5.735522   7.039471   8.049409   9.969186  10.526494
    28  H    3.691016   5.158935   5.879096   7.636509   8.434449
    29  H    1.098615   2.032381   2.081883   3.772598   5.028476
                   21         22         23         24         25
    21  H    0.000000
    22  H    2.676273   0.000000
    23  H    4.416782   3.064342   0.000000
    24  H    5.348684   2.767378   3.090379   0.000000
    25  H    6.186749   4.454227   2.080962   3.054495   0.000000
    26  H    8.562303   6.243470   5.481217   3.655278   3.830819
    27  H    9.239433   7.379988   6.910122   5.393011   5.342077
    28  H    7.679218   6.503608   5.915977   5.431420   4.776641
    29  H    5.071483   5.052858   4.018454   5.485131   4.172089
                   26         27         28         29
    26  H    0.000000
    27  H    2.726204   0.000000
    28  H    4.339626   2.726589   0.000000
    29  H    6.525415   6.273677   3.898980   0.000000
 Stoichiometry    C14H11N3O
 Framework group  C1[X(C14H11N3O)]
 Deg. of freedom    81
 Full point group                 C1      NOp   1
 Largest Abelian subgroup         C1      NOp   1
 Largest concise Abelian subgroup C1      NOp   1
                         Standard orientation:                         
 ---------------------------------------------------------------------
 Center     Atomic      Atomic             Coordinates (Angstroms)
 Number     Number       Type             X           Y           Z
 ---------------------------------------------------------------------
      1          6           0        3.503814    1.519337    0.410135
      2          6           0        4.135452    0.519639   -0.486932
      3          8           0        4.244741   -0.780759    0.116348
      4          6           0        3.215753   -0.566975   -0.871301
      5          6           0        1.805315   -0.571421   -0.389503
      6          6           0        1.023952   -1.754826   -0.553921
      7          6           0        0.123081   -1.983543    0.441348
      8          6           0       -1.258854   -2.219921    0.241106
      9          6           0       -2.034783   -1.376698    0.961449
     10          6           0       -2.976497   -0.489180    0.324011
     11          6           0       -4.283026   -0.518138   -0.081156
     12          6           0       -4.606273    0.746619   -0.668368
     13          6           0       -3.504887    1.537972   -0.562733
     14          7           0       -2.458690    0.805536    0.007765
     15          7           0       -1.262359    1.450687    0.095617
     16          6           0        0.011353    1.347281    0.255199
     17          6           0        1.337476    0.566909    0.251111
     18          7           0        2.266172    1.525303    0.746995
     19          1           0        4.142255    2.288265    0.851619
     20          1           0        4.965175    0.844065   -1.108321
     21          1           0        3.395847   -1.112556   -1.797756
     22          1           0        1.010813   -2.290143   -1.502219
     23          1           0        0.366777   -1.514340    1.391488
     24          1           0       -1.618376   -2.618857   -0.703661
     25          1           0       -1.584938   -0.973245    1.869427
     26          1           0       -4.953710   -1.347820    0.084420
     27          1           0       -5.559373    1.043759   -1.075628
     28          1           0       -3.292559    2.545329   -0.872829
     29          1           0        0.403037    2.368604    0.357367
 ---------------------------------------------------------------------
 Rotational constants (GHZ):           1.0997038           0.2513586           0.2167577
 Standard basis: 6-31G(2df,p) (6D, 7F)
 There are   613 symmetry adapted cartesian basis functions of A   symmetry.
 There are   559 symmetry adapted basis functions of A   symmetry.
   559 basis functions,   869 primitive gaussians,   613 cartesian basis functions
    62 alpha electrons       62 beta electrons
       nuclear repulsion energy      1206.3583169261 Hartrees.
 NAtoms=   29 NActive=   29 NUniq=   29 SFac= 1.00D+00 NAtFMM=   60 NAOKFM=F Big=F
 Integral buffers will be    131072 words long.
 Raffenetti 2 integral format.
 Two-electron integral symmetry is turned on.
 One-electron integrals computed using PRISM.
 PrsmSu:  requested number of processors reduced to:  12 ShMem   1 Linda.
 NBasis=   559 RedAO= T EigKep=  1.66D-04  NBF=   559
 NBsUse=   559 1.00D-06 EigRej= -1.00D+00 NBFU=   559
 Lowest energy guess from the checkpoint file:  "C1dCOCdc2ccccc3cccn3ncc2dN1.chk"
 B after Tr=     0.000000    0.000000    0.000000
         Rot=    0.999998    0.001284   -0.001028   -0.000701 Ang=   0.20 deg.
 B after Tr=    -0.000000   -0.000000    0.000000
         Rot=    0.999999    0.001299   -0.000216   -0.000624 Ang=   0.17 deg.
 Requested convergence on RMS density matrix=1.00D-08 within 128 cycles.
 Requested convergence on MAX density matrix=1.00D-06.
 Requested convergence on             energy=1.00D-06.
 No special actions if energy rises.
 Integral accuracy reduced to 1.0D-05 until final iterations.
slurmstepd: error: *** JOB 27446574 ON lewis4-r630-hpc4-node538 CANCELLED AT 2023-05-16T16:24:15 DUE TO TIME LIMIT ***
