### Starting Gaussian ###
 Entering Gaussian System, Link 0=g16
 Initial command:
 /cluster/software/gaussian/gaussian-16-A.03/avx2/g16/l1.exe "/local/scratch/cz9n3/Gau-11124.inp" -scrdir="/local/scratch/cz9n3/"
 Entering Link 1 = /cluster/software/gaussian/gaussian-16-A.03/avx2/g16/l1.exe PID=     11125.
  
 Copyright (c) 1988,1990,1992,1993,1995,1998,2003,2009,2016,
            Gaussian, Inc.  All Rights Reserved.
  
 This is part of the Gaussian(R) 16 program.  It is based on
 the Gaussian(R) 09 system (copyright 2009, Gaussian, Inc.),
 the Gaussian(R) 03 system (copyright 2003, Gaussian, Inc.),
 the Gaussian(R) 98 system (copyright 1998, Gaussian, Inc.),
 the Gaussian(R) 94 system (copyright 1995, Gaussian, Inc.),
 the Gaussian 92(TM) system (copyright 1992, Gaussian, Inc.),
 the Gaussian 90(TM) system (copyright 1990, Gaussian, Inc.),
 the Gaussian 88(TM) system (copyright 1988, Gaussian, Inc.),
 the Gaussian 86(TM) system (copyright 1986, Carnegie Mellon
 University), and the Gaussian 82(TM) system (copyright 1983,
 Carnegie Mellon University). Gaussian is a federally registered
 trademark of Gaussian, Inc.
  
 This software contains proprietary and confidential information,
 including trade secrets, belonging to Gaussian, Inc.
  
 This software is provided under written license and may be
 used, copied, transmitted, or stored only in accord with that
 written license.
  
 The following legend is applicable only to US Government
 contracts under FAR:
  
                    RESTRICTED RIGHTS LEGEND
  
 Use, reproduction and disclosure by the US Government is
 subject to restrictions as set forth in subparagraphs (a)
 and (c) of the Commercial Computer Software - Restricted
 Rights clause in FAR 52.227-19.
  
 Gaussian, Inc.
 340 Quinnipiac St., Bldg. 40, Wallingford CT 06492
  
  
 ---------------------------------------------------------------
 Warning -- This program may not be used in any manner that
 competes with the business of Gaussian, Inc. or will provide
 assistance to any competitor of Gaussian, Inc.  The licensee
 of this program is prohibited from giving any competitor of
 Gaussian, Inc. access to this program.  By using this program,
 the user acknowledges that Gaussian, Inc. is engaged in the
 business of creating and licensing software in the field of
 computational chemistry and represents and warrants to the
 licensee that it is not a competitor of Gaussian, Inc. and that
 it will not use this program in any manner prohibited above.
 ---------------------------------------------------------------
  

 Cite this work as:
 Gaussian 16, Revision A.03,
 M. J. Frisch, G. W. Trucks, H. B. Schlegel, G. E. Scuseria, 
 M. A. Robb, J. R. Cheeseman, G. Scalmani, V. Barone, 
 G. A. Petersson, H. Nakatsuji, X. Li, M. Caricato, A. V. Marenich, 
 J. Bloino, B. G. Janesko, R. Gomperts, B. Mennucci, H. P. Hratchian, 
 J. V. Ortiz, A. F. Izmaylov, J. L. Sonnenberg, D. Williams-Young, 
 F. Ding, F. Lipparini, F. Egidi, J. Goings, B. Peng, A. Petrone, 
 T. Henderson, D. Ranasinghe, V. G. Zakrzewski, J. Gao, N. Rega, 
 G. Zheng, W. Liang, M. Hada, M. Ehara, K. Toyota, R. Fukuda, 
 J. Hasegawa, M. Ishida, T. Nakajima, Y. Honda, O. Kitao, H. Nakai, 
 T. Vreven, K. Throssell, J. A. Montgomery, Jr., J. E. Peralta, 
 F. Ogliaro, M. J. Bearpark, J. J. Heyd, E. N. Brothers, K. N. Kudin, 
 V. N. Staroverov, T. A. Keith, R. Kobayashi, J. Normand, 
 K. Raghavachari, A. P. Rendell, J. C. Burant, S. S. Iyengar, 
 J. Tomasi, M. Cossi, J. M. Millam, M. Klene, C. Adamo, R. Cammi, 
 J. W. Ochterski, R. L. Martin, K. Morokuma, O. Farkas, 
 J. B. Foresman, and D. J. Fox, Gaussian, Inc., Wallingford CT, 2016.
 
 ******************************************
 Gaussian 16:  ES64L-G16RevA.03 25-Dec-2016
                18-May-2023 
 ******************************************
 %chk=C1dCCdc2sccccccccncc2d1.chk
 %NProcShared=20
 Will use up to   20 processors via shared memory.
 -----------------------------
 # opt freq b3lyp/6-31g(2df,p)
 -----------------------------
 1/18=20,19=15,26=3,38=1/1,3;
 2/9=110,12=2,17=6,18=5,40=1/2;
 3/5=1,6=6,7=104,11=2,25=1,30=1,71=1,74=-5/1,2,3;
 4//1;
 5/5=2,38=5/2;
 6/7=2,8=2,9=2,10=2,28=1/1;
 7//1,2,3,16;
 1/18=20,19=15,26=3/3(2);
 2/9=110/2;
 99//99;
 2/9=110/2;
 3/5=1,6=6,7=104,11=2,25=1,30=1,71=1,74=-5/1,2,3;
 4/5=5,16=3,69=1/1;
 5/5=2,38=5/2;
 7//1,2,3,16;
 1/18=20,19=15,26=3/3(-5);
 2/9=110/2;
 6/7=2,8=2,9=2,10=2,19=2,28=1/1;
 99/9=1/99;
 -------------------
 Title Card Required
 -------------------
 Symbolic Z-matrix:
 Charge =  0 Multiplicity = 1
 C                     0.96861   0.03904   0.08655 
 C                     2.32901   0.03904   0.08655 
 C                     2.80753  -0.6542   -0.41926 
 C                     2.00004  -0.38821  -0.22551 
 S                     4.84469  -1.23573  -0.84447 
 C                     7.02766  -2.03482  -1.42796 
 C                     7.84373  -2.84214  -2.01759 
 C                     9.1148   -3.00986  -2.1401 
 C                     10.0643  -3.62402  -2.58846 
 C                     11.71972  -4.00133  -2.86419 
 C                     10.76634  -4.49377  -3.22381 
 C                     11.47487  -4.78667  -3.43788 
 C                     8.77439  -4.16845  -2.98643 
 N                     5.7801   -2.89153  -2.05384 
 C                     2.90793  -1.59302  -1.10548 
 C                    -0.39179   0.03904   0.08655 
 H                     2.8595    0.7873    0.63302 
 H                     1.9761   -1.77454  -1.23761 
 H                     7.55665  -1.46991  -1.01546 
 H                     6.94089  -4.10119  -2.93711 
 H                     9.71549  -2.4756   -1.74994 
 H                     9.1415   -5.16908  -3.71687 
 H                     11.90836  -3.40485  -2.42858 
 H                     10.98044  -5.97466  -4.30526 
 H                     13.78416  -4.55069  -3.26542 
 H                     11.20513  -5.23806  -3.76766 
 H                     5.12051  -2.5688   -1.8181 
 
 Add virtual bond connecting atoms H26        and H24        Dist= 1.77D+00.
 Add virtual bond connecting atoms H27        and S5         Dist= 3.16D+00.
 Add virtual bond connecting atoms H20        and C7         Dist= 3.40D+00.
 Add virtual bond connecting atoms H20        and C13        Dist= 3.47D+00.
 Add virtual bond connecting atoms H20        and N14        Dist= 3.58D+00.
 Add virtual bond connecting atoms H25        and C10        Dist= 4.11D+00.
 Add virtual bond connecting atoms H25        and C12        Dist= 4.40D+00.

 GradGradGradGradGradGradGradGradGradGradGradGradGradGradGradGradGradGrad
 Berny optimization.
 Initialization pass.
                           ----------------------------
                           !    Initial Parameters    !
                           ! (Angstroms and Degrees)  !
 --------------------------                            --------------------------
 ! Name  Definition              Value          Derivative Info.                !
 --------------------------------------------------------------------------------
 ! R1    R(1,2)                  1.3604         estimate D2E/DX2                !
 ! R2    R(1,4)                  1.1592         estimate D2E/DX2                !
 ! R3    R(1,16)                 1.3604         estimate D2E/DX2                !
 ! R4    R(2,3)                  0.9826         estimate D2E/DX2                !
 ! R5    R(2,4)                  0.623          estimate D2E/DX2                !
 ! R6    R(2,17)                 1.0677         estimate D2E/DX2                !
 ! R7    R(3,4)                  0.872          estimate D2E/DX2                !
 ! R8    R(3,5)                  2.1608         estimate D2E/DX2                !
 ! R9    R(3,15)                 1.1672         estimate D2E/DX2                !
 ! R10   R(4,15)                 1.7465         estimate D2E/DX2                !
 ! R11   R(5,15)                 1.9867         estimate D2E/DX2                !
 ! R12   R(5,27)                 1.6737         estimate D2E/DX2                !
 ! R13   R(6,7)                  1.2905         estimate D2E/DX2                !
 ! R14   R(6,14)                 1.6377         estimate D2E/DX2                !
 ! R15   R(6,19)                 0.877          estimate D2E/DX2                !
 ! R16   R(7,8)                  1.2879         estimate D2E/DX2                !
 ! R17   R(7,20)                 1.8016         estimate D2E/DX2                !
 ! R18   R(8,9)                  1.2165         estimate D2E/DX2                !
 ! R19   R(8,13)                 1.4746         estimate D2E/DX2                !
 ! R20   R(8,21)                 0.8936         estimate D2E/DX2                !
 ! R21   R(9,10)                 1.7201         estimate D2E/DX2                !
 ! R22   R(9,11)                 1.2857         estimate D2E/DX2                !
 ! R23   R(9,13)                 1.4556         estimate D2E/DX2                !
 ! R24   R(10,11)                1.1317         estimate D2E/DX2                !
 ! R25   R(10,12)                1.0029         estimate D2E/DX2                !
 ! R26   R(10,23)                0.7623         estimate D2E/DX2                !
 ! R27   R(10,25)                2.1736         estimate D2E/DX2                !
 ! R28   R(11,12)                0.796          estimate D2E/DX2                !
 ! R29   R(11,26)                1.0209         estimate D2E/DX2                !
 ! R30   R(12,25)                2.3277         estimate D2E/DX2                !
 ! R31   R(12,26)                0.6207         estimate D2E/DX2                !
 ! R32   R(13,20)                1.8354         estimate D2E/DX2                !
 ! R33   R(13,22)                1.2921         estimate D2E/DX2                !
 ! R34   R(14,20)                1.895          estimate D2E/DX2                !
 ! R35   R(14,27)                0.7712         estimate D2E/DX2                !
 ! R36   R(15,18)                0.9585         estimate D2E/DX2                !
 ! R37   R(24,26)                0.9392         estimate D2E/DX2                !
 ! A1    A(4,1,16)             152.8442         estimate D2E/DX2                !
 ! A2    A(1,2,3)              119.1448         estimate D2E/DX2                !
 ! A3    A(1,2,17)             119.7926         estimate D2E/DX2                !
 ! A4    A(3,2,17)             121.0626         estimate D2E/DX2                !
 ! A5    A(2,3,5)              138.6199         estimate D2E/DX2                !
 ! A6    A(2,3,15)             155.7897         estimate D2E/DX2                !
 ! A7    A(1,4,15)             148.4774         estimate D2E/DX2                !
 ! A8    A(2,4,15)             116.8059         estimate D2E/DX2                !
 ! A9    A(3,5,27)             118.9609         estimate D2E/DX2                !
 ! A10   A(15,5,27)             86.6167         estimate D2E/DX2                !
 ! A11   A(7,6,14)              88.8456         estimate D2E/DX2                !
 ! A12   A(7,6,19)             103.6765         estimate D2E/DX2                !
 ! A13   A(6,7,8)              138.5052         estimate D2E/DX2                !
 ! A14   A(6,7,20)             110.7006         estimate D2E/DX2                !
 ! A15   A(8,7,20)             110.7942         estimate D2E/DX2                !
 ! A16   A(7,8,9)              150.5909         estimate D2E/DX2                !
 ! A17   A(7,8,13)              85.9334         estimate D2E/DX2                !
 ! A18   A(7,8,21)             122.9589         estimate D2E/DX2                !
 ! A19   A(9,8,21)              86.4503         estimate D2E/DX2                !
 ! A20   A(13,8,21)            151.1077         estimate D2E/DX2                !
 ! A21   A(8,9,10)             157.0748         estimate D2E/DX2                !
 ! A22   A(8,9,11)             161.7854         estimate D2E/DX2                !
 ! A23   A(10,9,13)            136.6347         estimate D2E/DX2                !
 ! A24   A(11,9,13)             95.4949         estimate D2E/DX2                !
 ! A25   A(9,10,12)             91.6333         estimate D2E/DX2                !
 ! A26   A(9,10,23)             88.5627         estimate D2E/DX2                !
 ! A27   A(11,10,23)           136.9296         estimate D2E/DX2                !
 ! A28   A(11,10,25)           129.1591         estimate D2E/DX2                !
 ! A29   A(23,10,25)            93.9112         estimate D2E/DX2                !
 ! A30   A(9,11,12)            150.2098         estimate D2E/DX2                !
 ! A31   A(10,11,26)            97.1478         estimate D2E/DX2                !
 ! A32   A(11,12,25)           145.6727         estimate D2E/DX2                !
 ! A33   A(25,12,26)           122.9717         estimate D2E/DX2                !
 ! A34   A(8,13,20)            100.7424         estimate D2E/DX2                !
 ! A35   A(8,13,22)            150.1471         estimate D2E/DX2                !
 ! A36   A(9,13,20)            149.7945         estimate D2E/DX2                !
 ! A37   A(9,13,22)            101.095          estimate D2E/DX2                !
 ! A38   A(20,13,22)           109.1105         estimate D2E/DX2                !
 ! A39   A(6,14,20)             92.604          estimate D2E/DX2                !
 ! A40   A(6,14,27)            108.4081         estimate D2E/DX2                !
 ! A41   A(20,14,27)           158.9879         estimate D2E/DX2                !
 ! A42   A(3,15,18)             98.6122         estimate D2E/DX2                !
 ! A43   A(4,15,5)             108.4526         estimate D2E/DX2                !
 ! A44   A(4,15,18)             72.2251         estimate D2E/DX2                !
 ! A45   A(7,20,13)             62.53           estimate D2E/DX2                !
 ! A46   A(7,20,14)             67.8499         estimate D2E/DX2                !
 ! A47   A(13,20,14)           130.3799         estimate D2E/DX2                !
 ! A48   A(11,26,24)           140.7036         estimate D2E/DX2                !
 ! A49   A(5,27,14)            130.6983         estimate D2E/DX2                !
 ! A50   L(2,1,16,18,-1)       180.0            estimate D2E/DX2                !
 ! A51   L(4,2,17,5,-1)        182.0799         estimate D2E/DX2                !
 ! A52   L(4,3,5,17,-1)        177.303          estimate D2E/DX2                !
 ! A53   L(1,4,3,2,-1)         175.0164         estimate D2E/DX2                !
 ! A54   L(14,6,19,7,-1)       192.5221         estimate D2E/DX2                !
 ! A55   L(9,10,25,23,-1)      182.474          estimate D2E/DX2                !
 ! A56   L(12,10,23,9,-1)      180.196          estimate D2E/DX2                !
 ! A57   L(9,11,26,10,-1)      187.6411         estimate D2E/DX2                !
 ! A58   L(10,12,26,1,-1)      168.3728         estimate D2E/DX2                !
 ! A59   L(5,15,18,4,-1)       180.6778         estimate D2E/DX2                !
 ! A60   L(12,26,24,1,-1)      191.9167         estimate D2E/DX2                !
 ! A61   L(2,1,16,18,-2)       180.0            estimate D2E/DX2                !
 ! A62   L(4,2,17,5,-2)        179.9977         estimate D2E/DX2                !
 ! A63   L(4,3,5,17,-2)        180.0395         estimate D2E/DX2                !
 ! A64   L(1,4,3,2,-2)         179.9716         estimate D2E/DX2                !
 ! A65   L(14,6,19,7,-2)       179.9904         estimate D2E/DX2                !
 ! A66   L(9,10,25,23,-2)      179.9958         estimate D2E/DX2                !
 ! A67   L(12,10,23,9,-2)      180.0072         estimate D2E/DX2                !
 ! A68   L(9,11,26,10,-2)      180.0073         estimate D2E/DX2                !
 ! A69   L(10,12,26,1,-2)      179.9976         estimate D2E/DX2                !
 ! A70   L(5,15,18,4,-2)       180.024          estimate D2E/DX2                !
 ! A71   L(12,26,24,1,-2)      180.0277         estimate D2E/DX2                !
 ! D1    D(2,1,4,16)           180.0            estimate D2E/DX2                !
 ! D2    D(16,1,4,15)           -0.0007         estimate D2E/DX2                !
 ! D3    D(16,1,5,27)            0.001          estimate D2E/DX2                !
 ! D4    D(1,2,3,5)            179.9706         estimate D2E/DX2                !
 ! D5    D(1,2,3,15)             0.1186         estimate D2E/DX2                !
 ! D6    D(17,2,3,5)            -0.0555         estimate D2E/DX2                !
 ! D7    D(17,2,3,15)         -179.9074         estimate D2E/DX2                !
 ! D8    D(2,3,5,27)          -179.9577         estimate D2E/DX2                !
 ! D9    D(2,3,15,18)           -0.1309         estimate D2E/DX2                !
 ! D10   D(1,4,15,5)          -179.9983         estimate D2E/DX2                !
 ! D11   D(1,4,15,18)           -0.0224         estimate D2E/DX2                !
 ! D12   D(2,4,15,5)             0.0009         estimate D2E/DX2                !
 ! D13   D(2,4,15,18)          179.9769         estimate D2E/DX2                !
 ! D14   D(27,5,15,4)          179.999          estimate D2E/DX2                !
 ! D15   D(3,5,27,14)         -179.9905         estimate D2E/DX2                !
 ! D16   D(15,5,27,14)         179.9964         estimate D2E/DX2                !
 ! D17   D(14,6,7,8)           179.9942         estimate D2E/DX2                !
 ! D18   D(14,6,7,20)           -0.0059         estimate D2E/DX2                !
 ! D19   D(19,6,7,8)             0.0038         estimate D2E/DX2                !
 ! D20   D(19,6,7,20)         -179.9963         estimate D2E/DX2                !
 ! D21   D(7,6,14,20)            0.0053         estimate D2E/DX2                !
 ! D22   D(7,6,14,27)          179.9962         estimate D2E/DX2                !
 ! D23   D(6,7,8,9)            179.9846         estimate D2E/DX2                !
 ! D24   D(6,7,8,13)          -179.9947         estimate D2E/DX2                !
 ! D25   D(6,7,8,21)            -0.0015         estimate D2E/DX2                !
 ! D26   D(20,7,8,9)            -0.0153         estimate D2E/DX2                !
 ! D27   D(20,7,8,13)            0.0054         estimate D2E/DX2                !
 ! D28   D(20,7,8,21)          179.9986         estimate D2E/DX2                !
 ! D29   D(6,7,20,13)          179.9952         estimate D2E/DX2                !
 ! D30   D(6,7,20,14)            0.0055         estimate D2E/DX2                !
 ! D31   D(8,7,20,13)           -0.0049         estimate D2E/DX2                !
 ! D32   D(8,7,20,14)         -179.9945         estimate D2E/DX2                !
 ! D33   D(7,8,9,10)           179.9857         estimate D2E/DX2                !
 ! D34   D(7,8,9,11)             0.051          estimate D2E/DX2                !
 ! D35   D(21,8,9,10)           -0.026          estimate D2E/DX2                !
 ! D36   D(21,8,9,11)         -179.9607         estimate D2E/DX2                !
 ! D37   D(7,8,13,20)           -0.0051         estimate D2E/DX2                !
 ! D38   D(7,8,13,22)         -179.9641         estimate D2E/DX2                !
 ! D39   D(21,8,13,20)        -179.9933         estimate D2E/DX2                !
 ! D40   D(21,8,13,22)           0.0477         estimate D2E/DX2                !
 ! D41   D(8,9,10,12)         -179.9657         estimate D2E/DX2                !
 ! D42   D(8,9,10,23)            0.0271         estimate D2E/DX2                !
 ! D43   D(13,9,10,12)          -0.0153         estimate D2E/DX2                !
 ! D44   D(13,9,10,23)         179.9775         estimate D2E/DX2                !
 ! D45   D(8,9,11,12)          179.9531         estimate D2E/DX2                !
 ! D46   D(13,9,11,12)         179.979          estimate D2E/DX2                !
 ! D47   D(10,9,13,20)         179.9892         estimate D2E/DX2                !
 ! D48   D(10,9,13,22)           0.0336         estimate D2E/DX2                !
 ! D49   D(11,9,13,20)         179.977          estimate D2E/DX2                !
 ! D50   D(11,9,13,22)           0.0213         estimate D2E/DX2                !
 ! D51   D(8,9,26,24)           -0.0744         estimate D2E/DX2                !
 ! D52   D(13,9,26,24)          -0.0463         estimate D2E/DX2                !
 ! D53   D(23,10,11,26)        179.9869         estimate D2E/DX2                !
 ! D54   D(25,10,11,26)         -0.0129         estimate D2E/DX2                !
 ! D55   D(9,11,12,25)           0.0228         estimate D2E/DX2                !
 ! D56   D(10,11,26,24)        179.9593         estimate D2E/DX2                !
 ! D57   D(8,13,20,7)            0.0041         estimate D2E/DX2                !
 ! D58   D(8,13,20,14)           0.0166         estimate D2E/DX2                !
 ! D59   D(9,13,20,7)            0.0286         estimate D2E/DX2                !
 ! D60   D(9,13,20,14)           0.0411         estimate D2E/DX2                !
 ! D61   D(22,13,20,7)         179.9825         estimate D2E/DX2                !
 ! D62   D(22,13,20,14)        179.995          estimate D2E/DX2                !
 ! D63   D(6,14,20,7)           -0.0041         estimate D2E/DX2                !
 ! D64   D(6,14,20,13)          -0.0161         estimate D2E/DX2                !
 ! D65   D(27,14,20,7)        -179.98           estimate D2E/DX2                !
 ! D66   D(27,14,20,13)       -179.992          estimate D2E/DX2                !
 ! D67   D(6,14,27,5)            0.007          estimate D2E/DX2                !
 ! D68   D(20,14,27,5)         179.9816         estimate D2E/DX2                !
 --------------------------------------------------------------------------------
 Trust Radius=3.00D-01 FncErr=1.00D-07 GrdErr=1.00D-06 EigMax=2.50D+02 EigMin=1.00D-04
 Number of steps in this run=    162 maximum allowed number of steps=    162.
 GradGradGradGradGradGradGradGradGradGradGradGradGradGradGradGradGradGrad

                          Input orientation:                          
 ---------------------------------------------------------------------
 Center     Atomic      Atomic             Coordinates (Angstroms)
 Number     Number       Type             X           Y           Z
 ---------------------------------------------------------------------
      1          6           0        0.968610    0.039040    0.086550
      2          6           0        2.329010    0.039040    0.086550
      3          6           0        2.807530   -0.654200   -0.419260
      4          6           0        2.000040   -0.388210   -0.225510
      5         16           0        4.844690   -1.235730   -0.844470
      6          6           0        7.027660   -2.034820   -1.427960
      7          6           0        7.843730   -2.842140   -2.017590
      8          6           0        9.114800   -3.009860   -2.140100
      9          6           0       10.064300   -3.624020   -2.588460
     10          6           0       11.719720   -4.001330   -2.864190
     11          6           0       10.766340   -4.493770   -3.223810
     12          6           0       11.474870   -4.786670   -3.437880
     13          6           0        8.774390   -4.168450   -2.986430
     14          7           0        5.780100   -2.891530   -2.053840
     15          6           0        2.907930   -1.593020   -1.105480
     16          6           0       -0.391790    0.039040    0.086550
     17          1           0        2.859500    0.787300    0.633020
     18          1           0        1.976100   -1.774540   -1.237610
     19          1           0        7.556650   -1.469910   -1.015460
     20          1           0        6.940890   -4.101190   -2.937110
     21          1           0        9.715490   -2.475600   -1.749940
     22          1           0        9.141500   -5.169080   -3.716870
     23          1           0       11.908360   -3.404850   -2.428580
     24          1           0       10.980440   -5.974660   -4.305260
     25          1           0       13.784160   -4.550690   -3.265420
     26          1           0       11.205130   -5.238060   -3.767660
     27          1           0        5.120510   -2.568800   -1.818100
 ---------------------------------------------------------------------
                    Distance matrix (angstroms):
                    1          2          3          4          5
     1  C    0.000000
     2  C    1.360400   0.000000
     3  C    2.029298   0.982551   0.000000
     4  C    1.159212   0.623013   0.871969   0.000000
     5  S    4.185192   2.969930   2.160787   3.032068   0.000000
     6  C    6.580784   5.354619   4.553360   5.425327   2.396740
     7  C    7.745701   6.568161   5.718833   6.586504   3.598750
     8  C    8.978540   7.765353   6.949250   7.820391   4.802086
     9  C   10.163920   8.967073   8.135476   9.004793   5.999147
    10  C   11.858239  10.640343   9.828942  10.699974   7.680745
    11  C   11.291606  10.133775   9.270947  10.133777   7.165335
    12  C   12.086794  10.925010  10.065394  10.928777   7.955768
    13  C    9.384902   8.287889   7.385373   8.234362   5.350830
    14  N    6.026603   5.007947   4.063701   4.888584   2.253717
    15  C    2.800985   2.102309   1.167202   1.746476   1.986661
    16  C    1.360400   2.720800   3.312412   2.449648   5.469238
    17  H    2.105704   1.067681   1.785474   1.690435   3.196343
    18  H    2.461201   2.273107   1.617447   1.716633   2.945112
    19  H    6.847892   5.551538   4.855407   5.715769   2.727417
    20  H    7.870969   6.895902   5.941883   6.749148   4.121172
    21  H    9.284612   8.015996   7.266919   8.136907   5.107039
    22  H   10.410891   9.380860   8.448523   9.276139   6.494960
    23  H   11.741567  10.485714   9.717435  10.589072   7.557111
    24  H   12.477553  11.414895  10.497845  11.335800   8.490109
    25  H   14.019260  12.787564  11.990399  12.862067   9.836874
    26  H   12.144507  11.022170  10.136234  10.990976   8.063429
    27  H    5.259923   4.268606   3.312450   4.126578   1.673651
                    6          7          8          9         10
     6  C    0.000000
     7  C    1.290504   0.000000
     8  C    2.411224   1.287928   0.000000
     9  C    3.618494   2.422429   1.216458   0.000000
    10  C    5.286336   4.133250   2.879744   1.720118   0.000000
    11  C    4.821747   3.567141   2.470628   1.285688   1.131705
    12  C    5.602690   4.357017   3.226642   2.015683   1.002911
    13  C    3.167376   1.887823   1.474613   1.455559   2.952599
    14  N    1.637707   2.064539   3.337914   4.379124   6.096508
    15  C    4.155882   5.172462   6.450047   7.585369   9.302723
    16  C    7.851298   8.975098  10.228833  11.397522  13.104203
    17  H    5.439261   6.711268   7.825433   9.041395  10.661377
    18  H    5.061841   6.014750   7.300790   8.406209  10.126326
    19  H    0.876989   1.723280   2.462538   3.660987   5.211242
    20  H    2.560263   1.801623   2.559709   3.178827   4.780429
    21  H    2.742697   1.925999   0.893581   1.464122   2.754332
    22  H    4.419391   3.160128   2.673789   2.124166   2.955998
    23  H    5.167152   4.123927   2.836056   1.863908   0.762319
    24  H    6.278986   4.988493   4.118078   3.051594   2.552890
    25  H    7.440172   6.305944   5.044148   3.892859   2.173636
    26  H    5.760746   4.483546   3.461691   2.301550   1.615723
    27  H    2.018555   2.744164   4.031448   5.113512   6.833449
                   11         12         13         14         15
    11  C    0.000000
    12  C    0.796010   0.000000
    13  C    2.032252   2.806884   0.000000
    14  N    5.366432   6.159345   3.386151   0.000000
    15  C    8.640387   9.435674   6.677287   3.291637   0.000000
    16  C   12.490345  13.286335  10.543483   7.159730   3.869458
    17  H   10.260748  11.039292   8.523251   5.411369   2.947991
    18  H    9.413157  10.204937   7.416598   4.047754   0.958496
    19  H    4.931800   5.676395   3.556646   2.501073   4.651221
    20  H    3.856214   4.612768   1.835396   1.894961   5.090241
    21  H    2.711012   3.359405   2.297894   3.968960   6.894719
    22  H    1.827363   2.380901   1.292119   4.387700   7.646238
    23  H    1.767016   1.765227   3.273538   6.161128   9.275832
    24  H    1.846187   1.551815   3.141395   6.451211   9.726396
    25  H    3.018644   2.327713   5.032071   8.263517  11.476303
    26  H    1.020920   0.620699   2.768191   6.154213   9.445478
    27  H    6.128371   6.922465   4.156286   0.771224   2.521009
                   16         17         18         19         20
    16  C    0.000000
    17  H    3.380741   0.000000
    18  H    3.263338   3.292822   0.000000
    19  H    8.165112   5.465867   5.593272   0.000000
    20  H    8.947191   7.300747   5.740274   3.315951   0.000000
    21  H   10.576068   7.957991   7.787947   2.492281   3.427874
    22  H   11.509741   9.688319   8.307382   4.846981   2.567314
    23  H   13.018446  10.432132  10.135389   4.967724   5.041751
    24  H   13.593388  11.664492  10.398539   6.545066   4.658292
    25  H   15.272815  12.768718  12.298346   7.303109   6.865871
    26  H   13.311321  11.194663  10.177039   5.923256   4.490660
    27  H    6.388581   4.731127   3.294713   2.790442   2.629484
                   21         22         23         24         25
    21  H    0.000000
    22  H    3.384245   0.000000
    23  H    2.476436   3.525296   0.000000
    24  H    4.513666   2.092095   3.314647   0.000000
    25  H    4.812146   4.705370   2.351994   3.312069   0.000000
    26  H    3.731140   2.065407   2.376621   0.939191   2.715901
    27  H    4.596430   5.151227   6.866336   7.219739   9.004524
                   26         27
    26  H    0.000000
    27  H    6.924474   0.000000
 Stoichiometry    C14H11NS
 Framework group  C1[X(C14H11NS)]
 Deg. of freedom    75
 Full point group                 C1      NOp   1
 Largest Abelian subgroup         C1      NOp   1
 Largest concise Abelian subgroup C1      NOp   1
                         Standard orientation:                         
 ---------------------------------------------------------------------
 Center     Atomic      Atomic             Coordinates (Angstroms)
 Number     Number       Type             X           Y           Z
 ---------------------------------------------------------------------
      1          6           0        5.961466   -0.033038   -0.000031
      2          6           0        4.760248   -0.671601   -0.000052
      3          6           0        3.934909   -0.138476    0.000356
      4          6           0        4.802379   -0.050014   -0.000053
      5         16           0        1.797966   -0.458599   -0.000059
      6          6           0       -0.594012   -0.609600    0.000024
      7          6           0       -1.783853   -0.109922    0.000025
      8          6           0       -3.003686   -0.523159   -0.000004
      9          6           0       -4.199014   -0.297417    0.000148
     10          6           0       -5.880090   -0.661821   -0.000000
     11          6           0       -5.324490    0.324113    0.000051
     12          6           0       -6.120405    0.311873   -0.000075
     13          6           0       -3.376586    0.903526   -0.000100
     14          7           0        0.009552    0.912830   -0.000086
     15          6           0        3.300410    0.841203   -0.000073
     16          6           0        7.162684    0.605526   -0.000010
     17          1           0        4.726755   -1.738756   -0.000093
     18          1           0        4.017819    1.476844    0.000303
     19          1           0       -0.732771   -1.475543   -0.000061
     20          1           0       -1.718477    1.690514    0.000086
     21          1           0       -3.223558   -1.389267   -0.000054
     22          1           0       -4.282259    1.825117    0.000213
     23          1           0       -5.699958   -1.402551   -0.000039
     24          1           0       -6.374280    1.842780    0.000173
     25          1           0       -8.022287   -1.030175   -0.000025
     26          1           0       -6.144630    0.932099   -0.000149
     27          1           0        0.779561    0.869542   -0.000055
 ---------------------------------------------------------------------
 Rotational constants (GHZ):           5.8019009           0.1276288           0.1248817
 Standard basis: 6-31G(2df,p) (6D, 7F)
 There are   555 symmetry adapted cartesian basis functions of A   symmetry.
 There are   507 symmetry adapted basis functions of A   symmetry.
   507 basis functions,   805 primitive gaussians,   555 cartesian basis functions
    59 alpha electrons       59 beta electrons
       nuclear repulsion energy      1060.9307776353 Hartrees.
 NAtoms=   27 NActive=   27 NUniq=   27 SFac= 1.00D+00 NAtFMM=   60 NAOKFM=F Big=F
 Integral buffers will be    131072 words long.
 Raffenetti 2 integral format.
 Two-electron integral symmetry is turned on.
 One-electron integrals computed using PRISM.
 PrsmSu:  requested number of processors reduced to:  12 ShMem   1 Linda.
 NBasis=   507 RedAO= T EigKep=  5.84D-06  NBF=   507
 NBsUse=   507 1.00D-06 EigRej= -1.00D+00 NBFU=   507
 ExpMin= 1.17D-01 ExpMax= 2.19D+04 ExpMxC= 3.30D+03 IAcc=3 IRadAn=         5 AccDes= 0.00D+00
 Harris functional with IExCor=  402 and IRadAn=       5 diagonalized for initial guess.
 HarFok:  IExCor=  402 AccDes= 0.00D+00 IRadAn=         5 IDoV= 1 UseB2=F ITyADJ=14
 ICtDFT=  3500011 ScaDFX=  1.000000  1.000000  1.000000  1.000000
 FoFCou: FMM=F IPFlag=           0 FMFlag=      100000 FMFlg1=           0
         NFxFlg=           0 DoJE=T BraDBF=F KetDBF=T FulRan=T
         wScrn=  0.000000 ICntrl=       500 IOpCl=  0 I1Cent=   200000004 NGrid=           0
         NMat0=    1 NMatS0=      1 NMatT0=    0 NMatD0=    1 NMtDS0=    0 NMtDT0=    0
 Petite list used in FoFCou.
 Requested convergence on RMS density matrix=1.00D-08 within 128 cycles.
 Requested convergence on MAX density matrix=1.00D-06.
 Requested convergence on             energy=1.00D-06.
 No special actions if energy rises.
 Integral accuracy reduced to 1.0D-05 until final iterations.
 EnCoef did     2 forward-backward iterations
 EnCoef did     3 forward-backward iterations
 EnCoef did   100 forward-backward iterations
 EnCoef did     6 forward-backward iterations
 EnCoef did     2 forward-backward iterations
 EnCoef did     7 forward-backward iterations
 EnCoef did     5 forward-backward iterations
 EnCoef did     8 forward-backward iterations
 EnCoef did     9 forward-backward iterations
 EnCoef did    15 forward-backward iterations
 EnCoef did    10 forward-backward iterations
 EnCoef did    13 forward-backward iterations
 EnCoef did     9 forward-backward iterations
 EnCoef did     9 forward-backward iterations
 EnCoef did     3 forward-backward iterations
 EnCoef did     7 forward-backward iterations
 Restarting incremental Fock formation.
 EnCoef did    26 forward-backward iterations
 Rare condition: small coef for last iteration:  0.000D+00
 Rare condition: small coef for last iteration:  0.000D+00
 Problem detected with inexpensive integrals.
 Switching to full accuracy and repeating last cycle.
 EnCoef did     6 forward-backward iterations
 EnCoef did     3 forward-backward iterations
 Restarting incremental Fock formation.
 SCF Done:  E(RB3LYP) =  -985.099230180     A.U. after   51 cycles
            NFock= 51  Conv=0.78D-08     -V/T= 1.9763

 **********************************************************************

            Population analysis using the SCF density.

 **********************************************************************

 Orbital symmetries:
       Occupied  (A) (A) (A) (A) (A) (A) (A) (A) (A) (A) (A) (A)
                 (A) (A) (A) (A) (A) (A) (A) (A) (A) (A) (A) (A)
                 (A) (A) (A) (A) (A) (A) (A) (A) (A) (A) (A) (A)
                 (A) (A) (A) (A) (A) (A) (A) (A) (A) (A) (A) (A)
                 (A) (A) (A) (A) (A) (A) (A) (A) (A) (A) (A)
       Virtual   (A) (A) (A) (A) (A) (A) (A) (A) (A) (A) (A) (A)
                 (A) (A) (A) (A) (A) (A) (A) (A) (A) (A) (A) (A)
                 (A) (A) (A) (A) (A) (A) (A) (A) (A) (A) (A) (A)
                 (A) (A) (A) (A) (A) (A) (A) (A) (A) (A) (A) (A)
                 (A) (A) (A) (A) (A) (A) (A) (A) (A) (A) (A) (A)
                 (A) (A) (A) (A) (A) (A) (A) (A) (A) (A) (A) (A)
                 (A) (A) (A) (A) (A) (A) (A) (A) (A) (A) (A) (A)
                 (A) (A) (A) (A) (A) (A) (A) (A) (A) (A) (A) (A)
                 (A) (A) (A) (A) (A) (A) (A) (A) (A) (A) (A) (A)
                 (A) (A) (A) (A) (A) (A) (A) (A) (A) (A) (A) (A)
                 (A) (A) (A) (A) (A) (A) (A) (A) (A) (A) (A) (A)
                 (A) (A) (A) (A) (A) (A) (A) (A) (A) (A) (A) (A)
                 (A) (A) (A) (A) (A) (A) (A) (A) (A) (A) (A) (A)
                 (A) (A) (A) (A) (A) (A) (A) (A) (A) (A) (A) (A)
                 (A) (A) (A) (A) (A) (A) (A) (A) (A) (A) (A) (A)
                 (A) (A) (A) (A) (A) (A) (A) (A) (A) (A) (A) (A)
                 (A) (A) (A) (A) (A) (A) (A) (A) (A) (A) (A) (A)
                 (A) (A) (A) (A) (A) (A) (A) (A) (A) (A) (A) (A)
                 (A) (A) (A) (A) (A) (A) (A) (A) (A) (A) (A) (A)
                 (A) (A) (A) (A) (A) (A) (A) (A) (A) (A) (A) (A)
                 (A) (A) (A) (A) (A) (A) (A) (A) (A) (A) (A) (A)
                 (A) (A) (A) (A) (A) (A) (A) (A) (A) (A) (A) (A)
                 (A) (A) (A) (A) (A) (A) (A) (A) (A) (A) (A) (A)
                 (A) (A) (A) (A) (A) (A) (A) (A) (A) (A) (A) (A)
                 (A) (A) (A) (A) (A) (A) (A) (A) (A) (A) (A) (A)
                 (A) (A) (A) (A) (A) (A) (A) (A) (A) (A) (A) (A)
                 (A) (A) (A) (A) (A) (A) (A) (A) (A) (A) (A) (A)
                 (A) (A) (A) (A) (A) (A) (A) (A) (A) (A) (A) (A)
                 (A) (A) (A) (A) (A) (A) (A) (A) (A) (A) (A) (A)
                 (A) (A) (A) (A) (A) (A) (A) (A) (A) (A) (A) (A)
                 (A) (A) (A) (A) (A) (A) (A) (A) (A) (A) (A) (A)
                 (A) (A) (A) (A) (A) (A) (A) (A) (A) (A) (A) (A)
                 (A) (A) (A) (A) (A) (A) (A) (A) (A) (A) (A) (A)
                 (A) (A) (A) (A) (A) (A) (A) (A) (A) (A) (A) (A)
                 (A) (A) (A) (A) (A) (A) (A) (A) (A) (A) (A) (A)
                 (A) (A) (A) (A) (A) (A) (A) (A) (A) (A) (A) (A)
                 (A) (A) (A) (A) (A) (A) (A) (A) (A) (A) (A) (A)
                 (A) (A) (A) (A)
 The electronic state is 1-A.
 Alpha  occ. eigenvalues --  -88.89225 -14.32522 -10.80132 -10.42894 -10.36876
 Alpha  occ. eigenvalues --  -10.28542 -10.27424 -10.26964 -10.26835 -10.26827
 Alpha  occ. eigenvalues --  -10.25425 -10.24941 -10.24463 -10.24020 -10.22135
 Alpha  occ. eigenvalues --  -10.19752  -7.95542  -5.92013  -5.91837  -5.90851
 Alpha  occ. eigenvalues --   -1.29593  -1.26258  -1.11801  -1.04384  -1.01492
 Alpha  occ. eigenvalues --   -0.93580  -0.93006  -0.89710  -0.85628  -0.80144
 Alpha  occ. eigenvalues --   -0.75210  -0.74038  -0.71800  -0.70944  -0.69209
 Alpha  occ. eigenvalues --   -0.65811  -0.65648  -0.59403  -0.55428  -0.52408
 Alpha  occ. eigenvalues --   -0.49262  -0.48885  -0.47910  -0.45172  -0.41830
 Alpha  occ. eigenvalues --   -0.39843  -0.36612  -0.35909  -0.35281  -0.31635
 Alpha  occ. eigenvalues --   -0.29372  -0.28245  -0.27415  -0.24315  -0.20369
 Alpha  occ. eigenvalues --   -0.19146  -0.18013  -0.16579  -0.16568
 Alpha virt. eigenvalues --   -0.14406  -0.11915  -0.10381  -0.08742  -0.06163
 Alpha virt. eigenvalues --   -0.04926  -0.02593  -0.02225   0.00703   0.03625
 Alpha virt. eigenvalues --    0.04656   0.06343   0.07347   0.08199   0.08812
 Alpha virt. eigenvalues --    0.11573   0.14283   0.15590   0.16832   0.18248
 Alpha virt. eigenvalues --    0.19387   0.19542   0.21718   0.24519   0.25761
 Alpha virt. eigenvalues --    0.26339   0.27825   0.28817   0.29552   0.29867
 Alpha virt. eigenvalues --    0.30223   0.32419   0.32637   0.35821   0.35845
 Alpha virt. eigenvalues --    0.36433   0.36998   0.37185   0.37972   0.38586
 Alpha virt. eigenvalues --    0.39567   0.40725   0.40925   0.43160   0.45176
 Alpha virt. eigenvalues --    0.45272   0.45908   0.48087   0.49834   0.50023
 Alpha virt. eigenvalues --    0.50369   0.50833   0.51180   0.51759   0.52432
 Alpha virt. eigenvalues --    0.52695   0.53690   0.55294   0.56314   0.56810
 Alpha virt. eigenvalues --    0.57078   0.57594   0.58642   0.60070   0.61743
 Alpha virt. eigenvalues --    0.62408   0.63085   0.63487   0.64215   0.65228
 Alpha virt. eigenvalues --    0.65831   0.67144   0.69601   0.69716   0.70437
 Alpha virt. eigenvalues --    0.70949   0.71289   0.73235   0.73693   0.74956
 Alpha virt. eigenvalues --    0.75823   0.76485   0.77319   0.77404   0.79073
 Alpha virt. eigenvalues --    0.80932   0.82004   0.83908   0.84960   0.85320
 Alpha virt. eigenvalues --    0.85691   0.86302   0.86565   0.87999   0.88464
 Alpha virt. eigenvalues --    0.89424   0.90100   0.90350   0.90543   0.91548
 Alpha virt. eigenvalues --    0.94170   0.95159   0.96490   0.97322   0.98298
 Alpha virt. eigenvalues --    0.99626   1.01078   1.01209   1.02132   1.03766
 Alpha virt. eigenvalues --    1.04185   1.04282   1.05627   1.06315   1.07008
 Alpha virt. eigenvalues --    1.10657   1.11754   1.12532   1.13133   1.16286
 Alpha virt. eigenvalues --    1.17067   1.17986   1.20211   1.22277   1.22489
 Alpha virt. eigenvalues --    1.24159   1.24790   1.26118   1.26845   1.27685
 Alpha virt. eigenvalues --    1.28076   1.29811   1.30321   1.31181   1.33364
 Alpha virt. eigenvalues --    1.34957   1.36028   1.36253   1.37967   1.39935
 Alpha virt. eigenvalues --    1.41123   1.41534   1.43480   1.45183   1.46420
 Alpha virt. eigenvalues --    1.48576   1.48709   1.49060   1.50345   1.51636
 Alpha virt. eigenvalues --    1.53100   1.54740   1.55629   1.58475   1.60590
 Alpha virt. eigenvalues --    1.61345   1.65329   1.66088   1.67416   1.69470
 Alpha virt. eigenvalues --    1.71200   1.71545   1.74172   1.77022   1.77085
 Alpha virt. eigenvalues --    1.77475   1.77830   1.79430   1.80058   1.80994
 Alpha virt. eigenvalues --    1.82611   1.84456   1.86053   1.87532   1.88170
 Alpha virt. eigenvalues --    1.91521   1.91663   1.96094   1.96698   1.98162
 Alpha virt. eigenvalues --    1.99370   2.01942   2.02199   2.02835   2.06371
 Alpha virt. eigenvalues --    2.06575   2.07074   2.09107   2.09218   2.12978
 Alpha virt. eigenvalues --    2.14741   2.15264   2.17230   2.19153   2.20072
 Alpha virt. eigenvalues --    2.21530   2.22303   2.24377   2.27346   2.28000
 Alpha virt. eigenvalues --    2.31994   2.35558   2.37865   2.38790   2.41210
 Alpha virt. eigenvalues --    2.42365   2.43758   2.45195   2.46518   2.48422
 Alpha virt. eigenvalues --    2.49527   2.52082   2.52428   2.54936   2.56236
 Alpha virt. eigenvalues --    2.56683   2.57003   2.59665   2.60871   2.61111
 Alpha virt. eigenvalues --    2.63703   2.64196   2.65046   2.65910   2.67676
 Alpha virt. eigenvalues --    2.67908   2.69826   2.70942   2.72728   2.73303
 Alpha virt. eigenvalues --    2.74505   2.74814   2.76289   2.77296   2.78737
 Alpha virt. eigenvalues --    2.79965   2.81191   2.82024   2.82912   2.83921
 Alpha virt. eigenvalues --    2.88805   2.89489   2.90173   2.92485   2.96494
 Alpha virt. eigenvalues --    2.97882   2.98652   3.00071   3.01835   3.02162
 Alpha virt. eigenvalues --    3.04003   3.04135   3.05435   3.06066   3.07780
 Alpha virt. eigenvalues --    3.08150   3.10310   3.11047   3.11865   3.14416
 Alpha virt. eigenvalues --    3.15617   3.16164   3.16599   3.18235   3.18751
 Alpha virt. eigenvalues --    3.20626   3.22579   3.23052   3.25015   3.25267
 Alpha virt. eigenvalues --    3.28477   3.29317   3.31312   3.31969   3.32307
 Alpha virt. eigenvalues --    3.32869   3.35495   3.36177   3.39074   3.40207
 Alpha virt. eigenvalues --    3.40683   3.42491   3.46707   3.46799   3.47071
 Alpha virt. eigenvalues --    3.49517   3.51452   3.53553   3.53746   3.55021
 Alpha virt. eigenvalues --    3.55338   3.55836   3.57028   3.58857   3.59367
 Alpha virt. eigenvalues --    3.60189   3.62437   3.62984   3.68563   3.68675
 Alpha virt. eigenvalues --    3.69849   3.71149   3.71263   3.73030   3.75489
 Alpha virt. eigenvalues --    3.78007   3.79719   3.79931   3.82501   3.83333
 Alpha virt. eigenvalues --    3.84759   3.84846   3.85751   3.89373   3.89637
 Alpha virt. eigenvalues --    3.90658   3.91926   3.95341   3.96029   3.98304
 Alpha virt. eigenvalues --    4.00516   4.02064   4.02231   4.02888   4.05104
 Alpha virt. eigenvalues --    4.08616   4.10157   4.11037   4.13802   4.15280
 Alpha virt. eigenvalues --    4.15746   4.16934   4.21203   4.21797   4.23286
 Alpha virt. eigenvalues --    4.24703   4.28079   4.28371   4.29930   4.31244
 Alpha virt. eigenvalues --    4.33639   4.35736   4.35830   4.38298   4.39106
 Alpha virt. eigenvalues --    4.40703   4.41310   4.41477   4.42744   4.44999
 Alpha virt. eigenvalues --    4.49539   4.50139   4.52674   4.54767   4.57462
 Alpha virt. eigenvalues --    4.59204   4.61110   4.62557   4.63267   4.63756
 Alpha virt. eigenvalues --    4.66013   4.69432   4.70984   4.75691   4.77329
 Alpha virt. eigenvalues --    4.77959   4.78360   4.83823   4.87486   4.88782
 Alpha virt. eigenvalues --    4.89568   4.95653   4.96469   4.97336   4.97769
 Alpha virt. eigenvalues --    5.04524   5.05374   5.06220   5.09783   5.10607
 Alpha virt. eigenvalues --    5.11531   5.16866   5.20839   5.21208   5.21719
 Alpha virt. eigenvalues --    5.27968   5.30454   5.32068   5.33985   5.39896
 Alpha virt. eigenvalues --    5.42835   5.44662   5.49646   5.51131   5.57368
 Alpha virt. eigenvalues --    5.59671   5.64841   5.65727   5.69269   5.69447
 Alpha virt. eigenvalues --    5.78744   5.81724   5.84108   5.85334   5.88500
 Alpha virt. eigenvalues --    5.90724   5.94211   5.95572   6.04405   6.11413
 Alpha virt. eigenvalues --    6.21439   6.32136   6.40996   6.56128   6.59669
 Alpha virt. eigenvalues --    6.62748   6.66977   6.73656   6.93620   7.20130
 Alpha virt. eigenvalues --    7.20423   7.33492   7.50506   7.56711   7.70537
 Alpha virt. eigenvalues --    7.82225   8.36178   8.88066   9.45643   9.60651
 Alpha virt. eigenvalues --    9.97733  10.33150  10.46697  10.47087  10.71417
 Alpha virt. eigenvalues --   10.82042  11.22018  11.29408  11.32083  11.64541
 Alpha virt. eigenvalues --   11.70564  12.35388  12.56670  12.84796  12.88957
 Alpha virt. eigenvalues --   14.39530  15.41030  15.79753
          Condensed to atoms (all electrons):
               1          2          3          4          5          6
     1  C   13.201582   6.284533  -9.354246  -4.089480  -0.039907  -0.000007
     2  C    6.284533  31.209877 -15.309647 -15.304758  -0.289293  -0.000249
     3  C   -9.354246 -15.309647  47.708017 -16.794177   0.411758  -0.001018
     4  C   -4.089480 -15.304758 -16.794177  39.819560  -0.156907  -0.000476
     5  S   -0.039907  -0.289293   0.411758  -0.156907  16.328792  -0.008310
     6  C   -0.000007  -0.000249  -0.001018  -0.000476  -0.008310   5.193326
     7  C   -0.000000  -0.000005  -0.000052   0.000002   0.006717   0.221314
     8  C    0.000000  -0.000000   0.000000   0.000000   0.002824   0.079044
     9  C    0.000000  -0.000000  -0.000000  -0.000000   0.000005   0.062293
    10  C   -0.000000  -0.000000  -0.000000  -0.000000  -0.000000   0.000234
    11  C   -0.000000  -0.000000  -0.000000  -0.000000  -0.000001   0.000775
    12  C    0.000000   0.000000   0.000000   0.000000   0.000000  -0.000295
    13  C   -0.000000  -0.000000  -0.000000  -0.000000  -0.000260  -0.004722
    14  N    0.000006  -0.000184  -0.003008   0.001140  -0.127502   0.380523
    15  C   -0.261795  -0.624562   0.024536   0.927244   0.178261   0.001312
    16  C    0.869449  -0.136148  -0.104363  -0.083263  -0.001137  -0.000000
    17  H    0.019377   0.567094  -0.579066   0.246943  -0.013651  -0.000011
    18  H    0.076673  -0.247176  -0.025246   0.110886  -0.018170  -0.000019
    19  H   -0.000000  -0.000013  -0.000017  -0.000007  -0.023374   0.300752
    20  H    0.000000   0.000000   0.000015   0.000002   0.005554  -0.014987
    21  H   -0.000000  -0.000000  -0.000000  -0.000000  -0.000059   0.017472
    22  H    0.000000   0.000000   0.000000   0.000000  -0.000000  -0.001920
    23  H   -0.000000  -0.000000  -0.000000  -0.000000   0.000000   0.000071
    24  H    0.000000   0.000000   0.000000   0.000000   0.000000  -0.000004
    25  H    0.000000   0.000000   0.000000  -0.000000   0.000000   0.000000
    26  H   -0.000000  -0.000000  -0.000000  -0.000000  -0.000000   0.000017
    27  H   -0.000095   0.000099   0.008021  -0.007862  -0.015538  -0.077448
               7          8          9         10         11         12
     1  C   -0.000000   0.000000   0.000000  -0.000000  -0.000000   0.000000
     2  C   -0.000005  -0.000000  -0.000000  -0.000000  -0.000000   0.000000
     3  C   -0.000052   0.000000  -0.000000  -0.000000  -0.000000   0.000000
     4  C    0.000002   0.000000  -0.000000  -0.000000  -0.000000   0.000000
     5  S    0.006717   0.002824   0.000005  -0.000000  -0.000001   0.000000
     6  C    0.221314   0.079044   0.062293   0.000234   0.000775  -0.000295
     7  C    6.501458   0.111135  -0.427953  -0.005301  -0.074629  -0.003399
     8  C    0.111135   6.677229  -0.646217  -0.199906  -0.311565   0.298231
     9  C   -0.427953  -0.646217   7.401493   0.151605  -0.184904  -0.451545
    10  C   -0.005301  -0.199906   0.151605   7.757215  -0.476824  -0.609227
    11  C   -0.074629  -0.311565  -0.184904  -0.476824  10.627559  -5.591316
    12  C   -0.003399   0.298231  -0.451545  -0.609227  -5.591316  14.440834
    13  C   -0.174379  -0.139269   0.388953  -0.030869   0.148874  -0.140421
    14  N   -0.094096  -0.016372  -0.001595   0.000001  -0.000101  -0.000002
    15  C   -0.000043  -0.000001  -0.000000  -0.000000  -0.000000  -0.000000
    16  C    0.000000   0.000000   0.000000   0.000000  -0.000000   0.000000
    17  H    0.000000   0.000000   0.000000   0.000000   0.000000  -0.000000
    18  H   -0.000001   0.000000   0.000000   0.000000   0.000000  -0.000000
    19  H    0.026472  -0.026404  -0.004676   0.000004  -0.000203  -0.000012
    20  H    0.113530  -0.033882   0.009593  -0.000169   0.000906  -0.000150
    21  H   -0.298089  -0.094344   0.231921   0.035581   0.063121  -0.022091
    22  H    0.022420   0.119993  -0.146860  -0.061870   0.032127   0.035522
    23  H   -0.001074  -0.043826   0.035697   0.336135   0.278684  -0.290145
    24  H   -0.000169   0.006951   0.017390  -0.050260  -0.093813   0.272458
    25  H    0.000003  -0.000366  -0.004163   0.071842   0.034286  -0.121167
    26  H    0.004980  -0.001603  -0.129991  -0.566904   0.735226  -1.995533
    27  H   -0.002027  -0.003847  -0.000101  -0.000000  -0.000001   0.000000
              13         14         15         16         17         18
     1  C   -0.000000   0.000006  -0.261795   0.869449   0.019377   0.076673
     2  C   -0.000000  -0.000184  -0.624562  -0.136148   0.567094  -0.247176
     3  C   -0.000000  -0.003008   0.024536  -0.104363  -0.579066  -0.025246
     4  C   -0.000000   0.001140   0.927244  -0.083263   0.246943   0.110886
     5  S   -0.000260  -0.127502   0.178261  -0.001137  -0.013651  -0.018170
     6  C   -0.004722   0.380523   0.001312  -0.000000  -0.000011  -0.000019
     7  C   -0.174379  -0.094096  -0.000043   0.000000   0.000000  -0.000001
     8  C   -0.139269  -0.016372  -0.000001   0.000000   0.000000   0.000000
     9  C    0.388953  -0.001595  -0.000000   0.000000   0.000000   0.000000
    10  C   -0.030869   0.000001  -0.000000   0.000000   0.000000   0.000000
    11  C    0.148874  -0.000101  -0.000000  -0.000000   0.000000   0.000000
    12  C   -0.140421  -0.000002  -0.000000   0.000000  -0.000000  -0.000000
    13  C    6.120477  -0.013520  -0.000000  -0.000000  -0.000000   0.000000
    14  N   -0.013520   6.816083  -0.006134  -0.000000  -0.000008   0.000219
    15  C   -0.000000  -0.006134   5.927450   0.002798  -0.002152   0.342466
    16  C   -0.000000  -0.000000   0.002798   5.736447  -0.004099   0.006907
    17  H   -0.000000  -0.000008  -0.002152  -0.004099   0.449869  -0.002745
    18  H    0.000000   0.000219   0.342466   0.006907  -0.002745   0.622297
    19  H    0.003216   0.005417   0.000040  -0.000000   0.000001  -0.000001
    20  H    0.078854   0.032160  -0.000039   0.000000   0.000000  -0.000000
    21  H    0.048424  -0.000482  -0.000000  -0.000000  -0.000000   0.000000
    22  H    0.053480   0.000364   0.000000   0.000000   0.000000  -0.000000
    23  H    0.007538  -0.000000   0.000000   0.000000   0.000000   0.000000
    24  H   -0.003256   0.000000  -0.000000   0.000000  -0.000000  -0.000000
    25  H    0.000003   0.000000   0.000000   0.000000   0.000000  -0.000000
    26  H   -0.032578  -0.000000   0.000000   0.000000  -0.000000   0.000000
    27  H    0.000013   0.405889  -0.004573  -0.000000  -0.000044   0.000097
              19         20         21         22         23         24
     1  C   -0.000000   0.000000  -0.000000   0.000000  -0.000000   0.000000
     2  C   -0.000013   0.000000  -0.000000   0.000000  -0.000000   0.000000
     3  C   -0.000017   0.000015  -0.000000   0.000000  -0.000000   0.000000
     4  C   -0.000007   0.000002  -0.000000   0.000000  -0.000000   0.000000
     5  S   -0.023374   0.005554  -0.000059  -0.000000   0.000000   0.000000
     6  C    0.300752  -0.014987   0.017472  -0.001920   0.000071  -0.000004
     7  C    0.026472   0.113530  -0.298089   0.022420  -0.001074  -0.000169
     8  C   -0.026404  -0.033882  -0.094344   0.119993  -0.043826   0.006951
     9  C   -0.004676   0.009593   0.231921  -0.146860   0.035697   0.017390
    10  C    0.000004  -0.000169   0.035581  -0.061870   0.336135  -0.050260
    11  C   -0.000203   0.000906   0.063121   0.032127   0.278684  -0.093813
    12  C   -0.000012  -0.000150  -0.022091   0.035522  -0.290145   0.272458
    13  C    0.003216   0.078854   0.048424   0.053480   0.007538  -0.003256
    14  N    0.005417   0.032160  -0.000482   0.000364  -0.000000   0.000000
    15  C    0.000040  -0.000039  -0.000000   0.000000   0.000000  -0.000000
    16  C   -0.000000   0.000000  -0.000000   0.000000   0.000000   0.000000
    17  H    0.000001   0.000000  -0.000000   0.000000   0.000000  -0.000000
    18  H   -0.000001  -0.000000   0.000000  -0.000000   0.000000  -0.000000
    19  H    0.545763   0.002677   0.004708  -0.000035   0.000009  -0.000000
    20  H    0.002677   0.634662   0.003866  -0.017347   0.000009   0.000068
    21  H    0.004708   0.003866   0.875036  -0.010072   0.011066  -0.000405
    22  H   -0.000035  -0.017347  -0.010072   0.907616  -0.002966   0.100041
    23  H    0.000009   0.000009   0.011066  -0.002966   0.431569  -0.002833
    24  H   -0.000000   0.000068  -0.000405   0.100041  -0.002833   1.297384
    25  H   -0.000000  -0.000000  -0.000108  -0.000053   0.013007  -0.018369
    26  H   -0.000003  -0.000114  -0.001151  -0.017463  -0.027908  -0.469356
    27  H    0.003007   0.001987  -0.000096   0.000013  -0.000000  -0.000000
              25         26         27
     1  C    0.000000  -0.000000  -0.000095
     2  C    0.000000  -0.000000   0.000099
     3  C    0.000000  -0.000000   0.008021
     4  C   -0.000000  -0.000000  -0.007862
     5  S    0.000000  -0.000000  -0.015538
     6  C    0.000000   0.000017  -0.077448
     7  C    0.000003   0.004980  -0.002027
     8  C   -0.000366  -0.001603  -0.003847
     9  C   -0.004163  -0.129991  -0.000101
    10  C    0.071842  -0.566904  -0.000000
    11  C    0.034286   0.735226  -0.000001
    12  C   -0.121167  -1.995533   0.000000
    13  C    0.000003  -0.032578   0.000013
    14  N    0.000000  -0.000000   0.405889
    15  C    0.000000   0.000000  -0.004573
    16  C    0.000000   0.000000  -0.000000
    17  H    0.000000  -0.000000  -0.000044
    18  H   -0.000000   0.000000   0.000097
    19  H   -0.000000  -0.000003   0.003007
    20  H   -0.000000  -0.000114   0.001987
    21  H   -0.000108  -0.001151  -0.000096
    22  H   -0.000053  -0.017463   0.000013
    23  H    0.013007  -0.027908  -0.000000
    24  H   -0.018369  -0.469356  -0.000000
    25  H    1.248860   0.019537  -0.000000
    26  H    0.019537   3.776177   0.000000
    27  H   -0.000000   0.000000   0.534472
 Mulliken charges:
               1
     1  C   -0.706092
     2  C   -0.149569
     3  C    0.018493
     4  C    1.331154
     5  S   -0.239801
     6  C   -0.147666
     7  C    0.073186
     8  C    0.222192
     9  C   -0.300946
    10  C   -0.351286
    11  C    0.811798
    12  C    0.178258
    13  C   -0.310557
    14  N   -0.378798
    15  C   -0.504807
    16  C   -0.286590
    17  H    0.318492
    18  H    0.133814
    19  H    0.162681
    20  H    0.182807
    21  H    0.135700
    22  H   -0.012990
    23  H    0.254968
    24  H   -0.055828
    25  H   -0.243312
    26  H   -0.293334
    27  H    0.158033
 Sum of Mulliken charges =  -0.00000
 Mulliken charges with hydrogens summed into heavy atoms:
               1
     1  C   -0.706092
     2  C    0.168923
     3  C    0.018493
     4  C    1.331154
     5  S   -0.239801
     6  C    0.015015
     7  C    0.255993
     8  C    0.357892
     9  C   -0.300946
    10  C   -0.339630
    11  C    0.811798
    12  C   -0.170904
    13  C   -0.323547
    14  N   -0.220765
    15  C   -0.370993
    16  C   -0.286590
 Electronic spatial extent (au):  <R**2>=           7982.2190
 Charge=             -0.0000 electrons
 Dipole moment (field-independent basis, Debye):
    X=              0.0662    Y=             -5.2212    Z=              0.0005  Tot=              5.2216
 Quadrupole moment (field-independent basis, Debye-Ang):
   XX=           -170.0533   YY=            -96.1281   ZZ=            -99.9366
   XY=            -13.4077   XZ=              0.0015   YZ=              0.0012
 Traceless Quadrupole moment (field-independent basis, Debye-Ang):
   XX=            -48.0140   YY=             25.9112   ZZ=             22.1027
   XY=            -13.4077   XZ=              0.0015   YZ=              0.0012
 Octapole moment (field-independent basis, Debye-Ang**2):
  XXX=             14.7479  YYY=            -27.0087  ZZZ=              0.0010  XYY=             35.2761
  XXY=            -84.0065  XXZ=             -0.0006  XZZ=              3.4654  YZZ=             -4.3103
  YYZ=              0.0005  XYZ=             -0.0029
 Hexadecapole moment (field-independent basis, Debye-Ang**3):
 XXXX=         -18445.8112 YYYY=           -382.8605 ZZZZ=           -103.0992 XXXY=          -1005.1587
 XXXZ=              0.0664 YYYX=              2.7186 YYYZ=              0.0035 ZZZX=              0.0039
 ZZZY=              0.0007 XXYY=          -2008.6466 XXZZ=          -1828.0343 YYZZ=            -86.5052
 XXYZ=              0.0409 YYXZ=              0.0083 ZZXY=             -9.8229
 N-N= 1.060930777635D+03 E-N=-4.441801328527D+03  KE= 1.009007782383D+03
 PrsmSu:  requested number of processors reduced to:  13 ShMem   1 Linda.
 Calling FoFJK, ICntrl=      2127 FMM=F ISym2X=0 I1Cent= 0 IOpClX= 0 NMat=1 NMatS=1 NMatT=0.
 ***** Axes restored to original set *****
 -------------------------------------------------------------------
 Center     Atomic                   Forces (Hartrees/Bohr)
 Number     Number              X              Y              Z
 -------------------------------------------------------------------
      1        6          -0.439210012    0.056498868    0.041173458
      2        6           3.814220215    6.009348914    4.388721443
      3        6           2.120838544   -1.110960887   -0.809991202
      4        6          -5.664371798   -4.689540202   -3.426090695
      5       16          -0.044515514    0.032714522    0.023889891
      6        6          -0.230121462   -0.253192433   -0.184920900
      7        6          -0.014894398   -0.043408069   -0.031722051
      8        6          -0.109834354    0.112156778    0.081945814
      9        6           0.025795538   -0.080469903   -0.058830164
     10        6           0.434618005    0.441568101    0.322551527
     11        6          -3.063192878    1.071617147    0.783376927
     12        6           3.101747008   -0.852528721   -0.623140253
     13        6          -0.071193192   -0.197009245   -0.143834008
     14        7           0.487803291   -0.158711792   -0.115926418
     15        6           0.223528425   -0.155158249   -0.113356011
     16        6           0.068441507    0.019683879    0.014377662
     17        1          -0.023686057    0.006779180    0.004942166
     18        1          -0.103197588   -0.102725606   -0.074998035
     19        1           0.119252110    0.203242571    0.148417195
     20        1           0.028854255    0.038447335    0.028058315
     21        1           0.106825093    0.207764268    0.151746105
     22        1          -0.006176000   -0.004393695   -0.003192763
     23        1           0.182164339    0.454033604    0.331585683
     24        1          -0.003761058   -0.067210354   -0.049158763
     25        1           0.007613569   -0.006442712   -0.004679574
     26        1          -0.511816139   -1.112416175   -0.812664388
     27        1          -0.435731451    0.180312874    0.131719037
 -------------------------------------------------------------------
 Cartesian Forces:  Max     6.009348914 RMS     1.441306487

 GradGradGradGradGradGradGradGradGradGradGradGradGradGradGradGradGradGrad
 Berny optimization.
 FormGI is forming the generalized inverse of G from B-inverse, IUseBI=4.
 Internal  Forces:  Max     4.054361555 RMS     0.501891433
 Search for a local minimum.
 Step number   1 out of a maximum of  162
 All quantities printed in internal units (Hartrees-Bohrs-Radians)
 Mixed Optimization -- RFO/linear search
 Second derivative matrix not updated -- first step.
 ITU=  0
     Eigenvalues ---    0.00230   0.00233   0.00515   0.00544   0.00821
     Eigenvalues ---    0.00991   0.01241   0.01506   0.01567   0.01990
     Eigenvalues ---    0.02069   0.02232   0.02540   0.02754   0.02997
     Eigenvalues ---    0.03033   0.03377   0.03513   0.03954   0.04055
     Eigenvalues ---    0.04368   0.04544   0.05862   0.06571   0.06680
     Eigenvalues ---    0.07663   0.07731   0.08083   0.09304   0.09356
     Eigenvalues ---    0.09715   0.10704   0.11061   0.11293   0.12769
     Eigenvalues ---    0.13099   0.13727   0.15218   0.15817   0.16000
     Eigenvalues ---    0.16000   0.16000   0.16000   0.18876   0.19000
     Eigenvalues ---    0.19259   0.19665   0.21075   0.21275   0.21708
     Eigenvalues ---    0.25000   0.25000   0.25320   0.28455   0.33747
     Eigenvalues ---    0.37525   0.50893   0.52867   0.55798   0.60381
     Eigenvalues ---    0.61701   0.64270   0.71488   0.72614   0.77974
     Eigenvalues ---    0.82357   0.90458   1.28377   1.34424   1.62568
     Eigenvalues ---    1.79805   2.39901   4.87060   7.12007   9.03647
 RFO step:  Lambda=-3.83894201D+00 EMin= 2.30000098D-03
 Linear search not attempted -- first point.
 Maximum step size (   0.300) exceeded in Quadratic search.
    -- Step size scaled by   0.495
 Iteration  1 RMS(Cart)=  0.03894147 RMS(Int)=  0.00054276
 Iteration  2 RMS(Cart)=  0.00047191 RMS(Int)=  0.00018946
 Iteration  3 RMS(Cart)=  0.00000031 RMS(Int)=  0.00018946
 Variable       Old X    -DE/DX   Delta X   Delta X   Delta X     New X
                                 (Linear)    (Quad)   (Total)
    R1        2.57078   1.19057   0.00000   0.05696   0.05707   2.62785
    R2        2.19059  -0.12814   0.00000   0.00877   0.00847   2.19906
    R3        2.57078  -0.06844   0.00000  -0.00776  -0.00776   2.56302
    R4        1.85675   2.31084   0.00000   0.09269   0.09288   1.94964
    R5        1.17732   4.05436   0.00000   0.15477   0.15591   1.33323
    R6        2.01762  -0.00449   0.00000  -0.00053  -0.00053   2.01710
    R7        1.64778   1.49965   0.00000   0.06190   0.06155   1.70933
    R8        4.08330  -0.35318   0.00000  -0.00994  -0.00967   4.07362
    R9        2.20569   0.43037   0.00000   0.02554   0.02607   2.23176
   R10        3.30036   0.20032   0.00000   0.02270   0.02206   3.32242
   R11        3.75425   0.38309   0.00000   0.01125   0.01097   3.76521
   R12        3.16274   0.08929   0.00000   0.01120   0.01120   3.17394
   R13        2.43870   0.07148   0.00000   0.00797   0.00797   2.44667
   R14        3.09482  -0.08533   0.00000  -0.01042  -0.01043   3.08439
   R15        1.65727   0.27266   0.00000   0.02924   0.02924   1.68650
   R16        2.43383   0.08295   0.00000   0.00934   0.00934   2.44317
   R17        3.40457  -0.01971   0.00000  -0.00235  -0.00235   3.40223
   R18        2.29877   0.22741   0.00000   0.02415   0.02417   2.32294
   R19        2.78662   0.17868   0.00000   0.02089   0.02092   2.80753
   R20        1.68862   0.26229   0.00000   0.02845   0.02845   1.71708
   R21        3.25055   0.41679   0.00000   0.02362   0.02355   3.27410
   R22        2.42960  -0.12671   0.00000   0.00514   0.00520   2.43480
   R23        2.75061   0.06009   0.00000   0.00660   0.00656   2.75717
   R24        2.13861   0.83197   0.00000   0.05437   0.05426   2.19287
   R25        1.89523   0.65561   0.00000   0.04704   0.04714   1.94237
   R26        1.44057   0.58982   0.00000   0.05635   0.05635   1.49693
   R27        4.10758   0.21878   0.00000   0.00713   0.00721   4.11479
   R28        1.50424   1.36053   0.00000   0.06035   0.06053   1.56477
   R29        1.92926   1.32130   0.00000   0.07947   0.07920   2.00846
   R30        4.39874  -0.17818   0.00000  -0.00374  -0.00382   4.39492
   R31        1.17295   0.87307   0.00000   0.07454   0.07488   1.24783
   R32        3.46840   0.00999   0.00000   0.00092   0.00092   3.46932
   R33        2.44175   0.00345   0.00000   0.00042   0.00042   2.44218
   R34        3.58096   0.03244   0.00000   0.00394   0.00393   3.58489
   R35        1.45740   0.57215   0.00000   0.05531   0.05531   1.51271
   R36        1.81130   0.13012   0.00000   0.01466   0.01466   1.82595
   R37        1.77481   0.08175   0.00000   0.01000   0.01000   1.78481
    A1        2.66763  -0.75082   0.00000  -0.02401  -0.02400   2.64364
    A2        2.07947  -1.57874   0.00000  -0.05635  -0.05551   2.02396
    A3        2.09078   0.75226   0.00000   0.02502   0.02476   2.11554
    A4        2.11294   0.82648   0.00000   0.03133   0.03075   2.14369
    A5        2.41937  -0.51740   0.00000  -0.01765  -0.01709   2.40228
    A6        2.71904   0.23264   0.00000   0.01027   0.01011   2.72915
    A7        2.59142   0.99988   0.00000   0.03953   0.03964   2.63106
    A8        2.03865  -0.16348   0.00000  -0.00696  -0.00718   2.03147
    A9        2.07626   0.07592   0.00000   0.00446   0.00451   2.08077
   A10        1.51175  -0.06485   0.00000  -0.00309  -0.00314   1.50861
   A11        1.55065   0.03706   0.00000   0.00477   0.00477   1.55542
   A12        1.80950   0.02844   0.00000   0.00357   0.00357   1.81306
   A13        2.41737   0.04294   0.00000   0.00504   0.00504   2.42241
   A14        1.93209  -0.04759   0.00000  -0.00582  -0.00582   1.92627
   A15        1.93372   0.00465   0.00000   0.00078   0.00078   1.93451
   A16        2.62831  -0.08662   0.00000  -0.01008  -0.01004   2.61826
   A17        1.49982  -0.01609   0.00000  -0.00209  -0.00211   1.49771
   A18        2.14604  -0.01860   0.00000  -0.00249  -0.00249   2.14355
   A19        1.50884   0.10522   0.00000   0.01256   0.01254   1.52138
   A20        2.63733   0.03468   0.00000   0.00458   0.00460   2.64193
   A21        2.74147  -0.12506   0.00000  -0.00958  -0.00953   2.73194
   A22        2.82369  -0.10296   0.00000  -0.00636  -0.00633   2.81736
   A23        2.38473   0.10486   0.00000   0.00659   0.00656   2.39129
   A24        1.66670  -0.12316   0.00000  -0.00935  -0.00930   1.65740
   A25        1.59930   0.22709   0.00000   0.00641   0.00629   1.60559
   A26        1.54571   0.03759   0.00000   0.00382   0.00383   1.54955
   A27        2.38987  -0.16509   0.00000  -0.00188  -0.00181   2.38806
   A28        2.25425   0.08174   0.00000  -0.00335  -0.00338   2.25087
   A29        1.63906   0.08334   0.00000   0.00522   0.00519   1.64425
   A30        2.62166  -0.19990   0.00000  -0.01441  -0.01422   2.60744
   A31        1.69555  -0.12298   0.00000   0.01324   0.01306   1.70861
   A32        2.54247  -0.07922   0.00000  -0.00417  -0.00432   2.53815
   A33        2.14626   0.41389   0.00000   0.02074   0.02073   2.16699
   A34        1.75829  -0.04205   0.00000  -0.00478  -0.00476   1.75353
   A35        2.62056   0.03687   0.00000   0.00401   0.00399   2.62455
   A36        2.61441   0.00829   0.00000   0.00021   0.00020   2.61461
   A37        1.76444  -0.01347   0.00000  -0.00098  -0.00097   1.76347
   A38        1.90434   0.00518   0.00000   0.00077   0.00077   1.90510
   A39        1.61624  -0.00326   0.00000  -0.00063  -0.00064   1.61561
   A40        1.89208   0.04144   0.00000   0.00524   0.00525   1.89733
   A41        2.77486  -0.03818   0.00000  -0.00462  -0.00461   2.77025
   A42        1.72111   0.46246   0.00000   0.02189   0.02161   1.74272
   A43        1.89286   0.35613   0.00000   0.01323   0.01301   1.90586
   A44        1.26057  -0.31920   0.00000  -0.00628  -0.00603   1.25454
   A45        1.09135   0.05348   0.00000   0.00609   0.00609   1.09744
   A46        1.18420   0.01378   0.00000   0.00168   0.00168   1.18589
   A47        2.27556   0.06727   0.00000   0.00777   0.00777   2.28333
   A48        2.45574  -0.12711   0.00000   0.00224   0.00214   2.45789
   A49        2.28112   0.09551   0.00000   0.01157   0.01157   2.29268
   A50        3.14159   0.81349   0.00000   0.03343   0.03342   3.17501
   A51        3.17789  -0.02434   0.00000  -0.00014   0.00019   3.17808
   A52        3.09452   1.13383   0.00000   0.04356   0.04255   3.13707
   A53        3.05461  -1.63681   0.00000  -0.06231  -0.06154   2.99308
   A54        3.36014   0.06550   0.00000   0.00834   0.00834   3.36848
   A55        3.18477   0.12093   0.00000   0.00905   0.00902   3.19379
   A56        3.14501   0.26468   0.00000   0.01024   0.01013   3.15514
   A57        3.27496  -0.14832   0.00000   0.00301   0.00285   3.27780
   A58        2.93866  -0.58989   0.00000  -0.02451  -0.02434   2.91432
   A59        3.15342   0.03693   0.00000   0.00695   0.00698   3.16040
   A60        3.34958   0.15599   0.00000   0.00139   0.00149   3.35106
   A61        3.14159  -0.00008   0.00000  -0.00000  -0.00000   3.14159
   A62        3.14155   0.00027   0.00000   0.00001   0.00001   3.14156
   A63        3.14228   0.00013   0.00000   0.00000   0.00000   3.14228
   A64        3.14110   0.00019   0.00000   0.00001   0.00001   3.14111
   A65        3.14142   0.00001   0.00000   0.00000   0.00000   3.14143
   A66        3.14152   0.00001   0.00000   0.00000   0.00000   3.14152
   A67        3.14172   0.00002   0.00000  -0.00000  -0.00000   3.14172
   A68        3.14172   0.00001   0.00000   0.00000   0.00000   3.14173
   A69        3.14155   0.00013   0.00000   0.00000   0.00000   3.14155
   A70        3.14201  -0.00018   0.00000  -0.00001  -0.00001   3.14200
   A71        3.14208  -0.00010   0.00000  -0.00001  -0.00001   3.14207
    D1        3.14159   0.00015   0.00000   0.00001   0.00001  -3.14159
    D2       -0.00001  -0.00002   0.00000   0.00000   0.00000  -0.00001
    D3        0.00002   0.00016   0.00000   0.00001   0.00001   0.00002
    D4        3.14108  -0.00031   0.00000  -0.00001  -0.00001   3.14107
    D5        0.00207  -0.00044   0.00000  -0.00002  -0.00002   0.00205
    D6       -0.00097   0.00022   0.00000   0.00001   0.00001  -0.00096
    D7       -3.13998   0.00010   0.00000   0.00000   0.00000  -3.13997
    D8       -3.14085  -0.00055   0.00000  -0.00002  -0.00002  -3.14087
    D9       -0.00228  -0.00060   0.00000  -0.00002  -0.00002  -0.00230
   D10       -3.14156  -0.00013   0.00000  -0.00001  -0.00001  -3.14157
   D11       -0.00039   0.00004   0.00000   0.00000   0.00000  -0.00039
   D12        0.00002   0.00001   0.00000   0.00000   0.00000   0.00002
   D13        3.14119   0.00019   0.00000   0.00001   0.00001   3.14120
   D14        3.14158   0.00038   0.00000   0.00002   0.00001   3.14159
   D15       -3.14143  -0.00002   0.00000  -0.00000  -0.00000  -3.14143
   D16        3.14153   0.00007   0.00000   0.00000   0.00000   3.14153
   D17        3.14149   0.00001   0.00000   0.00000   0.00000   3.14149
   D18       -0.00010   0.00001   0.00000   0.00000   0.00000  -0.00010
   D19        0.00007   0.00001   0.00000   0.00000   0.00000   0.00007
   D20       -3.14153  -0.00000   0.00000  -0.00000  -0.00000  -3.14153
   D21        0.00009  -0.00001   0.00000  -0.00000  -0.00000   0.00009
   D22        3.14153  -0.00002   0.00000  -0.00000  -0.00000   3.14152
   D23        3.14132   0.00001   0.00000   0.00000   0.00000   3.14133
   D24       -3.14150  -0.00002   0.00000  -0.00000  -0.00000  -3.14150
   D25       -0.00003   0.00000   0.00000   0.00000   0.00000  -0.00003
   D26       -0.00027   0.00001   0.00000   0.00000   0.00000  -0.00026
   D27        0.00009  -0.00001   0.00000  -0.00000  -0.00000   0.00009
   D28        3.14157   0.00001   0.00000   0.00000   0.00000   3.14157
   D29        3.14151   0.00001   0.00000   0.00000   0.00000   3.14151
   D30        0.00010  -0.00001   0.00000  -0.00000  -0.00000   0.00010
   D31       -0.00009   0.00001   0.00000   0.00000   0.00000  -0.00008
   D32       -3.14150  -0.00002   0.00000  -0.00000  -0.00000  -3.14150
   D33        3.14134   0.00007   0.00000   0.00000   0.00000   3.14135
   D34        0.00089  -0.00004   0.00000  -0.00000  -0.00000   0.00089
   D35       -0.00045   0.00007   0.00000   0.00000   0.00000  -0.00045
   D36       -3.14091  -0.00003   0.00000  -0.00000  -0.00000  -3.14091
   D37       -0.00009   0.00001   0.00000   0.00000   0.00000  -0.00009
   D38       -3.14097   0.00000   0.00000   0.00000   0.00000  -3.14096
   D39       -3.14148  -0.00001   0.00000  -0.00000  -0.00000  -3.14148
   D40        0.00083  -0.00002   0.00000  -0.00000  -0.00000   0.00083
   D41       -3.14099   0.00002   0.00000   0.00000   0.00000  -3.14099
   D42        0.00047   0.00000   0.00000   0.00000   0.00000   0.00047
   D43       -0.00027   0.00003   0.00000   0.00000   0.00000  -0.00027
   D44        3.14120   0.00000   0.00000   0.00000   0.00000   3.14120
   D45        3.14077   0.00006   0.00000   0.00000   0.00000   3.14077
   D46        3.14123   0.00004   0.00000   0.00000   0.00000   3.14123
   D47        3.14140   0.00007   0.00000   0.00001   0.00001   3.14141
   D48        0.00059   0.00008   0.00000   0.00001   0.00001   0.00059
   D49        3.14119   0.00000   0.00000   0.00000   0.00000   3.14119
   D50        0.00037   0.00002   0.00000   0.00000   0.00000   0.00037
   D51       -0.00130  -0.00009   0.00000   0.00000   0.00000  -0.00130
   D52       -0.00081   0.00003   0.00000   0.00000   0.00000  -0.00080
   D53        3.14136   0.00004   0.00000  -0.00000  -0.00000   3.14136
   D54       -0.00023  -0.00002   0.00000  -0.00000  -0.00000  -0.00023
   D55        0.00040   0.00001   0.00000   0.00000   0.00000   0.00040
   D56        3.14088   0.00013   0.00000   0.00000   0.00000   3.14089
   D57        0.00007  -0.00001   0.00000  -0.00000  -0.00000   0.00007
   D58        0.00029  -0.00002   0.00000  -0.00000  -0.00000   0.00029
   D59        0.00050   0.00003   0.00000   0.00000   0.00000   0.00050
   D60        0.00072   0.00002   0.00000   0.00000   0.00000   0.00072
   D61        3.14129   0.00002   0.00000   0.00000   0.00000   3.14129
   D62        3.14151   0.00001   0.00000   0.00000   0.00000   3.14151
   D63       -0.00007   0.00000   0.00000  -0.00000  -0.00000  -0.00007
   D64       -0.00028   0.00001   0.00000  -0.00000  -0.00000  -0.00028
   D65       -3.14124   0.00000   0.00000  -0.00000  -0.00000  -3.14124
   D66       -3.14145   0.00001   0.00000  -0.00000  -0.00000  -3.14145
   D67        0.00012   0.00000   0.00000   0.00000   0.00000   0.00012
   D68        3.14127  -0.00000   0.00000   0.00000   0.00000   3.14127
         Item               Value     Threshold  Converged?
 Maximum Force            4.054362     0.000450     NO 
 RMS     Force            0.501891     0.000300     NO 
 Maximum Displacement     0.142200     0.001800     NO 
 RMS     Displacement     0.038790     0.001200     NO 
 Predicted change in Energy=-1.599672D+00
 GradGradGradGradGradGradGradGradGradGradGradGradGradGradGradGradGradGrad

                          Input orientation:                          
 ---------------------------------------------------------------------
 Center     Atomic      Atomic             Coordinates (Angstroms)
 Number     Number       Type             X           Y           Z
 ---------------------------------------------------------------------
      1          6           0        0.894432    0.036238    0.084488
      2          6           0        2.283431    0.090095    0.123826
      3          6           0        2.779085   -0.640859   -0.409506
      4          6           0        1.924791   -0.400539   -0.234517
      5         16           0        4.818195   -1.205301   -0.822235
      6          6           0        7.050179   -2.022351   -1.418851
      7          6           0        7.870940   -2.830972   -2.009431
      8          6           0        9.146256   -3.002442   -2.134680
      9          6           0       10.095623   -3.633126   -2.595104
     10          6           0       11.761366   -4.017916   -2.876300
     11          6           0       10.778105   -4.515586   -3.239742
     12          6           0       11.513183   -4.823343   -3.464672
     13          6           0        8.795883   -4.168295   -2.986311
     14          7           0        5.803919   -2.873409   -2.040600
     15          6           0        2.883697   -1.590569   -1.103668
     16          6           0       -0.461718    0.020293    0.072834
     17          1           0        2.792137    0.847902    0.677264
     18          1           0        1.950074   -1.791842   -1.250226
     19          1           0        7.584515   -1.445056   -0.997307
     20          1           0        6.962811   -4.086379   -2.926288
     21          1           0        9.757421   -2.459439   -1.738134
     22          1           0        9.151741   -5.171762   -3.718822
     23          1           0       11.963030   -3.399287   -2.424509
     24          1           0       10.969126   -6.035365   -4.349621
     25          1           0       13.820716   -4.589154   -3.293513
     26          1           0       11.213459   -5.298435   -3.811774
     27          1           0        5.118262   -2.539813   -1.796921
 ---------------------------------------------------------------------
                    Distance matrix (angstroms):
                    1          2          3          4          5
     1  C    0.000000
     2  C    1.390600   0.000000
     3  C    2.062622   1.031702   0.000000
     4  C    1.163692   0.705517   0.904541   0.000000
     5  S    4.214201   2.999685   2.155669   3.060203   0.000000
     6  C    6.662660   5.437293   4.601036   5.504772   2.450565
     7  C    7.827967   6.656100   5.769171   6.664384   3.656705
     8  C    9.069227   7.858944   7.006722   7.907596   4.866656
     9  C   10.261889   9.071124   8.201355   9.098598   6.073602
    10  C   11.970493  10.756754   9.908126  10.808453   7.767729
    11  C   11.377900  10.231587   9.327811  10.214996   7.233453
    12  C   12.205325  11.054751  10.154392  11.042299   8.055778
    13  C    9.462602   8.379670   7.435360   8.305435   5.411521
    14  N    6.089755   5.085365   4.098093   4.942131   2.288809
    15  C    2.831146   2.166031   1.180996   1.758151   1.992466
    16  C    1.356293   2.746510   3.342541   2.442742   5.493698
    17  H    2.147433   1.067402   1.843271   1.772636   3.251007
[...]
    21  H   12.667925  11.499590   7.736200   2.805310   3.045967
    22  H   12.524513  12.729713   8.267124   5.936889   3.025768
    23  H   15.570948  14.913543  10.794233   6.450144   5.182458
    24  H   13.795677  14.263340   9.762612   7.634122   4.747719
    25  H   16.522133  16.104786  11.884250   7.813025   6.188498
    26  H   14.262431  14.530701  10.054966   7.459610   4.750627
    27  H    7.913518   6.798370   2.966170   2.372423   3.384351
                   21         22         23         24         25
    21  H    0.000000
    22  H    4.573615   0.000000
    23  H    3.716344   4.131999   0.000000
    24  H    6.047221   1.779723   4.564862   0.000000
    25  H    5.139979   4.431593   1.574125   4.367482   0.000000
    26  H    5.608697   1.853891   3.764128   0.849346   3.526814
    27  H    4.823198   6.356192   8.115816   8.029396   9.328613
                   26         27
    26  H    0.000000
    27  H    8.106335   0.000000
 Stoichiometry    C14H11NS
 Framework group  C1[X(C14H11NS)]
 Deg. of freedom    75
 Full point group                 C1      NOp   1
 Largest Abelian subgroup         C1      NOp   1
 Largest concise Abelian subgroup C1      NOp   1
                         Standard orientation:                         
 ---------------------------------------------------------------------
 Center     Atomic      Atomic             Coordinates (Angstroms)
 Number     Number       Type             X           Y           Z
 ---------------------------------------------------------------------
      1          6           0        6.834997    1.729302    0.119123
      2          6           0        6.543085   -0.358225    0.012544
      3          6           0        5.079912   -0.184094   -0.196505
      4          6           0        5.858411    0.950140   -0.192310
      5         16           0        2.778927   -1.825516   -0.042395
      6          6           0       -1.297688   -1.257490    0.078886
      7          6           0       -2.564966   -0.574969    0.095264
      8          6           0       -3.807039   -1.117407    0.116760
      9          6           0       -4.811540   -0.071526    0.049771
     10          6           0       -7.649256    0.190819    0.117088
     11          6           0       -5.880467    0.735223   -0.139773
     12          6           0       -7.049288    1.331313   -0.295171
     13          6           0       -4.574298    1.286284    0.141648
     14          7           0       -0.309374   -0.476298    0.013783
     15          6           0        3.708395   -0.394072   -0.104941
     16          6           0        7.633120    2.743654    0.250787
     17          1           0        7.395354   -1.016380    0.084663
     18          1           0        3.184138    0.569602   -0.186918
     19          1           0       -1.248953   -2.356177    0.115352
     20          1           0       -2.505390    0.467826    0.131357
     21          1           0       -4.047151   -2.159082    0.147056
     22          1           0       -4.884451    2.337225    0.157643
     23          1           0       -7.516576   -0.841335   -0.047497
     24          1           0       -6.127999    3.495095   -0.371827
     25          1           0       -8.667052    0.059803    0.537502
     26          1           0       -6.618470    2.805226   -0.301774
     27          1           0        0.599055   -0.873169   -0.002740
 ---------------------------------------------------------------------
 Rotational constants (GHZ):           1.3295270           0.0878387           0.0825220
 Standard basis: 6-31G(2df,p) (6D, 7F)
 There are   555 symmetry adapted cartesian basis functions of A   symmetry.
 There are   507 symmetry adapted basis functions of A   symmetry.
   507 basis functions,   805 primitive gaussians,   555 cartesian basis functions
    59 alpha electrons       59 beta electrons
       nuclear repulsion energy       852.0162371012 Hartrees.
 NAtoms=   27 NActive=   27 NUniq=   27 SFac= 1.00D+00 NAtFMM=   60 NAOKFM=F Big=F
 Integral buffers will be    131072 words long.
 Raffenetti 2 integral format.
 Two-electron integral symmetry is turned on.
 One-electron integrals computed using PRISM.
 PrsmSu:  requested number of processors reduced to:  12 ShMem   1 Linda.
 NBasis=   507 RedAO= T EigKep=  1.34D-04  NBF=   507
 NBsUse=   507 1.00D-06 EigRej= -1.00D+00 NBFU=   507
 Initial guess from the checkpoint file:  "C1dCCdc2sccccccccncc2d1.chk"
 B after Tr=    -0.000000    0.000000   -0.000000
         Rot=    1.000000    0.000094   -0.000003   -0.000053 Ang=   0.01 deg.
 ExpMin= 1.17D-01 ExpMax= 2.19D+04 ExpMxC= 3.30D+03 IAcc=2 IRadAn=         4 AccDes= 0.00D+00
 Harris functional with IExCor=  402 and IRadAn=       4 diagonalized for initial guess.
 HarFok:  IExCor=  402 AccDes= 0.00D+00 IRadAn=         4 IDoV= 1 UseB2=F ITyADJ=14
 ICtDFT=  3500011 ScaDFX=  1.000000  1.000000  1.000000  1.000000
 FoFCou: FMM=F IPFlag=           0 FMFlag=      100000 FMFlg1=           0
         NFxFlg=           0 DoJE=T BraDBF=F KetDBF=T FulRan=T
         wScrn=  0.000000 ICntrl=       500 IOpCl=  0 I1Cent=   200000004 NGrid=           0
         NMat0=    1 NMatS0=      1 NMatT0=    0 NMatD0=    1 NMtDS0=    0 NMtDT0=    0
 Petite list used in FoFCou.
 Requested convergence on RMS density matrix=1.00D-08 within 128 cycles.
 Requested convergence on MAX density matrix=1.00D-06.
 Requested convergence on             energy=1.00D-06.
 No special actions if energy rises.
 Integral accuracy reduced to 1.0D-05 until final iterations.
 Initial convergence to 1.0D-05 achieved.  Increase integral accuracy.
 SCF Done:  E(RB3LYP) =  -992.293215420     A.U. after   15 cycles
            NFock= 15  Conv=0.80D-08     -V/T= 2.0051
 PrsmSu:  requested number of processors reduced to:  13 ShMem   1 Linda.
 Calling FoFJK, ICntrl=      2127 FMM=F ISym2X=0 I1Cent= 0 IOpClX= 0 NMat=1 NMatS=1 NMatT=0.
 ***** Axes restored to original set *****
 -------------------------------------------------------------------
 Center     Atomic                   Forces (Hartrees/Bohr)
 Number     Number              X              Y              Z
 -------------------------------------------------------------------
      1        6          -0.086248725   -0.090479853   -0.042194833
      2        6           0.131109615   -0.012011308   -0.061299810
      3        6          -0.048175118    0.040897804    0.054973011
      4        6          -0.025665649    0.059634183    0.044117310
      5       16          -0.043008501   -0.009469419   -0.004167446
      6        6           0.003911573    0.004008519    0.002633391
      7        6           0.039686613    0.029889918    0.024081696
      8        6          -0.013613387   -0.010183848   -0.011482025
      9        6          -0.041141479   -0.002710957    0.004681073
     10        6           0.089831167   -0.039942143   -0.016741757
     11        6          -0.058844119    0.042262888    0.014030383
     12        6           0.073145990   -0.003161764   -0.011453732
     13        6           0.019482392   -0.010431329    0.004449884
     14        7          -0.010448397   -0.022186112   -0.013901428
     15        6           0.052771096    0.006391291   -0.002855855
     16        6           0.014225559    0.012187271    0.008336123
     17        1          -0.003373596   -0.007391161    0.001808054
     18        1           0.005070001    0.003823494    0.003562855
     19        1           0.000590293   -0.001175919   -0.001140198
     20        1          -0.018605123   -0.017424555   -0.013670764
     21        1           0.005342099    0.006914712    0.001893341
     22        1          -0.026304907    0.001634215    0.003505220
     23        1          -0.022938457    0.042031410    0.014322501
     24        1          -0.001991976   -0.003226464    0.002128716
     25        1          -0.008370731   -0.026685304   -0.006370940
     26        1          -0.017126752   -0.015227906   -0.013482236
     27        1          -0.009309482    0.022032339    0.014237467
 -------------------------------------------------------------------
 Cartesian Forces:  Max     0.131109615 RMS     0.033494092

 GradGradGradGradGradGradGradGradGradGradGradGradGradGradGradGradGradGrad
 Berny optimization.
 Using GEDIIS/GDIIS optimizer.
 FormGI is forming the generalized inverse of G from B-inverse, IUseBI=4.
 Internal  Forces:  Max     0.087901969 RMS     0.014458419
 Search for a local minimum.
 Step number  24 out of a maximum of  162
 All quantities printed in internal units (Hartrees-Bohrs-Radians)
 Mixed Optimization -- RFO/linear search
 Update second derivatives using D2CorX and points   23   24
 DE= -6.80D-03 DEPred=-5.83D-04 R= 1.17D+01
 TightC=F SS=  1.41D+00  RLast= 1.01D+00 DXNew= 5.0454D+00 3.0325D+00
 Trust test= 1.17D+01 RLast= 1.01D+00 DXMaxT set to 3.00D+00
 ITU=  1  1  1  1  0  1  1  1  1 -1  1  0  1  0  1  0  0  0  0  0
 ITU=  0  0  1  0
 Use linear search instead of GDIIS.
     Eigenvalues ---    0.00007   0.00013   0.00054   0.00233   0.00238
     Eigenvalues ---    0.00474   0.00561   0.00843   0.00912   0.01166
     Eigenvalues ---    0.01328   0.01721   0.01917   0.02231   0.02381
     Eigenvalues ---    0.02650   0.03065   0.03393   0.03796   0.04184
     Eigenvalues ---    0.04549   0.04788   0.05323   0.05701   0.06043
     Eigenvalues ---    0.06784   0.07958   0.08079   0.08531   0.09256
     Eigenvalues ---    0.09799   0.10107   0.10614   0.10912   0.11231
     Eigenvalues ---    0.11535   0.12101   0.13629   0.14628   0.15359
     Eigenvalues ---    0.15979   0.16069   0.16240   0.17188   0.19440
     Eigenvalues ---    0.20394   0.22072   0.23773   0.25226   0.27961
     Eigenvalues ---    0.29410   0.31307   0.36521   0.37808   0.40522
     Eigenvalues ---    0.50846   0.52752   0.55610   0.58011   0.62880
     Eigenvalues ---    0.69127   0.72730   0.74953   0.77178   0.78781
     Eigenvalues ---    0.87943   0.95186   1.18959   1.29090   1.44470
     Eigenvalues ---    1.82007   2.17500   2.60256   4.45801   9.02868
 RFO step:  Lambda=-5.76019115D-02 EMin= 7.21157723D-05
 Quartic linear search produced a step of  2.00000.
 Iteration  1 RMS(Cart)=  0.07310219 RMS(Int)=  0.12267538
 Iteration  2 RMS(Cart)=  0.00891330 RMS(Int)=  0.10319276
 Iteration  3 RMS(Cart)=  0.00399871 RMS(Int)=  0.08335280
 Iteration  4 RMS(Cart)=  0.00142134 RMS(Int)=  0.06364043
 New curvilinear step failed, DQL= 1.23D-01 SP=-1.38D-01.
 ITry= 1 IFail=1 DXMaxC= 3.01D-01 DCOld= 1.00D+10 DXMaxT= 3.00D+00 DXLimC= 3.00D+00 Rises=F
 Iteration  1 RMS(Cart)=  0.06678864 RMS(Int)=  0.12290593
 Iteration  2 RMS(Cart)=  0.00631519 RMS(Int)=  0.10619736
 Iteration  3 RMS(Cart)=  0.00487580 RMS(Int)=  0.08695326
 New curvilinear step failed, DQL= 1.22D-01 SP=-1.61D-01.
 ITry= 2 IFail=1 DXMaxC= 2.74D-01 DCOld= 1.00D+10 DXMaxT= 3.00D+00 DXLimC= 3.00D+00 Rises=F
 Iteration  1 RMS(Cart)=  0.05982898 RMS(Int)=  0.12313619
 Iteration  2 RMS(Cart)=  0.00453755 RMS(Int)=  0.10703059
 Iteration  3 RMS(Cart)=  0.00335040 RMS(Int)=  0.08898231
 Iteration  4 RMS(Cart)=  0.00171244 RMS(Int)=  0.06923407
 Iteration  5 RMS(Cart)=  0.00121674 RMS(Int)=  0.04830832
 Iteration  6 RMS(Cart)=  0.00111724 RMS(Int)=  0.02672181
 Iteration  7 RMS(Cart)=  0.00122790 RMS(Int)=  0.00986432
 New curvilinear step failed, DQL= 4.72D-01 SP=-2.23D-01.
 ITry= 3 IFail=1 DXMaxC= 2.57D-01 DCOld= 1.00D+10 DXMaxT= 3.00D+00 DXLimC= 3.00D+00 Rises=F
 Iteration  1 RMS(Cart)=  0.04842095 RMS(Int)=  0.12329435
 Iteration  2 RMS(Cart)=  0.00279422 RMS(Int)=  0.10715399
 Iteration  3 RMS(Cart)=  0.00614205 RMS(Int)=  0.08891377
 Iteration  4 RMS(Cart)=  0.00441042 RMS(Int)=  0.06912112
 Iteration  5 RMS(Cart)=  0.00029231 RMS(Int)=  0.04811406
 Iteration  6 RMS(Cart)=  0.00052213 RMS(Int)=  0.02636273
 Iteration  7 RMS(Cart)=  0.00100568 RMS(Int)=  0.00894391
 Iteration  8 RMS(Cart)=  0.01184948 RMS(Int)=  0.00747213
 SLEqS3 Cycle:    29 Max:0.565009E-01 RMS:0.134636E-01 Conv:0.497725E-03
 Iteration  9 RMS(Cart)=  0.01316764 RMS(Int)=  0.00710815
 SLEqS3 Cycle:   811 Max:0.280382E-02 RMS:0.366374E-03 Conv:0.725187E-03
 SLEqS3 Cycle:    90 Max:0.542208E-01 RMS: 131.589     Conv:0.725187E-03
 Iteration 10 RMS(Cart)=  0.00100801 RMS(Int)=  0.00711925
 SLEqS3 Cycle:   811 Max:0.559957E-01 RMS:0.134020E-01 Conv:0.251682E-05
 SLEqS3 Cycle:   811 Max:0.560150E-01 RMS:0.134127E-01 Conv:0.251682E-05
 Iteration 11 RMS(Cart)=  0.00192147 RMS(Int)=  0.00708807
 SLEqS3 Cycle:    29 Max:0.557798E-01 RMS:0.133970E-01 Conv:0.103354E-04
 Iteration 12 RMS(Cart)=  0.00107148 RMS(Int)=  0.00707796
 SLEqS3 Cycle:   811 Max:0.555773E-01 RMS:0.133764E-01 Conv:0.266392E-05
 SLEqS3 Cycle:   811 Max:0.555780E-01 RMS:0.133764E-01 Conv:0.266392E-05
 Iteration 13 RMS(Cart)=  0.00088730 RMS(Int)=  0.00707041
 SLEqS3 Cycle:   811 Max:0.554175E-01 RMS:0.133560E-01 Conv:0.101485E-05
 SLEqS3 Cycle:   811 Max:0.554171E-01 RMS:0.133560E-01 Conv:0.101485E-05
 Iteration 14 RMS(Cart)=  0.00074978 RMS(Int)=  0.00706457
 SLEqS3 Cycle:   811 Max:0.553023E-01 RMS:0.133374E-01 Conv:0.105044E-05
 SLEqS3 Cycle:   811 Max:0.553000E-01 RMS:0.133371E-01 Conv:0.105044E-05
 Iteration 15 RMS(Cart)=  0.00060873 RMS(Int)=  0.00706019
 SLEqS3 Cycle:   811 Max:0.551814E-01 RMS:0.133147E-01 Conv:0.151550E-05
 SLEqS3 Cycle:   811 Max:0.552128E-01 RMS:0.133203E-01 Conv:0.151550E-05
 Iteration 16 RMS(Cart)=  0.00049325 RMS(Int)=  0.00705690
 SLEqS3 Cycle:   811 Max:0.551291E-01 RMS:0.133002E-01 Conv:0.170767E-05
 SLEqS3 Cycle:   811 Max:0.551436E-01 RMS:0.133053E-01 Conv:0.170767E-05
 Iteration 17 RMS(Cart)=  0.00041322 RMS(Int)=  0.00705435
 SLEqS3 Cycle:   811 Max:0.550880E-01 RMS:0.132918E-01 Conv:0.162844E-05
 SLEqS3 Cycle:   811 Max:0.550879E-01 RMS:0.132917E-01 Conv:0.162844E-05
 Iteration 18 RMS(Cart)=  0.00035307 RMS(Int)=  0.00705232
 SLEqS3 Cycle:   811 Max:0.550339E-01 RMS:0.132781E-01 Conv:0.736425E-06
 SLEqS3 Cycle:   811 Max:0.550386E-01 RMS:0.132791E-01 Conv:0.736425E-06
 Iteration 19 RMS(Cart)=  0.00032030 RMS(Int)=  0.00705063
 SLEqS3 Cycle:   811 Max:0.550412E-01 RMS:0.132726E-01 Conv:0.630561E-07
 SLEqS3 Cycle:   811 Max:0.550467E-01 RMS:0.132733E-01 Conv:0.630561E-07
 Iteration 20 RMS(Cart)=  0.00012467 RMS(Int)=  0.00705001
 SLEqS3 Cycle:   811 Max:0.545096E-01 RMS:0.132015E-01 Conv:0.161454E-06
 SLEqS3 Cycle:   811 Max:0.545904E-01 RMS:0.132211E-01 Conv:0.161454E-06
 Iteration 21 RMS(Cart)=  0.00141807 RMS(Int)=  0.00704491
 SLEqS3 Cycle:    51 Max:0.179124E-01 RMS: 3.21953     Conv:0.177969E-04
 New curvilinear step failed, DQL= 6.28D+00 SP=-3.58D-02.
 ITry= 4 IFail=1 DXMaxC= 2.86D-01 DCOld= 1.00D+10 DXMaxT= 3.00D+00 DXLimC= 3.00D+00 Rises=F
 Iteration  1 RMS(Cart)=  0.04342175 RMS(Int)=  0.12359168
 Iteration  2 RMS(Cart)=  0.00531166 RMS(Int)=  0.10738790
 Iteration  3 RMS(Cart)=  0.00407225 RMS(Int)=  0.08924910
 Iteration  4 RMS(Cart)=  0.00122898 RMS(Int)=  0.06955130
 Iteration  5 RMS(Cart)=  0.00029966 RMS(Int)=  0.04850271
 Iteration  6 RMS(Cart)=  0.00071737 RMS(Int)=  0.02665742
 Iteration  7 RMS(Cart)=  0.00124858 RMS(Int)=  0.00835594
 Iteration  8 RMS(Cart)=  0.01353135 RMS(Int)=  0.00655977
 New curvilinear step failed, DQL= 6.27D+00 SP=-7.59D-02.
 ITry= 5 IFail=1 DXMaxC= 2.34D-01 DCOld= 1.00D+10 DXMaxT= 3.00D+00 DXLimC= 3.00D+00 Rises=F
 Iteration  1 RMS(Cart)=  0.03843411 RMS(Int)=  0.12390251
 Iteration  2 RMS(Cart)=  0.00528938 RMS(Int)=  0.10774171
 Iteration  3 RMS(Cart)=  0.00381547 RMS(Int)=  0.08970708
 Iteration  4 RMS(Cart)=  0.00206944 RMS(Int)=  0.06997567
 Iteration  5 RMS(Cart)=  0.00063319 RMS(Int)=  0.04887523
 Iteration  6 RMS(Cart)=  0.00060503 RMS(Int)=  0.02688805
 Iteration  7 RMS(Cart)=  0.00101940 RMS(Int)=  0.00772755
 Iteration  8 RMS(Cart)=  0.01408152 RMS(Int)=  0.00551308
 SLEqS3 Cycle:   811 Max:0.251489E-02 RMS:0.314443E-03 Conv:0.580126E-03
 SLEqS3 Cycle:    89 Max:0.428449E-01 RMS:0.105424E-01 Conv:0.580126E-03
 Iteration  9 RMS(Cart)=  0.00112335 RMS(Int)=  0.00550128
 SLEqS3 Cycle:   811 Max:0.432195E-01 RMS:0.105442E-01 Conv:0.123718E-06
 SLEqS3 Cycle:   811 Max:0.432180E-01 RMS:0.105444E-01 Conv:0.123718E-06
 Iteration 10 RMS(Cart)=  0.00177030 RMS(Int)=  0.00548330
 SLEqS3 Cycle:    29 Max:0.431713E-01 RMS:0.105159E-01 Conv:0.110982E-04
 Iteration 11 RMS(Cart)=  0.00046138 RMS(Int)=  0.00547786
 SLEqS3 Cycle:   811 Max:0.430991E-01 RMS:0.104949E-01 Conv:0.104479E-05
 SLEqS3 Cycle:   811 Max:0.431000E-01 RMS:0.104950E-01 Conv:0.104479E-05
 Iteration 12 RMS(Cart)=  0.00044346 RMS(Int)=  0.00547345
 SLEqS3 Cycle:   811 Max:0.429195E-01 RMS:0.102259E-01 Conv:0.143159E-06
 SLEqS3 Cycle:   811 Max:0.429643E-01 RMS:0.102314E-01 Conv:0.143159E-06
 Iteration 13 RMS(Cart)=  0.01058548 RMS(Int)=  0.00552818
 SLEqS3 Cycle:   109 Max:0.524592E-02 RMS: 250.024     Conv:0.137938E-02
 New curvilinear step failed, DQL= 6.27D+00 SP=-6.92D-03.
 ITry= 6 IFail=1 DXMaxC= 2.03D-01 DCOld= 1.00D+10 DXMaxT= 3.00D+00 DXLimC= 3.00D+00 Rises=F
 Iteration  1 RMS(Cart)=  0.03361652 RMS(Int)=  0.12428471
 Iteration  2 RMS(Cart)=  0.00737939 RMS(Int)=  0.10811308
 Iteration  3 RMS(Cart)=  0.00308136 RMS(Int)=  0.09015132
 Iteration  4 RMS(Cart)=  0.00200094 RMS(Int)=  0.07044258
 Iteration  5 RMS(Cart)=  0.00077220 RMS(Int)=  0.04932681
 Iteration  6 RMS(Cart)=  0.00083081 RMS(Int)=  0.02731907
 Iteration  7 RMS(Cart)=  0.00177042 RMS(Int)=  0.00740087
 Iteration  8 RMS(Cart)=  0.01093791 RMS(Int)=  0.00477698
 SLEqS3 Cycle:   811 Max:0.713833E-03 RMS:0.959053E-04 Conv:0.416202E-03
 SLEqS3 Cycle:    89 Max:0.374936E-01 RMS:0.912473E-02 Conv:0.416202E-03
 Iteration  9 RMS(Cart)=  0.00368106 RMS(Int)=  0.00471731
 SLEqS3 Cycle:    29 Max:0.373949E-01 RMS:0.908420E-02 Conv:0.252647E-04
 Iteration 10 RMS(Cart)=  0.00084587 RMS(Int)=  0.00470748
 SLEqS3 Cycle:   811 Max:0.372818E-01 RMS:0.905736E-02 Conv:0.123060E-05
 SLEqS3 Cycle:   811 Max:0.372932E-01 RMS:0.905910E-02 Conv:0.123060E-05
 Iteration 11 RMS(Cart)=  0.00071579 RMS(Int)=  0.00470080
 SLEqS3 Cycle:   811 Max:0.371903E-01 RMS:0.903917E-02 Conv:0.561983E-06
 SLEqS3 Cycle:   811 Max:0.371903E-01 RMS:0.903915E-02 Conv:0.561983E-06
 Iteration 12 RMS(Cart)=  0.00061238 RMS(Int)=  0.00469582
 SLEqS3 Cycle:   811 Max:0.370886E-01 RMS:0.902121E-02 Conv:0.306284E-06
 SLEqS3 Cycle:   811 Max:0.370887E-01 RMS:0.902121E-02 Conv:0.306284E-06
 Iteration 13 RMS(Cart)=  0.00054980 RMS(Int)=  0.00469183
 SLEqS3 Cycle:   811 Max:0.368046E-01 RMS:0.898280E-02 Conv:0.148023E-06
 SLEqS3 Cycle:   811 Max:0.368075E-01 RMS:0.898455E-02 Conv:0.148023E-06
 Iteration 14 RMS(Cart)=  0.00111091 RMS(Int)=  0.00468535
 SLEqS3 Cycle:   811 Max:0.368673E-01 RMS:0.897410E-02 Conv:0.319653E-05
 SLEqS3 Cycle:   811 Max:0.368666E-01 RMS:0.897405E-02 Conv:0.319653E-05
 Iteration 15 RMS(Cart)=  0.00020366 RMS(Int)=  0.00468435
 SLEqS3 Cycle:   811 Max:0.368421E-01 RMS:0.896513E-02 Conv:0.296234E-06
 SLEqS3 Cycle:   811 Max:0.368419E-01 RMS:0.896514E-02 Conv:0.296234E-06
 Iteration 16 RMS(Cart)=  0.00019302 RMS(Int)=  0.00468342
 SLEqS3 Cycle:   811 Max:0.368259E-01 RMS:0.895791E-02 Conv:0.437615E-06
 SLEqS3 Cycle:   811 Max:0.368260E-01 RMS:0.895789E-02 Conv:0.437615E-06
 Iteration 17 RMS(Cart)=  0.00015517 RMS(Int)=  0.00468274
 SLEqS3 Cycle:   811 Max:0.368113E-01 RMS:0.895120E-02 Conv:0.332644E-06
 SLEqS3 Cycle:   811 Max:0.368115E-01 RMS:0.895117E-02 Conv:0.332644E-06
 Iteration 18 RMS(Cart)=  0.00014262 RMS(Int)=  0.00468218
 SLEqS3 Cycle:   811 Max:0.367989E-01 RMS:0.894498E-02 Conv:0.275943E-06
 SLEqS3 Cycle:   811 Max:0.367990E-01 RMS:0.894491E-02 Conv:0.275943E-06
 Iteration 19 RMS(Cart)=  0.00013032 RMS(Int)=  0.00468172
 SLEqS3 Cycle:   811 Max:0.367967E-01 RMS:0.894162E-02 Conv:0.801035E-07
 SLEqS3 Cycle:   811 Max:0.367966E-01 RMS:0.894155E-02 Conv:0.801035E-07
 Iteration 20 RMS(Cart)=  0.00007105 RMS(Int)=  0.00468149
slurmstepd: error: *** JOB 27448752 ON lewis4-r630-hpc4-node303 CANCELLED AT 2023-05-19T03:34:34 DUE TO TIME LIMIT ***
