### Starting Gaussian ###
 Entering Gaussian System, Link 0=g16
 Initial command:
 /cluster/software/gaussian/gaussian-16-A.03/avx2/g16/l1.exe "/local/scratch/ks29c/Gau-21949.inp" -scrdir="/local/scratch/ks29c/"
 Entering Link 1 = /cluster/software/gaussian/gaussian-16-A.03/avx2/g16/l1.exe PID=     21954.
  
 Copyright (c) 1988,1990,1992,1993,1995,1998,2003,2009,2016,
            Gaussian, Inc.  All Rights Reserved.
  
 This is part of the Gaussian(R) 16 program.  It is based on
 the Gaussian(R) 09 system (copyright 2009, Gaussian, Inc.),
 the Gaussian(R) 03 system (copyright 2003, Gaussian, Inc.),
 the Gaussian(R) 98 system (copyright 1998, Gaussian, Inc.),
 the Gaussian(R) 94 system (copyright 1995, Gaussian, Inc.),
 the Gaussian 92(TM) system (copyright 1992, Gaussian, Inc.),
 the Gaussian 90(TM) system (copyright 1990, Gaussian, Inc.),
 the Gaussian 88(TM) system (copyright 1988, Gaussian, Inc.),
 the Gaussian 86(TM) system (copyright 1986, Carnegie Mellon
 University), and the Gaussian 82(TM) system (copyright 1983,
 Carnegie Mellon University). Gaussian is a federally registered
 trademark of Gaussian, Inc.
  
 This software contains proprietary and confidential information,
 including trade secrets, belonging to Gaussian, Inc.
  
 This software is provided under written license and may be
 used, copied, transmitted, or stored only in accord with that
 written license.
  
 The following legend is applicable only to US Government
 contracts under FAR:
  
                    RESTRICTED RIGHTS LEGEND
  
 Use, reproduction and disclosure by the US Government is
 subject to restrictions as set forth in subparagraphs (a)
 and (c) of the Commercial Computer Software - Restricted
 Rights clause in FAR 52.227-19.
  
 Gaussian, Inc.
 340 Quinnipiac St., Bldg. 40, Wallingford CT 06492
  
  
 ---------------------------------------------------------------
 Warning -- This program may not be used in any manner that
 competes with the business of Gaussian, Inc. or will provide
 assistance to any competitor of Gaussian, Inc.  The licensee
 of this program is prohibited from giving any competitor of
 Gaussian, Inc. access to this program.  By using this program,
 the user acknowledges that Gaussian, Inc. is engaged in the
 business of creating and licensing software in the field of
 computational chemistry and represents and warrants to the
 licensee that it is not a competitor of Gaussian, Inc. and that
 it will not use this program in any manner prohibited above.
 ---------------------------------------------------------------
  

 Cite this work as:
 Gaussian 16, Revision A.03,
 M. J. Frisch, G. W. Trucks, H. B. Schlegel, G. E. Scuseria, 
 M. A. Robb, J. R. Cheeseman, G. Scalmani, V. Barone, 
 G. A. Petersson, H. Nakatsuji, X. Li, M. Caricato, A. V. Marenich, 
 J. Bloino, B. G. Janesko, R. Gomperts, B. Mennucci, H. P. Hratchian, 
 J. V. Ortiz, A. F. Izmaylov, J. L. Sonnenberg, D. Williams-Young, 
 F. Ding, F. Lipparini, F. Egidi, J. Goings, B. Peng, A. Petrone, 
 T. Henderson, D. Ranasinghe, V. G. Zakrzewski, J. Gao, N. Rega, 
 G. Zheng, W. Liang, M. Hada, M. Ehara, K. Toyota, R. Fukuda, 
 J. Hasegawa, M. Ishida, T. Nakajima, Y. Honda, O. Kitao, H. Nakai, 
 T. Vreven, K. Throssell, J. A. Montgomery, Jr., J. E. Peralta, 
 F. Ogliaro, M. J. Bearpark, J. J. Heyd, E. N. Brothers, K. N. Kudin, 
 V. N. Staroverov, T. A. Keith, R. Kobayashi, J. Normand, 
 K. Raghavachari, A. P. Rendell, J. C. Burant, S. S. Iyengar, 
 J. Tomasi, M. Cossi, J. M. Millam, M. Klene, C. Adamo, R. Cammi, 
 J. W. Ochterski, R. L. Martin, K. Morokuma, O. Farkas, 
 J. B. Foresman, and D. J. Fox, Gaussian, Inc., Wallingford CT, 2016.
 
 ******************************************
 Gaussian 16:  ES64L-G16RevA.03 25-Dec-2016
                16-May-2023 
 ******************************************
 %chk=C1dCCdCNdNCdc2ccccc2dCCdC1.chk
 %NProcShared=20
 Will use up to   20 processors via shared memory.
 -----------------------------
 # opt freq b3lyp/6-31g(2df,p)
 -----------------------------
 1/18=20,19=15,26=3,38=1/1,3;
 2/9=110,12=2,17=6,18=5,40=1/2;
 3/5=1,6=6,7=104,11=2,25=1,30=1,71=1,74=-5/1,2,3;
 4//1;
 5/5=2,38=5/2;
 6/7=2,8=2,9=2,10=2,28=1/1;
 7//1,2,3,16;
 1/18=20,19=15,26=3/3(2);
 2/9=110/2;
 99//99;
 2/9=110/2;
 3/5=1,6=6,7=104,11=2,25=1,30=1,71=1,74=-5/1,2,3;
 4/5=5,16=3,69=1/1;
 5/5=2,38=5/2;
 7//1,2,3,16;
 1/18=20,19=15,26=3/3(-5);
 2/9=110/2;
 6/7=2,8=2,9=2,10=2,19=2,28=1/1;
 99/9=1/99;
 -------------------
 Title Card Required
 -------------------
 Symbolic Z-matrix:
 Charge =  0 Multiplicity = 1
 C                     1.86203   0.10816  -0.25582 
 C                     2.7714   -0.34607   0.52385 
 C                     2.96123  -1.66349  -0.13004 
 C                     4.25122  -1.74047   0.08096 
 N                     4.86603  -2.75833  -0.66506 
 N                     6.0892   -2.88212  -0.59519 
 C                     7.0031   -3.79148  -0.9867 
 C                     8.32077  -3.59146  -0.94538 
 C                     9.27858  -4.80444  -1.22888 
 C                     10.59262  -4.89599  -0.93917 
 C                     11.22149  -3.64295  -0.60382 
 C                     10.46321  -2.42428  -0.54598 
 C                     8.61429  -2.12685  -0.56845 
 C                     7.41276  -0.81717  -0.4043 
 C                     5.61763   0.00877  -0.57616 
 C                     3.69758   0.43133  -0.66996 
 H                     0.81932  -0.69302  -0.20877 
 H                     3.28876   1.03381   0.8483 
 H                     2.35406  -2.42685  -0.63696 
 H                     4.58652  -0.55791   0.83377 
 H                     6.65714  -4.74453  -1.22496 
 H                     8.82778  -5.69369  -1.66751 
 H                     11.19475  -5.82903  -1.02249 
 H                     12.34621  -3.80702  -0.4833 
 H                     11.19986  -1.61068  -0.5801 
 H                     8.51169  -0.34516  -0.08884 
 H                     6.15721  -1.10478  -0.30904 
 H                     2.43124   1.18649  -0.2433 
 
 Add virtual bond connecting atoms H17        and C1         Dist= 2.49D+00.
 Add virtual bond connecting atoms C2         and H18        Dist= 2.85D+00.
 Add virtual bond connecting atoms H28        and H18        Dist= 2.64D+00.
 Add virtual bond connecting atoms H20        and C4         Dist= 2.72D+00.

 GradGradGradGradGradGradGradGradGradGradGradGradGradGradGradGradGradGrad
 Berny optimization.
 Initialization pass.
                           ----------------------------
                           !    Initial Parameters    !
                           ! (Angstroms and Degrees)  !
 --------------------------                            --------------------------
 ! Name  Definition              Value          Derivative Info.                !
 --------------------------------------------------------------------------------
 ! R1    R(1,2)                  1.2811         estimate D2E/DX2                !
 ! R2    R(1,17)                 1.3158         estimate D2E/DX2                !
 ! R3    R(1,28)                 1.2194         estimate D2E/DX2                !
 ! R4    R(2,3)                  1.483          estimate D2E/DX2                !
 ! R5    R(2,16)                 1.6992         estimate D2E/DX2                !
 ! R6    R(2,18)                 1.509          estimate D2E/DX2                !
 ! R7    R(3,4)                  1.3094         estimate D2E/DX2                !
 ! R8    R(3,19)                 1.0992         estimate D2E/DX2                !
 ! R9    R(4,5)                  1.4038         estimate D2E/DX2                !
 ! R10   R(4,20)                 1.4414         estimate D2E/DX2                !
 ! R11   R(5,6)                  1.2314         estimate D2E/DX2                !
 ! R12   R(6,7)                  1.3474         estimate D2E/DX2                !
 ! R13   R(7,8)                  1.3334         estimate D2E/DX2                !
 ! R14   R(7,21)                 1.0415         estimate D2E/DX2                !
 ! R15   R(8,9)                  1.5713         estimate D2E/DX2                !
 ! R16   R(8,13)                 1.5406         estimate D2E/DX2                !
 ! R17   R(9,10)                 1.3487         estimate D2E/DX2                !
 ! R18   R(9,22)                 1.0892         estimate D2E/DX2                !
 ! R19   R(10,11)                1.4415         estimate D2E/DX2                !
 ! R20   R(10,23)                1.1136         estimate D2E/DX2                !
 ! R21   R(11,12)                1.4365         estimate D2E/DX2                !
 ! R22   R(11,24)                1.143          estimate D2E/DX2                !
 ! R23   R(12,25)                1.0981         estimate D2E/DX2                !
 ! R24   R(13,14)                1.7849         estimate D2E/DX2                !
 ! R25   R(14,26)                1.2369         estimate D2E/DX2                !
 ! R26   R(14,27)                1.2916         estimate D2E/DX2                !
 ! R27   R(15,27)                1.2659         estimate D2E/DX2                !
 ! R28   R(18,28)                1.3965         estimate D2E/DX2                !
 ! A1    A(2,1,17)             108.9573         estimate D2E/DX2                !
 ! A2    A(2,1,28)              88.6217         estimate D2E/DX2                !
 ! A3    A(17,1,28)            155.2287         estimate D2E/DX2                !
 ! A4    A(1,2,3)               97.9031         estimate D2E/DX2                !
 ! A5    A(1,2,16)              78.294          estimate D2E/DX2                !
 ! A6    A(1,2,18)              92.8659         estimate D2E/DX2                !
 ! A7    A(3,2,16)              91.5401         estimate D2E/DX2                !
 ! A8    A(3,2,18)             149.6874         estimate D2E/DX2                !
 ! A9    A(16,2,18)             62.9877         estimate D2E/DX2                !
 ! A10   A(2,3,4)               96.1587         estimate D2E/DX2                !
 ! A11   A(2,3,19)             138.5513         estimate D2E/DX2                !
 ! A12   A(4,3,19)             125.2854         estimate D2E/DX2                !
 ! A13   A(3,4,5)              112.8593         estimate D2E/DX2                !
 ! A14   A(3,4,20)             105.3731         estimate D2E/DX2                !
 ! A15   A(5,4,20)             140.4047         estimate D2E/DX2                !
 ! A16   A(4,5,6)              118.5405         estimate D2E/DX2                !
 ! A17   A(5,6,7)              136.4777         estimate D2E/DX2                !
 ! A18   A(6,7,8)              124.0579         estimate D2E/DX2                !
 ! A19   A(6,7,21)             117.3065         estimate D2E/DX2                !
 ! A20   A(8,7,21)             118.2034         estimate D2E/DX2                !
 ! A21   A(7,8,9)              118.7488         estimate D2E/DX2                !
 ! A22   A(7,8,13)             109.7839         estimate D2E/DX2                !
 ! A23   A(9,8,13)             131.4445         estimate D2E/DX2                !
 ! A24   A(8,9,10)             127.4109         estimate D2E/DX2                !
 ! A25   A(8,9,22)             116.7823         estimate D2E/DX2                !
 ! A26   A(10,9,22)            115.7423         estimate D2E/DX2                !
 ! A27   A(9,10,11)            114.5824         estimate D2E/DX2                !
 ! A28   A(9,10,23)            124.5843         estimate D2E/DX2                !
 ! A29   A(11,10,23)           120.6524         estimate D2E/DX2                !
 ! A30   A(10,11,12)           121.0989         estimate D2E/DX2                !
 ! A31   A(10,11,24)           109.2098         estimate D2E/DX2                !
 ! A32   A(12,11,24)           129.5658         estimate D2E/DX2                !
 ! A33   A(11,12,25)           105.8553         estimate D2E/DX2                !
 ! A34   A(8,13,14)            126.2867         estimate D2E/DX2                !
 ! A35   A(13,14,26)            72.8658         estimate D2E/DX2                !
 ! A36   A(13,14,27)           119.8526         estimate D2E/DX2                !
 ! A37   A(26,14,27)           158.4069         estimate D2E/DX2                !
 ! A38   A(2,18,28)             73.8221         estimate D2E/DX2                !
 ! A39   A(14,27,15)           101.707          estimate D2E/DX2                !
 ! A40   A(1,28,18)            101.4186         estimate D2E/DX2                !
 ! D1    D(17,1,2,3)            60.0008         estimate D2E/DX2                !
 ! D2    D(17,1,2,16)          149.9405         estimate D2E/DX2                !
 ! D3    D(17,1,2,18)         -148.4047         estimate D2E/DX2                !
 ! D4    D(28,1,2,3)          -137.8098         estimate D2E/DX2                !
 ! D5    D(28,1,2,16)          -47.8701         estimate D2E/DX2                !
 ! D6    D(28,1,2,18)           13.7848         estimate D2E/DX2                !
 ! D7    D(2,1,28,18)          -15.2086         estimate D2E/DX2                !
 ! D8    D(17,1,28,18)         121.1288         estimate D2E/DX2                !
 ! D9    D(1,2,3,4)            144.677          estimate D2E/DX2                !
 ! D10   D(1,2,3,19)           -36.1281         estimate D2E/DX2                !
 ! D11   D(16,2,3,4)            66.2828         estimate D2E/DX2                !
 ! D12   D(16,2,3,19)         -114.5223         estimate D2E/DX2                !
 ! D13   D(18,2,3,4)            34.9555         estimate D2E/DX2                !
 ! D14   D(18,2,3,19)         -145.8495         estimate D2E/DX2                !
 ! D15   D(1,2,18,28)          -12.5078         estimate D2E/DX2                !
 ! D16   D(3,2,18,28)           98.4937         estimate D2E/DX2                !
 ! D17   D(16,2,18,28)          62.8051         estimate D2E/DX2                !
 ! D18   D(2,3,4,5)           -167.0549         estimate D2E/DX2                !
 ! D19   D(2,3,4,20)             2.4226         estimate D2E/DX2                !
 ! D20   D(19,3,4,5)            13.598          estimate D2E/DX2                !
 ! D21   D(19,3,4,20)         -176.9246         estimate D2E/DX2                !
 ! D22   D(3,4,5,6)            176.5794         estimate D2E/DX2                !
 ! D23   D(20,4,5,6)            12.6175         estimate D2E/DX2                !
 ! D24   D(4,5,6,7)            169.2906         estimate D2E/DX2                !
 ! D25   D(5,6,7,8)            170.1991         estimate D2E/DX2                !
 ! D26   D(5,6,7,21)           -17.4987         estimate D2E/DX2                !
 ! D27   D(6,7,8,9)            171.0487         estimate D2E/DX2                !
 ! D28   D(6,7,8,13)            -7.4124         estimate D2E/DX2                !
 ! D29   D(21,7,8,9)            -1.1894         estimate D2E/DX2                !
 ! D30   D(21,7,8,13)         -179.6505         estimate D2E/DX2                !
 ! D31   D(7,8,9,10)          -163.3143         estimate D2E/DX2                !
 ! D32   D(7,8,9,22)            13.6223         estimate D2E/DX2                !
 ! D33   D(13,8,9,10)           14.7538         estimate D2E/DX2                !
 ! D34   D(13,8,9,22)         -168.3096         estimate D2E/DX2                !
 ! D35   D(7,8,13,14)           -7.1328         estimate D2E/DX2                !
 ! D36   D(9,8,13,14)          174.6672         estimate D2E/DX2                !
 ! D37   D(8,9,10,11)          -14.3445         estimate D2E/DX2                !
 ! D38   D(8,9,10,23)          170.5356         estimate D2E/DX2                !
 ! D39   D(22,9,10,11)         168.6916         estimate D2E/DX2                !
 ! D40   D(22,9,10,23)          -6.4283         estimate D2E/DX2                !
 ! D41   D(9,10,11,12)           2.1641         estimate D2E/DX2                !
 ! D42   D(9,10,11,24)        -174.1339         estimate D2E/DX2                !
 ! D43   D(23,10,11,12)        177.4944         estimate D2E/DX2                !
 ! D44   D(23,10,11,24)          1.1963         estimate D2E/DX2                !
 ! D45   D(10,11,12,25)       -163.1562         estimate D2E/DX2                !
 ! D46   D(24,11,12,25)         12.3075         estimate D2E/DX2                !
 ! D47   D(8,13,14,26)         176.4637         estimate D2E/DX2                !
 ! D48   D(8,13,14,27)          15.567          estimate D2E/DX2                !
 ! D49   D(13,14,27,15)       -162.9574         estimate D2E/DX2                !
 ! D50   D(26,14,27,15)         75.2357         estimate D2E/DX2                !
 ! D51   D(2,18,28,1)           13.4049         estimate D2E/DX2                !
 --------------------------------------------------------------------------------
 Trust Radius=3.00D-01 FncErr=1.00D-07 GrdErr=1.00D-06 EigMax=2.50D+02 EigMin=1.00D-04
 Number of steps in this run=    129 maximum allowed number of steps=    168.
 GradGradGradGradGradGradGradGradGradGradGradGradGradGradGradGradGradGrad

                          Input orientation:                          
 ---------------------------------------------------------------------
 Center     Atomic      Atomic             Coordinates (Angstroms)
 Number     Number       Type             X           Y           Z
 ---------------------------------------------------------------------
      1          6           0        1.862030    0.108160   -0.255820
      2          6           0        2.771400   -0.346070    0.523850
      3          6           0        2.961230   -1.663490   -0.130040
      4          6           0        4.251220   -1.740470    0.080960
      5          7           0        4.866030   -2.758330   -0.665060
      6          7           0        6.089200   -2.882120   -0.595190
      7          6           0        7.003100   -3.791480   -0.986700
      8          6           0        8.320770   -3.591460   -0.945380
      9          6           0        9.278580   -4.804440   -1.228880
     10          6           0       10.592620   -4.895990   -0.939170
     11          6           0       11.221490   -3.642950   -0.603820
     12          6           0       10.463210   -2.424280   -0.545980
     13          6           0        8.614290   -2.126850   -0.568450
     14          6           0        7.412760   -0.817170   -0.404300
     15          6           0        5.617630    0.008770   -0.576160
     16          6           0        3.697580    0.431330   -0.669960
     17          1           0        0.819320   -0.693020   -0.208770
     18          1           0        3.288760    1.033810    0.848300
     19          1           0        2.354060   -2.426850   -0.636960
     20          1           0        4.586520   -0.557910    0.833770
     21          1           0        6.657140   -4.744530   -1.224960
     22          1           0        8.827780   -5.693690   -1.667510
     23          1           0       11.194750   -5.829030   -1.022490
     24          1           0       12.346210   -3.807020   -0.483300
     25          1           0       11.199860   -1.610680   -0.580100
     26          1           0        8.511690   -0.345160   -0.088840
     27          1           0        6.157210   -1.104780   -0.309040
     28          1           0        2.431240    1.186490   -0.243300
 ---------------------------------------------------------------------
                    Distance matrix (angstroms):
                    1          2          3          4          5
     1  C    0.000000
     2  C    1.281079   0.000000
     3  C    2.088733   1.482971   0.000000
     4  C    3.039586   2.080954   1.309397   0.000000
     5  N    4.172320   3.408809   2.261235   1.403772   0.000000
     6  N    5.189018   4.323378   3.389044   2.266873   1.231402
     7  C    6.493996   5.662146   4.647464   3.594354   2.395395
     8  C    7.475159   6.594445   5.753826   4.587022   3.564816
     9  C    8.949061   8.080379   7.140163   6.031413   4.896433
    10  C   10.086213   9.165898   8.327176   7.156209   6.118706
    11  C   10.089173   9.140300   8.507328   7.257618   6.417022
    12  C    8.970939   8.039119   7.551921   6.280881   5.608404
    13  C    7.119412   6.205132   5.688936   4.428025   3.802309
    14  C    5.629288   4.756640   4.539559   3.329158   3.212776
    15  C    3.770547   3.071963   3.170479   2.314892   2.868736
    16  C    1.909239   1.699218   2.285169   2.363708   3.396944
    17  H    1.315807   2.113699   2.352826   3.599866   4.566133
    18  H    2.027675   1.508972   2.887880   3.035090   4.377027
    19  H    2.610294   2.418946   1.099246   2.141435   2.533903
    20  H    3.008937   1.853534   2.189247   1.441387   2.677025
    21  H    6.890639   6.124032   4.934715   4.064266   2.732499
    22  H    9.174748   8.371310   7.281671   6.295236   5.031571
    23  H   11.087726  10.168916   9.270331   8.133052   7.043412
    24  H   11.193677  10.230812   9.633139   8.373642   7.555520
    25  H    9.500244   8.594003   8.251083   6.981221   6.437524
    26  H    6.667185   5.772895   5.705024   4.486349   4.409791
    27  H    4.463477   3.568341   3.249382   2.046705   2.127939
    28  H    1.219407   1.747274   2.901052   3.461873   4.654856
                    6          7          8          9         10
     6  N    0.000000
     7  C    1.347379   0.000000
     8  C    2.367636   1.333405   0.000000
     9  C    3.777436   2.502508   1.571335   0.000000
    10  C    4.945178   3.755909   2.619759   1.348708   0.000000
    11  C    5.188385   4.238334   2.921214   2.348331   1.441543
    12  C    4.398182   3.746442   2.472221   2.744970   2.506132
    13  C    2.635759   2.354115   1.540556   2.836712   3.423355
    14  C    2.460136   3.058354   2.968827   4.478788   5.199458
    15  C    2.929161   4.065707   4.517183   6.082400   6.995640
    16  C    4.087100   5.372049   6.134540   7.672890   8.717476
    17  H    5.719538   6.960227   8.075599   9.460628  10.663763
    18  H    5.025996   6.359793   7.066225   8.618456   9.576218
    19  H    3.763016   4.857788   6.087123   7.345222   8.605920
    20  H    3.114791   4.428312   5.129564   6.656048   7.618103
    21  H    2.046396   1.041518   2.043380   2.622127   3.948749
    22  H    4.068736   2.722382   2.279891   1.089212   2.069170
    23  H    5.910457   4.660775   3.643134   2.182679   1.113583
    24  H    6.325989   5.366794   4.057604   3.310754   2.113942
    25  H    5.266463   4.747000   3.513699   3.783165   3.360198
    26  H    3.544152   3.867702   3.362822   4.666154   5.075764
    27  H    1.801512   2.897086   3.357007   4.927123   5.868833
    28  H    5.482525   6.799613   7.616317   9.151430  10.202398
                   11         12         13         14         15
    11  C    0.000000
    12  C    1.436486   0.000000
    13  C    3.016173   1.872825   0.000000
    14  C    4.746711   3.450815   1.784904   0.000000
    15  C    6.688727   5.422203   3.679797   1.983483   0.000000
    16  C    8.556480   7.344633   5.543341   3.928344   1.968235
    17  H   10.819579   9.803856   7.933902   6.597507   4.863256
    18  H    9.322497   8.085489   6.352812   4.690683   2.916064
    19  H    8.950492   8.109661   6.267789   5.313722   4.072693
    20  H    7.457008   6.318428   4.544307   3.096396   1.836360
    21  H    4.736305   4.508962   3.333720   4.082720   4.908705
    22  H    3.326683   3.823807   3.738430   5.232440   6.634317
    23  H    2.225971   3.514902   4.535533   6.309069   8.085999
    24  H    1.142996   2.337004   4.093586   5.769261   7.735804
    25  H    2.032524   1.098072   2.636615   3.873331   5.812394
    26  H    4.299260   2.887931   1.847964   1.236914   2.956067
    27  H    5.672401   4.509862   2.673792   1.291588   1.265896
    28  H   10.036033   8.811459   7.022396   5.371789   3.413342
                   16         17         18         19         20
    16  C    0.000000
    17  H    3.124298   0.000000
    18  H    1.683814   3.193348   0.000000
    19  H    3.158374   2.354770   3.880184   0.000000
    20  H    2.007489   3.911130   2.053768   3.261880   0.000000
    21  H    5.988034   7.178267   7.002400   4.922792   5.104275
    22  H    8.051703   9.553536   9.070242   7.324161   7.114838
    23  H    9.773635  11.605614  10.634994   9.480573   8.654427
    24  H    9.633133  11.943264  10.355877  10.088188   8.514939
    25  H    7.775737  10.427636   8.462810   8.883555   6.844240
    26  H    4.910834   7.701165   5.482589   6.523057   4.037751
    27  H    2.922273   5.354687   3.760453   4.039722   2.017957
    28  H    1.534901   2.476295   1.396511   3.635540   2.974600
                   21         22         23         24         25
    21  H    0.000000
    22  H    2.410069   0.000000
    23  H    4.669801   2.457013   0.000000
    24  H    5.813304   4.164280   2.388537   0.000000
    25  H    5.556363   4.845637   4.241487   2.479395   0.000000
    26  H    4.907604   5.585596   6.176030   5.181083   3.011500
    27  H    3.786373   5.480463   6.942936   6.755456   5.075207
    28  H    7.348393   9.501630  11.252723  11.104025   9.210119
                   26         27         28
    26  H    0.000000
    27  H    2.483765   0.000000
    28  H    6.272295   4.374596   0.000000
 Stoichiometry    C14H12N2
 Framework group  C1[X(C14H12N2)]
 Deg. of freedom    78
 Full point group                 C1      NOp   1
 Largest Abelian subgroup         C1      NOp   1
 Largest concise Abelian subgroup C1      NOp   1
                         Standard orientation:                         
 ---------------------------------------------------------------------
 Center     Atomic      Atomic             Coordinates (Angstroms)
 Number     Number       Type             X           Y           Z
 ---------------------------------------------------------------------
      1          6           0       -5.210800    0.018818   -0.209035
      2          6           0       -4.268482    0.111824    0.653838
      3          6           0       -3.472962   -1.059920    0.214104
      4          6           0       -2.299839   -0.536238    0.467205
      5          7           0       -1.243013   -1.266758   -0.098511
      6          7           0       -0.097140   -0.831861    0.020619
      7          6           0        1.149954   -1.289905   -0.203836
      8          6           0        2.244094   -0.529046   -0.160007
      9          6           0        3.651465   -1.224365   -0.230219
     10          6           0        4.845398   -0.693156    0.103482
     11          6           0        4.841668    0.739943    0.259238
     12          6           0        3.631357    1.499274    0.110733
     13          6           0        1.844401    0.950563   -0.004068
     14          6           0        0.187204    1.610003   -0.072761
     15          6           0       -1.765213    1.536287   -0.414577
     16          6           0       -3.663464    1.058725   -0.620789
     17          1           0       -5.807418   -1.145277   -0.066644
     18          1           0       -4.425941    1.607530    0.776591
     19          1           0       -3.644843   -2.069449   -0.185461
     20          1           0       -2.574471    0.758213    1.038668
     21          1           0        1.270192   -2.319760   -0.302327
     22          1           0        3.668061   -2.268735   -0.539086
     23          1           0        5.794923   -1.269992    0.179166
     24          1           0        5.911862    1.102239    0.432055
     25          1           0        3.946504    2.541884   -0.028585
     26          1           0        0.943311    2.551652    0.194736
     27          1           0       -0.825726    0.815697    0.033315
     28          1           0       -5.164068    1.229491   -0.347018
 ---------------------------------------------------------------------
 Rotational constants (GHZ):           1.8589552           0.2302877           0.2083917
 Standard basis: 6-31G(2df,p) (6D, 7F)
 There are   556 symmetry adapted cartesian basis functions of A   symmetry.
 There are   508 symmetry adapted basis functions of A   symmetry.
   508 basis functions,   788 primitive gaussians,   556 cartesian basis functions
    55 alpha electrons       55 beta electrons
       nuclear repulsion energy       923.7037796515 Hartrees.
 NAtoms=   28 NActive=   28 NUniq=   28 SFac= 1.00D+00 NAtFMM=   60 NAOKFM=F Big=F
 Integral buffers will be    131072 words long.
 Raffenetti 2 integral format.
 Two-electron integral symmetry is turned on.
 One-electron integrals computed using PRISM.
 PrsmSu:  requested number of processors reduced to:  12 ShMem   1 Linda.
 NBasis=   508 RedAO= T EigKep=  1.71D-04  NBF=   508
 NBsUse=   508 1.00D-06 EigRej= -1.00D+00 NBFU=   508
 ExpMin= 1.61D-01 ExpMax= 4.17D+03 ExpMxC= 6.27D+02 IAcc=3 IRadAn=         5 AccDes= 0.00D+00
 Harris functional with IExCor=  402 and IRadAn=       5 diagonalized for initial guess.
 HarFok:  IExCor=  402 AccDes= 0.00D+00 IRadAn=         5 IDoV= 1 UseB2=F ITyADJ=14
 ICtDFT=  3500011 ScaDFX=  1.000000  1.000000  1.000000  1.000000
 FoFCou: FMM=F IPFlag=           0 FMFlag=      100000 FMFlg1=           0
         NFxFlg=           0 DoJE=T BraDBF=F KetDBF=T FulRan=T
         wScrn=  0.000000 ICntrl=       500 IOpCl=  0 I1Cent=   200000004 NGrid=           0
         NMat0=    1 NMatS0=      1 NMatT0=    0 NMatD0=    1 NMtDS0=    0 NMtDT0=    0
 Petite list used in FoFCou.
 Requested convergence on RMS density matrix=1.00D-08 within 128 cycles.
 Requested convergence on MAX density matrix=1.00D-06.
 Requested convergence on             energy=1.00D-06.
 No special actions if energy rises.
 Integral accuracy reduced to 1.0D-05 until final iterations.
 Rare condition: small coef for last iteration:  0.000D+00
 EnCoef did   100 forward-backward iterations
 EnCoef did     7 forward-backward iterations
 EnCoef did     7 forward-backward iterations
 Initial convergence to 1.0D-05 achieved.  Increase integral accuracy.
 SCF Done:  E(RB3LYP) =  -648.907170355     A.U. after   32 cycles
            NFock= 32  Conv=0.67D-08     -V/T= 2.0087

 **********************************************************************

            Population analysis using the SCF density.

 **********************************************************************

 Orbital symmetries:
       Occupied  (A) (A) (A) (A) (A) (A) (A) (A) (A) (A) (A) (A)
                 (A) (A) (A) (A) (A) (A) (A) (A) (A) (A) (A) (A)
                 (A) (A) (A) (A) (A) (A) (A) (A) (A) (A) (A) (A)
                 (A) (A) (A) (A) (A) (A) (A) (A) (A) (A) (A) (A)
                 (A) (A) (A) (A) (A) (A) (A)
       Virtual   (A) (A) (A) (A) (A) (A) (A) (A) (A) (A) (A) (A)
                 (A) (A) (A) (A) (A) (A) (A) (A) (A) (A) (A) (A)
                 (A) (A) (A) (A) (A) (A) (A) (A) (A) (A) (A) (A)
                 (A) (A) (A) (A) (A) (A) (A) (A) (A) (A) (A) (A)
                 (A) (A) (A) (A) (A) (A) (A) (A) (A) (A) (A) (A)
                 (A) (A) (A) (A) (A) (A) (A) (A) (A) (A) (A) (A)
                 (A) (A) (A) (A) (A) (A) (A) (A) (A) (A) (A) (A)
                 (A) (A) (A) (A) (A) (A) (A) (A) (A) (A) (A) (A)
                 (A) (A) (A) (A) (A) (A) (A) (A) (A) (A) (A) (A)
                 (A) (A) (A) (A) (A) (A) (A) (A) (A) (A) (A) (A)
                 (A) (A) (A) (A) (A) (A) (A) (A) (A) (A) (A) (A)
                 (A) (A) (A) (A) (A) (A) (A) (A) (A) (A) (A) (A)
                 (A) (A) (A) (A) (A) (A) (A) (A) (A) (A) (A) (A)
                 (A) (A) (A) (A) (A) (A) (A) (A) (A) (A) (A) (A)
                 (A) (A) (A) (A) (A) (A) (A) (A) (A) (A) (A) (A)
                 (A) (A) (A) (A) (A) (A) (A) (A) (A) (A) (A) (A)
                 (A) (A) (A) (A) (A) (A) (A) (A) (A) (A) (A) (A)
                 (A) (A) (A) (A) (A) (A) (A) (A) (A) (A) (A) (A)
                 (A) (A) (A) (A) (A) (A) (A) (A) (A) (A) (A) (A)
                 (A) (A) (A) (A) (A) (A) (A) (A) (A) (A) (A) (A)
                 (A) (A) (A) (A) (A) (A) (A) (A) (A) (A) (A) (A)
                 (A) (A) (A) (A) (A) (A) (A) (A) (A) (A) (A) (A)
                 (A) (A) (A) (A) (A) (A) (A) (A) (A) (A) (A) (A)
                 (A) (A) (A) (A) (A) (A) (A) (A) (A) (A) (A) (A)
                 (A) (A) (A) (A) (A) (A) (A) (A) (A) (A) (A) (A)
                 (A) (A) (A) (A) (A) (A) (A) (A) (A) (A) (A) (A)
                 (A) (A) (A) (A) (A) (A) (A) (A) (A) (A) (A) (A)
                 (A) (A) (A) (A) (A) (A) (A) (A) (A) (A) (A) (A)
                 (A) (A) (A) (A) (A) (A) (A) (A) (A) (A) (A) (A)
                 (A) (A) (A) (A) (A) (A) (A) (A) (A) (A) (A) (A)
                 (A) (A) (A) (A) (A) (A) (A) (A) (A) (A) (A) (A)
                 (A) (A) (A) (A) (A) (A) (A) (A) (A) (A) (A) (A)
                 (A) (A) (A) (A) (A) (A) (A) (A) (A) (A) (A) (A)
                 (A) (A) (A) (A) (A) (A) (A) (A) (A) (A) (A) (A)
                 (A) (A) (A) (A) (A) (A) (A) (A) (A) (A) (A) (A)
                 (A) (A) (A) (A) (A) (A) (A) (A) (A) (A) (A) (A)
                 (A) (A) (A) (A) (A) (A) (A) (A) (A) (A) (A) (A)
                 (A) (A) (A) (A) (A) (A) (A) (A) (A)
 The electronic state is 1-A.
 Alpha  occ. eigenvalues --  -14.40795 -14.39619 -10.28429 -10.26505 -10.25376
 Alpha  occ. eigenvalues --  -10.25310 -10.25211 -10.24495 -10.22689 -10.22492
 Alpha  occ. eigenvalues --  -10.22462 -10.22447 -10.20986 -10.20959 -10.20883
 Alpha  occ. eigenvalues --  -10.20105  -1.06257  -0.93456  -0.86727  -0.82350
 Alpha  occ. eigenvalues --   -0.79481  -0.72642  -0.72098  -0.69969  -0.66115
 Alpha  occ. eigenvalues --   -0.63037  -0.61345  -0.59146  -0.55993  -0.54077
 Alpha  occ. eigenvalues --   -0.51855  -0.50455  -0.48422  -0.47860  -0.46751
 Alpha  occ. eigenvalues --   -0.45962  -0.44552  -0.43490  -0.41694  -0.38995
 Alpha  occ. eigenvalues --   -0.37612  -0.36807  -0.36266  -0.35634  -0.34340
 Alpha  occ. eigenvalues --   -0.32055  -0.30891  -0.29304  -0.27675  -0.25032
 Alpha  occ. eigenvalues --   -0.23988  -0.21908  -0.21502  -0.20243  -0.17309
 Alpha virt. eigenvalues --   -0.12709  -0.12162  -0.08554  -0.08197  -0.04577
 Alpha virt. eigenvalues --   -0.02654  -0.01608  -0.00652   0.04268   0.04895
 Alpha virt. eigenvalues --    0.05190   0.06648   0.08862   0.09175   0.09822
 Alpha virt. eigenvalues --    0.11657   0.12463   0.12825   0.13307   0.15638
 Alpha virt. eigenvalues --    0.16513   0.17516   0.18925   0.20204   0.20891
 Alpha virt. eigenvalues --    0.22904   0.23638   0.27354   0.27949   0.30196
 Alpha virt. eigenvalues --    0.31111   0.33200   0.35122   0.36651   0.38322
 Alpha virt. eigenvalues --    0.39075   0.39633   0.41292   0.42537   0.43186
 Alpha virt. eigenvalues --    0.44258   0.47121   0.47484   0.48571   0.49075
 Alpha virt. eigenvalues --    0.49867   0.50441   0.50799   0.51634   0.52223
 Alpha virt. eigenvalues --    0.52932   0.53395   0.54129   0.55126   0.55506
 Alpha virt. eigenvalues --    0.55832   0.56023   0.57180   0.57951   0.58180
 Alpha virt. eigenvalues --    0.58579   0.59502   0.60374   0.62754   0.62913
 Alpha virt. eigenvalues --    0.63510   0.63880   0.64404   0.64683   0.66205
 Alpha virt. eigenvalues --    0.66709   0.67768   0.68362   0.69619   0.70324
 Alpha virt. eigenvalues --    0.70840   0.71809   0.73066   0.73559   0.73958
 Alpha virt. eigenvalues --    0.74876   0.75392   0.75902   0.76766   0.77311
 Alpha virt. eigenvalues --    0.77537   0.78663   0.79277   0.80686   0.81528
 Alpha virt. eigenvalues --    0.82324   0.82714   0.83301   0.83497   0.84794
 Alpha virt. eigenvalues --    0.85393   0.86496   0.87655   0.88393   0.89058
 Alpha virt. eigenvalues --    0.89443   0.91199   0.92183   0.92988   0.94350
 Alpha virt. eigenvalues --    0.95204   0.96491   0.96935   0.97798   1.00461
 Alpha virt. eigenvalues --    1.01355   1.01776   1.03068   1.04122   1.04774
 Alpha virt. eigenvalues --    1.05722   1.07952   1.09897   1.11193   1.13289
 Alpha virt. eigenvalues --    1.14356   1.15744   1.16980   1.17594   1.19375
 Alpha virt. eigenvalues --    1.19700   1.20520   1.21204   1.22539   1.24576
 Alpha virt. eigenvalues --    1.25421   1.26835   1.28965   1.30571   1.31924
 Alpha virt. eigenvalues --    1.33227   1.34196   1.35416   1.36298   1.37749
 Alpha virt. eigenvalues --    1.38978   1.39789   1.40272   1.42570   1.42871
 Alpha virt. eigenvalues --    1.43496   1.44854   1.45135   1.46672   1.47789
 Alpha virt. eigenvalues --    1.50673   1.50900   1.52236   1.52823   1.54286
 Alpha virt. eigenvalues --    1.55452   1.57585   1.58307   1.59746   1.60817
 Alpha virt. eigenvalues --    1.62177   1.62893   1.65280   1.66282   1.68256
 Alpha virt. eigenvalues --    1.69524   1.69825   1.70741   1.72169   1.72711
 Alpha virt. eigenvalues --    1.74443   1.74923   1.76485   1.78981   1.79512
 Alpha virt. eigenvalues --    1.82030   1.82624   1.85811   1.86072   1.87976
 Alpha virt. eigenvalues --    1.89339   1.90137   1.91745   1.96610   1.97984
 Alpha virt. eigenvalues --    2.00720   2.02286   2.05356   2.06283   2.08275
 Alpha virt. eigenvalues --    2.09326   2.10162   2.13351   2.14399   2.15408
 Alpha virt. eigenvalues --    2.17612   2.19321   2.21550   2.21852   2.26292
 Alpha virt. eigenvalues --    2.27775   2.29741   2.31524   2.32439   2.33417
 Alpha virt. eigenvalues --    2.35333   2.35984   2.38029   2.40399   2.42151
 Alpha virt. eigenvalues --    2.42910   2.44809   2.47298   2.48308   2.50153
 Alpha virt. eigenvalues --    2.51809   2.54296   2.56133   2.58565   2.59606
 Alpha virt. eigenvalues --    2.60955   2.61526   2.63744   2.65318   2.67094
 Alpha virt. eigenvalues --    2.67940   2.68944   2.71801   2.72015   2.73851
 Alpha virt. eigenvalues --    2.75408   2.78041   2.79235   2.79943   2.80798
 Alpha virt. eigenvalues --    2.83678   2.84300   2.85815   2.86916   2.88286
 Alpha virt. eigenvalues --    2.89854   2.90200   2.90730   2.91646   2.92829
 Alpha virt. eigenvalues --    2.93098   2.94880   2.95649   2.97464   2.98565
 Alpha virt. eigenvalues --    2.99506   3.01132   3.02650   3.04573   3.05207
 Alpha virt. eigenvalues --    3.05776   3.07120   3.07653   3.08068   3.10808
 Alpha virt. eigenvalues --    3.11882   3.12602   3.13952   3.14892   3.16214
 Alpha virt. eigenvalues --    3.16573   3.18470   3.19021   3.20114   3.20833
 Alpha virt. eigenvalues --    3.21472   3.22313   3.22728   3.24325   3.25074
 Alpha virt. eigenvalues --    3.26770   3.27693   3.28849   3.30264   3.31117
 Alpha virt. eigenvalues --    3.31649   3.33629   3.34832   3.35312   3.36660
 Alpha virt. eigenvalues --    3.38278   3.38812   3.40457   3.42358   3.43529
 Alpha virt. eigenvalues --    3.44638   3.45197   3.47385   3.49023   3.49615
 Alpha virt. eigenvalues --    3.50720   3.53227   3.54541   3.55126   3.56051
 Alpha virt. eigenvalues --    3.57024   3.58767   3.59136   3.60881   3.62421
 Alpha virt. eigenvalues --    3.63330   3.64748   3.67255   3.68497   3.69794
 Alpha virt. eigenvalues --    3.70467   3.72129   3.73904   3.75411   3.76036
 Alpha virt. eigenvalues --    3.80716   3.81847   3.82373   3.83734   3.85150
 Alpha virt. eigenvalues --    3.86800   3.89574   3.92432   3.95071   3.96020
 Alpha virt. eigenvalues --    3.98521   3.99216   4.01157   4.02030   4.04705
 Alpha virt. eigenvalues --    4.05487   4.08875   4.09590   4.12066   4.15110
 Alpha virt. eigenvalues --    4.16203   4.17351   4.19875   4.20268   4.21229
 Alpha virt. eigenvalues --    4.21473   4.24122   4.24911   4.27781   4.28996
 Alpha virt. eigenvalues --    4.30473   4.31218   4.33053   4.35652   4.37970
 Alpha virt. eigenvalues --    4.38788   4.38930   4.40238   4.40721   4.41432
 Alpha virt. eigenvalues --    4.42698   4.43396   4.45192   4.47016   4.47481
 Alpha virt. eigenvalues --    4.49005   4.49569   4.51178   4.52456   4.53706
 Alpha virt. eigenvalues --    4.54436   4.54616   4.55955   4.57024   4.57686
 Alpha virt. eigenvalues --    4.58567   4.59246   4.60596   4.62375   4.63503
 Alpha virt. eigenvalues --    4.64160   4.65328   4.66122   4.67449   4.68019
 Alpha virt. eigenvalues --    4.71640   4.72527   4.72768   4.73791   4.75950
 Alpha virt. eigenvalues --    4.78023   4.79401   4.81175   4.84605   4.85368
 Alpha virt. eigenvalues --    4.86222   4.87863   4.89206   4.91662   4.92852
 Alpha virt. eigenvalues --    4.95601   4.96419   4.98432   5.01695   5.02277
 Alpha virt. eigenvalues --    5.04368   5.05371   5.08072   5.09260   5.09654
 Alpha virt. eigenvalues --    5.11177   5.13207   5.15686   5.18600   5.19679
 Alpha virt. eigenvalues --    5.22491   5.24645   5.26428   5.27510   5.28940
 Alpha virt. eigenvalues --    5.32649   5.35089   5.36528   5.38479   5.40535
 Alpha virt. eigenvalues --    5.42122   5.46367   5.52144   5.53504   5.56212
 Alpha virt. eigenvalues --    5.58463   5.63513   5.66732   5.72488   5.78793
 Alpha virt. eigenvalues --    5.80931   5.88040   5.92678   6.12443   6.26732
 Alpha virt. eigenvalues --    9.61418   9.68312  10.02479  10.24825  10.39013
 Alpha virt. eigenvalues --   10.50163  10.68665  10.80569  11.07188  11.15584
 Alpha virt. eigenvalues --   11.31312  11.36656  11.48131  11.73644  11.90789
 Alpha virt. eigenvalues --   12.09136  12.33539  18.28154
          Condensed to atoms (all electrons):
               1          2          3          4          5          6
     1  C    5.443005   0.579504  -0.114294  -0.006576  -0.000554   0.000016
     2  C    0.579504   5.324348   0.377452  -0.049281   0.000585   0.000649
     3  C   -0.114294   0.377452   5.099272   0.545654  -0.037784   0.002164
     4  C   -0.006576  -0.049281   0.545654   4.854252   0.449114  -0.097703
     5  N   -0.000554   0.000585  -0.037784   0.449114   6.420451   0.467166
     6  N    0.000016   0.000649   0.002164  -0.097703   0.467166   6.320563
     7  C   -0.000000   0.000016  -0.000496   0.005507  -0.071778   0.508188
     8  C   -0.000000  -0.000001   0.000013  -0.000199   0.005039   0.000523
     9  C   -0.000000   0.000000  -0.000000   0.000002  -0.000022   0.003151
    10  C   -0.000000   0.000000   0.000000  -0.000000   0.000000  -0.000108
    11  C    0.000000   0.000000  -0.000000  -0.000000  -0.000000   0.000013
    12  C   -0.000000  -0.000000   0.000000   0.000001  -0.000010   0.000562
    13  C    0.000000   0.000001  -0.000008  -0.000098   0.000705  -0.039188
    14  C   -0.000021  -0.000259   0.001706  -0.002737  -0.009350   0.016756
    15  C    0.000964  -0.003476  -0.019034  -0.017216  -0.000635  -0.028600
    16  C   -0.104879   0.086517  -0.066043  -0.050980  -0.005932   0.002058
    17  H    0.315699  -0.042400  -0.022372   0.002454  -0.000047  -0.000000
    18  H   -0.116445   0.012712   0.001493   0.002630   0.000299  -0.000081
    19  H   -0.002581  -0.043848   0.355744  -0.025901  -0.000192   0.000962
    20  H    0.007479  -0.020000  -0.028264   0.248721  -0.025761   0.008618
    21  H    0.000000   0.000002   0.000036   0.000363  -0.004875  -0.057955
    22  H   -0.000000  -0.000000   0.000000   0.000000  -0.000004   0.000090
    23  H    0.000000   0.000000  -0.000000   0.000000  -0.000000   0.000000
    24  H   -0.000000  -0.000000   0.000000   0.000000  -0.000000   0.000000
    25  H    0.000000   0.000000  -0.000000   0.000000   0.000000  -0.000005
    26  H    0.000000   0.000004  -0.000006  -0.000026  -0.000079   0.001272
    27  H   -0.000153  -0.001530  -0.002702   0.018990  -0.012632   0.007945
    28  H    0.193962  -0.101379   0.021498   0.004378   0.000078  -0.000011
               7          8          9         10         11         12
     1  C   -0.000000  -0.000000  -0.000000  -0.000000   0.000000  -0.000000
     2  C    0.000016  -0.000001   0.000000   0.000000   0.000000  -0.000000
     3  C   -0.000496   0.000013  -0.000000   0.000000  -0.000000   0.000000
     4  C    0.005507  -0.000199   0.000002  -0.000000  -0.000000   0.000001
     5  N   -0.071778   0.005039  -0.000022   0.000000  -0.000000  -0.000010
     6  N    0.508188   0.000523   0.003151  -0.000108   0.000013   0.000562
     7  C    4.792555   0.477439  -0.036329   0.000211   0.001441   0.002111
     8  C    0.477439   4.628239   0.375354   0.021976  -0.036008  -0.009280
     9  C   -0.036329   0.375354   4.953508   0.610209   0.007821  -0.050130
    10  C    0.000211   0.021976   0.610209   4.718246   0.454142  -0.006406
    11  C    0.001441  -0.036008   0.007821   0.454142   4.808836   0.574965
    12  C    0.002111  -0.009280  -0.050130  -0.006406   0.574965   5.135170
    13  C   -0.020350   0.430302  -0.042487  -0.007526  -0.006618   0.291185
    14  C   -0.017512  -0.008118   0.001441   0.000036   0.000053  -0.013413
    15  C    0.000132   0.000856   0.000000  -0.000000   0.000000  -0.000027
    16  C    0.000042  -0.000003   0.000000   0.000000  -0.000000   0.000000
    17  H    0.000000   0.000000  -0.000000  -0.000000   0.000000  -0.000000
    18  H   -0.000001   0.000000   0.000000  -0.000000   0.000000  -0.000000
    19  H    0.000015  -0.000002  -0.000000  -0.000000   0.000000   0.000000
    20  H    0.000223  -0.000081  -0.000000  -0.000000  -0.000000   0.000001
    21  H    0.339039  -0.048611  -0.015147   0.000546  -0.000084  -0.000112
    22  H   -0.005836  -0.047064   0.365316  -0.054828   0.006843   0.000534
    23  H   -0.000083   0.003916  -0.039288   0.371633  -0.048750   0.005236
    24  H    0.000009   0.000816   0.003116  -0.044113   0.358728  -0.037800
    25  H   -0.000182  -0.000014   0.001995   0.003572  -0.040067   0.336050
    26  H    0.001052   0.000468  -0.000141  -0.000003   0.000171  -0.001596
    27  H   -0.006781   0.003171  -0.000011  -0.000000   0.000001   0.000105
    28  H   -0.000000   0.000000   0.000000   0.000000   0.000000  -0.000000
              13         14         15         16         17         18
     1  C    0.000000  -0.000021   0.000964  -0.104879   0.315699  -0.116445
     2  C    0.000001  -0.000259  -0.003476   0.086517  -0.042400   0.012712
     3  C   -0.000008   0.001706  -0.019034  -0.066043  -0.022372   0.001493
     4  C   -0.000098  -0.002737  -0.017216  -0.050980   0.002454   0.002630
     5  N    0.000705  -0.009350  -0.000635  -0.005932  -0.000047   0.000299
     6  N   -0.039188   0.016756  -0.028600   0.002058  -0.000000  -0.000081
     7  C   -0.020350  -0.017512   0.000132   0.000042   0.000000  -0.000001
     8  C    0.430302  -0.008118   0.000856  -0.000003   0.000000   0.000000
     9  C   -0.042487   0.001441   0.000000   0.000000  -0.000000   0.000000
    10  C   -0.007526   0.000036  -0.000000   0.000000  -0.000000  -0.000000
    11  C   -0.006618   0.000053   0.000000  -0.000000   0.000000   0.000000
    12  C    0.291185  -0.013413  -0.000027   0.000000  -0.000000  -0.000000
    13  C    5.277199   0.312217  -0.001087  -0.000015  -0.000000   0.000001
    14  C    0.312217   5.760980  -0.030134   0.001197  -0.000000  -0.000140
    15  C   -0.001087  -0.030134   6.155535   0.087737  -0.000023   0.005247
    16  C   -0.000015   0.001197   0.087737   6.044519   0.007964   0.152482
    17  H   -0.000000  -0.000000  -0.000023   0.007964   0.607789   0.005082
    18  H    0.000001  -0.000140   0.005247   0.152482   0.005082   0.708129
    19  H    0.000000   0.000018  -0.000439   0.008838  -0.003461  -0.000853
    20  H    0.000009   0.015782  -0.038669  -0.020935  -0.000579  -0.019708
    21  H    0.010712   0.000037  -0.000121   0.000002  -0.000000  -0.000000
    22  H    0.003075  -0.000023  -0.000000   0.000000   0.000000  -0.000000
    23  H   -0.000010   0.000000  -0.000000   0.000000  -0.000000   0.000000
    24  H    0.000945  -0.000005  -0.000000   0.000000  -0.000000  -0.000000
    25  H   -0.025316   0.000179   0.000000   0.000000   0.000000   0.000000
    26  H   -0.065486   0.245438  -0.001561  -0.000013   0.000000  -0.000003
    27  H   -0.009179   0.069370   0.151100  -0.002577   0.000005   0.000700
    28  H    0.000000  -0.000021   0.001072   0.028703  -0.012174   0.077106
              19         20         21         22         23         24
     1  C   -0.002581   0.007479   0.000000  -0.000000   0.000000  -0.000000
     2  C   -0.043848  -0.020000   0.000002  -0.000000   0.000000  -0.000000
     3  C    0.355744  -0.028264   0.000036   0.000000  -0.000000   0.000000
     4  C   -0.025901   0.248721   0.000363   0.000000   0.000000   0.000000
     5  N   -0.000192  -0.025761  -0.004875  -0.000004  -0.000000  -0.000000
     6  N    0.000962   0.008618  -0.057955   0.000090   0.000000   0.000000
     7  C    0.000015   0.000223   0.339039  -0.005836  -0.000083   0.000009
     8  C   -0.000002  -0.000081  -0.048611  -0.047064   0.003916   0.000816
     9  C   -0.000000  -0.000000  -0.015147   0.365316  -0.039288   0.003116
    10  C   -0.000000  -0.000000   0.000546  -0.054828   0.371633  -0.044113
    11  C    0.000000  -0.000000  -0.000084   0.006843  -0.048750   0.358728
    12  C    0.000000   0.000001  -0.000112   0.000534   0.005236  -0.037800
    13  C    0.000000   0.000009   0.010712   0.003075  -0.000010   0.000945
    14  C    0.000018   0.015782   0.000037  -0.000023   0.000000  -0.000005
    15  C   -0.000439  -0.038669  -0.000121  -0.000000  -0.000000  -0.000000
    16  C    0.008838  -0.020935   0.000002   0.000000   0.000000   0.000000
    17  H   -0.003461  -0.000579  -0.000000   0.000000  -0.000000  -0.000000
    18  H   -0.000853  -0.019708  -0.000000  -0.000000   0.000000  -0.000000
    19  H    0.565115   0.004642   0.000015   0.000000  -0.000000   0.000000
    20  H    0.004642   0.765792   0.000023   0.000000   0.000000   0.000000
    21  H    0.000015   0.000023   0.669029   0.006903  -0.000008  -0.000001
    22  H    0.000000   0.000000   0.006903   0.635352  -0.007112  -0.000384
    23  H   -0.000000   0.000000  -0.000008  -0.007112   0.606396  -0.004437
    24  H    0.000000   0.000000  -0.000001  -0.000384  -0.004437   0.618467
    25  H   -0.000000  -0.000000   0.000004   0.000016  -0.000210  -0.006734
    26  H   -0.000000  -0.000600   0.000022   0.000002  -0.000000  -0.000003
    27  H   -0.000154  -0.018512   0.000091   0.000001  -0.000000   0.000000
    28  H   -0.000994  -0.000290  -0.000000  -0.000000   0.000000  -0.000000
              25         26         27         28
     1  C    0.000000   0.000000  -0.000153   0.193962
     2  C    0.000000   0.000004  -0.001530  -0.101379
     3  C   -0.000000  -0.000006  -0.002702   0.021498
     4  C    0.000000  -0.000026   0.018990   0.004378
     5  N    0.000000  -0.000079  -0.012632   0.000078
     6  N   -0.000005   0.001272   0.007945  -0.000011
     7  C   -0.000182   0.001052  -0.006781  -0.000000
     8  C   -0.000014   0.000468   0.003171   0.000000
     9  C    0.001995  -0.000141  -0.000011   0.000000
    10  C    0.003572  -0.000003  -0.000000   0.000000
    11  C   -0.040067   0.000171   0.000001   0.000000
    12  C    0.336050  -0.001596   0.000105  -0.000000
    13  C   -0.025316  -0.065486  -0.009179   0.000000
    14  C    0.000179   0.245438   0.069370  -0.000021
    15  C    0.000000  -0.001561   0.151100   0.001072
    16  C    0.000000  -0.000013  -0.002577   0.028703
    17  H    0.000000   0.000000   0.000005  -0.012174
    18  H    0.000000  -0.000003   0.000700   0.077106
    19  H   -0.000000  -0.000000  -0.000154  -0.000994
    20  H   -0.000000  -0.000600  -0.018512  -0.000290
    21  H    0.000004   0.000022   0.000091  -0.000000
    22  H    0.000016   0.000002   0.000001  -0.000000
    23  H   -0.000210  -0.000000  -0.000000   0.000000
    24  H   -0.006734  -0.000003   0.000000  -0.000000
    25  H    0.622101   0.001892  -0.000003  -0.000000
    26  H    0.001892   0.678083   0.001230  -0.000000
    27  H   -0.000003   0.001230   0.445002   0.000155
    28  H   -0.000000  -0.000000   0.000155   0.625165
 Mulliken charges:
               1
     1  C   -0.195127
     2  C   -0.119614
     3  C   -0.114030
     4  C    0.118651
     5  N   -0.173781
     6  N   -0.117043
     7  C    0.031370
     8  C    0.201267
     9  C   -0.138358
    10  C   -0.067589
    11  C   -0.081486
    12  C   -0.227146
    13  C   -0.108978
    14  C   -0.343479
    15  C   -0.261622
    16  C   -0.168682
    17  H    0.142063
    18  H    0.171351
    19  H    0.143078
    20  H    0.122109
    21  H    0.100091
    22  H    0.097119
    23  H    0.112716
    24  H    0.111395
    25  H    0.106721
    26  H    0.139883
    27  H    0.356368
    28  H    0.162753
 Sum of Mulliken charges =  -0.00000
 Mulliken charges with hydrogens summed into heavy atoms:
               1
     1  C    0.109688
     2  C    0.051738
     3  C    0.029048
     4  C    0.240760
     5  N   -0.173781
     6  N   -0.117043
     7  C    0.131461
     8  C    0.201267
     9  C   -0.041239
    10  C    0.045127
    11  C    0.029908
    12  C   -0.120425
    13  C   -0.108978
    14  C   -0.203596
    15  C    0.094746
    16  C   -0.168682
 Electronic spatial extent (au):  <R**2>=           4988.3271
 Charge=             -0.0000 electrons
 Dipole moment (field-independent basis, Debye):
    X=             -0.3970    Y=             -3.4780    Z=              1.0861  Tot=              3.6652
 Quadrupole moment (field-independent basis, Debye-Ang):
   XX=            -67.7667   YY=            -94.6282   ZZ=           -100.4811
   XY=              4.3797   XZ=             -3.8947   YZ=              3.3720
 Traceless Quadrupole moment (field-independent basis, Debye-Ang):
   XX=             19.8586   YY=             -7.0029   ZZ=            -12.8558
   XY=              4.3797   XZ=             -3.8947   YZ=              3.3720
 Octapole moment (field-independent basis, Debye-Ang**2):
  XXX=             26.0025  YYY=            -38.2509  ZZZ=              0.9719  XYY=             17.0569
  XXY=            -43.5823  XXZ=             21.8275  XZZ=              1.2229  YZZ=             -7.7082
  YYZ=              2.9916  XYZ=             -7.8509
 Hexadecapole moment (field-independent basis, Debye-Ang**3):
 XXXX=          -5238.2451 YYYY=           -843.0572 ZZZZ=           -169.5419 XXXY=            124.1010
 XXXZ=            -43.4178 YYYX=             62.3271 YYYZ=             16.9780 ZZZX=             -7.0221
 ZZZY=              4.8365 XXYY=          -1088.8140 XXZZ=          -1135.9019 YYZZ=           -176.4282
 XXYZ=             44.0098 YYXZ=            -22.3464 ZZXY=              0.4629
 N-N= 9.237037796515D+02 E-N=-3.351803462842D+03  KE= 6.433273436645D+02
 PrsmSu:  requested number of processors reduced to:  13 ShMem   1 Linda.
 Calling FoFJK, ICntrl=      2127 FMM=F ISym2X=0 I1Cent= 0 IOpClX= 0 NMat=1 NMatS=1 NMatT=0.
 ***** Axes restored to original set *****
 -------------------------------------------------------------------
 Center     Atomic                   Forces (Hartrees/Bohr)
 Number     Number              X              Y              Z
 -------------------------------------------------------------------
      1        6          -0.155434365    0.031991194    0.014953241
      2        6           0.007185032   -0.065528017   -0.010930989
      3        6          -0.019015570   -0.047310811    0.063490856
      4        6           0.056407689   -0.029480048    0.014426222
      5        7           0.003476060    0.010289625   -0.001968837
      6        7           0.045738994   -0.021682159    0.009463635
      7        6          -0.079365704   -0.003124873    0.002894744
      8        6           0.065531854    0.045469568    0.001072223
      9        6          -0.042579324    0.016556886    0.008379348
     10        6          -0.001337200    0.020528886    0.004127356
     11        6          -0.024170173    0.011747689    0.002686454
     12        6           0.009370147    0.005975972    0.004861923
     13        6           0.042788282   -0.069470425   -0.034171441
     14        6           0.167818823   -0.022324003   -0.003427320
     15        6           0.019311539   -0.029507546   -0.002690169
     16        6           0.025025709    0.076994286    0.056521963
     17        1           0.052049964    0.055083935   -0.028610172
     18        1           0.036378211   -0.010224905   -0.048753482
     19        1           0.001667515    0.014663769    0.002396426
     20        1           0.013794039   -0.070943121   -0.018269901
     21        1          -0.018252270   -0.036402131   -0.005345290
     22        1          -0.012012496    0.003973474    0.005203844
     23        1          -0.013535202    0.015201591   -0.002589174
     24        1          -0.027797250    0.029103367   -0.002319556
     25        1          -0.018299782    0.010877370    0.009636686
     26        1          -0.063899287    0.016275865    0.007845962
     27        1          -0.028840832    0.013313451   -0.008448145
     28        1          -0.042004403    0.027951108   -0.040436406
 -------------------------------------------------------------------
 Cartesian Forces:  Max     0.167818823 RMS     0.040454549

 GradGradGradGradGradGradGradGradGradGradGradGradGradGradGradGradGradGrad
 Berny optimization.
 FormGI is forming the generalized inverse of G from B-inverse, IUseBI=4.
 Internal  Forces:  Max     0.334185955 RMS     0.070295475
 Search for a local minimum.
 Step number   1 out of a maximum of  129
 All quantities printed in internal units (Hartrees-Bohrs-Radians)
 Mixed Optimization -- RFO/linear search
 Second derivative matrix not updated -- first step.
 ITU=  0
     Eigenvalues ---    0.00230   0.00230   0.00230   0.00230   0.00991
     Eigenvalues ---    0.01072   0.01183   0.01492   0.01539   0.01582
     Eigenvalues ---    0.01606   0.01642   0.01651   0.01691   0.01791
     Eigenvalues ---    0.02195   0.02388   0.02566   0.02767   0.02820
     Eigenvalues ---    0.02970   0.03045   0.03287   0.03525   0.07534
     Eigenvalues ---    0.08477   0.09732   0.11586   0.12240   0.12661
     Eigenvalues ---    0.12996   0.14175   0.14477   0.15726   0.15955
     Eigenvalues ---    0.15960   0.15982   0.15990   0.15998   0.16000
     Eigenvalues ---    0.16000   0.17193   0.17830   0.18044   0.19028
     Eigenvalues ---    0.20419   0.21962   0.21997   0.22000   0.22004
     Eigenvalues ---    0.22005   0.22007   0.22023   0.22156   0.24991
     Eigenvalues ---    0.24996   0.25000   0.25000   0.25000   0.25000
     Eigenvalues ---    0.25914   0.28470   0.29342   0.32224   0.33766
     Eigenvalues ---    0.33896   0.34232   0.34904   0.39375   0.40071
     Eigenvalues ---    0.41075   0.45001   0.55297   0.55583   0.58709
     Eigenvalues ---    0.63768   0.64650   0.90505
 RFO step:  Lambda=-6.59108876D-01 EMin= 2.30000000D-03
 Linear search not attempted -- first point.
 Maximum step size (   0.300) exceeded in Quadratic search.
    -- Step size scaled by   0.367
 Iteration  1 RMS(Cart)=  0.22731682 RMS(Int)=  0.01228001
 Iteration  2 RMS(Cart)=  0.07837836 RMS(Int)=  0.00120628
 Iteration  3 RMS(Cart)=  0.00214799 RMS(Int)=  0.00007127
 Iteration  4 RMS(Cart)=  0.00000226 RMS(Int)=  0.00007127
 Iteration  5 RMS(Cart)=  0.00000000 RMS(Int)=  0.00007127
 Variable       Old X    -DE/DX   Delta X   Delta X   Delta X     New X
                                 (Linear)    (Quad)   (Total)
    R1        2.42089   0.14483   0.00000   0.04064   0.04066   2.46154
    R2        2.48651  -0.07581   0.00000  -0.03322  -0.03322   2.45330
    R3        2.30434  -0.00314   0.00000  -0.00204  -0.00209   2.30226
    R4        2.80241   0.08787   0.00000   0.03220   0.03220   2.83461
    R5        3.21106   0.00916   0.00000   0.00400   0.00400   3.21506
    R6        2.85154   0.01085   0.00000   0.00560   0.00567   2.85721
    R7        2.47440   0.09628   0.00000   0.02706   0.02706   2.50146
    R8        2.07727  -0.01221   0.00000  -0.00449  -0.00449   2.07278
    R9        2.65274   0.00085   0.00000   0.00028   0.00028   2.65303
   R10        2.72383  -0.06454   0.00000  -0.03001  -0.03001   2.69381
   R11        2.32701   0.01952   0.00000   0.00458   0.00458   2.33159
   R12        2.54618  -0.03260   0.00000  -0.00985  -0.00985   2.53633
   R13        2.51977   0.08135   0.00000   0.02395   0.02395   2.54372
   R14        1.96818   0.04060   0.00000   0.01392   0.01392   1.98211
   R15        2.96939  -0.17285   0.00000  -0.06907  -0.06907   2.90032
   R16        2.91123  -0.07106   0.00000  -0.02763  -0.02763   2.88360
   R17        2.54869  -0.07664   0.00000  -0.02320  -0.02320   2.52549
   R18        2.05831  -0.00037   0.00000  -0.00013  -0.00013   2.05818
   R19        2.72412   0.02705   0.00000   0.00943   0.00943   2.73355
   R20        2.10437  -0.01986   0.00000  -0.00743  -0.00743   2.09694
   R21        2.71456   0.01960   0.00000   0.00678   0.00678   2.72135
   R22        2.15995  -0.03178   0.00000  -0.01224  -0.01224   2.14771
   R23        2.07506  -0.00452   0.00000  -0.00166  -0.00166   2.07339
   R24        3.37298  -0.08048   0.00000  -0.03674  -0.03674   3.33624
   R25        2.33743  -0.04856   0.00000  -0.02023  -0.02023   2.31720
   R26        2.44075   0.01205   0.00000   0.00520   0.00520   2.44595
   R27        2.39220  -0.03362   0.00000  -0.01429  -0.01429   2.37791
   R28        2.63902   0.01660   0.00000   0.00462   0.00457   2.64359
    A1        1.90166  -0.00071   0.00000  -0.00165  -0.00164   1.90003
    A2        1.54674   0.01286   0.00000   0.00959   0.00953   1.55627
    A3        2.70925  -0.00195   0.00000  -0.00252  -0.00251   2.70674
    A4        1.70873   0.06664   0.00000   0.02718   0.02711   1.73584
    A5        1.36649   0.01387   0.00000   0.00931   0.00876   1.37525
    A6        1.62082  -0.05646   0.00000  -0.02091  -0.02080   1.60001
    A7        1.59768   0.08832   0.00000   0.03973   0.03960   1.63727
    A8        2.61254   0.00354   0.00000   0.00010   0.00016   2.61270
    A9        1.09934  -0.08703   0.00000  -0.04034  -0.04021   1.05914
   A10        1.67829   0.12085   0.00000   0.05045   0.05044   1.72873
   A11        2.41818  -0.06768   0.00000  -0.02847  -0.02847   2.38970
   A12        2.18664  -0.05306   0.00000  -0.02192  -0.02192   2.16472
   A13        1.96977   0.03346   0.00000   0.01394   0.01394   1.98371
   A14        1.83911   0.02045   0.00000   0.00967   0.00967   1.84878
   A15        2.45052  -0.05548   0.00000  -0.02449  -0.02449   2.42604
   A16        2.06892  -0.03619   0.00000  -0.01461  -0.01461   2.05431
   A17        2.38198   0.03278   0.00000   0.01323   0.01323   2.39521
   A18        2.16522  -0.02882   0.00000  -0.01208  -0.01209   2.15313
   A19        2.04739   0.00547   0.00000   0.00196   0.00195   2.04933
   A20        2.06304   0.02135   0.00000   0.00907   0.00906   2.07209
   A21        2.07256   0.10981   0.00000   0.04432   0.04432   2.11688
   A22        1.91609   0.19187   0.00000   0.07744   0.07744   1.99353
   A23        2.29414  -0.30182   0.00000  -0.12184  -0.12184   2.17230
   A24        2.22374  -0.33419   0.00000  -0.13946  -0.13946   2.08428
   A25        2.03824   0.15536   0.00000   0.06452   0.06452   2.10275
   A26        2.02008   0.17946   0.00000   0.07532   0.07532   2.09541
   A27        1.99984  -0.19223   0.00000  -0.08021  -0.08020   1.91964
   A28        2.17441   0.08997   0.00000   0.03740   0.03740   2.21181
   A29        2.10578   0.10286   0.00000   0.04317   0.04317   2.14895
   A30        2.11357  -0.03614   0.00000  -0.01505  -0.01506   2.09851
   A31        1.90607   0.04491   0.00000   0.01960   0.01959   1.92566
   A32        2.26135  -0.00785   0.00000  -0.00404  -0.00405   2.25730
   A33        1.84752   0.04424   0.00000   0.01982   0.01982   1.86734
   A34        2.20412   0.04629   0.00000   0.01868   0.01868   2.22280
   A35        1.27175   0.07198   0.00000   0.03274   0.03277   1.30452
   A36        2.09182  -0.05072   0.00000  -0.02221  -0.02218   2.06964
   A37        2.76472  -0.02133   0.00000  -0.00959  -0.00957   2.75515
   A38        1.28844   0.04893   0.00000   0.01725   0.01730   1.30574
   A39        1.77512  -0.01363   0.00000  -0.00550  -0.00550   1.76962
   A40        1.77009  -0.00474   0.00000  -0.00535  -0.00545   1.76464
    D1        1.04721  -0.01914   0.00000  -0.00830  -0.00833   1.03888
    D2        2.61695   0.06000   0.00000   0.02831   0.02839   2.64534
    D3       -2.59015  -0.01292   0.00000  -0.00639  -0.00644  -2.59659
    D4       -2.40523  -0.00918   0.00000  -0.00353  -0.00349  -2.40873
    D5       -0.83549   0.06996   0.00000   0.03307   0.03323  -0.80226
    D6        0.24059  -0.00297   0.00000  -0.00162  -0.00160   0.23899
    D7       -0.26544   0.00346   0.00000   0.00175   0.00178  -0.26366
    D8        2.11410   0.03681   0.00000   0.02057   0.02056   2.13466
    D9        2.52509   0.00595   0.00000   0.00431   0.00450   2.52959
   D10       -0.63055   0.01585   0.00000   0.00965   0.00982  -0.62073
   D11        1.15685  -0.02001   0.00000  -0.01048  -0.01064   1.14622
   D12       -1.99879  -0.01011   0.00000  -0.00513  -0.00532  -2.00411
   D13        0.61009  -0.00133   0.00000  -0.00215  -0.00214   0.60795
   D14       -2.54555   0.00857   0.00000   0.00320   0.00318  -2.54237
   D15       -0.21830   0.00746   0.00000   0.00311   0.00305  -0.21525
   D16        1.71904   0.04572   0.00000   0.02169   0.02172   1.74076
   D17        1.09616   0.03760   0.00000   0.01752   0.01770   1.11385
   D18       -2.91566   0.01899   0.00000   0.00986   0.00988  -2.90577
   D19        0.04228   0.00485   0.00000   0.00291   0.00294   0.04522
   D20        0.23733   0.01141   0.00000   0.00571   0.00568   0.24301
   D21       -3.08792  -0.00273   0.00000  -0.00123  -0.00126  -3.08918
   D22        3.08189  -0.04017   0.00000  -0.02228  -0.02228   3.05961
   D23        0.22022  -0.03918   0.00000  -0.02081  -0.02082   0.19940
   D24        2.95468  -0.06507   0.00000  -0.03439  -0.03439   2.92029
   D25        2.97053  -0.02584   0.00000  -0.01390  -0.01391   2.95662
   D26       -0.30541  -0.04175   0.00000  -0.02242  -0.02241  -0.32782
   D27        2.98536  -0.03948   0.00000  -0.02062  -0.02066   2.96470
   D28       -0.12937  -0.02918   0.00000  -0.01590  -0.01588  -0.14525
   D29       -0.02076  -0.02226   0.00000  -0.01150  -0.01153  -0.03229
   D30       -3.13549  -0.01196   0.00000  -0.00678  -0.00674   3.14095
   D31       -2.85037  -0.01263   0.00000  -0.00672  -0.00675  -2.85712
   D32        0.23775   0.00932   0.00000   0.00534   0.00531   0.24306
   D33        0.25750  -0.01424   0.00000  -0.00808  -0.00804   0.24946
   D34       -2.93756   0.00770   0.00000   0.00399   0.00402  -2.93353
   D35       -0.12449  -0.05020   0.00000  -0.02804  -0.02805  -0.15254
   D36        3.04852  -0.04842   0.00000  -0.02667  -0.02666   3.02185
   D37       -0.25036   0.04471   0.00000   0.02417   0.02418  -0.22618
   D38        2.97641   0.03304   0.00000   0.01774   0.01773   2.99414
   D39        2.94422   0.02338   0.00000   0.01241   0.01242   2.95664
   D40       -0.11220   0.01172   0.00000   0.00598   0.00597  -0.10622
   D41        0.03777   0.01236   0.00000   0.00673   0.00675   0.04452
   D42       -3.03921  -0.00114   0.00000  -0.00068  -0.00069  -3.03990
   D43        3.09786   0.02360   0.00000   0.01291   0.01292   3.11078
   D44        0.02088   0.01010   0.00000   0.00549   0.00547   0.02635
   D45       -2.84761  -0.01757   0.00000  -0.00952  -0.00950  -2.85711
   D46        0.21481   0.00074   0.00000   0.00038   0.00035   0.21516
   D47        3.07987  -0.02635   0.00000  -0.01409  -0.01408   3.06579
   D48        0.27170  -0.02331   0.00000  -0.01346  -0.01347   0.25822
   D49       -2.84414   0.02945   0.00000   0.01604   0.01602  -2.82812
   D50        1.31311  -0.00747   0.00000  -0.00384  -0.00383   1.30928
   D51        0.23396   0.00701   0.00000   0.00086   0.00082   0.23478
         Item               Value     Threshold  Converged?
 Maximum Force            0.334186     0.000450     NO 
 RMS     Force            0.070295     0.000300     NO 
 Maximum Displacement     1.704085     0.001800     NO 
 RMS     Displacement     0.300776     0.001200     NO 
 Predicted change in Energy=-2.307401D-01
 GradGradGradGradGradGradGradGradGradGradGradGradGradGradGradGradGradGrad

                          Input orientation:                          
 ---------------------------------------------------------------------
 Center     Atomic      Atomic             Coordinates (Angstroms)
 Number     Number       Type             X           Y           Z
 ---------------------------------------------------------------------
      1          6           0        1.943322    0.196903   -0.205942
      2          6           0        2.832523   -0.355362    0.569348
      3          6           0        3.009684   -1.660103   -0.149188
      4          6           0        4.302488   -1.843583    0.068111
      5          7           0        4.871385   -2.847122   -0.732052
      6          7           0        6.090574   -3.020094   -0.654710
      7          6           0        6.981675   -3.943584   -1.047803
      8          6           0        8.313735   -3.758206   -0.991362
      9          6           0        9.290700   -4.916976   -1.232922
     10          6           0       10.566366   -4.789653   -0.855414
     11          6           0       10.852709   -3.407549   -0.538789
     12          6           0        9.808611   -2.417766   -0.602075
     13          6           0        8.733155   -2.336118   -0.630485
     14          6           0        7.695566   -0.913698   -0.500126
     15          6           0        5.994803    0.062545   -0.737780
     16          6           0        3.825251    0.504823   -0.511909
     17          1           0        0.886880   -0.557012   -0.236532
     18          1           0        3.378170    0.993935    0.978893
     19          1           0        2.376131   -2.358820   -0.709119
     20          1           0        4.720634   -0.752477    0.884632
     21          1           0        6.615126   -4.895849   -1.290693
     22          1           0        8.942437   -5.850680   -1.672397
     23          1           0       11.339370   -5.585746   -0.849864
     24          1           0       11.960071   -3.273580   -0.320900
     25          1           0       10.298097   -1.435935   -0.617718
     26          1           0        8.808604   -0.534107   -0.152789
     27          1           0        6.414155   -1.085503   -0.438556
     28          1           0        2.545459    1.252104   -0.115157
 ---------------------------------------------------------------------
                    Distance matrix (angstroms):
                    1          2          3          4          5
     1  C    0.000000
     2  C    1.302593   0.000000
     3  C    2.142153   1.500010   0.000000
     4  C    3.131190   2.151009   1.323716   0.000000
     5  N    4.256340   3.472674   2.283566   1.403921   0.000000
     6  N    5.267842   4.383379   3.405438   2.259181   1.233825
     7  C    6.575512   5.718914   4.668887   3.582361   2.399011
     8  C    7.539359   6.637684   5.765783   4.569285   3.570307
     9  C    9.010572   8.109535   7.157714   6.001724   4.905662
    10  C    9.982206   9.028024   8.209524   6.983437   6.018427
    11  C    9.616654   8.652583   8.044774   6.761635   6.010630
    12  C    8.297962   7.368280   6.855987   5.576399   4.957564
    13  C    7.259357   6.338806   5.783318   4.512365   3.896757
    14  C    5.865858   5.010460   4.757917   3.563785   3.430441
    15  C    4.088447   3.447208   3.496411   2.673334   3.119016
    16  C    1.931343   1.701336   2.341713   2.465601   3.518294
    17  H    1.298228   2.115569   2.393896   3.662574   4.622382
    18  H    2.024323   1.511972   2.907278   3.120160   4.462145
    19  H    2.640498   2.420045   1.096868   2.140188   2.542687
    20  H    3.131156   1.955011   2.195431   1.425506   2.650270
    21  H    6.995610   6.195471   4.977177   4.063369   2.747725
    22  H    9.365435   8.517922   7.421500   6.373015   5.145783
    23  H   11.051668  10.086502   9.235003   8.022728   7.024868
    24  H   10.601543   9.623963   9.096275   7.799666   7.113395
    25  H    8.522792   7.636201   7.306896   6.048460   5.608362
    26  H    6.904295   6.022207   5.907228   4.697723   4.602964
    27  H    4.656933   3.791710   3.464725   2.300117   2.359997
    28  H    1.218301   1.770564   2.949171   3.564269   4.753329
                    6          7          8          9         10
     6  N    0.000000
     7  C    1.342168   0.000000
     8  C    2.366556   1.346081   0.000000
     9  C    3.764744   2.512640   1.534784   0.000000
    10  C    4.817088   3.688205   2.481272   1.336430   0.000000
    11  C    4.779277   3.940981   2.602724   2.280364   1.446532
    12  C    3.766877   3.243202   2.045233   2.629116   2.502843
    13  C    2.729770   2.413666   1.525936   2.708250   3.071008
    14  C    2.652697   3.160664   2.952063   4.371234   4.836399
    15  C    3.085245   4.137523   4.476593   5.991973   6.667597
    16  C    4.192507   5.480740   6.208847   7.732199   8.578584
    17  H    5.772355   7.019512   8.122536   9.519784  10.582567
    18  H    5.112556   6.439863   7.129134   8.648064   9.406633
    19  H    3.773239   4.882338   6.106807   7.391198   8.544607
    20  H    3.064049   4.362313   5.046200   6.535487   7.314310
    21  H    2.048923   1.048886   2.066180   2.676281   3.976562
    22  H    4.145000   2.805659   2.288563   1.089141   2.104848
    23  H    5.845555   4.661049   3.537568   2.188843   1.109653
    24  H    5.884443   5.075600   3.739003   3.264670   2.127579
    25  H    4.496018   4.179944   3.077377   3.675728   3.372817
    26  H    3.717491   3.970296   3.367925   4.539675   4.657584
    27  H    1.973340   2.976892   3.325258   4.856513   5.579906
    28  H    5.577691   6.895289   7.690510   9.208976  10.069050
                   11         12         13         14         15
    11  C    0.000000
    12  C    1.440076   0.000000
    13  C    2.376737   1.078924   0.000000
    14  C    4.023474   2.595683   1.765464   0.000000
    15  C    5.973307   4.551427   3.641932   1.975380   0.000000
    16  C    8.043167   6.659598   5.672083   4.122097   2.225665
    17  H   10.369892   9.121036   8.055089   6.823116   5.169718
    18  H    8.805973   7.449143   6.508089   4.946359   3.265153
    19  H    8.542905   7.433484   6.357551   5.516199   4.354149
    20  H    6.832121   5.556167   4.572070   3.285387   2.218104
    21  H    4.553845   4.100419   3.387351   4.201175   5.027542
    22  H    3.301983   3.698749   3.671720   5.225199   6.672952
    23  H    2.253474   3.527140   4.171398   5.935289   7.776898
    24  H    1.136518   2.332436   3.374561   4.877209   6.847477
    25  H    2.049656   1.097193   1.805418   2.657014   4.558310
    26  H    3.547398   2.179459   1.865779   1.226207   2.935248
    27  H    5.010260   3.650204   2.641711   1.294342   1.258334
    28  H    9.534266   8.152202   7.171366   5.600224   3.701444
                   16         17         18         19         20
    16  C    0.000000
    17  H    3.136455   0.000000
    18  H    1.631442   3.176354   0.000000
    19  H    3.215476   2.384893   3.885155   0.000000
    20  H    2.081548   3.999111   2.204779   3.258385   0.000000
    21  H    6.128390   7.262889   7.093551   4.974316   5.048630
    22  H    8.241647   9.745596   9.210818   7.499158   7.096034
    23  H    9.678389  11.615459  10.488911   9.527461   8.377149
    24  H    8.971517  11.401860   9.672134   9.635321   7.760071
    25  H    6.758363   9.459853   7.505919   7.976065   5.816550
    26  H    5.103151   7.922199   5.753714   6.709380   4.223200
    27  H    3.039234   5.556158   3.943403   4.242662   2.174798
    28  H    1.534180   2.457339   1.398930   3.663363   3.122389
                   21         22         23         24         25
    21  H    0.000000
    22  H    2.544362   0.000000
    23  H    4.794660   2.547948   0.000000
    24  H    5.669276   4.192147   2.451771   0.000000
    25  H    5.097860   4.737102   4.284749   2.495436   0.000000
    26  H    5.013079   5.531100   5.692956   4.179082   1.802233
    27  H    3.909637   5.533669   6.684242   5.963112   3.903832
    28  H    7.466016   9.684827  11.163729  10.447922   8.220798
                   26         27         28
    26  H    0.000000
    27  H    2.473678   0.000000
    28  H    6.512983   4.531645   0.000000
 Stoichiometry    C14H12N2
 Framework group  C1[X(C14H12N2)]
 Deg. of freedom    78
 Full point group                 C1      NOp   1
 Largest Abelian subgroup         C1      NOp   1
 Largest concise Abelian subgroup C1      NOp   1
                         Standard orientation:                         
 ---------------------------------------------------------------------
 Center     Atomic      Atomic             Coordinates (Angstroms)
 Number     Number       Type             X           Y           Z
 ---------------------------------------------------------------------
      1          6           0       -5.197390    0.060334   -0.186732
      2          6           0       -4.234843    0.067395    0.690880
      3          6           0       -3.424821   -1.086021    0.177533
      4          6           0       -2.214059   -0.633644    0.463252
      5          7           0       -1.182291   -1.352031   -0.161543
      6          7           0       -0.028150   -0.940029   -0.018236
      7          6           0        1.215024   -1.394081   -0.241330
      8          6           0        2.311478   -0.616753   -0.167298
      9          6           0        3.721467   -1.221898   -0.203215
     10          6           0        4.762625   -0.484599    0.194814
     11          6           0        4.369183    0.902176    0.315278
     12          6           0        3.004488    1.292521    0.072261
     13          6           0        2.014249    0.871065   -0.004407
     14          6           0        0.443315    1.668487   -0.119086
     15          6           0       -1.482492    1.727488   -0.554873
     16          6           0       -3.631551    1.154810   -0.470202
     17          1           0       -5.797212   -1.090171   -0.142594
     18          1           0       -4.391997    1.554104    0.916841
     19          1           0       -3.621950   -2.055894   -0.295335
     20          1           0       -2.408654    0.613859    1.125020
     21          1           0        1.337958   -2.429567   -0.354549
     22          1           0        3.871401   -2.255269   -0.512880
     23          1           0        5.805262   -0.834212    0.343164
     24          1           0        5.273131    1.550265    0.548796
     25          1           0        3.002708    2.380418   -0.070257
     26          1           0        1.230048    2.550832    0.206647
     27          1           0       -0.625578    0.939793   -0.076709
     28          1           0       -5.142059    1.276575   -0.230935
 ---------------------------------------------------------------------
 Rotational constants (GHZ):           1.7461805           0.2449746           0.2189775
 Standard basis: 6-31G(2df,p) (6D, 7F)
 There are   556 symmetry adapted cartesian basis functions of A   symmetry.
 There are   508 symmetry adapted basis functions of A   symmetry.
   508 basis functions,   788 primitive gaussians,   556 cartesian basis functions
    55 alpha electrons       55 beta electrons
       nuclear repulsion energy       937.8781311584 Hartrees.
 NAtoms=   28 NActive=   28 NUniq=   28 SFac= 1.00D+00 NAtFMM=   60 NAOKFM=F Big=F
 Integral buffers will be    131072 words long.
 Raffenetti 2 integral format.
 Two-electron integral symmetry is turned on.
 One-electron integrals computed using PRISM.
 PrsmSu:  requested number of processors reduced to:  12 ShMem   1 Linda.
 NBasis=   508 RedAO= T EigKep=  1.01D-04  NBF=   508
 NBsUse=   508 1.00D-06 EigRej= -1.00D+00 NBFU=   508
[...]
 .00168738,-0.00147322,0.00436206,0.00000506,-0.00006377,-0.00004702,0.
 00001856,-0.00001983,0.00000244,0.00001433,0.00001609,0.00003393,-0.00
 001154,-0.00004498,-0.00009524,-0.00009002,0.00028901,0.00004787,0.014
 04690,0.03209199,0.02722789,-0.00001308,-0.00001281,0.00000638,-0.0000
 2679,0.00002158,0.00000539,0.00006646,-0.00002955,-0.00001456,-0.00007
 073,0.00010700,0.00001635,0.00013148,-0.00006520,-0.00000246,-0.000046
 44,-0.00049788,-0.00013734,0.00121549,0.00110569,-0.00023842,0.0101245
 7,0.01384356,0.00164510,-0.13120841,-0.12213942,-0.01082554,-0.0116341
 6,-0.02880236,-0.00367852,-0.00490528,0.00174419,0.00202610,-0.0005561
 0,0.00066427,0.00024717,-0.00135718,0.00229724,0.00120326,0.00037056,0
 .00079569,0.00015392,0.00035094,0.00016228,-0.00003805,0.00000441,-0.0
 0001815,0.00000405,0.00001035,0.00000723,0.00000029,0.00000218,0.00000
 216,-0.00000197,-0.00000372,-0.00000019,-0.00000232,-0.00000642,-0.000
 01686,0.00000475,-0.00009691,-0.00044581,-0.00005882,0.13728632,-0.000
 00687,-0.00000547,0.00000127,-0.00000605,0.00000401,0.00000587,0.00001
 640,-0.00000237,0.00000078,0.00000777,0.00000802,-0.00000816,0.0000859
 7,-0.00000254,-0.00000575,0.00017324,0.00005917,0.00005790,-0.00187497
 ,0.00063267,0.00076818,-0.01542720,-0.01870217,-0.00202541,-0.12289248
 ,-0.25896372,-0.02713537,0.00230855,0.00308743,-0.00019492,0.00033954,
 0.00194759,-0.00121228,0.00083783,0.00005265,-0.00017914,0.00408599,-0
 .00192435,-0.00177372,-0.00138626,-0.00080361,-0.00002869,0.00009013,0
 .00017475,0.00006022,0.00000134,-0.00000259,0.00000179,0.00000788,0.00
 000275,0.00000099,0.00000030,0.00000184,-0.00000177,0.00000616,0.00000
 020,-0.00000565,-0.00000193,0.00002260,-0.00001078,0.00105692,0.000124
 11,-0.00012683,0.13229228,0.27388015,0.00000204,0.00000448,0.00000056,
 0.00000419,-0.00001353,-0.00001967,-0.00002454,0.00000795,-0.00000252,
 0.00003756,-0.00002164,0.00012661,-0.00002760,-0.00002523,-0.00005563,
 0.00004213,0.00012573,-0.00035988,-0.00066479,0.00048913,-0.00209483,-
 0.00414751,-0.00583667,0.00185854,-0.01096066,-0.02734649,-0.03778191,
 0.00230216,0.00391904,0.00287604,0.00176823,-0.00142175,0.00751274,0.0
 0026288,-0.00018966,0.00035619,0.00156499,-0.00145800,0.00403759,-0.00
 024007,-0.00031078,0.00019095,-0.00006794,0.00005268,-0.00008000,-0.00
 000097,0.00000891,0.00000081,-0.00000370,0.00000047,-0.00000070,-0.000
 00129,-0.00000026,-0.00000218,0.00000722,0.00000411,0.00001039,0.00000
 430,0.00001400,-0.00000066,0.00022748,0.00001539,0.00021673,0.01066564
 ,0.03070705,0.02846279,0.00001690,0.00001617,-0.00000665,0.00002736,-0
 .00002047,-0.00001189,-0.00007388,0.00004859,0.00000825,0.00002040,-0.
 00013373,0.00001718,-0.00021118,0.00016757,0.00000393,-0.00038192,0.00
 016561,-0.00003644,0.00043565,0.00141880,0.00031338,-0.00541207,-0.001
 80192,0.00157056,-0.01111910,0.02860594,0.00725140,-0.12219100,0.11260
 720,0.03275048,0.01108820,-0.01528546,-0.00408726,-0.00124944,-0.00323
 193,0.00020708,-0.00093228,-0.00037916,0.00002600,0.00041229,-0.000054
 04,-0.00019143,-0.00024527,-0.00027771,0.00000814,-0.00000388,0.000016
 10,-0.00000396,-0.00001502,-0.00000860,-0.00000074,-0.00000301,-0.0000
 0197,0.00000230,0.00000333,0.00000168,0.00000692,0.00001035,0.00001479
 ,-0.00000383,-0.00005190,-0.00001669,0.00003968,0.00103916,-0.00006619
 ,-0.00075831,0.12762862,-0.00002058,-0.00001842,0.00000794,-0.00003681
 ,0.00000827,0.00001514,0.00006827,-0.00003234,-0.00001464,-0.00004554,
 0.00010729,0.00001384,0.00023810,-0.00004453,-0.00006742,-0.00025452,0
 .00016931,0.00024783,0.00015393,-0.00006201,-0.00009347,-0.00127134,0.
 00171335,-0.00129288,-0.00235234,0.00340031,0.00046374,0.11348544,-0.2
 5766486,-0.05719855,0.01541742,-0.01784496,-0.00587185,-0.00423865,-0.
 00266660,-0.00096302,-0.00082096,0.00035309,0.00023600,0.00020932,-0.0
 0010102,0.00011950,-0.00009837,0.00001340,-0.00002518,0.00000237,-0.00
 001524,0.00000392,0.00001783,0.00001113,0.00000067,0.00000408,0.000003
 06,-0.00000252,-0.00000216,0.00000008,0.00000046,-0.00000005,-0.000013
 39,0.00000123,0.00001676,-0.00000147,-0.00003817,0.00034688,0.00065545
 ,0.00096918,-0.12156009,0.27210157,-0.00000606,-0.00000430,0.00000437,
 -0.00000920,0.00000266,0.00000347,0.00002301,-0.00001493,-0.00000434,-
 0.00003870,0.00004980,0.00000289,0.00012421,-0.00002684,-0.00002837,-0
 .00010240,0.00030957,-0.00070940,0.00008342,-0.00037770,0.00034187,0.0
 0166992,-0.00123351,0.00886496,0.00133909,-0.00360429,0.00168722,0.032
 93926,-0.05702805,-0.05219363,0.00177675,-0.00192575,0.00165967,0.0000
 1046,-0.00105062,0.00500070,-0.00008295,0.00013902,-0.00028537,-0.0001
 2963,0.00019271,-0.00082186,-0.00003194,-0.00002402,0.00008690,0.00000
 019,-0.00000351,-0.00000088,0.00000504,0.00000281,-0.00000016,0.000001
 45,0.00000147,0.00000016,-0.00000022,0.00000010,-0.00000019,0.00000116
 ,-0.00000554,0.00000455,0.00003340,-0.00002836,0.00018252,-0.00067546,
 0.00102632,-0.00433730,-0.03662870,0.06317048,0.04267628,0.00001474,0.
 00001204,-0.00000832,0.00003682,-0.00003501,-0.00000225,-0.00008468,0.
 00001143,0.00001359,0.00008064,-0.00007500,-0.00001658,-0.00010168,0.0
 0008906,0.00000695,0.00021778,-0.00003068,-0.00001020,-0.00002392,0.00
 005312,-0.00006875,0.00053710,-0.00011183,-0.00016734,0.00066576,-0.00
 316995,-0.00004792,-0.01202399,0.00317722,0.00236323,-0.33349732,0.002
 34788,0.03934186,-0.01106396,-0.00250189,0.00117474,0.00123393,0.00239
 895,0.00143895,-0.00054060,-0.00044101,0.00003271,-0.00013905,0.000333
 57,0.00000819,-0.00000760,0.00002078,-0.00000422,-0.00001110,-0.000006
 62,-0.00000001,-0.00000139,-0.00000150,0.00000161,-0.00000010,0.000002
 85,0.00000438,0.00000672,-0.00000621,0.00000991,0.00000821,-0.00000597
 ,0.00000494,-0.00066506,0.00016897,0.00016897,0.00074326,-0.00005485,-
 0.00043796,0.35391815,-0.00000321,-0.00000472,0.00000178,-0.00000445,-
 0.00001103,0.00001356,-0.00000680,0.00000931,-0.00000093,0.00002554,-0
 .00000165,-0.00000903,-0.00000693,0.00008267,0.00004876,-0.00010935,-0
 .00028344,-0.00009535,-0.00017773,0.00024178,0.00020330,0.00034217,-0.
 00110191,-0.00014306,-0.00207344,-0.00441350,-0.00154905,-0.02769970,0
 .00403231,0.00409491,0.00171841,-0.05700757,-0.00474302,0.02859942,0.0
 0357862,-0.00334952,0.00142144,-0.00447775,-0.00273595,0.00101413,0.00
 074926,-0.00004197,0.00034323,-0.00031766,-0.00001381,-0.00000146,0.00
 000325,-0.00000053,0.00000517,0.00000307,-0.00000002,0.00000049,0.0000
 0068,-0.00000122,-0.00000071,-0.00000397,-0.00001232,-0.00000942,0.000
 00937,-0.00000330,0.00007171,0.00000160,-0.00001950,-0.00146053,0.0001
 1849,0.00014466,0.00057914,0.00089051,0.00058933,-0.00242075,0.0569865
 3,0.00000127,0.00000220,0.00000061,-0.00000341,0.00000834,-0.00002053,
 0.00000901,-0.00001030,-0.00000846,-0.00008756,-0.00001795,0.00006433,
 0.00005089,0.00007570,-0.00005398,0.00005356,-0.00010663,0.00014153,-0
 .00009553,0.00019229,-0.00063543,-0.00008300,-0.00014144,-0.00053306,0
 .00019760,-0.00138527,0.00470758,-0.00359949,0.00006895,0.00193745,0.0
 3924172,-0.00487987,-0.03964046,0.00714151,0.00077720,0.00088362,0.001
 21865,-0.00283793,0.00800924,0.00035285,0.00008576,0.00045855,-0.00007
 973,-0.00001468,-0.00062017,0.00000310,-0.00000135,0.00000032,-0.00000
 159,-0.00000169,-0.00000025,-0.00000066,0.00000039,0.00000174,0.000007
 43,0.00001025,0.00002375,0.00003266,0.00000529,0.00000498,0.00001575,-
 0.00001363,0.00005021,-0.00014807,-0.00006805,0.00039341,-0.00031281,0
 .00067470,-0.00240138,-0.04322464,0.00661154,0.03118098,0.00001442,0.0
 0001624,-0.00000760,0.00004019,-0.00004734,-0.00000363,-0.00010870,0.0
 0005939,0.00001869,0.00009849,-0.00017724,-0.00000955,-0.00036656,0.00
 022829,0.00010302,0.00056043,0.00001278,-0.00012096,-0.00001590,-0.001
 72970,-0.00026867,-0.00512366,0.00196134,0.00167382,-0.00055155,0.0006
 2060,0.00024860,-0.00093995,0.00255038,0.00160132,0.01126579,0.0143301
 6,0.00164408,-0.13082783,-0.12172340,-0.01117965,-0.01250496,-0.027702
 42,-0.00342377,0.00166928,-0.00158328,-0.00098410,-0.00002671,0.000163
 89,0.00006367,-0.00000725,0.00003477,-0.00000537,-0.00000853,-0.000007
 80,0.00000067,-0.00000466,-0.00000077,-0.00000015,0.00000676,0.0000015
 9,-0.00000213,-0.00000023,0.00003536,-0.00001175,-0.00044104,0.0000876
 5,0.00008063,0.00012589,-0.00010963,-0.00024090,0.00049186,0.00079358,
 0.00012487,0.00076550,-0.00025701,-0.00070001,0.13606857,0.00002098,0.
 00002319,-0.00001083,0.00004066,-0.00000306,-0.00002323,-0.00006703,0.
 00003586,0.00002173,0.00003048,-0.00013958,-0.00001015,-0.00026216,-0.
 00000530,0.00004031,0.00040571,0.00033606,0.00002809,0.00015209,0.0000
 6925,-0.00011831,0.00080037,0.00151518,-0.00086110,0.00057528,0.000259
 02,-0.00009160,0.00395220,-0.00235294,-0.00247154,-0.01675491,-0.01826
 769,-0.00184238,-0.12113173,-0.25757887,-0.02747817,0.00153204,0.00205
 434,-0.00022949,0.00124447,0.00076885,0.00059735,-0.00048813,-0.000057
 54,0.00010451,-0.00000234,0.00001820,-0.00000249,-0.00001982,-0.000013
 61,0.00000032,-0.00000471,-0.00000406,0.00000164,0.00000359,0.00000162
 ,0.00000399,0.00000833,0.00001320,-0.00000963,-0.00000805,0.00000759,-
 0.00000749,-0.00010858,-0.00007079,0.00029934,-0.00086596,-0.00100854,
 -0.00012762,0.00023989,0.00089651,0.00096299,0.13137361,0.27325671,0.0
 0000187,0.00000485,0.00000016,0.00000406,0.00000712,-0.00000657,0.0000
 0490,0.00000036,-0.00000486,-0.00000545,0.00001075,0.00001750,0.000003
 39,-0.00004106,-0.00004976,-0.00007692,0.00007870,-0.00010838,0.000163
 78,0.00014813,0.00051600,0.00147613,-0.00091777,0.00480440,0.00025026,
 -0.00011097,0.00024566,0.00187158,-0.00233002,0.00723559,-0.00437025,-
 0.00580853,0.00204295,-0.01104452,-0.02745119,-0.03899888,0.00226008,0
 .00339759,0.00266703,-0.00044811,0.00111057,-0.00282549,-0.00010640,0.
 00002826,-0.00007785,-0.00000007,-0.00000115,-0.00000224,-0.00000378,-
 0.00000288,-0.00000043,-0.00000032,0.00000036,0.00000230,0.00000209,0.
 00000116,0.00000351,-0.00000336,0.00000393,0.00000766,0.00009144,-0.00
 002463,0.00010298,-0.00023740,0.00029471,-0.00146442,-0.00020292,-0.00
 033872,0.00018113,-0.00061238,0.00103771,-0.00403695,0.01107002,0.0311
 4481,0.02939770,0.00001108,0.00002951,-0.00002320,0.00008263,-0.000108
 88,0.00005115,-0.00022029,0.00012269,0.00001552,0.00051120,-0.00029324
 ,0.00000375,-0.00037997,-0.00140122,-0.00013034,-0.00560405,0.00141122
 ,0.00214766,-0.00054906,0.00072550,0.00024923,-0.00152035,0.00261900,0
 .00123193,0.00047397,0.00071269,0.00003428,0.00031762,0.00015436,-0.00
 000215,0.00007183,-0.00051506,-0.00010777,0.00136732,0.00093526,-0.000
 27245,0.01112506,0.01404587,0.00223172,-0.11973440,-0.11463113,-0.0161
 3571,-0.01089546,-0.02866984,-0.00555114,-0.00001997,0.00008013,-0.000
 01352,-0.00000770,-0.00001204,0.00000391,-0.00001024,0.00000431,-0.000
 00213,0.00002625,-0.00000870,-0.00001821,-0.00009401,0.00010819,-0.000
 05267,0.00001888,-0.00008311,-0.00011268,-0.00013057,0.00023477,0.0000
 6362,-0.00001852,-0.00003034,-0.00000322,0.00000047,-0.00002518,0.0000
 0486,-0.00014547,-0.00060438,-0.00010533,0.12461298,0.00001786,0.00001
 468,-0.00000846,0.00003890,-0.00004686,0.00000101,-0.00010893,0.000062
 79,0.00001674,0.00014516,-0.00026278,-0.00004333,-0.00025441,0.0001110
 4,0.00016344,0.00120833,0.00281292,-0.00186088,0.00096602,0.00016779,-
 0.00008861,0.00393136,-0.00228431,-0.00208329,-0.00129411,-0.00072616,
 0.00007750,0.00000425,0.00009239,0.00004430,0.00023175,0.00002838,0.00
 004476,-0.00175005,0.00117347,0.00115631,-0.01438349,-0.01785271,-0.00
 307965,-0.11674824,-0.26782295,-0.03970689,0.00162552,0.00143724,-0.00
 003889,-0.00000824,0.00003308,-0.00000631,-0.00001059,-0.00000770,0.00
 000029,-0.00000288,-0.00000241,0.00000098,0.00000662,0.00000255,-0.000
 00434,0.00005056,0.00003245,-0.00004050,-0.00010374,-0.00002784,0.0002
 2950,0.00022395,-0.00035088,-0.00013689,0.00005908,0.00003826,-0.00002
 025,0.00002591,-0.00000867,-0.00004951,0.00107471,0.00026416,-0.000178
 90,0.12496899,0.28274129,-0.00000201,0.00000799,-0.00000079,-0.0000325
 4,0.00015257,-0.00006689,0.00023374,-0.00014324,-0.00007586,-0.0004482
 2,0.00053421,0.00009373,-0.00004838,-0.00042733,-0.00043457,0.00269925
 ,-0.00163593,0.00940868,0.00052082,0.00003034,-0.00012457,0.00115700,-
 0.00185173,0.00378070,-0.00017483,-0.00035022,-0.00009078,-0.00032740,
 -0.00015552,-0.00010999,-0.00003246,0.00051418,-0.00003141,-0.00037227
 ,0.00052089,-0.00245263,-0.00512899,-0.00521658,0.00284440,-0.01547156
 ,-0.04130858,-0.04357726,0.00088646,0.00361079,0.00168305,0.00002144,-
 0.00006150,0.00000682,-0.00001331,-0.00001168,0.00000065,-0.00000184,0
 .00000267,0.00001077,0.00000083,0.00000620,0.00006565,-0.00016526,-0.0
 0007155,0.00019441,-0.00017164,0.00016536,-0.00088510,0.00009147,-0.00
 013552,0.00013129,0.00001779,0.00000521,0.00004505,0.00002656,-0.00002
 167,0.00017405,0.00028703,0.00009635,0.00013652,0.01711864,0.04441524,
 0.03364824,-0.00000951,-0.00001649,0.00005088,-0.00012118,-0.00007667,
 -0.00005691,-0.00034315,0.00053460,0.00030391,-0.00291323,-0.00168165,
 -0.00088053,-0.00000408,0.00140278,-0.00012282,0.01383321,-0.01782484,
 -0.00657352,-0.00291569,-0.00211767,0.00030308,-0.00017283,-0.00024462
 ,-0.00006676,0.00023598,0.00004862,-0.00010899,-0.00007319,-0.00022344
 ,-0.00001024,-0.00058413,0.00002653,0.00002210,0.00025600,0.00127663,0
 .00030499,-0.00428276,-0.00267217,0.00104730,-0.01073421,0.02468398,0.
 00791695,-0.14034754,0.13021296,0.05399401,0.00000601,0.00004067,-0.00
 000569,0.00003883,0.00001798,-0.00000698,-0.00001442,0.00000859,-0.000
 02015,0.00002984,0.00001655,0.00000382,-0.00482662,-0.00071235,-0.0019
 7559,0.00043141,-0.00087683,-0.00020717,-0.00001590,0.00005339,0.00001
 550,0.00000275,0.00001845,0.00000951,-0.00006014,0.00013192,0.00000598
 ,-0.00002613,-0.00004513,0.00001903,0.00072083,0.00009503,-0.00066106,
 0.15186874,-0.00000815,-0.00003224,0.00002483,-0.00015229,0.00011732,-
 0.00003350,0.00003576,0.00068928,-0.00005860,0.00052752,0.00007127,0.0
 0092693,0.00337539,0.00014462,0.00028605,0.01379963,-0.02659979,-0.008
 99329,-0.00512584,-0.00111251,-0.00055279,-0.00061718,0.00003967,0.000
 15603,0.00027289,-0.00010458,0.00011387,-0.00031807,-0.00016575,-0.000
 04814,-0.00001896,0.00042645,0.00026072,0.00040612,0.00009691,-0.00024
 776,-0.00221494,0.00187914,-0.00171161,-0.00220114,0.00565169,0.001293
 39,0.12222910,-0.24107276,-0.07548090,0.00001308,-0.00009288,-0.000004
 04,0.00000172,0.00000985,-0.00000329,0.00002203,-0.00001368,0.00001708
 ,0.00015014,-0.00002667,-0.00005603,0.00086326,0.00165527,-0.00035740,
 0.00082240,-0.00095048,-0.00025737,-0.00002015,0.00005450,0.00000323,0
 .00000810,0.00000194,-0.00001014,-0.00001709,0.00002573,0.00005471,-0.
 00000040,-0.00000920,-0.00006123,0.00023540,0.00038541,0.00133289,-0.1
 3207447,0.25892596,-0.00000823,-0.00000067,0.00002689,-0.00000791,0.00
 013674,0.00027403,0.00027876,0.00058567,-0.00039428,-0.00039751,-0.001
 44878,0.00045976,-0.00134387,0.00052222,-0.00098617,0.00374481,-0.0023
 4118,0.00003964,-0.00088930,0.00000070,0.00318078,0.00033450,0.0002384
 0,-0.00049241,-0.00020550,0.00020118,-0.00057981,0.00017847,0.00007378
 ,0.00014181,-0.00005122,-0.00008286,-0.00068437,-0.00024693,-0.0001091
 6,0.00045055,0.00142515,-0.00167999,0.00831294,-0.00036121,-0.00238021
 ,0.00236987,0.05321754,-0.07854542,-0.06060709,0.00001136,-0.00003764,
 -0.00005359,0.00001760,-0.00001373,-0.00000432,-0.00001083,0.00001886,
 0.00001979,0.00008954,-0.00009619,-0.00036059,-0.00206538,0.00054562,-
 0.00012786,0.00015175,-0.00014340,0.00044369,-0.00000180,-0.00000943,0
 .00002532,0.00001061,-0.00000936,0.00004637,-0.00000473,-0.00000153,-0
 .00008204,0.00003306,-0.00003488,0.00021346,-0.00063643,0.00118652,-0.
 00438168,-0.05327986,0.08341350,0.05276883,-0.06426309,0.01202300,0.05
 973404,-0.01207550,-0.00383188,0.02219819,0.00154454,-0.00076649,0.000
 44260,-0.00006826,-0.00010464,0.00006661,-0.00081940,0.00018762,-0.000
 20974,0.00095479,-0.00006945,-0.00034730,-0.00048804,0.00040100,0.0001
 3864,0.00037185,0.00000337,-0.00001398,-0.00011876,0.00003449,0.000018
 69,0.00002681,-0.00004020,-0.00001391,-0.00014379,0.00006295,0.0000313
 1,0.00016222,0.00001064,-0.00001225,-0.00026365,-0.00001099,0.00003751
 ,0.00017026,-0.00001852,-0.00002672,-0.00019211,-0.00017057,0.00004612
 ,-0.01455601,0.00698996,0.01409343,0.00712612,-0.00406348,-0.02031169,
 0.00078893,-0.00026375,-0.00070350,-0.00019219,0.00061593,-0.00002615,
 0.00019782,0.00008192,0.00008094,-0.00002205,-0.00000856,-0.00001023,0
 .00000893,0.00000416,0.00000138,-0.00001167,0.00001417,0.00000470,-0.0
 0000848,0.00000388,-0.00000033,-0.00000806,-0.00001678,-0.00000141,-0.
 00001010,-0.00000935,-0.00000925,0.00002111,0.00000613,0.00001755,0.08
 186778,0.01115572,-0.05009433,-0.05149116,0.00188007,-0.00310441,-0.01
 514622,-0.00107909,0.00066905,-0.00297161,0.00061770,-0.00053029,-0.00
 000395,-0.00046973,0.00032595,0.00052720,0.00080692,-0.00005357,0.0000
 3949,-0.00028560,0.00027475,0.00000709,0.00019303,0.00001425,-0.000114
 28,-0.00005952,0.00002236,0.00001793,0.00001867,-0.00002589,0.00000519
 ,-0.00007772,0.00003032,0.00001536,0.00008521,0.00000358,0.00000050,-0
 .00014525,-0.00001106,0.00002134,0.00008428,0.00000207,-0.00003280,-0.
 00009851,-0.00013098,0.00003538,-0.00416274,0.00691889,0.01912809,0.00
 275876,-0.00230198,-0.00775042,-0.00013421,0.00161823,0.00294540,0.000
 05567,-0.00027073,-0.00007240,-0.00004874,-0.00003511,-0.00008315,-0.0
 0001322,-0.00001242,0.00002753,0.00000346,0.00000210,-0.00000443,-0.00
 000485,0.00000639,0.00000115,-0.00000332,0.00000215,-0.00000198,-0.000
 00536,-0.00000855,-0.00000194,-0.00000476,-0.00000463,-0.00000383,-0.0
 0000235,0.00000552,0.00001124,-0.01106454,0.04668836,0.05759215,-0.052
 91167,-0.27432247,0.00397329,0.00446503,0.00420196,0.00049178,-0.00024
 377,0.00018816,-0.00055116,0.00040793,-0.00004891,0.00094723,-0.000487
 90,-0.00022065,-0.00116325,0.00007657,0.00026501,0.00049865,-0.0004251
 1,-0.00008675,-0.00036454,-0.00000611,0.00007699,0.00011991,-0.0000340
 9,-0.00002139,-0.00003183,0.00004066,0.00000758,0.00014202,-0.00005312
 ,-0.00002750,-0.00015025,-0.00001867,0.00000552,0.00025253,0.00002102,
 -0.00003345,-0.00015181,0.00000364,0.00002881,0.00018528,0.00020176,-0
 .00007183,0.00848959,-0.00121537,-0.00312552,0.00492338,-0.00373962,-0
 .01712092,-0.00011299,-0.00089308,-0.00126550,0.00017572,-0.00006767,0
 .00003430,-0.00006875,-0.00003179,0.00002056,0.00001883,0.00001707,-0.
 00001562,-0.00000912,-0.00000363,-0.00000025,0.00001123,-0.00001405,-0
 .00000524,0.00000870,-0.00000375,0.00000038,0.00000876,0.00001749,0.00
 000126,0.00001068,0.00001008,0.00000753,-0.00002076,-0.00000715,-0.000
 01951,-0.07522527,0.05489529,0.29154744\\-0.00001986,0.00000092,0.0000
 0383,0.00004099,0.00000714,0.00002268,-0.00002555,0.00000287,-0.000011
 41,0.00001271,-0.00002313,0.00000450,-0.00001825,0.00000310,0.00000448
 ,-0.00000570,-0.00000352,0.00000581,-0.00000158,0.00000100,-0.00000666
 ,0.00000255,-0.00000379,0.00000255,0.00000363,-0.00000195,-0.00000596,
 -0.00000760,0.00000012,0.00000455,0.00000530,-0.00000768,0.00000441,0.
 00000053,0.00001014,-0.00001010,-0.00000213,-0.00000538,0.00000311,0.0
 0001115,-0.00000593,0.00000370,0.00000594,0.00000378,-0.00000193,0.000
 00404,0.00000564,-0.00001498,0.00000094,0.00000252,0.00000545,-0.00000
 617,-0.00001475,0.00000532,0.00000085,-0.00000226,-0.00000072,0.000007
 70,0.00001661,-0.00000579,0.00000264,0.00000268,0.00000043,-0.00000113
 ,0.00000144,-0.00000120,0.00000303,-0.00000027,-0.00000054,0.00000105,
 -0.00000204,-0.00000064,0.00000354,-0.00000113,-0.00000128,0.00000079,
 0.00000412,-0.00000197,-0.00001986,0.00001245,0.00000115,0.00000045,-0
 .00000270,-0.00000881\\\@


 SUCCESS IS NEVER CERTAIN,
 FAILURE IS NEVER FINAL.
 Job cpu time:       0 days  7 hours 53 minutes 18.1 seconds.
 Elapsed time:       0 days  1 hours 58 minutes 57.2 seconds.
 File lengths (MBytes):  RWF=    517 Int=      0 D2E=      0 Chk=     22 Scr=      1
 Normal termination of Gaussian 16 at Wed May 17 09:53:00 2023.
### All Done ###
