### Starting Gaussian ###
 Entering Gaussian System, Link 0=g16
 Initial command:
 /cluster/software/gaussian/gaussian-16-A.03/avx2/g16/l1.exe "/local/scratch/yxie/Gau-3118.inp" -scrdir="/local/scratch/yxie/"
 Entering Link 1 = /cluster/software/gaussian/gaussian-16-A.03/avx2/g16/l1.exe PID=      3119.
  
 Copyright (c) 1988,1990,1992,1993,1995,1998,2003,2009,2016,
            Gaussian, Inc.  All Rights Reserved.
  
 This is part of the Gaussian(R) 16 program.  It is based on
 the Gaussian(R) 09 system (copyright 2009, Gaussian, Inc.),
 the Gaussian(R) 03 system (copyright 2003, Gaussian, Inc.),
 the Gaussian(R) 98 system (copyright 1998, Gaussian, Inc.),
 the Gaussian(R) 94 system (copyright 1995, Gaussian, Inc.),
 the Gaussian 92(TM) system (copyright 1992, Gaussian, Inc.),
 the Gaussian 90(TM) system (copyright 1990, Gaussian, Inc.),
 the Gaussian 88(TM) system (copyright 1988, Gaussian, Inc.),
 the Gaussian 86(TM) system (copyright 1986, Carnegie Mellon
 University), and the Gaussian 82(TM) system (copyright 1983,
 Carnegie Mellon University). Gaussian is a federally registered
 trademark of Gaussian, Inc.
  
 This software contains proprietary and confidential information,
 including trade secrets, belonging to Gaussian, Inc.
  
 This software is provided under written license and may be
 used, copied, transmitted, or stored only in accord with that
 written license.
  
 The following legend is applicable only to US Government
 contracts under FAR:
  
                    RESTRICTED RIGHTS LEGEND
  
 Use, reproduction and disclosure by the US Government is
 subject to restrictions as set forth in subparagraphs (a)
 and (c) of the Commercial Computer Software - Restricted
 Rights clause in FAR 52.227-19.
  
 Gaussian, Inc.
 340 Quinnipiac St., Bldg. 40, Wallingford CT 06492
  
  
 ---------------------------------------------------------------
 Warning -- This program may not be used in any manner that
 competes with the business of Gaussian, Inc. or will provide
 assistance to any competitor of Gaussian, Inc.  The licensee
 of this program is prohibited from giving any competitor of
 Gaussian, Inc. access to this program.  By using this program,
 the user acknowledges that Gaussian, Inc. is engaged in the
 business of creating and licensing software in the field of
 computational chemistry and represents and warrants to the
 licensee that it is not a competitor of Gaussian, Inc. and that
 it will not use this program in any manner prohibited above.
 ---------------------------------------------------------------
  

 Cite this work as:
 Gaussian 16, Revision A.03,
 M. J. Frisch, G. W. Trucks, H. B. Schlegel, G. E. Scuseria, 
 M. A. Robb, J. R. Cheeseman, G. Scalmani, V. Barone, 
 G. A. Petersson, H. Nakatsuji, X. Li, M. Caricato, A. V. Marenich, 
 J. Bloino, B. G. Janesko, R. Gomperts, B. Mennucci, H. P. Hratchian, 
 J. V. Ortiz, A. F. Izmaylov, J. L. Sonnenberg, D. Williams-Young, 
 F. Ding, F. Lipparini, F. Egidi, J. Goings, B. Peng, A. Petrone, 
 T. Henderson, D. Ranasinghe, V. G. Zakrzewski, J. Gao, N. Rega, 
 G. Zheng, W. Liang, M. Hada, M. Ehara, K. Toyota, R. Fukuda, 
 J. Hasegawa, M. Ishida, T. Nakajima, Y. Honda, O. Kitao, H. Nakai, 
 T. Vreven, K. Throssell, J. A. Montgomery, Jr., J. E. Peralta, 
 F. Ogliaro, M. J. Bearpark, J. J. Heyd, E. N. Brothers, K. N. Kudin, 
 V. N. Staroverov, T. A. Keith, R. Kobayashi, J. Normand, 
 K. Raghavachari, A. P. Rendell, J. C. Burant, S. S. Iyengar, 
 J. Tomasi, M. Cossi, J. M. Millam, M. Klene, C. Adamo, R. Cammi, 
 J. W. Ochterski, R. L. Martin, K. Morokuma, O. Farkas, 
 J. B. Foresman, and D. J. Fox, Gaussian, Inc., Wallingford CT, 2016.
 
 ******************************************
 Gaussian 16:  ES64L-G16RevA.03 25-Dec-2016
                16-May-2023 
 ******************************************
 %chk=C1dCNdCCdCNdCCdC2CdCS2dCSCdC1.chk
 %NProcShared=20
 Will use up to   20 processors via shared memory.
 -----------------------------
 # opt freq b3lyp/6-31g(2df,p)
 -----------------------------
 1/18=20,19=15,26=3,38=1/1,3;
 2/9=110,12=2,17=6,18=5,40=1/2;
 3/5=1,6=6,7=104,11=2,25=1,30=1,71=1,74=-5/1,2,3;
 4//1;
 5/5=2,38=5/2;
 6/7=2,8=2,9=2,10=2,28=1/1;
 7//1,2,3,16;
 1/18=20,19=15,26=3/3(2);
 2/9=110/2;
 99//99;
 2/9=110/2;
 3/5=1,6=6,7=104,11=2,25=1,30=1,71=1,74=-5/1,2,3;
 4/5=5,16=3,69=1/1;
 5/5=2,38=5/2;
 7//1,2,3,16;
 1/18=20,19=15,26=3/3(-5);
 2/9=110/2;
 6/7=2,8=2,9=2,10=2,19=2,28=1/1;
 99/9=1/99;
 -------------------
 Title Card Required
 -------------------
 Symbolic Z-matrix:
 Charge =  0 Multiplicity = 1
 C                     3.42263   0.78338   2.27897 
 C                     3.09337   0.29953   0.95404 
 N                     3.5439    1.43721   0.28973 
 C                     4.82805   1.29615   0.45434 
 C                     5.48009   2.18472   1.43394 
 C                     6.74238   1.93619   1.75481 
 N                     7.36293   2.75452   2.63443 
 C                     8.64016   2.66192   2.70599 
 C                     9.37363   3.63016   3.47681 
 C                     10.67084   3.54245   3.60352 
 C                     11.78558   2.77375   3.15495 
 C                     12.67502   3.37621   3.97249 
 S                     11.47625   4.37169   4.81854 
 C                     10.18494   2.97165   5.90067 
 S                     8.00037   2.61771   5.52983 
 C                     6.10932   1.68999   4.5825 
 C                     4.80299   1.20072   3.64674 
 H                     2.18123   0.98276   2.23391 
 H                     3.08678  -0.24543  -0.09889 
 H                     5.23232   0.25954   0.31108 
 H                     4.84711   2.79249   2.1146 
 H                     7.25204   1.12775   1.2593 
 H                     9.21642   1.91358   2.17022 
 H                     8.88828   4.306     4.19266 
 H                     11.8171   2.0757    2.32762 
 H                     13.78514   3.35557   3.90289 
 H                     11.2705   2.84139   6.62818 
 H                     6.27162   1.58868   5.70166 
 H                     3.85257   0.52905   3.83532 
 
 Add virtual bond connecting atoms H27        and C14        Dist= 2.48D+00.
 Add virtual bond connecting atoms H29        and C1         Dist= 3.09D+00.
 Add virtual bond connecting atoms H28        and S15        Dist= 3.82D+00.
 Add virtual bond connecting atoms C14        and S13        Dist= 4.14D+00.
 Add virtual bond connecting atoms C14        and S15        Dist= 4.24D+00.

 GradGradGradGradGradGradGradGradGradGradGradGradGradGradGradGradGradGrad
 Berny optimization.
 Initialization pass.
                           ----------------------------
                           !    Initial Parameters    !
                           ! (Angstroms and Degrees)  !
 --------------------------                            --------------------------
 ! Name  Definition              Value          Derivative Info.                !
 --------------------------------------------------------------------------------
 ! R1    R(1,2)                  1.4484         estimate D2E/DX2                !
 ! R2    R(1,18)                 1.2581         estimate D2E/DX2                !
 ! R3    R(1,29)                 1.6346         estimate D2E/DX2                !
 ! R4    R(2,3)                  1.3923         estimate D2E/DX2                !
 ! R5    R(2,19)                 1.1856         estimate D2E/DX2                !
 ! R6    R(3,4)                  1.3023         estimate D2E/DX2                !
 ! R7    R(4,5)                  1.4746         estimate D2E/DX2                !
 ! R8    R(4,20)                 1.1218         estimate D2E/DX2                !
 ! R9    R(5,6)                  1.3259         estimate D2E/DX2                !
 ! R10   R(5,21)                 1.1106         estimate D2E/DX2                !
 ! R11   R(6,7)                  1.3522         estimate D2E/DX2                !
 ! R12   R(6,22)                 1.0765         estimate D2E/DX2                !
 ! R13   R(7,8)                  1.2826         estimate D2E/DX2                !
 ! R14   R(8,9)                  1.4386         estimate D2E/DX2                !
 ! R15   R(8,23)                 1.0859         estimate D2E/DX2                !
 ! R16   R(9,10)                 1.3063         estimate D2E/DX2                !
 ! R17   R(9,24)                 1.0976         estimate D2E/DX2                !
 ! R18   R(10,11)                1.4265         estimate D2E/DX2                !
 ! R19   R(10,13)                1.6771         estimate D2E/DX2                !
 ! R20   R(11,12)                1.35           estimate D2E/DX2                !
 ! R21   R(11,25)                1.0829         estimate D2E/DX2                !
 ! R22   R(12,13)                1.7731         estimate D2E/DX2                !
 ! R23   R(12,26)                1.1125         estimate D2E/DX2                !
 ! R24   R(13,14)                2.1906         estimate D2E/DX2                !
 ! R25   R(14,15)                2.2439         estimate D2E/DX2                !
 ! R26   R(14,27)                1.3133         estimate D2E/DX2                !
 ! R27   R(15,28)                2.0192         estimate D2E/DX2                !
 ! R28   R(16,17)                1.6797         estimate D2E/DX2                !
 ! R29   R(16,28)                1.1354         estimate D2E/DX2                !
 ! R30   R(17,29)                1.179          estimate D2E/DX2                !
 ! A1    A(2,1,18)              78.2218         estimate D2E/DX2                !
 ! A2    A(2,1,29)             151.4962         estimate D2E/DX2                !
 ! A3    A(18,1,29)            108.56           estimate D2E/DX2                !
 ! A4    A(1,2,3)               95.1594         estimate D2E/DX2                !
 ! A5    A(3,2,19)              87.3434         estimate D2E/DX2                !
 ! A6    A(2,3,4)               99.8026         estimate D2E/DX2                !
 ! A7    A(3,4,5)              117.0471         estimate D2E/DX2                !
 ! A8    A(3,4,20)             116.058          estimate D2E/DX2                !
 ! A9    A(5,4,20)             118.8361         estimate D2E/DX2                !
 ! A10   A(4,5,6)              117.9554         estimate D2E/DX2                !
 ! A11   A(4,5,21)             119.0069         estimate D2E/DX2                !
 ! A12   A(6,5,21)             119.7929         estimate D2E/DX2                !
 ! A13   A(5,6,7)              118.7424         estimate D2E/DX2                !
 ! A14   A(5,6,22)             118.6912         estimate D2E/DX2                !
 ! A15   A(7,6,22)             122.455          estimate D2E/DX2                !
 ! A16   A(6,7,8)              116.7181         estimate D2E/DX2                !
 ! A17   A(7,8,9)              119.2761         estimate D2E/DX2                !
 ! A18   A(7,8,23)             123.4149         estimate D2E/DX2                !
 ! A19   A(9,8,23)             117.2338         estimate D2E/DX2                !
 ! A20   A(8,9,10)             120.8682         estimate D2E/DX2                !
 ! A21   A(8,9,24)             122.5754         estimate D2E/DX2                !
 ! A22   A(10,9,24)            114.6566         estimate D2E/DX2                !
 ! A23   A(9,10,11)            141.4167         estimate D2E/DX2                !
 ! A24   A(9,10,13)            120.9284         estimate D2E/DX2                !
 ! A25   A(11,10,13)            96.8333         estimate D2E/DX2                !
 ! A26   A(10,11,12)            94.8156         estimate D2E/DX2                !
 ! A27   A(10,11,25)           127.6151         estimate D2E/DX2                !
 ! A28   A(12,11,25)           136.9827         estimate D2E/DX2                !
 ! A29   A(11,12,13)            95.3981         estimate D2E/DX2                !
 ! A30   A(11,12,26)           127.6825         estimate D2E/DX2                !
 ! A31   A(13,12,26)           135.6367         estimate D2E/DX2                !
 ! A32   A(10,13,12)            72.6257         estimate D2E/DX2                !
 ! A33   A(10,13,14)            76.0413         estimate D2E/DX2                !
 ! A34   A(12,13,14)           105.9879         estimate D2E/DX2                !
 ! A35   A(13,14,15)           126.375          estimate D2E/DX2                !
 ! A36   A(13,14,27)            81.3601         estimate D2E/DX2                !
 ! A37   A(15,14,27)           151.7214         estimate D2E/DX2                !
 ! A38   A(14,15,28)           154.1388         estimate D2E/DX2                !
 ! A39   A(17,16,28)           129.3679         estimate D2E/DX2                !
 ! A40   A(16,17,29)           134.7298         estimate D2E/DX2                !
 ! A41   A(15,28,16)            89.6006         estimate D2E/DX2                !
 ! A42   A(1,29,17)             88.3438         estimate D2E/DX2                !
 ! A43   L(1,2,19,3,-1)        182.5028         estimate D2E/DX2                !
 ! A44   L(1,2,19,3,-2)        165.4568         estimate D2E/DX2                !
 ! D1    D(18,1,2,3)           101.3008         estimate D2E/DX2                !
 ! D2    D(29,1,2,3)          -151.4002         estimate D2E/DX2                !
 ! D3    D(2,1,29,17)          121.9811         estimate D2E/DX2                !
 ! D4    D(18,1,29,17)        -138.4002         estimate D2E/DX2                !
 ! D5    D(1,2,3,4)             71.0381         estimate D2E/DX2                !
 ! D6    D(19,2,3,4)           -94.4187         estimate D2E/DX2                !
 ! D7    D(2,3,4,5)           -105.9441         estimate D2E/DX2                !
 ! D8    D(2,3,4,20)            42.5367         estimate D2E/DX2                !
 ! D9    D(3,4,5,6)            170.7339         estimate D2E/DX2                !
 ! D10   D(3,4,5,21)            11.1072         estimate D2E/DX2                !
 ! D11   D(20,4,5,6)            23.1538         estimate D2E/DX2                !
 ! D12   D(20,4,5,21)         -136.4729         estimate D2E/DX2                !
 ! D13   D(4,5,6,7)            178.8935         estimate D2E/DX2                !
 ! D14   D(4,5,6,22)             2.6339         estimate D2E/DX2                !
 ! D15   D(21,5,6,7)           -21.645          estimate D2E/DX2                !
 ! D16   D(21,5,6,22)          162.0954         estimate D2E/DX2                !
 ! D17   D(5,6,7,8)           -165.6864         estimate D2E/DX2                !
 ! D18   D(22,6,7,8)            10.4249         estimate D2E/DX2                !
 ! D19   D(6,7,8,9)            171.1958         estimate D2E/DX2                !
 ! D20   D(6,7,8,23)            -5.5605         estimate D2E/DX2                !
 ! D21   D(7,8,9,10)           177.9493         estimate D2E/DX2                !
 ! D22   D(7,8,9,24)            14.481          estimate D2E/DX2                !
 ! D23   D(23,8,9,10)           -5.0956         estimate D2E/DX2                !
 ! D24   D(23,8,9,24)         -168.5638         estimate D2E/DX2                !
 ! D25   D(8,9,10,11)            4.2842         estimate D2E/DX2                !
 ! D26   D(8,9,10,13)         -162.473          estimate D2E/DX2                !
 ! D27   D(24,9,10,11)         168.9862         estimate D2E/DX2                !
 ! D28   D(24,9,10,13)           2.2291         estimate D2E/DX2                !
 ! D29   D(9,10,11,12)        -173.4621         estimate D2E/DX2                !
 ! D30   D(9,10,11,25)          14.1449         estimate D2E/DX2                !
 ! D31   D(13,10,11,12)         -4.877          estimate D2E/DX2                !
 ! D32   D(13,10,11,25)       -177.27           estimate D2E/DX2                !
 ! D33   D(9,10,13,12)         175.6024         estimate D2E/DX2                !
 ! D34   D(9,10,13,14)          63.5683         estimate D2E/DX2                !
 ! D35   D(11,10,13,12)          3.8752         estimate D2E/DX2                !
 ! D36   D(11,10,13,14)       -108.1588         estimate D2E/DX2                !
 ! D37   D(10,11,12,13)          4.5999         estimate D2E/DX2                !
 ! D38   D(10,11,12,26)       -164.0264         estimate D2E/DX2                !
 ! D39   D(25,11,12,13)        175.7583         estimate D2E/DX2                !
 ! D40   D(25,11,12,26)          7.1319         estimate D2E/DX2                !
 ! D41   D(11,12,13,10)         -4.0841         estimate D2E/DX2                !
 ! D42   D(11,12,13,14)         65.2711         estimate D2E/DX2                !
 ! D43   D(26,12,13,10)        163.0181         estimate D2E/DX2                !
 ! D44   D(26,12,13,14)       -127.6267         estimate D2E/DX2                !
 ! D45   D(10,13,14,15)        -48.0626         estimate D2E/DX2                !
 ! D46   D(10,13,14,27)        138.0018         estimate D2E/DX2                !
 ! D47   D(12,13,14,15)       -115.0274         estimate D2E/DX2                !
 ! D48   D(12,13,14,27)         71.0371         estimate D2E/DX2                !
 ! D49   D(13,14,15,28)        164.7184         estimate D2E/DX2                !
 ! D50   D(27,14,15,28)        -28.018          estimate D2E/DX2                !
 ! D51   D(14,15,28,16)       -132.426          estimate D2E/DX2                !
 ! D52   D(28,16,17,29)        -10.7104         estimate D2E/DX2                !
 ! D53   D(17,16,28,15)       -176.1235         estimate D2E/DX2                !
 ! D54   D(16,17,29,1)        -178.9253         estimate D2E/DX2                !
 --------------------------------------------------------------------------------
 Trust Radius=3.00D-01 FncErr=1.00D-07 GrdErr=1.00D-06 EigMax=2.50D+02 EigMin=1.00D-04
 Number of steps in this run=    138 maximum allowed number of steps=    174.
 GradGradGradGradGradGradGradGradGradGradGradGradGradGradGradGradGradGrad

                          Input orientation:                          
 ---------------------------------------------------------------------
 Center     Atomic      Atomic             Coordinates (Angstroms)
 Number     Number       Type             X           Y           Z
 ---------------------------------------------------------------------
      1          6           0        3.422630    0.783380    2.278970
      2          6           0        3.093370    0.299530    0.954040
      3          7           0        3.543900    1.437210    0.289730
      4          6           0        4.828050    1.296150    0.454340
      5          6           0        5.480090    2.184720    1.433940
      6          6           0        6.742380    1.936190    1.754810
      7          7           0        7.362930    2.754520    2.634430
      8          6           0        8.640160    2.661920    2.705990
      9          6           0        9.373630    3.630160    3.476810
     10          6           0       10.670840    3.542450    3.603520
     11          6           0       11.785580    2.773750    3.154950
     12          6           0       12.675020    3.376210    3.972490
     13         16           0       11.476250    4.371690    4.818540
     14          6           0       10.184940    2.971650    5.900670
     15         16           0        8.000370    2.617710    5.529830
     16          6           0        6.109320    1.689990    4.582500
     17          6           0        4.802990    1.200720    3.646740
     18          1           0        2.181230    0.982760    2.233910
     19          1           0        3.086780   -0.245430   -0.098890
     20          1           0        5.232320    0.259540    0.311080
     21          1           0        4.847110    2.792490    2.114600
     22          1           0        7.252040    1.127750    1.259300
     23          1           0        9.216420    1.913580    2.170220
     24          1           0        8.888280    4.306000    4.192660
     25          1           0       11.817100    2.075700    2.327620
     26          1           0       13.785140    3.355570    3.902890
     27          1           0       11.270500    2.841390    6.628180
     28          1           0        6.271620    1.588680    5.701660
     29          1           0        3.852570    0.529050    3.835320
 ---------------------------------------------------------------------
                    Distance matrix (angstroms):
                    1          2          3          4          5
     1  C    0.000000
     2  C    1.448434   0.000000
     3  N    2.097445   1.392336   0.000000
     4  C    2.359537   2.062054   1.302319   0.000000
     5  C    2.628873   3.079071   2.369983   1.474561   0.000000
     6  C    3.553091   4.078623   3.553268   2.401152   1.325934
     7  N    4.420148   5.203828   4.670965   3.647637   2.304547
     8  C    5.561823   6.278303   5.771490   4.633297   3.439749
     9  C    6.704728   7.543151   6.996589   5.936769   4.628420
    10  C    7.867874   8.657617   8.136738   7.007239   5.787434
    11  C    8.641056   9.301628   8.827294   7.608142   6.562624
    12  C    9.756921  10.506427  10.034929   8.847540   7.722105
    13  S    9.175303  10.089079   9.593929   8.526649   7.224423
    14  C    7.977097   9.049847   8.828395   7.820875   6.535025
    15  S    5.906654   7.098624   6.979424   6.129497   4.828624
    16  C    3.653286   4.918847   5.007310   4.340330   3.248710
    17  C    1.987552   3.314450   3.593153   3.193924   2.514598
    18  H    1.258116   1.713730   2.417277   3.204799   3.600991
    19  H    2.612559   1.185616   1.786410   2.390513   3.739402
    20  H    2.724331   2.233854   2.058671   1.121837   2.242437
    21  H    2.468336   3.261496   2.620170   2.235142   1.110561
    22  H    3.977776   4.251314   3.845274   2.559697   2.070626
    23  H    5.903997   6.447945   5.995052   4.752184   3.817825
    24  H    6.778229   7.753802   7.212851   6.286470   4.870947
    25  H    8.493502   9.008050   8.544384   7.277616   6.400644
    26  H   10.799763  11.504305  11.028056   9.816474   8.743023
    27  H    9.205438  10.272408  10.091978   9.055895   7.806420
    28  H    4.525490   5.856883   6.062375   5.450123   4.381235
    29  H    1.634551   2.988451   3.673042   3.601532   3.340163
                    6          7          8          9         10
     6  C    0.000000
     7  N    1.352212   0.000000
     8  C    2.243434   1.282580   0.000000
     9  C    3.571876   2.349311   1.438621   0.000000
    10  C    4.629319   3.535850   2.388421   1.306332   0.000000
    11  C    5.300544   4.453217   3.179267   2.579638   1.426450
    12  C    6.495227   5.513184   4.288861   3.348039   2.044630
    13  S    6.142282   4.930008   3.928051   2.602137   1.677080
    14  C    5.487399   4.321945   3.562058   2.639499   2.416363
    15  S    4.037051   2.967893   2.895748   2.669417   3.420121
    16  C    2.908128   2.549459   3.297133   3.955064   5.019709
    17  C    2.807410   3.161069   4.212362   5.178977   6.318008
    18  H    4.684299   5.490862   6.690308   7.764287   8.972253
    19  H    4.643176   5.895439   6.867319   8.205505   9.250613
    20  H    2.678767   4.020246   4.808367   6.207526   7.155079
    21  H    2.110627   2.569244   3.841096   4.800697   6.057653
    22  H    1.076503   2.132993   2.524573   3.959867   4.797326
    23  H    2.508775   2.087605   1.085881   2.162993   2.612069
    24  H    4.020448   2.676166   2.230415   1.097618   2.026725
    25  H    5.108851   4.516034   3.252655   3.115691   2.256809
    26  H    7.498624   6.573814   5.327714   4.440536   3.134232
    27  H    6.713642   5.588085   4.725936   3.761836   3.162222
    28  H    3.989988   3.458040   3.966846   4.328980   5.250957
    29  H    3.828781   4.326370   5.361487   6.342517   7.458091
                   11         12         13         14         15
    11  C    0.000000
    12  C    1.349975   0.000000
    13  S    2.327365   1.773085   0.000000
    14  C    3.184367   3.175224   2.190570   0.000000
    15  S    4.471266   4.985277   3.957792   2.243912   0.000000
    16  C    5.952509   6.806164   6.004262   4.471119   2.309582
    17  C    7.174458   8.173599   7.480679   6.097686   3.972043
    18  H    9.813231  10.902793  10.225583   9.025530   6.884660
    19  H    9.765861  11.028452  10.764856   9.835050   8.001464
    20  H    7.573247   8.860775   8.730042   7.945282   6.360693
    21  H    7.016056   8.066515   7.331484   6.546667   4.651601
    22  H    5.182257   6.467278   6.405879   5.791734   4.584474
    23  H    2.882736   4.165258   4.261776   3.996724   3.641642
    24  H    3.437874   3.905430   2.663387   2.525691   2.329534
    25  H    1.082932   2.265602   3.404766   4.029064   5.011522
    26  H    2.212729   1.112491   2.683633   4.135210   6.054332
    27  H    3.511867   3.051458   2.378854   1.313270   3.456900
    28  H    6.188205   6.869412   5.967681   4.155272   2.019159
    29  H    8.272498   9.271503   8.593783   7.094426   4.943492
                   16         17         18         19         20
    16  C    0.000000
    17  C    1.679741   0.000000
    18  H    4.630976   2.986172   0.000000
    19  H    5.898899   4.366517   2.787549   0.000000
    20  H    4.589155   3.492388   3.678243   2.241966   0.000000
    21  H    2.983154   2.209781   3.224325   4.150573   3.133194
    22  H    3.558874   3.420971   5.165656   4.591263   2.394197
    23  H    3.939944   4.708147   7.096787   6.883507   4.697372
    24  H    3.836418   5.160464   7.737257   8.531724   6.693769
    25  H    6.149147   7.190508   9.698108   9.353827   7.122092
    26  H    7.883796   9.240563  11.961039  11.976492   9.779429
    27  H    5.669948   7.308178  10.265425  11.034274   9.112152
    28  H    1.135396   2.555403   5.396640   6.866844   5.648461
    29  H    2.645559   1.178983   2.358759   4.082188   3.794287
                   21         22         23         24         25
    21  H    0.000000
    22  H    3.047390   0.000000
    23  H    4.457179   2.303496   0.000000
    24  H    4.789583   4.624192   3.149859   0.000000
    25  H    7.009988   4.783272   2.610478   4.126815   0.000000
    26  H    9.132547   7.391424   5.094574   4.996651   2.827141
    27  H    7.850779   6.921666   4.995346   3.708344   4.402257
    28  H    4.042943   4.572553   4.609607   4.062981   6.509507
    29  H    3.012167   4.307054   5.784494   6.304873   8.252213
                   26         27         28         29
    26  H    0.000000
    27  H    3.743661   0.000000
    28  H    7.925305   5.236079   0.000000
    29  H   10.327136   8.256674   3.233859   0.000000
 Stoichiometry    C13H12N2S2
 Framework group  C1[X(C13H12N2S2)]
 Deg. of freedom    81
 Full point group                 C1      NOp   1
 Largest Abelian subgroup         C1      NOp   1
 Largest concise Abelian subgroup C1      NOp   1
                         Standard orientation:                         
 ---------------------------------------------------------------------
 Center     Atomic      Atomic             Coordinates (Angstroms)
 Number     Number       Type             X           Y           Z
 ---------------------------------------------------------------------
      1          6           0       -4.732405    0.804638    0.172321
      2          6           0       -5.664600   -0.267968    0.452481
      3          7           0       -5.170489   -1.122874   -0.529146
      4          6           0       -4.028033   -1.441367    0.008804
      5          6           0       -2.818608   -0.834476   -0.577119
      6          6           0       -1.669716   -0.993408    0.065444
      7          7           0       -0.546779   -0.462846   -0.469340
      8          6           0        0.569637   -0.867926    0.014953
      9          6           0        1.796602   -0.489700   -0.633995
     10          6           0        2.952642   -0.851514   -0.144953
     11          6           0        3.525155   -1.634566    0.900905
     12          6           0        4.794127   -1.248282    0.650046
     13         16           0        4.366250   -0.080306   -0.613514
     14          6           0        3.212212    1.491931    0.383917
     15         16           0        1.052849    1.987194    0.027534
     16          6           0       -1.241021    1.875510    0.272184
     17          6           0       -2.884489    1.528417    0.280552
     18          1           0       -5.774844    1.214116   -0.400831
     19          1           0       -6.231276   -1.205539    0.905831
     20          1           0       -4.045188   -1.659542    1.109088
     21          1           0       -2.931847   -0.006455   -1.308490
     22          1           0       -1.656579   -1.591346    0.960518
     23          1           0        0.644407   -1.531796    0.871004
     24          1           0        1.846600    0.311439   -1.382622
     25          1           0        3.029389   -2.367930    1.524712
     26          1           0        5.733474   -1.726111    1.006335
     27          1           0        4.394800    1.767880    0.883932
     28          1           0       -0.711151    2.856996    0.484426
     29          1           0       -3.851507    2.100394    0.637932
 ---------------------------------------------------------------------
 Rotational constants (GHZ):           1.0843722           0.1652568           0.1485888
 Standard basis: 6-31G(2df,p) (6D, 7F)
 There are   595 symmetry adapted cartesian basis functions of A   symmetry.
 There are   544 symmetry adapted basis functions of A   symmetry.
   544 basis functions,   880 primitive gaussians,   595 cartesian basis functions
    68 alpha electrons       68 beta electrons
       nuclear repulsion energy      1289.0600290412 Hartrees.
 NAtoms=   29 NActive=   29 NUniq=   29 SFac= 1.00D+00 NAtFMM=   60 NAOKFM=F Big=F
 Integral buffers will be    131072 words long.
 Raffenetti 2 integral format.
 Two-electron integral symmetry is turned on.
 One-electron integrals computed using PRISM.
 PrsmSu:  requested number of processors reduced to:  12 ShMem   1 Linda.
 NBasis=   544 RedAO= T EigKep=  1.93D-04  NBF=   544
 NBsUse=   544 1.00D-06 EigRej= -1.00D+00 NBFU=   544
 ExpMin= 1.17D-01 ExpMax= 2.19D+04 ExpMxC= 3.30D+03 IAcc=3 IRadAn=         5 AccDes= 0.00D+00
 Harris functional with IExCor=  402 and IRadAn=       5 diagonalized for initial guess.
 HarFok:  IExCor=  402 AccDes= 0.00D+00 IRadAn=         5 IDoV= 1 UseB2=F ITyADJ=14
 ICtDFT=  3500011 ScaDFX=  1.000000  1.000000  1.000000  1.000000
 FoFCou: FMM=F IPFlag=           0 FMFlag=      100000 FMFlg1=           0
         NFxFlg=           0 DoJE=T BraDBF=F KetDBF=T FulRan=T
         wScrn=  0.000000 ICntrl=       500 IOpCl=  0 I1Cent=   200000004 NGrid=           0
         NMat0=    1 NMatS0=      1 NMatT0=    0 NMatD0=    1 NMtDS0=    0 NMtDT0=    0
 Petite list used in FoFCou.
 Requested convergence on RMS density matrix=1.00D-08 within 128 cycles.
 Requested convergence on MAX density matrix=1.00D-06.
 Requested convergence on             energy=1.00D-06.
 No special actions if energy rises.
 Integral accuracy reduced to 1.0D-05 until final iterations.
 EnCoef did     7 forward-backward iterations
 EnCoef did   100 forward-backward iterations
 EnCoef did     5 forward-backward iterations
 EnCoef did     2 forward-backward iterations
 EnCoef did     5 forward-backward iterations
 Initial convergence to 1.0D-05 achieved.  Increase integral accuracy.
 SCF Done:  E(RB3LYP) =  -1407.42548261     A.U. after   29 cycles
            NFock= 29  Conv=0.10D-07     -V/T= 2.0050

 **********************************************************************

            Population analysis using the SCF density.

 **********************************************************************

 Orbital symmetries:
       Occupied  (A) (A) (A) (A) (A) (A) (A) (A) (A) (A) (A) (A)
                 (A) (A) (A) (A) (A) (A) (A) (A) (A) (A) (A) (A)
                 (A) (A) (A) (A) (A) (A) (A) (A) (A) (A) (A) (A)
                 (A) (A) (A) (A) (A) (A) (A) (A) (A) (A) (A) (A)
                 (A) (A) (A) (A) (A) (A) (A) (A) (A) (A) (A) (A)
                 (A) (A) (A) (A) (A) (A) (A) (A)
       Virtual   (A) (A) (A) (A) (A) (A) (A) (A) (A) (A) (A) (A)
                 (A) (A) (A) (A) (A) (A) (A) (A) (A) (A) (A) (A)
                 (A) (A) (A) (A) (A) (A) (A) (A) (A) (A) (A) (A)
                 (A) (A) (A) (A) (A) (A) (A) (A) (A) (A) (A) (A)
                 (A) (A) (A) (A) (A) (A) (A) (A) (A) (A) (A) (A)
                 (A) (A) (A) (A) (A) (A) (A) (A) (A) (A) (A) (A)
                 (A) (A) (A) (A) (A) (A) (A) (A) (A) (A) (A) (A)
                 (A) (A) (A) (A) (A) (A) (A) (A) (A) (A) (A) (A)
                 (A) (A) (A) (A) (A) (A) (A) (A) (A) (A) (A) (A)
                 (A) (A) (A) (A) (A) (A) (A) (A) (A) (A) (A) (A)
                 (A) (A) (A) (A) (A) (A) (A) (A) (A) (A) (A) (A)
                 (A) (A) (A) (A) (A) (A) (A) (A) (A) (A) (A) (A)
                 (A) (A) (A) (A) (A) (A) (A) (A) (A) (A) (A) (A)
                 (A) (A) (A) (A) (A) (A) (A) (A) (A) (A) (A) (A)
                 (A) (A) (A) (A) (A) (A) (A) (A) (A) (A) (A) (A)
                 (A) (A) (A) (A) (A) (A) (A) (A) (A) (A) (A) (A)
                 (A) (A) (A) (A) (A) (A) (A) (A) (A) (A) (A) (A)
                 (A) (A) (A) (A) (A) (A) (A) (A) (A) (A) (A) (A)
                 (A) (A) (A) (A) (A) (A) (A) (A) (A) (A) (A) (A)
                 (A) (A) (A) (A) (A) (A) (A) (A) (A) (A) (A) (A)
                 (A) (A) (A) (A) (A) (A) (A) (A) (A) (A) (A) (A)
                 (A) (A) (A) (A) (A) (A) (A) (A) (A) (A) (A) (A)
                 (A) (A) (A) (A) (A) (A) (A) (A) (A) (A) (A) (A)
                 (A) (A) (A) (A) (A) (A) (A) (A) (A) (A) (A) (A)
                 (A) (A) (A) (A) (A) (A) (A) (A) (A) (A) (A) (A)
                 (A) (A) (A) (A) (A) (A) (A) (A) (A) (A) (A) (A)
                 (A) (A) (A) (A) (A) (A) (A) (A) (A) (A) (A) (A)
                 (A) (A) (A) (A) (A) (A) (A) (A) (A) (A) (A) (A)
                 (A) (A) (A) (A) (A) (A) (A) (A) (A) (A) (A) (A)
                 (A) (A) (A) (A) (A) (A) (A) (A) (A) (A) (A) (A)
                 (A) (A) (A) (A) (A) (A) (A) (A) (A) (A) (A) (A)
                 (A) (A) (A) (A) (A) (A) (A) (A) (A) (A) (A) (A)
                 (A) (A) (A) (A) (A) (A) (A) (A) (A) (A) (A) (A)
                 (A) (A) (A) (A) (A) (A) (A) (A) (A) (A) (A) (A)
                 (A) (A) (A) (A) (A) (A) (A) (A) (A) (A) (A) (A)
                 (A) (A) (A) (A) (A) (A) (A) (A) (A) (A) (A) (A)
                 (A) (A) (A) (A) (A) (A) (A) (A) (A) (A) (A) (A)
                 (A) (A) (A) (A) (A) (A) (A) (A) (A) (A) (A) (A)
                 (A) (A) (A) (A) (A) (A) (A) (A) (A) (A) (A) (A)
                 (A) (A) (A) (A) (A) (A) (A) (A)
 The electronic state is 1-A.
 Alpha  occ. eigenvalues --  -88.95422 -88.86879 -14.33126 -14.31717 -10.30708
 Alpha  occ. eigenvalues --  -10.25833 -10.25251 -10.24990 -10.24473 -10.23704
 Alpha  occ. eigenvalues --  -10.23330 -10.23169 -10.23074 -10.23028 -10.22056
 Alpha  occ. eigenvalues --  -10.20585 -10.18671  -8.01480  -7.92881  -5.97796
 Alpha  occ. eigenvalues --   -5.97542  -5.97320  -5.89512  -5.88874  -5.88398
 Alpha  occ. eigenvalues --   -0.97439  -0.95497  -0.94655  -0.81470  -0.77999
 Alpha  occ. eigenvalues --   -0.74515  -0.73354  -0.68695  -0.67115  -0.64823
 Alpha  occ. eigenvalues --   -0.62664  -0.60420  -0.59650  -0.56526  -0.55625
 Alpha  occ. eigenvalues --   -0.55033  -0.53518  -0.51733  -0.50281  -0.47333
 Alpha  occ. eigenvalues --   -0.45086  -0.44153  -0.43191  -0.42769  -0.41731
 Alpha  occ. eigenvalues --   -0.40689  -0.39806  -0.39527  -0.38168  -0.36808
 Alpha  occ. eigenvalues --   -0.34877  -0.31454  -0.30145  -0.28902  -0.28251
 Alpha  occ. eigenvalues --   -0.27029  -0.25091  -0.24433  -0.21879  -0.21606
 Alpha  occ. eigenvalues --   -0.20194  -0.18707  -0.17487
 Alpha virt. eigenvalues --   -0.13794  -0.10404  -0.09949  -0.06618  -0.04727
 Alpha virt. eigenvalues --   -0.03932  -0.02955  -0.01814  -0.00972   0.01056
 Alpha virt. eigenvalues --    0.05844   0.06027   0.06524   0.08193   0.08757
 Alpha virt. eigenvalues --    0.09703   0.10309   0.10907   0.12705   0.14343
 Alpha virt. eigenvalues --    0.15639   0.16442   0.17048   0.18813   0.20129
 Alpha virt. eigenvalues --    0.20294   0.21811   0.22616   0.23889   0.24634
 Alpha virt. eigenvalues --    0.26630   0.27838   0.28547   0.29643   0.32605
 Alpha virt. eigenvalues --    0.32821   0.34064   0.34474   0.35995   0.36591
 Alpha virt. eigenvalues --    0.37510   0.38299   0.39076   0.39916   0.40072
 Alpha virt. eigenvalues --    0.40845   0.41705   0.42619   0.44038   0.44401
 Alpha virt. eigenvalues --    0.44983   0.46083   0.46600   0.47452   0.48568
 Alpha virt. eigenvalues --    0.48938   0.49194   0.50998   0.51821   0.52312
 Alpha virt. eigenvalues --    0.53277   0.53659   0.53888   0.54806   0.55398
 Alpha virt. eigenvalues --    0.56813   0.58094   0.58780   0.59400   0.59911
 Alpha virt. eigenvalues --    0.60488   0.60940   0.61845   0.62885   0.63087
 Alpha virt. eigenvalues --    0.64109   0.64726   0.65617   0.65732   0.66133
 Alpha virt. eigenvalues --    0.67866   0.68379   0.68503   0.69098   0.70374
 Alpha virt. eigenvalues --    0.71492   0.71638   0.72651   0.72994   0.73389
 Alpha virt. eigenvalues --    0.73906   0.74549   0.75223   0.75730   0.76862
 Alpha virt. eigenvalues --    0.77124   0.77496   0.78075   0.79586   0.79980
 Alpha virt. eigenvalues --    0.80313   0.80669   0.82166   0.82633   0.83546
 Alpha virt. eigenvalues --    0.83939   0.84553   0.85204   0.85715   0.86328
 Alpha virt. eigenvalues --    0.87127   0.87812   0.88305   0.89936   0.90674
 Alpha virt. eigenvalues --    0.91170   0.91910   0.93919   0.95065   0.95619
 Alpha virt. eigenvalues --    0.96127   0.97115   0.98060   0.99526   1.02963
 Alpha virt. eigenvalues --    1.03094   1.03388   1.03502   1.04320   1.06501
 Alpha virt. eigenvalues --    1.07077   1.08822   1.09588   1.10836   1.12304
 Alpha virt. eigenvalues --    1.14549   1.15920   1.17586   1.18688   1.19373
 Alpha virt. eigenvalues --    1.20657   1.22067   1.23485   1.25011   1.26430
 Alpha virt. eigenvalues --    1.27086   1.27420   1.30127   1.30731   1.31968
 Alpha virt. eigenvalues --    1.33742   1.33780   1.35455   1.36697   1.36924
 Alpha virt. eigenvalues --    1.38669   1.39811   1.40827   1.41675   1.42074
 Alpha virt. eigenvalues --    1.44466   1.45485   1.45865   1.47590   1.48981
 Alpha virt. eigenvalues --    1.49876   1.52175   1.53176   1.53568   1.53919
 Alpha virt. eigenvalues --    1.54266   1.54952   1.56048   1.56828   1.58516
 Alpha virt. eigenvalues --    1.59946   1.61256   1.62015   1.62162   1.63726
 Alpha virt. eigenvalues --    1.64503   1.64988   1.66861   1.68766   1.69898
 Alpha virt. eigenvalues --    1.70430   1.70893   1.72319   1.73157   1.74805
 Alpha virt. eigenvalues --    1.76100   1.78100   1.78504   1.79541   1.81066
 Alpha virt. eigenvalues --    1.82645   1.84854   1.86627   1.87329   1.87491
 Alpha virt. eigenvalues --    1.89144   1.90517   1.91289   1.92951   1.96250
 Alpha virt. eigenvalues --    1.97158   1.97968   2.02320   2.03733   2.05757
 Alpha virt. eigenvalues --    2.06177   2.08953   2.10882   2.12506   2.14001
 Alpha virt. eigenvalues --    2.15302   2.15904   2.16239   2.18251   2.19985
 Alpha virt. eigenvalues --    2.21240   2.21639   2.23415   2.27227   2.28758
 Alpha virt. eigenvalues --    2.29323   2.31144   2.31340   2.32173   2.32634
 Alpha virt. eigenvalues --    2.33969   2.35809   2.37110   2.39175   2.39689
 Alpha virt. eigenvalues --    2.41501   2.41904   2.44087   2.44635   2.45568
 Alpha virt. eigenvalues --    2.47395   2.47748   2.50387   2.51728   2.53809
 Alpha virt. eigenvalues --    2.54144   2.57335   2.57926   2.59315   2.60771
 Alpha virt. eigenvalues --    2.62949   2.64267   2.65107   2.66385   2.68789
 Alpha virt. eigenvalues --    2.69488   2.69932   2.71521   2.73650   2.75062
 Alpha virt. eigenvalues --    2.76491   2.77507   2.79045   2.79532   2.80541
 Alpha virt. eigenvalues --    2.81919   2.83127   2.83376   2.85944   2.87958
 Alpha virt. eigenvalues --    2.88561   2.88843   2.90124   2.92675   2.94645
 Alpha virt. eigenvalues --    2.95473   2.95839   2.96786   2.98083   2.98686
 Alpha virt. eigenvalues --    2.99423   3.00324   3.01425   3.02726   3.03876
 Alpha virt. eigenvalues --    3.04224   3.06005   3.06234   3.07791   3.08800
 Alpha virt. eigenvalues --    3.09128   3.10406   3.11268   3.12074   3.13764
 Alpha virt. eigenvalues --    3.14824   3.16121   3.17272   3.17630   3.18690
 Alpha virt. eigenvalues --    3.20162   3.20979   3.22666   3.23185   3.24446
 Alpha virt. eigenvalues --    3.25958   3.27566   3.28499   3.29086   3.30923
 Alpha virt. eigenvalues --    3.31457   3.33671   3.34618   3.34980   3.36118
 Alpha virt. eigenvalues --    3.37744   3.39630   3.39735   3.41039   3.42304
 Alpha virt. eigenvalues --    3.44340   3.44946   3.46074   3.46343   3.48163
 Alpha virt. eigenvalues --    3.49057   3.50946   3.51220   3.53732   3.54695
 Alpha virt. eigenvalues --    3.56487   3.58276   3.59656   3.61704   3.62656
 Alpha virt. eigenvalues --    3.65024   3.68810   3.69272   3.70656   3.73374
 Alpha virt. eigenvalues --    3.74123   3.75976   3.77884   3.79513   3.82644
 Alpha virt. eigenvalues --    3.83452   3.85618   3.87013   3.91228   3.94069
 Alpha virt. eigenvalues --    3.95125   3.95495   3.96219   3.97724   3.98771
 Alpha virt. eigenvalues --    4.00435   4.01612   4.03982   4.04761   4.06668
 Alpha virt. eigenvalues --    4.10871   4.13629   4.14753   4.18354   4.19670
 Alpha virt. eigenvalues --    4.20432   4.23124   4.24175   4.25649   4.26778
 Alpha virt. eigenvalues --    4.27523   4.29414   4.30126   4.31918   4.32006
 Alpha virt. eigenvalues --    4.34007   4.35565   4.36231   4.37046   4.38553
 Alpha virt. eigenvalues --    4.39275   4.39428   4.41763   4.42371   4.43744
 Alpha virt. eigenvalues --    4.43778   4.46067   4.47419   4.48239   4.49875
 Alpha virt. eigenvalues --    4.50823   4.52308   4.54120   4.54880   4.55347
 Alpha virt. eigenvalues --    4.56581   4.57604   4.59940   4.60322   4.60598
 Alpha virt. eigenvalues --    4.62509   4.63141   4.63561   4.65450   4.65859
 Alpha virt. eigenvalues --    4.67090   4.67803   4.69837   4.70624   4.72150
 Alpha virt. eigenvalues --    4.74750   4.76264   4.77295   4.78021   4.79545
 Alpha virt. eigenvalues --    4.80494   4.81814   4.83943   4.85053   4.86886
 Alpha virt. eigenvalues --    4.87481   4.90504   4.91073   4.92944   4.95559
 Alpha virt. eigenvalues --    4.96249   4.98067   4.99038   5.01092   5.01624
 Alpha virt. eigenvalues --    5.05333   5.07017   5.10517   5.12952   5.16151
 Alpha virt. eigenvalues --    5.17756   5.21949   5.23858   5.25441   5.27121
 Alpha virt. eigenvalues --    5.28978   5.35434   5.36863   5.38866   5.46114
 Alpha virt. eigenvalues --    5.46575   5.55761   5.57237   5.61583   5.64176
 Alpha virt. eigenvalues --    5.67517   5.72257   5.78164   5.83440   5.94777
 Alpha virt. eigenvalues --    5.97177   6.04837   6.44857   6.64808  10.01178
 Alpha virt. eigenvalues --   10.29156  10.42460  10.54306  10.61418  10.71289
 Alpha virt. eigenvalues --   11.05666  11.21403  11.30984  11.35474  11.38509
 Alpha virt. eigenvalues --   11.44480  11.68943  12.13110  12.46818  13.59600
 Alpha virt. eigenvalues --   17.85038
          Condensed to atoms (all electrons):
               1          2          3          4          5          6
     1  C    5.632990   0.405048  -0.027776  -0.040847  -0.031292  -0.000556
     2  C    0.405048   5.351476   0.266054  -0.162879   0.010553  -0.003154
     3  N   -0.027776   0.266054   6.538950   0.578474  -0.043702   0.000398
     4  C   -0.040847  -0.162879   0.578474   5.019471   0.390972   0.001575
     5  C   -0.031292   0.010553  -0.043702   0.390972   5.137316   0.465320
     6  C   -0.000556  -0.003154   0.000398   0.001575   0.465320   4.711011
     7  N   -0.000185   0.000012  -0.000106   0.001595   0.001037   0.448703
     8  C    0.000003  -0.000000  -0.000002  -0.000348   0.001343  -0.090433
     9  C   -0.000000  -0.000000  -0.000000   0.000005  -0.000478   0.005397
    10  C   -0.000000   0.000000  -0.000000   0.000000   0.000014  -0.000611
    11  C   -0.000000  -0.000000  -0.000000   0.000000   0.000000  -0.000022
    12  C   -0.000000  -0.000000  -0.000000   0.000000  -0.000000  -0.000000
    13  S    0.000000   0.000000   0.000000  -0.000000  -0.000000   0.000006
    14  C   -0.000000   0.000000   0.000000   0.000000   0.000001   0.000007
    15  S   -0.000073  -0.000001   0.000000   0.000001   0.000217  -0.000603
    16  C    0.000097   0.000032  -0.000029   0.001372  -0.019427   0.005166
    17  C    0.020761  -0.000576  -0.001537  -0.039941   0.020540   0.002926
    18  H    0.259166  -0.020892  -0.000201   0.005773   0.001116   0.000086
    19  H   -0.016655   0.323345  -0.067286   0.003861  -0.000848   0.000146
    20  H    0.001980  -0.012280  -0.078735   0.354116  -0.082043   0.012348
    21  H   -0.002059   0.000755  -0.000837  -0.037208   0.349638  -0.015788
    22  H    0.000157  -0.000093   0.000155  -0.004800  -0.067266   0.358318
    23  H   -0.000000  -0.000000   0.000000   0.000082   0.000392  -0.010644
    24  H    0.000000  -0.000000   0.000000   0.000000   0.000004   0.000013
    25  H    0.000000  -0.000000   0.000000   0.000000   0.000000   0.000000
    26  H   -0.000000   0.000000  -0.000000   0.000000  -0.000000  -0.000000
    27  H    0.000000   0.000000  -0.000000   0.000000   0.000000  -0.000000
    28  H   -0.000118  -0.000001  -0.000001  -0.000021   0.000523  -0.000091
    29  H   -0.003524  -0.006762   0.002036   0.006030  -0.001337   0.000888
               7          8          9         10         11         12
     1  C   -0.000185   0.000003  -0.000000  -0.000000  -0.000000  -0.000000
     2  C    0.000012  -0.000000  -0.000000   0.000000  -0.000000  -0.000000
     3  N   -0.000106  -0.000002  -0.000000  -0.000000  -0.000000  -0.000000
     4  C    0.001595  -0.000348   0.000005   0.000000   0.000000   0.000000
     5  C    0.001037   0.001343  -0.000478   0.000014   0.000000  -0.000000
     6  C    0.448703  -0.090433   0.005397  -0.000611  -0.000022  -0.000000
     7  N    6.278681   0.554413  -0.011621   0.002109   0.000274  -0.000007
     8  C    0.554413   4.799560   0.434168  -0.010136  -0.015654   0.000272
     9  C   -0.011621   0.434168   5.298251   0.447480  -0.065993   0.007538
    10  C    0.002109  -0.010136   0.447480   4.550664   0.510761  -0.037535
    11  C    0.000274  -0.015654  -0.065993   0.510761   4.914005   0.568478
    12  C   -0.000007   0.000272   0.007538  -0.037535   0.568478   5.087084
    13  S   -0.000276   0.005905  -0.075853   0.224336  -0.095609   0.263225
    14  C   -0.000150  -0.004459  -0.024004   0.014060   0.004203  -0.008916
    15  S   -0.030867  -0.012495  -0.007456  -0.028073  -0.001707   0.000132
    16  C    0.012868   0.000835  -0.003382  -0.000010   0.000010   0.000000
    17  C   -0.010048   0.000226  -0.000012  -0.000000  -0.000000  -0.000000
    18  H   -0.000002   0.000000   0.000000   0.000000  -0.000000   0.000000
    19  H   -0.000001   0.000000   0.000000  -0.000000  -0.000000  -0.000000
    20  H   -0.000255   0.000081   0.000000  -0.000000   0.000000  -0.000000
    21  H   -0.005468   0.000199  -0.000004   0.000000   0.000000  -0.000000
    22  H   -0.053726  -0.006230  -0.000333   0.000120   0.000000   0.000000
    23  H   -0.044312   0.354078  -0.075661   0.002003   0.004838   0.000115
    24  H   -0.000930  -0.020396   0.352343  -0.023338   0.007301   0.000308
    25  H   -0.000024   0.001106  -0.005557  -0.032679   0.364061  -0.044456
    26  H    0.000000   0.000006  -0.000618   0.002937  -0.025209   0.355932
    27  H   -0.000001   0.000095   0.001000   0.001895  -0.000057  -0.000634
    28  H    0.000370   0.000261   0.000407   0.000001  -0.000001   0.000000
    29  H    0.000189   0.000004  -0.000000   0.000000   0.000000   0.000000
              13         14         15         16         17         18
     1  C    0.000000  -0.000000  -0.000073   0.000097   0.020761   0.259166
     2  C    0.000000   0.000000  -0.000001   0.000032  -0.000576  -0.020892
     3  N    0.000000   0.000000   0.000000  -0.000029  -0.001537  -0.000201
     4  C   -0.000000   0.000000   0.000001   0.001372  -0.039941   0.005773
     5  C   -0.000000   0.000001   0.000217  -0.019427   0.020540   0.001116
     6  C    0.000006   0.000007  -0.000603   0.005166   0.002926   0.000086
     7  N   -0.000276  -0.000150  -0.030867   0.012868  -0.010048  -0.000002
     8  C    0.005905  -0.004459  -0.012495   0.000835   0.000226   0.000000
     9  C   -0.075853  -0.024004  -0.007456  -0.003382  -0.000012   0.000000
    10  C    0.224336   0.014060  -0.028073  -0.000010  -0.000000   0.000000
    11  C   -0.095609   0.004203  -0.001707   0.000010  -0.000000  -0.000000
    12  C    0.263225  -0.008916   0.000132   0.000000  -0.000000   0.000000
    13  S   15.633036   0.018051   0.008503  -0.000047  -0.000000  -0.000000
    14  C    0.018051   5.838992   0.117472   0.001189  -0.000006  -0.000000
    15  S    0.008503   0.117472  16.141375   0.109089  -0.001309  -0.000000
    16  C   -0.000047   0.001189   0.109089   5.486149   0.390874   0.000019
    17  C   -0.000000  -0.000006  -0.001309   0.390874   5.610427  -0.014328
    18  H   -0.000000  -0.000000  -0.000000   0.000019  -0.014328   0.571384
    19  H    0.000000  -0.000000  -0.000000   0.000002  -0.000093   0.004474
    20  H    0.000000  -0.000000  -0.000002   0.000164  -0.003902   0.000195
    21  H    0.000000   0.000000   0.000024   0.002070   0.004852  -0.000159
    22  H   -0.000000  -0.000002  -0.000056   0.000820  -0.000985  -0.000000
    23  H   -0.000190  -0.000205   0.000186   0.000052  -0.000044  -0.000000
    24  H   -0.014567   0.002836  -0.021976   0.000568  -0.000003   0.000000
    25  H    0.015478   0.000007  -0.000016  -0.000000   0.000000  -0.000000
    26  H   -0.030097   0.000079  -0.000001  -0.000000   0.000000   0.000000
    27  H   -0.013131   0.185516   0.002207  -0.000022   0.000000   0.000000
    28  H    0.000010  -0.000104  -0.054692   0.270782  -0.012499  -0.000004
    29  H   -0.000000   0.000000   0.000236  -0.006885   0.185553   0.008856
              19         20         21         22         23         24
     1  C   -0.016655   0.001980  -0.002059   0.000157  -0.000000   0.000000
     2  C    0.323345  -0.012280   0.000755  -0.000093  -0.000000  -0.000000
     3  N   -0.067286  -0.078735  -0.000837   0.000155   0.000000   0.000000
     4  C    0.003861   0.354116  -0.037208  -0.004800   0.000082   0.000000
     5  C   -0.000848  -0.082043   0.349638  -0.067266   0.000392   0.000004
     6  C    0.000146   0.012348  -0.015788   0.358318  -0.010644   0.000013
     7  N   -0.000001  -0.000255  -0.005468  -0.053726  -0.044312  -0.000930
     8  C    0.000000   0.000081   0.000199  -0.006230   0.354078  -0.020396
     9  C    0.000000   0.000000  -0.000004  -0.000333  -0.075661   0.352343
    10  C   -0.000000  -0.000000   0.000000   0.000120   0.002003  -0.023338
    11  C   -0.000000   0.000000   0.000000   0.000000   0.004838   0.007301
    12  C   -0.000000  -0.000000  -0.000000   0.000000   0.000115   0.000308
    13  S    0.000000   0.000000   0.000000  -0.000000  -0.000190  -0.014567
    14  C   -0.000000  -0.000000   0.000000  -0.000002  -0.000205   0.002836
    15  S   -0.000000  -0.000002   0.000024  -0.000056   0.000186  -0.021976
    16  C    0.000002   0.000164   0.002070   0.000820   0.000052   0.000568
    17  C   -0.000093  -0.003902   0.004852  -0.000985  -0.000044  -0.000003
    18  H    0.004474   0.000195  -0.000159  -0.000000  -0.000000   0.000000
    19  H    0.540583   0.011761   0.000008   0.000009  -0.000000  -0.000000
    20  H    0.011761   0.705522   0.003963   0.007663  -0.000009   0.000000
    21  H    0.000008   0.003963   0.529591   0.006813   0.000037   0.000001
    22  H    0.000009   0.007663   0.006813   0.652600   0.015258   0.000014
    23  H   -0.000000  -0.000009   0.000037   0.015258   0.654283   0.004478
    24  H   -0.000000   0.000000   0.000001   0.000014   0.004478   0.546745
    25  H    0.000000   0.000000   0.000000   0.000003   0.002321  -0.000113
    26  H    0.000000   0.000000  -0.000000  -0.000000  -0.000000   0.000007
    27  H    0.000000  -0.000000  -0.000000   0.000000   0.000008  -0.000104
    28  H   -0.000000  -0.000003  -0.000004   0.000013   0.000030   0.000045
    29  H   -0.000312   0.000700   0.000047   0.000000  -0.000000   0.000000
              25         26         27         28         29
     1  C    0.000000  -0.000000   0.000000  -0.000118  -0.003524
     2  C   -0.000000   0.000000   0.000000  -0.000001  -0.006762
     3  N    0.000000  -0.000000  -0.000000  -0.000001   0.002036
     4  C    0.000000   0.000000   0.000000  -0.000021   0.006030
     5  C    0.000000  -0.000000   0.000000   0.000523  -0.001337
     6  C    0.000000  -0.000000  -0.000000  -0.000091   0.000888
     7  N   -0.000024   0.000000  -0.000001   0.000370   0.000189
     8  C    0.001106   0.000006   0.000095   0.000261   0.000004
     9  C   -0.005557  -0.000618   0.001000   0.000407  -0.000000
    10  C   -0.032679   0.002937   0.001895   0.000001   0.000000
    11  C    0.364061  -0.025209  -0.000057  -0.000001   0.000000
    12  C   -0.044456   0.355932  -0.000634   0.000000   0.000000
    13  S    0.015478  -0.030097  -0.013131   0.000010  -0.000000
    14  C    0.000007   0.000079   0.185516  -0.000104   0.000000
    15  S   -0.000016  -0.000001   0.002207  -0.054692   0.000236
    16  C   -0.000000  -0.000000  -0.000022   0.270782  -0.006885
    17  C    0.000000   0.000000   0.000000  -0.012499   0.185553
    18  H   -0.000000   0.000000   0.000000  -0.000004   0.008856
    19  H    0.000000   0.000000   0.000000  -0.000000  -0.000312
    20  H    0.000000   0.000000  -0.000000  -0.000003   0.000700
    21  H    0.000000  -0.000000  -0.000000  -0.000004   0.000047
    22  H    0.000003  -0.000000   0.000000   0.000013   0.000000
    23  H    0.002321  -0.000000   0.000008   0.000030  -0.000000
    24  H   -0.000113   0.000007  -0.000104   0.000045   0.000000
    25  H    0.555420  -0.000672   0.000009   0.000000  -0.000000
    26  H   -0.000672   0.552824   0.000155   0.000000   0.000000
    27  H    0.000009   0.000155   0.715538   0.000011  -0.000000
    28  H    0.000000   0.000000   0.000011   0.612449  -0.002767
    29  H   -0.000000   0.000000  -0.000000  -0.002767   0.662668
 Mulliken charges:
               1
     1  C   -0.197116
     2  C   -0.150636
     3  N   -0.165857
     4  C   -0.077284
     5  C   -0.132591
     6  C    0.109597
     7  N   -0.142272
     8  C    0.007598
     9  C   -0.275616
    10  C    0.376004
    11  C   -0.169677
    12  C   -0.191536
    13  S    0.061222
    14  C   -0.144565
    15  S   -0.220116
    16  C   -0.252354
    17  C   -0.150876
    18  H    0.184518
    19  H    0.201008
    20  H    0.078736
    21  H    0.163528
    22  H    0.091549
    23  H    0.092904
    24  H    0.166767
    25  H    0.145112
    26  H    0.144657
    27  H    0.107516
    28  H    0.185401
    29  H    0.154381
 Sum of Mulliken charges =  -0.00000
 Mulliken charges with hydrogens summed into heavy atoms:
               1
     1  C   -0.012598
     2  C    0.050372
     3  N   -0.165857
     4  C    0.001451
     5  C    0.030937
     6  C    0.201146
     7  N   -0.142272
     8  C    0.100502
     9  C   -0.108849
    10  C    0.376004
    11  C   -0.024566
    12  C   -0.046880
    13  S    0.061222
    14  C   -0.037049
    15  S   -0.220116
    16  C   -0.066953
    17  C    0.003505
 Electronic spatial extent (au):  <R**2>=           6826.6823
 Charge=             -0.0000 electrons
 Dipole moment (field-independent basis, Debye):
    X=              3.9274    Y=             -4.0685    Z=              2.5965  Tot=              6.2224
 Quadrupole moment (field-independent basis, Debye-Ang):
   XX=            -88.6089   YY=           -115.9964   ZZ=           -116.5855
   XY=             -5.8082   XZ=             -3.9511   YZ=             -7.1292
 Traceless Quadrupole moment (field-independent basis, Debye-Ang):
   XX=             18.4547   YY=             -8.9328   ZZ=             -9.5219
   XY=             -5.8082   XZ=             -3.9511   YZ=             -7.1292
 Octapole moment (field-independent basis, Debye-Ang**2):
  XXX=             83.2562  YYY=            -31.7355  ZZZ=             -4.9390  XYY=             11.4242
  XXY=            -19.5451  XXZ=             50.7350  XZZ=             15.8081  YZZ=             -9.2486
  YYZ=             11.2857  XYZ=              6.2042
 Hexadecapole moment (field-independent basis, Debye-Ang**3):
 XXXX=          -7083.2256 YYYY=          -1278.8588 ZZZZ=           -312.1105 XXXY=           -106.3308
 XXXZ=            -87.2706 YYYX=            -26.2871 YYYZ=            -25.0444 ZZZX=             -2.5376
 ZZZY=            -18.4969 XXYY=          -1492.8628 XXZZ=          -1442.6402 YYZZ=           -256.2263
 XXYZ=           -133.5595 YYXZ=              2.3188 ZZXY=             -6.6919
 N-N= 1.289060029041D+03 E-N=-5.888727225043D+03  KE= 1.400490414365D+03
 PrsmSu:  requested number of processors reduced to:  13 ShMem   1 Linda.
 Calling FoFJK, ICntrl=      2127 FMM=F ISym2X=0 I1Cent= 0 IOpClX= 0 NMat=1 NMatS=1 NMatT=0.
 ***** Axes restored to original set *****
 -------------------------------------------------------------------
 Center     Atomic                   Forces (Hartrees/Bohr)
 Number     Number              X              Y              Z
 -------------------------------------------------------------------
      1        6          -0.101584226   -0.032904163   -0.007209185
      2        6           0.024308536   -0.019383199   -0.081228590
      3        7          -0.014504366    0.062972707    0.007583551
      4        6           0.044569797    0.016668932    0.020027077
      5        6          -0.034531471   -0.008059847   -0.033901850
      6        6           0.020695803    0.010487636    0.004244856
      7        7          -0.015560645   -0.000520563   -0.011847473
      8        6           0.017677668    0.029439430    0.011534706
      9        6          -0.063764664   -0.008694702   -0.014297265
     10        6           0.000863622   -0.039184489   -0.030930256
     11        6          -0.015356781    0.008314467   -0.011349071
     12        6           0.055549509   -0.006634814   -0.005484132
     13       16           0.037507801    0.032766383    0.042417233
     14        6           0.030859044    0.014120581    0.029387488
     15       16           0.031558368   -0.012448425    0.003887773
     16        6          -0.069927416   -0.022942308   -0.023102506
     17        6           0.070258333    0.034187890    0.060556977
     18        1           0.046967620    0.003261983    0.034930930
     19        1          -0.020599823   -0.030578096    0.061854027
     20        1           0.008898016    0.009714857    0.002385832
     21        1           0.014316310    0.005001339   -0.028155187
     22        1           0.011609338   -0.007758157   -0.004388417
     23        1           0.002790946   -0.006560283   -0.003818409
     24        1          -0.005084247   -0.000069065   -0.024496868
     25        1           0.007005351   -0.000386616    0.003147610
     26        1          -0.018717420    0.002066692    0.017104822
     27        1          -0.056850155   -0.012211180   -0.024415453
     28        1          -0.035089912   -0.021105902   -0.019011043
     29        1           0.026135065    0.000438911    0.024572825
 -------------------------------------------------------------------
 Cartesian Forces:  Max     0.101584226 RMS     0.030874125

 GradGradGradGradGradGradGradGradGradGradGradGradGradGradGradGradGradGrad
 Berny optimization.
 FormGI is forming the generalized inverse of G from B-inverse, IUseBI=4.
 Internal  Forces:  Max     0.110768857 RMS     0.029901507
 Search for a local minimum.
 Step number   1 out of a maximum of  138
 All quantities printed in internal units (Hartrees-Bohrs-Radians)
 Mixed Optimization -- RFO/linear search
 Second derivative matrix not updated -- first step.
 ITU=  0
     Eigenvalues ---    0.00230   0.00231   0.00247   0.00262   0.00444
     Eigenvalues ---    0.00547   0.00936   0.01161   0.01351   0.01522
     Eigenvalues ---    0.01687   0.01892   0.02099   0.02258   0.02358
     Eigenvalues ---    0.02398   0.02485   0.02538   0.02615   0.02789
     Eigenvalues ---    0.02932   0.03084   0.03271   0.03974   0.05320
     Eigenvalues ---    0.05535   0.06230   0.08218   0.08468   0.08836
     Eigenvalues ---    0.09850   0.11162   0.13735   0.14932   0.15063
     Eigenvalues ---    0.15153   0.15419   0.15625   0.15680   0.15788
     Eigenvalues ---    0.15986   0.15990   0.16102   0.16885   0.16937
     Eigenvalues ---    0.17951   0.18371   0.19344   0.19679   0.20867
     Eigenvalues ---    0.21333   0.21631   0.22014   0.22114   0.22253
     Eigenvalues ---    0.23301   0.24625   0.24784   0.25746   0.26229
     Eigenvalues ---    0.27131   0.29963   0.31378   0.32338   0.32541
     Eigenvalues ---    0.33947   0.34787   0.35293   0.35404   0.35642
     Eigenvalues ---    0.36420   0.38285   0.38717   0.39586   0.46785
     Eigenvalues ---    0.51051   0.54131   0.59865   0.64722   0.66226
     Eigenvalues ---    0.71776
 RFO step:  Lambda=-2.69150280D-01 EMin= 2.30000000D-03
 Linear search not attempted -- first point.
 Maximum step size (   0.300) exceeded in Quadratic search.
    -- Step size scaled by   0.468
 Iteration  1 RMS(Cart)=  0.17294062 RMS(Int)=  0.00397799
 Iteration  2 RMS(Cart)=  0.01060279 RMS(Int)=  0.00073808
 Iteration  3 RMS(Cart)=  0.00002860 RMS(Int)=  0.00073800
 Iteration  4 RMS(Cart)=  0.00000011 RMS(Int)=  0.00073800
 Variable       Old X    -DE/DX   Delta X   Delta X   Delta X     New X
                                 (Linear)    (Quad)   (Total)
    R1        2.73714   0.02854   0.00000   0.01851   0.01798   2.75513
    R2        2.37750  -0.04708   0.00000  -0.04614  -0.04614   2.33135
    R3        3.08885   0.02727   0.00000   0.03306   0.03264   3.12150
    R4        2.63113   0.09540   0.00000   0.06127   0.06157   2.69270
    R5        2.24049  -0.04076   0.00000  -0.03625  -0.03625   2.20424
    R6        2.46103   0.04766   0.00000   0.02552   0.02620   2.48722
    R7        2.78652  -0.04696   0.00000  -0.03293  -0.03223   2.75429
    R8        2.11996  -0.00608   0.00000  -0.00488  -0.00488   2.11508
    R9        2.50565   0.02187   0.00000   0.01347   0.01415   2.51980
   R10        2.09866  -0.02268   0.00000  -0.01786  -0.01786   2.08079
   R11        2.55531  -0.01095   0.00000  -0.00439  -0.00370   2.55161
   R12        2.03430   0.01334   0.00000   0.00987   0.00987   2.04416
   R13        2.42373   0.00672   0.00000   0.00470   0.00540   2.42912
   R14        2.71860  -0.02714   0.00000  -0.01670  -0.01601   2.70259
   R15        2.05202   0.00789   0.00000   0.00594   0.00594   2.05795
   R16        2.46861   0.05908   0.00000   0.03162   0.03234   2.50095
   R17        2.07420  -0.01377   0.00000  -0.01060  -0.01060   2.06360
   R18        2.69560   0.00934   0.00000   0.00751   0.00777   2.70337
   R19        3.16922   0.07526   0.00000   0.05643   0.05709   3.22631
   R20        2.55108   0.01969   0.00000   0.01127   0.01131   2.56240
   R21        2.04645  -0.00195   0.00000  -0.00146  -0.00146   2.04498
   R22        3.35065   0.00875   0.00000   0.00586   0.00561   3.35626
   R23        2.10230  -0.01979   0.00000  -0.01564  -0.01564   2.08667
   R24        4.13958   0.03262   0.00000   0.03944   0.03898   4.17856
   R25        4.24038  -0.01298   0.00000  -0.02186  -0.02264   4.21774
   R26        2.48172  -0.05931   0.00000  -0.06191  -0.06191   2.41982
   R27        3.81566   0.02156   0.00000   0.02648   0.02577   3.84143
   R28        3.17425  -0.11077   0.00000  -0.11683  -0.11762   3.05663
   R29        2.14559  -0.03698   0.00000  -0.03209  -0.03244   2.11315
   R30        2.22796  -0.01415   0.00000  -0.01511  -0.01578   2.21217
    A1        1.36523   0.03926   0.00000   0.04694   0.04693   1.41216
    A2        2.64411  -0.00205   0.00000  -0.00616  -0.00598   2.63813
    A3        1.89473  -0.03273   0.00000  -0.03544  -0.03536   1.85937
    A4        1.66084   0.05716   0.00000   0.07380   0.07433   1.73518
    A5        1.52443   0.03789   0.00000   0.06027   0.06001   1.58444
    A6        1.74188   0.03695   0.00000   0.05065   0.05242   1.79430
    A7        2.04286  -0.00426   0.00000  -0.00320  -0.00149   2.04137
    A8        2.02559  -0.00032   0.00000  -0.00045  -0.00111   2.02449
    A9        2.07408  -0.00325   0.00000  -0.00295  -0.00336   2.07072
   A10        2.05871   0.00806   0.00000   0.01206   0.01160   2.07031
   A11        2.07706  -0.01027   0.00000  -0.01389  -0.01377   2.06329
   A12        2.09078  -0.00647   0.00000  -0.00948  -0.00942   2.08136
   A13        2.07245  -0.01514   0.00000  -0.01607  -0.01577   2.05668
   A14        2.07155   0.01538   0.00000   0.01697   0.01551   2.08706
   A15        2.13724   0.00299   0.00000   0.00362   0.00216   2.13940
   A16        2.03712   0.04168   0.00000   0.04133   0.04028   2.07740
   A17        2.08176  -0.01617   0.00000  -0.01640  -0.01564   2.06612
   A18        2.15400   0.00692   0.00000   0.00727   0.00613   2.16013
   A19        2.04612   0.01131   0.00000   0.01195   0.01081   2.05693
   A20        2.10955   0.00756   0.00000   0.01213   0.01176   2.12131
   A21        2.13934  -0.01783   0.00000  -0.02108  -0.02084   2.11850
   A22        2.00114   0.00807   0.00000   0.00743   0.00765   2.00879
   A23        2.46819   0.00243   0.00000   0.00179   0.00107   2.46926
   A24        2.11060   0.01793   0.00000   0.01757   0.01865   2.12925
   A25        1.69006  -0.02054   0.00000  -0.01902  -0.01935   1.67071
   A26        1.65484   0.01567   0.00000   0.01514   0.01541   1.67026
   A27        2.22730  -0.00138   0.00000  -0.00031  -0.00050   2.22680
   A28        2.39080  -0.01532   0.00000  -0.01632  -0.01649   2.37431
   A29        1.66501   0.00345   0.00000   0.00062   0.00052   1.66553
   A30        2.22848   0.00732   0.00000   0.01005   0.01003   2.23851
   A31        2.36731  -0.01109   0.00000  -0.01132  -0.01121   2.35610
   A32        1.26756   0.00049   0.00000   0.00201   0.00209   1.26964
   A33        1.32717   0.03513   0.00000   0.05129   0.05184   1.37901
   A34        1.84984   0.00326   0.00000  -0.00261  -0.00308   1.84675
   A35        2.20566   0.06807   0.00000   0.06911   0.06805   2.27371
   A36        1.42000  -0.00846   0.00000  -0.00635  -0.00571   1.41429
   A37        2.64804  -0.05917   0.00000  -0.06187  -0.06139   2.58665
   A38        2.69023   0.01269   0.00000   0.00580   0.00736   2.69759
   A39        2.25790  -0.00789   0.00000  -0.00473  -0.00262   2.25527
   A40        2.35148  -0.01479   0.00000  -0.01616  -0.01460   2.33688
   A41        1.56383  -0.03120   0.00000  -0.03733  -0.04096   1.52286
   A42        1.54189   0.00771   0.00000   0.00200  -0.00052   1.54137
   A43        3.18527   0.09505   0.00000   0.13407   0.13434   3.31961
   A44        2.88777   0.01294   0.00000   0.02152   0.02197   2.90973
    D1        1.76803   0.01706   0.00000   0.01801   0.01818   1.78621
    D2       -2.64243   0.01994   0.00000   0.02798   0.02819  -2.61424
    D3        2.12897   0.00749   0.00000   0.00784   0.00796   2.13693
    D4       -2.41554   0.02933   0.00000   0.03863   0.03878  -2.37676
    D5        1.23985   0.02212   0.00000   0.03573   0.03663   1.27648
    D6       -1.64792   0.00918   0.00000   0.01421   0.01466  -1.63326
    D7       -1.84907  -0.01459   0.00000  -0.03525  -0.03661  -1.88568
    D8        0.74241  -0.02950   0.00000  -0.04788  -0.04811   0.69430
    D9        2.97987  -0.04695   0.00000  -0.06238  -0.06114   2.91873
   D10        0.19386  -0.01942   0.00000  -0.02635  -0.02585   0.16801
   D11        0.40411  -0.03256   0.00000  -0.05019  -0.05007   0.35404
   D12       -2.38190  -0.00502   0.00000  -0.01416  -0.01478  -2.39668
   D13        3.12228   0.06565   0.00000   0.09141   0.09031  -3.07059
   D14        0.04597   0.01137   0.00000   0.01563   0.01521   0.06118
   D15       -0.37778   0.03712   0.00000   0.05421   0.05380  -0.32398
   D16        2.82910  -0.01716   0.00000  -0.02157  -0.02130   2.80780
   D17       -2.89177  -0.06573   0.00000  -0.09039  -0.08928  -2.98105
   D18        0.18195  -0.00884   0.00000  -0.01111  -0.01127   0.17068
   D19        2.98793   0.06131   0.00000   0.08434   0.08332   3.07125
   D20       -0.09705   0.01665   0.00000   0.02333   0.02314  -0.07391
   D21        3.10580  -0.03643   0.00000  -0.04575  -0.04491   3.06089
   D22        0.25274  -0.02846   0.00000  -0.04053  -0.04020   0.21254
   D23       -0.08894   0.00542   0.00000   0.01144   0.01160  -0.07734
   D24       -2.94199   0.01340   0.00000   0.01666   0.01630  -2.92569
   D25        0.07477   0.01834   0.00000   0.02386   0.02354   0.09831
   D26       -2.83569   0.02169   0.00000   0.02287   0.02221  -2.81348
   D27        2.94937   0.00686   0.00000   0.01444   0.01456   2.96392
   D28        0.03890   0.01021   0.00000   0.01344   0.01323   0.05213
   D29       -3.02748  -0.00604   0.00000  -0.01228  -0.01273  -3.04021
   D30        0.24688   0.00174   0.00000  -0.00143  -0.00158   0.24530
   D31       -0.08512  -0.00625   0.00000  -0.00884  -0.00889  -0.09401
   D32       -3.09394   0.00153   0.00000   0.00201   0.00226  -3.09168
   D33        3.06484   0.00394   0.00000   0.00834   0.00843   3.07327
   D34        1.10948   0.01587   0.00000   0.03453   0.03441   1.14389
   D35        0.06764   0.00520   0.00000   0.00707   0.00711   0.07474
   D36       -1.88773   0.01714   0.00000   0.03325   0.03309  -1.85464
   D37        0.08028   0.00781   0.00000   0.00981   0.01003   0.09031
   D38       -2.86280   0.01098   0.00000   0.01462   0.01489  -2.84792
   D39        3.06756   0.00115   0.00000  -0.00014  -0.00012   3.06744
   D40        0.12448   0.00431   0.00000   0.00466   0.00474   0.12922
   D41       -0.07128  -0.00538   0.00000  -0.00750  -0.00754  -0.07882
   D42        1.13920   0.03310   0.00000   0.05248   0.05290   1.19210
   D43        2.84520  -0.00509   0.00000  -0.00854  -0.00862   2.83659
   D44       -2.22751   0.03339   0.00000   0.05144   0.05183  -2.17568
   D45       -0.83885  -0.00825   0.00000  -0.00781  -0.00771  -0.84656
   D46        2.40859  -0.00210   0.00000  -0.00387  -0.00463   2.40395
   D47       -2.00761  -0.02217   0.00000  -0.03246  -0.03179  -2.03939
   D48        1.23983  -0.01602   0.00000  -0.02852  -0.02871   1.21112
   D49        2.87488  -0.00858   0.00000  -0.01270  -0.01251   2.86237
   D50       -0.48901   0.00349   0.00000   0.00511   0.00455  -0.48445
   D51       -2.31127  -0.02827   0.00000  -0.03925  -0.03895  -2.35022
   D52       -0.18693   0.00721   0.00000   0.00657   0.00676  -0.18017
   D53       -3.07394   0.02414   0.00000   0.02289   0.02322  -3.05071
   D54       -3.12284  -0.00970   0.00000  -0.00721  -0.00709  -3.12992
         Item               Value     Threshold  Converged?
 Maximum Force            0.110769     0.000450     NO 
 RMS     Force            0.029902     0.000300     NO 
 Maximum Displacement     0.558102     0.001800     NO 
 RMS     Displacement     0.173644     0.001200     NO 
 Predicted change in Energy=-1.166346D-01
 GradGradGradGradGradGradGradGradGradGradGradGradGradGradGradGradGradGrad

                          Input orientation:                          
 ---------------------------------------------------------------------
 Center     Atomic      Atomic             Coordinates (Angstroms)
 Number     Number       Type             X           Y           Z
 ---------------------------------------------------------------------
      1          6           0        3.397072    0.765862    2.429852
      2          6           0        3.036602    0.326974    1.087072
      3          7           0        3.490149    1.454728    0.343533
      4          6           0        4.799096    1.322494    0.382328
      5          6           0        5.533532    2.261084    1.221361
      6          6           0        6.814185    2.007911    1.493091
      7          7           0        7.456072    2.841845    2.339095
      8          6           0        8.728860    2.729514    2.479584
      9          6           0        9.407050    3.675019    3.311088
     10          6           0       10.699865    3.565388    3.572074
     11          6           0       11.849803    2.788450    3.224924
     12          6           0       12.680087    3.365841    4.128185
     13         16           0       11.426636    4.363664    4.894722
     14          6           0       10.086669    2.949391    5.940529
     15         16           0        7.924711    2.500854    5.614524
     16          6           0        6.062852    1.554388    4.718671
     17          6           0        4.801147    1.122356    3.803381
     18          1           0        2.185380    0.994556    2.468774
     19          1           0        2.927820   -0.295705    0.106764
     20          1           0        5.190155    0.279285    0.274998
     21          1           0        4.959755    2.916032    1.895350
     22          1           0        7.295885    1.149899    1.043749
     23          1           0        9.324064    1.951673    2.003491
     24          1           0        8.857077    4.349869    3.970327
     25          1           0       11.958168    2.105346    2.392641
     26          1           0       13.783683    3.341280    4.155848
     27          1           0       11.124403    2.825363    6.680416
     28          1           0        6.228226    1.398777    5.813602
     29          1           0        3.864557    0.442893    3.980876
 ---------------------------------------------------------------------
                    Distance matrix (angstroms):
                    1          2          3          4          5
     1  C    0.000000
     2  C    1.457951   0.000000
     3  N    2.199074   1.424915   0.000000
     4  C    2.543200   2.143387   1.316182   0.000000
     5  C    2.874126   3.161246   2.365630   1.457506   0.000000
     6  C    3.754580   4.154580   3.560437   2.400870   1.333419
     7  N    4.559981   5.236779   4.651334   3.632752   2.298429
     8  C    5.682110   6.333490   5.799301   4.671320   3.465931
     9  C    6.734955   7.532481   6.981819   5.945187   4.622804
    10  C    7.903974   8.682636   8.176697   7.072774   5.823922
    11  C    8.727638   9.396904   8.942318   7.742212   6.647380
    12  C    9.788697  10.558404  10.120815   8.961960   7.793803
    13  S    9.137486  10.059112   9.600159   8.575237   7.255556
    14  C    7.864055   8.951903   8.779206   7.842118   6.593586
    15  S    5.801021   7.008365   6.967285   6.207565   5.007505
    16  C    3.600951   4.883978   5.076471   4.522689   3.607045
    17  C    1.996271   3.335354   3.714799   3.426903   2.915462
    18  H    1.233699   1.754806   2.535908   3.360404   3.790812
    19  H    2.596894   1.166433   1.853723   2.489212   3.816966
    20  H    2.845224   2.302071   2.067941   1.119254   2.222844
    21  H    2.711255   3.324914   2.589071   2.203273   1.101108
    22  H    4.155660   4.338269   3.881604   2.588672   2.090972
    23  H    6.059469   6.558327   6.085801   4.847615   3.882731
    24  H    6.710426   7.640338   7.095025   6.205315   4.792263
    25  H    8.665331   9.190291   8.736675   7.477066   6.532388
    26  H   10.839444  11.575975  11.137759   9.951771   8.822870
    27  H    9.056516  10.145934  10.015815   9.051742   7.834382
    28  H    4.457104   5.803043   6.117340   5.616669   4.723860
    29  H    1.651825   3.012150   3.793976   3.820550   3.702191
                    6          7          8          9         10
     6  C    0.000000
     7  N    1.350255   0.000000
     8  C    2.271532   1.285436   0.000000
     9  C    3.578731   2.333509   1.430147   0.000000
    10  C    4.674015   3.544848   2.403556   1.323443   0.000000
    11  C    5.382001   4.482457   3.209251   2.600090   1.430560
    12  C    6.572404   5.546688   4.328394   3.387626   2.066485
    13  S    6.196399   4.961102   3.972572   2.657226   1.707290
    14  C    5.601360   4.461158   3.724262   2.811116   2.522902
    15  S    4.296797   3.326309   3.244501   2.980237   3.606427
    16  C    3.342835   3.043187   3.674511   4.202621   5.182730
    17  C    3.189666   3.485599   4.445484   5.288930   6.388801
    18  H    4.837839   5.586545   6.769589   7.748994   8.962305
    19  H    4.725715   5.944122   6.959475   8.247107   9.344576
    20  H    2.666340   3.995196   4.835934   6.207339   7.212911
    21  H    2.103666   2.536535   3.818674   4.728511   6.015142
    22  H    1.081724   2.136881   2.571035   3.996758   4.879968
    23  H    2.561867   2.096290   1.089023   2.164861   2.637681
    24  H    3.974276   2.626379   2.205516   1.092011   2.042029
    25  H    5.222953   4.562254   3.290224   3.132989   2.259670
    26  H    7.579053   6.602173   5.360537   4.469890   3.146578
    27  H    6.793714   5.683660   4.836818   3.876027   3.223300
    28  H    4.402410   3.957556   4.374895   4.642066   5.451074
    29  H    4.163972   4.620541   5.580677   6.450929   7.525857
                   11         12         13         14         15
    11  C    0.000000
    12  C    1.355961   0.000000
    13  S    2.334223   1.776055   0.000000
    14  C    3.241767   3.191213   2.211196   0.000000
    15  S    4.604265   5.056779   4.031334   2.231934   0.000000
    16  C    6.102704   6.886061   6.057491   4.430584   2.272635
    17  C    7.265950   8.198562   7.456152   5.986835   3.864860
    18  H    9.858545  10.886483  10.130988   8.849002   6.715996
    19  H    9.941666  11.166264  10.810371   9.788390   7.945129
    20  H    7.703823   8.970672   8.770273   7.950066   6.397163
    21  H    7.018320   8.049311   7.274092   6.530684   4.774473
    22  H    5.308535   6.588913   6.497798   5.916510   4.807544
    23  H    2.927705   4.216288   4.312508   4.132466   3.911438
    24  H    3.456886   3.950777   2.730811   2.711997   2.644154
    25  H    1.082159   2.263211   3.412175   4.099076   5.177425
    26  H    2.216333   1.104216   2.673364   4.123903   6.096032
    27  H    3.531006   3.037459   2.376220   1.280511   3.388135
    28  H    6.343074   6.952445   6.054615   4.160300   2.032798
    29  H    8.356869   9.288644   8.566948   6.988380   4.836203
                   16         17         18         19         20
    16  C    0.000000
    17  C    1.617500   0.000000
    18  H    4.517769   2.939345   0.000000
    19  H    5.875453   4.380095   2.791967   0.000000
    20  H    4.704648   3.648504   3.788527   2.340315   0.000000
    21  H    3.322956   2.623550   3.423163   4.200364   3.103395
    22  H    3.897311   3.720221   5.307739   4.695499   2.404797
    23  H    4.262105   4.938031   7.217574   7.039902   4.782653
    24  H    4.022738   5.186066   7.617370   8.465492   6.608436
    25  H    6.361503   7.360666   9.836007   9.619639   7.322903
    26  H    7.944872   9.259255  11.952990  12.143826   9.913907
    27  H    5.575224   7.152700  10.049672  10.960745   9.095449
    28  H    1.118230   2.480716   5.262687   6.806758   5.745171
    29  H    2.571432   1.170631   2.326031   4.053609   3.939227
                   21         22         23         24         25
    21  H    0.000000
    22  H    3.049911   0.000000
[...]
   D42        0.83869   0.00070   0.00891  -0.01889  -0.01037   0.82832
   D43       -3.12673  -0.00022   0.00116   0.00230   0.00358  -3.12316
   D44       -2.28923   0.00049   0.00834  -0.02744  -0.01940  -2.30862
   D45       -0.09747  -0.00042  -0.02312  -0.02199  -0.04474  -0.14220
   D46        1.27087  -0.00013  -0.04544  -0.09880  -0.14402   1.12685
   D47       -1.45020  -0.00113  -0.00558  -0.08370  -0.08969  -1.53989
   D48       -0.08187  -0.00085  -0.02790  -0.16051  -0.18897  -0.27084
   D49        1.31415  -0.00028   0.02580  -0.03939  -0.01374   1.30040
   D50        0.06556   0.00125   0.04812   0.03739   0.08518   0.15074
   D51       -2.92065   0.00317   0.02493   0.03571   0.06083  -2.85982
   D52        0.06501   0.00522  -0.03578   0.04613   0.00996   0.07497
   D53        3.13476   0.00198   0.06246  -0.00993   0.05214  -3.09629
   D54        3.06957   0.00349   0.01470   0.00685   0.02150   3.09107
         Item               Value     Threshold  Converged?
 Maximum Force            0.027172     0.000450     NO 
 RMS     Force            0.003554     0.000300     NO 
 Maximum Displacement     0.288258     0.001800     NO 
 RMS     Displacement     0.067153     0.001200     NO 
 Predicted change in Energy=-1.874630D-03
 GradGradGradGradGradGradGradGradGradGradGradGradGradGradGradGradGradGrad

                          Input orientation:                          
 ---------------------------------------------------------------------
 Center     Atomic      Atomic             Coordinates (Angstroms)
 Number     Number       Type             X           Y           Z
 ---------------------------------------------------------------------
      1          6           0        3.587678    0.220915    3.461717
      2          6           0        3.184457    1.049145    2.467802
      3          7           0        3.933101    1.977843    1.774230
      4          6           0        5.062096    1.658918    1.252511
      5          6           0        6.019417    2.661717    0.861518
      6          6           0        7.335150    2.359292    0.901555
      7          7           0        8.292983    3.344829    1.023786
      8          6           0        9.327852    3.038965    1.729446
      9          6           0       10.279276    4.025204    2.169131
     10          6           0       11.162717    3.740287    3.140019
     11          6           0       11.512838    2.575657    3.955837
     12          6           0       12.406940    3.174413    4.766150
     13         16           0       12.318063    4.814804    4.034227
     14          6           0        7.336141    3.296791    4.713953
     15         16           0        5.852771    2.646878    4.508836
     16          6           0        5.875728    0.850091    4.478964
     17          6           0        4.902990    0.009813    4.065468
     18          1           0        2.821072   -0.445669    3.843884
     19          1           0        2.120988    1.058767    2.235602
     20          1           0        5.383418    0.609401    1.203001
     21          1           0        5.699131    3.696818    0.821968
     22          1           0        7.646146    1.313780    1.013141
     23          1           0        9.463957    2.019262    2.118396
     24          1           0       10.184120    5.030058    1.772334
     25          1           0       11.151553    1.557240    3.919281
     26          1           0       13.014904    2.858213    5.600603
     27          1           0        8.112024    2.516381    4.774454
     28          1           0        6.793474    0.440031    4.897407
     29          1           0        5.112575   -1.044814    4.265632
 ---------------------------------------------------------------------
                    Distance matrix (angstroms):
                    1          2          3          4          5
     1  C    0.000000
     2  C    1.355145   0.000000
     3  N    2.460432   1.379851   0.000000
     4  C    3.020323   2.318250   1.283952   0.000000
     5  C    4.316469   3.635593   2.377697   1.440467   0.000000
     6  C    5.017034   4.625782   3.532847   2.404261   1.350635
     7  N    6.151604   5.783803   4.630376   3.651471   2.379511
     8  C    6.625086   6.499681   5.498303   4.508733   3.441127
     9  C    7.805182   7.699518   6.679938   5.801592   4.659972
    10  C    8.358869   8.446700   7.565642   6.716574   5.727863
    11  C    8.282338   8.596884   7.910070   7.054110   6.305544
    12  C    9.391702   9.739269   9.065832   8.281855   7.503963
    13  S    9.881863  10.002831   9.135838   8.387290   7.373928
    14  C    5.008002   5.228153   4.686393   4.453705   4.120478
    15  S    3.480287   3.720009   3.407464   3.493549   3.651153
    16  C    2.581826   3.365611   3.515852   3.424354   4.048278
    17  C    1.462574   2.566340   3.172317   3.264596   4.306309
    18  H    1.085390   2.064006   3.375424   4.020782   5.364678
    19  H    2.087231   1.088566   2.083583   3.158602   4.433431
    20  H    2.911598   2.574592   2.074213   1.098720   2.175570
    21  H    4.848547   4.005312   2.642071   2.178122   1.084243
    22  H    4.864262   4.700291   3.847979   2.617964   2.118058
    23  H    6.290407   6.363594   5.541709   4.500666   3.722546
    24  H    8.336362   8.082489   6.956383   6.153855   4.876820
    25  H    7.694630   8.114158   7.542162   6.648571   6.075245
    26  H   10.020118  10.474963   9.894207   9.142832   8.451886
    27  H    5.240434   5.635099   5.172501   4.737234   4.439729
    28  H    3.519424   4.393063   4.505645   4.215285   4.671558
    29  H    2.138612   3.366675   4.090808   4.048657   5.113583
                    6          7          8          9         10
     6  C    0.000000
     7  N    1.379734   0.000000
     8  C    2.262349   1.289366   0.000000
     9  C    3.612463   2.391670   1.439165   0.000000
    10  C    4.644151   3.587507   2.418326   1.343231   0.000000
    11  C    5.179627   4.422218   3.153670   2.610590   1.464413
    12  C    6.428264   5.564079   4.326743   3.463425   2.124290
    13  S    6.377508   5.236875   4.172168   2.873797   1.813565
    14  C    3.925976   3.812503   3.597315   3.958377   4.161327
    15  S    3.910579   4.311304   4.467095   5.193067   5.591487
    16  C    4.147946   4.899499   4.926275   5.899822   6.172379
    17  C    4.630961   5.645016   5.849117   6.973084   7.345548
    18  H    6.074702   7.229290   7.678002   8.855411   9.359524
    19  H    5.537015   6.692391   7.491080   8.681119   9.474248
    20  H    2.638607   3.997530   4.662455   6.047358   6.852356
    21  H    2.114679   2.625394   3.797882   4.785437   5.935151
    22  H    1.096479   2.131589   2.513462   3.952405   4.772612
    23  H    2.475509   2.080019   1.099819   2.165899   2.625153
    24  H    4.000985   2.641349   2.167830   1.084544   2.119369
    25  H    4.931013   4.444186   3.211973   3.148768   2.317988
    26  H    7.388476   6.593981   5.349101   4.540984   3.203611
    27  H    3.953171   3.845332   3.320152   3.709614   3.670974
    28  H    4.465850   5.068660   4.818040   5.696294   5.750686
    29  H    5.276817   6.316132   6.393595   7.536258   7.795410
                   11         12         13         14         15
    11  C    0.000000
    12  C    1.347046   0.000000
    13  S    2.380821   1.798470   0.000000
    14  C    4.305760   5.072544   5.252232   0.000000
    15  S    5.687464   6.580398   6.835581   1.632436   0.000000
    16  C    5.918467   6.938420   7.577626   2.859084   1.797181
    17  C    7.091239   8.174039   8.835849   4.140650   2.837740
    18  H    9.202594  10.288072  10.858253   5.928648   4.381461
    19  H    9.667834  10.801872  11.014682   6.192640   4.649289
    20  H    7.001004   8.282824   8.590143   4.833423   3.911541
    21  H    6.699054   7.798986   7.441691   4.241152   3.836531
    22  H    5.020269   6.341309   6.573503   4.210041   4.148883
    23  H    2.807789   4.123848   4.430732   3.591183   4.375931
    24  H    3.543623   4.165007   3.117084   4.446158   5.650538
    25  H    1.081220   2.215498   3.462034   4.267893   5.441689
    26  H    2.245283   1.079775   2.601417   5.764274   7.247950
    27  H    3.498454   4.345041   4.849892   1.102132   2.278554
    28  H    5.264965   6.245404   7.099635   2.913627   2.430243
    29  H    7.359834   8.441573   9.290195   4.898446   3.773013
                   16         17         18         19         20
    16  C    0.000000
    17  C    1.350284   0.000000
    18  H    3.378350   2.142649   0.000000
    19  H    4.378846   3.491166   2.310847   0.000000
    20  H    3.321481   2.963787   3.827931   3.451325   0.000000
    21  H    4.637743   4.974749   5.880085   4.664846   3.126820
    22  H    3.919352   4.306035   5.864308   5.664523   2.377422
    23  H    4.451363   5.350831   7.292538   7.406449   4.413214
    24  H    6.584847   7.638826   9.406880   8.999993   6.550809
    25  H    5.352349   6.438979   8.568211   9.199693   6.445771
    26  H    7.500564   8.733452  10.858909  11.542904   9.090415
    27  H    2.804435   4.133212   6.134645   6.668052   4.882329
    28  H    1.088807   2.109773   4.204087   5.412962   3.957977
    29  H    2.053918   1.093724   2.405792   4.182783   3.491346
                   21         22         23         24         25
    21  H    0.000000
    22  H    3.083227   0.000000
    23  H    4.320745   2.241369   0.000000
    24  H    4.774500   4.563816   3.115010   0.000000
    25  H    6.625711   4.559913   2.510902   4.195924   0.000000
    26  H    8.778334   7.228668   5.043691   5.233154   2.826915
    27  H    4.778873   3.976276   3.021505   4.429998   3.300001
    28  H    5.330427   4.071611   4.165136   6.506222   4.604101
    29  H    5.889478   4.749805   5.738790   8.297059   6.584823
                   26         27         28         29
    26  H    0.000000
    27  H    4.983734   0.000000
    28  H    6.711802   2.462706   0.000000
    29  H    8.914178   4.683770   2.330091   0.000000
 Stoichiometry    C13H12N2S2
 Framework group  C1[X(C13H12N2S2)]
 Deg. of freedom    81
 Full point group                 C1      NOp   1
 Largest Abelian subgroup         C1      NOp   1
 Largest concise Abelian subgroup C1      NOp   1
                         Standard orientation:                         
 ---------------------------------------------------------------------
 Center     Atomic      Atomic             Coordinates (Angstroms)
 Number     Number       Type             X           Y           Z
 ---------------------------------------------------------------------
      1          6           0       -4.636099    1.026050    0.503119
      2          6           0       -4.829631   -0.144852   -0.151062
      3          7           0       -3.883426   -1.067762   -0.547195
      4          6           0       -2.999952   -1.502614    0.276766
      5          6           0       -1.801003   -2.155813   -0.182361
      6          6           0       -0.677365   -2.055473    0.560328
      7          7           0        0.571371   -2.208954   -0.006036
      8          6           0        1.504113   -1.461706    0.477777
      9          6           0        2.781354   -1.308982   -0.167610
     10          6           0        3.609034   -0.309287    0.178550
     11          6           0        3.616551    0.778748    1.158668
     12          6           0        4.745185    1.391514    0.752175
     13         16           0        5.155922    0.256098   -0.580724
     14          6           0        0.061729    1.377021   -1.196090
     15         16           0       -1.568069    1.369515   -1.103623
     16          6           0       -2.176879    1.811812    0.528426
     17          6           0       -3.420209    1.646347    1.028444
     18          1           0       -5.541141    1.579964    0.731483
     19          1           0       -5.841318   -0.357162   -0.492221
     20          1           0       -3.072376   -1.279327    1.350118
     21          1           0       -1.742247   -2.461262   -1.221028
     22          1           0       -0.740636   -1.677663    1.587714
     23          1           0        1.316943   -0.820700    1.351665
     24          1           0        3.000618   -1.954212   -1.011315
     25          1           0        2.920919    1.015524    1.951807
     26          1           0        5.290789    2.271466    1.058627
     27          1           0        0.518229    1.629754   -0.225302
     28          1           0       -1.420495    2.310842    1.132044
     29          1           0       -3.571515    2.113377    2.005798
 ---------------------------------------------------------------------
 Rotational constants (GHZ):           0.7854747           0.1674891           0.1495875
 Standard basis: 6-31G(2df,p) (6D, 7F)
 There are   595 symmetry adapted cartesian basis functions of A   symmetry.
 There are   544 symmetry adapted basis functions of A   symmetry.
   544 basis functions,   880 primitive gaussians,   595 cartesian basis functions
    68 alpha electrons       68 beta electrons
       nuclear repulsion energy      1255.5393080271 Hartrees.
 NAtoms=   29 NActive=   29 NUniq=   29 SFac= 1.00D+00 NAtFMM=   60 NAOKFM=F Big=F
 Integral buffers will be    131072 words long.
 Raffenetti 2 integral format.
 Two-electron integral symmetry is turned on.
 One-electron integrals computed using PRISM.
 PrsmSu:  requested number of processors reduced to:  12 ShMem   1 Linda.
 NBasis=   544 RedAO= T EigKep=  2.61D-04  NBF=   544
 NBsUse=   544 1.00D-06 EigRej= -1.00D+00 NBFU=   544
 Initial guess from the checkpoint file:  "C1dCNdCCdCNdCCdC2CdCS2dCSCdC1.chk"
 B after Tr=    -0.000000   -0.000000    0.000000
         Rot=    0.999950   -0.009723    0.000108   -0.002538 Ang=  -1.15 deg.
 ExpMin= 1.17D-01 ExpMax= 2.19D+04 ExpMxC= 3.30D+03 IAcc=2 IRadAn=         4 AccDes= 0.00D+00
 Harris functional with IExCor=  402 and IRadAn=       4 diagonalized for initial guess.
 HarFok:  IExCor=  402 AccDes= 0.00D+00 IRadAn=         4 IDoV= 1 UseB2=F ITyADJ=14
 ICtDFT=  3500011 ScaDFX=  1.000000  1.000000  1.000000  1.000000
 FoFCou: FMM=F IPFlag=           0 FMFlag=      100000 FMFlg1=           0
         NFxFlg=           0 DoJE=T BraDBF=F KetDBF=T FulRan=T
         wScrn=  0.000000 ICntrl=       500 IOpCl=  0 I1Cent=   200000004 NGrid=           0
         NMat0=    1 NMatS0=      1 NMatT0=    0 NMatD0=    1 NMtDS0=    0 NMtDT0=    0
 Petite list used in FoFCou.
 Requested convergence on RMS density matrix=1.00D-08 within 128 cycles.
 Requested convergence on MAX density matrix=1.00D-06.
 Requested convergence on             energy=1.00D-06.
 No special actions if energy rises.
 Integral accuracy reduced to 1.0D-05 until final iterations.
 Initial convergence to 1.0D-05 achieved.  Increase integral accuracy.
 SCF Done:  E(RB3LYP) =  -1408.26586315     A.U. after   13 cycles
            NFock= 13  Conv=0.76D-08     -V/T= 2.0052
 PrsmSu:  requested number of processors reduced to:  13 ShMem   1 Linda.
 Calling FoFJK, ICntrl=      2127 FMM=F ISym2X=0 I1Cent= 0 IOpClX= 0 NMat=1 NMatS=1 NMatT=0.
 ***** Axes restored to original set *****
 -------------------------------------------------------------------
 Center     Atomic                   Forces (Hartrees/Bohr)
 Number     Number              X              Y              Z
 -------------------------------------------------------------------
      1        6           0.003525736    0.001353462   -0.001152280
      2        6           0.001055082    0.000330063    0.000639263
      3        7           0.000764223   -0.001346908    0.001240678
      4        6          -0.002803029   -0.000125041    0.000475102
      5        6           0.000315042   -0.000318026    0.000669352
      6        6           0.000321968    0.000561433    0.001001869
      7        7           0.000148931   -0.000231047   -0.000112591
      8        6          -0.001081685   -0.000112453    0.000058787
      9        6           0.001571274   -0.000528480    0.000283551
     10        6           0.000097076    0.000214934   -0.000216885
     11        6          -0.000021020    0.000466433    0.000130812
     12        6           0.000857258   -0.000135127   -0.000603228
     13       16           0.000367112    0.000677990   -0.000736556
     14        6          -0.000942866    0.001566199    0.000662006
     15       16          -0.003146678   -0.001886745   -0.001999746
     16        6          -0.001902051   -0.002665639   -0.000422819
     17        6           0.002538897    0.002753539    0.000587051
     18        1          -0.001597324   -0.000565307    0.001112873
     19        1           0.000131049    0.000461683   -0.001716902
     20        1           0.000286043    0.000029042    0.000330433
     21        1          -0.000090391    0.000063541    0.000009187
     22        1          -0.000078997    0.000069522   -0.000170725
     23        1           0.000007776    0.000095714   -0.000175400
     24        1           0.000109992    0.000115838   -0.000002408
     25        1          -0.000166786    0.000044973    0.000047658
     26        1           0.000074494   -0.000141249    0.000030672
     27        1           0.000822308   -0.001921248    0.000733360
     28        1          -0.000860064    0.000377820   -0.000130440
     29        1          -0.000303370    0.000795086   -0.000572671
 -------------------------------------------------------------------
 Cartesian Forces:  Max     0.003525736 RMS     0.001067013

 GradGradGradGradGradGradGradGradGradGradGradGradGradGradGradGradGradGrad
 Berny optimization.
 Using GEDIIS/GDIIS optimizer.
 FormGI is forming the generalized inverse of G from B-inverse, IUseBI=4.
 Internal  Forces:  Max     0.004863088 RMS     0.001107689
 Search for a local minimum.
 Step number  30 out of a maximum of  138
 All quantities printed in internal units (Hartrees-Bohrs-Radians)
 Mixed Optimization -- RFO/linear search
 Update second derivatives using D2CorX and points   29   30
 DE= -1.78D-03 DEPred=-1.87D-03 R= 9.49D-01
 TightC=F SS=  1.41D+00  RLast= 4.46D-01 DXNew= 2.4482D+00 1.3394D+00
 Trust test= 9.49D-01 RLast= 4.46D-01 DXMaxT set to 1.46D+00
 ITU=  1  0  1 -1  1  0  1  1  1  0  1  0  0 -1 -1  0 -1  0  1  1
 ITU=  1  1  1  1  0  1  0  0  1  0
 Use linear search instead of GDIIS.
     Eigenvalues ---    0.00185   0.00416   0.00751   0.00947   0.01234
     Eigenvalues ---    0.01367   0.01450   0.01662   0.01730   0.01971
     Eigenvalues ---    0.02098   0.02213   0.02286   0.02386   0.02449
     Eigenvalues ---    0.02499   0.02776   0.02937   0.03062   0.03230
     Eigenvalues ---    0.03554   0.04219   0.04674   0.05376   0.06915
     Eigenvalues ---    0.07311   0.08220   0.08895   0.10279   0.11424
     Eigenvalues ---    0.13320   0.15133   0.15319   0.15434   0.15843
     Eigenvalues ---    0.15869   0.15944   0.15961   0.15991   0.16041
     Eigenvalues ---    0.16632   0.16925   0.18600   0.19100   0.20134
     Eigenvalues ---    0.20880   0.20957   0.21596   0.21998   0.22243
     Eigenvalues ---    0.23109   0.23230   0.23948   0.24707   0.25574
     Eigenvalues ---    0.27234   0.27583   0.31342   0.32340   0.32847
     Eigenvalues ---    0.32993   0.34020   0.34860   0.35289   0.35638
     Eigenvalues ---    0.36389   0.37972   0.38719   0.39367   0.40664
     Eigenvalues ---    0.43703   0.48611   0.49927   0.51398   0.54044
     Eigenvalues ---    0.57844   0.63872   0.65893   0.70477   0.75259
     Eigenvalues ---    1.91894
 RFO step:  Lambda=-1.84589776D-03 EMin= 1.85087902D-03
 Quartic linear search produced a step of  0.09338.
 Iteration  1 RMS(Cart)=  0.06667899 RMS(Int)=  0.01961799
slurmstepd: error: *** JOB 27446914 ON lewis4-r630-hpc4-node228 CANCELLED AT 2023-05-16T18:20:26 DUE TO TIME LIMIT ***
