### Starting Gaussian ###
 Entering Gaussian System, Link 0=g16
 Initial command:
 /cluster/software/gaussian/gaussian-16-A.03/avx2/g16/l1.exe "/local/scratch/cz9n3/Gau-4240.inp" -scrdir="/local/scratch/cz9n3/"
 Entering Link 1 = /cluster/software/gaussian/gaussian-16-A.03/avx2/g16/l1.exe PID=      4241.
  
 Copyright (c) 1988,1990,1992,1993,1995,1998,2003,2009,2016,
            Gaussian, Inc.  All Rights Reserved.
  
 This is part of the Gaussian(R) 16 program.  It is based on
 the Gaussian(R) 09 system (copyright 2009, Gaussian, Inc.),
 the Gaussian(R) 03 system (copyright 2003, Gaussian, Inc.),
 the Gaussian(R) 98 system (copyright 1998, Gaussian, Inc.),
 the Gaussian(R) 94 system (copyright 1995, Gaussian, Inc.),
 the Gaussian 92(TM) system (copyright 1992, Gaussian, Inc.),
 the Gaussian 90(TM) system (copyright 1990, Gaussian, Inc.),
 the Gaussian 88(TM) system (copyright 1988, Gaussian, Inc.),
 the Gaussian 86(TM) system (copyright 1986, Carnegie Mellon
 University), and the Gaussian 82(TM) system (copyright 1983,
 Carnegie Mellon University). Gaussian is a federally registered
 trademark of Gaussian, Inc.
  
 This software contains proprietary and confidential information,
 including trade secrets, belonging to Gaussian, Inc.
  
 This software is provided under written license and may be
 used, copied, transmitted, or stored only in accord with that
 written license.
  
 The following legend is applicable only to US Government
 contracts under FAR:
  
                    RESTRICTED RIGHTS LEGEND
  
 Use, reproduction and disclosure by the US Government is
 subject to restrictions as set forth in subparagraphs (a)
 and (c) of the Commercial Computer Software - Restricted
 Rights clause in FAR 52.227-19.
  
 Gaussian, Inc.
 340 Quinnipiac St., Bldg. 40, Wallingford CT 06492
  
  
 ---------------------------------------------------------------
 Warning -- This program may not be used in any manner that
 competes with the business of Gaussian, Inc. or will provide
 assistance to any competitor of Gaussian, Inc.  The licensee
 of this program is prohibited from giving any competitor of
 Gaussian, Inc. access to this program.  By using this program,
 the user acknowledges that Gaussian, Inc. is engaged in the
 business of creating and licensing software in the field of
 computational chemistry and represents and warrants to the
 licensee that it is not a competitor of Gaussian, Inc. and that
 it will not use this program in any manner prohibited above.
 ---------------------------------------------------------------
  

 Cite this work as:
 Gaussian 16, Revision A.03,
 M. J. Frisch, G. W. Trucks, H. B. Schlegel, G. E. Scuseria, 
 M. A. Robb, J. R. Cheeseman, G. Scalmani, V. Barone, 
 G. A. Petersson, H. Nakatsuji, X. Li, M. Caricato, A. V. Marenich, 
 J. Bloino, B. G. Janesko, R. Gomperts, B. Mennucci, H. P. Hratchian, 
 J. V. Ortiz, A. F. Izmaylov, J. L. Sonnenberg, D. Williams-Young, 
 F. Ding, F. Lipparini, F. Egidi, J. Goings, B. Peng, A. Petrone, 
 T. Henderson, D. Ranasinghe, V. G. Zakrzewski, J. Gao, N. Rega, 
 G. Zheng, W. Liang, M. Hada, M. Ehara, K. Toyota, R. Fukuda, 
 J. Hasegawa, M. Ishida, T. Nakajima, Y. Honda, O. Kitao, H. Nakai, 
 T. Vreven, K. Throssell, J. A. Montgomery, Jr., J. E. Peralta, 
 F. Ogliaro, M. J. Bearpark, J. J. Heyd, E. N. Brothers, K. N. Kudin, 
 V. N. Staroverov, T. A. Keith, R. Kobayashi, J. Normand, 
 K. Raghavachari, A. P. Rendell, J. C. Burant, S. S. Iyengar, 
 J. Tomasi, M. Cossi, J. M. Millam, M. Klene, C. Adamo, R. Cammi, 
 J. W. Ochterski, R. L. Martin, K. Morokuma, O. Farkas, 
 J. B. Foresman, and D. J. Fox, Gaussian, Inc., Wallingford CT, 2016.
 
 ******************************************
 Gaussian 16:  ES64L-G16RevA.03 25-Dec-2016
                17-May-2023 
 ******************************************
 %chk=C1dCSSS2dCqSCdC2rSSCdCSN1.chk
 %NProcShared=20
 Will use up to   20 processors via shared memory.
 -----------------------------
 # opt freq b3lyp/6-31g(2df,p)
 -----------------------------
 1/18=20,19=15,26=3,38=1/1,3;
 2/9=110,12=2,17=6,18=5,40=1/2;
 3/5=1,6=6,7=104,11=2,25=1,30=1,71=1,74=-5/1,2,3;
 4//1;
 5/5=2,38=5/2;
 6/7=2,8=2,9=2,10=2,28=1/1;
 7//1,2,3,16;
 1/18=20,19=15,26=3/3(2);
 2/9=110/2;
 99//99;
 2/9=110/2;
 3/5=1,6=6,7=104,11=2,25=1,30=1,71=1,74=-5/1,2,3;
 4/5=5,16=3,69=1/1;
 5/5=2,38=5/2;
 7//1,2,3,16;
 1/18=20,19=15,26=3/3(-5);
 2/9=110/2;
 6/7=2,8=2,9=2,10=2,19=2,28=1/1;
 99/9=1/99;
 -------------------
 Title Card Required
 -------------------
 Symbolic Z-matrix:
 Charge =  0 Multiplicity = 1
 C                     2.38012  -0.253    -1.02522 
 C                     2.89024  -0.14232   0.18183 
 S                     3.41182  -1.61935   1.02382 
 S                     5.41023  -1.14313   0.8892 
 S                     6.81457  -2.51071   1.28901 
 C                     6.50999  -3.73174   0.08191 
 S                     6.24541  -5.40569   0.63412 
 C                     5.94808  -4.81373   2.23806 
 C                     6.01699  -3.44783   2.47197 
 S                     6.89309  -3.58249  -1.66006 
 S                     7.42821  -1.62135  -1.86965 
 C                     6.47662  -1.2143   -3.27083 
 C                     5.7046   -0.10099  -3.34595 
 S                     4.64319   0.68512  -2.16677 
 N                     2.93448   0.25523  -2.24017 
 H                     1.35695  -0.68005  -1.10477 
 H                     3.60621   0.67808   0.31605 
 H                     5.69582  -5.49704   3.03581 
 H                     5.71943  -3.03722   3.42745 
 H                     7.09808  -1.46876  -4.14162 
 H                     6.35516   0.66288  -3.80997 
 H                     2.33998   1.062    -2.47617 
 

 GradGradGradGradGradGradGradGradGradGradGradGradGradGradGradGradGradGrad
 Berny optimization.
 Initialization pass.
                           ----------------------------
                           !    Initial Parameters    !
                           ! (Angstroms and Degrees)  !
 --------------------------                            --------------------------
 ! Name  Definition              Value          Derivative Info.                !
 --------------------------------------------------------------------------------
 ! R1    R(1,2)                  1.3151         estimate D2E/DX2                !
 ! R2    R(1,15)                 1.4289         estimate D2E/DX2                !
 ! R3    R(1,16)                 1.1116         estimate D2E/DX2                !
 ! R4    R(2,3)                  1.7784         estimate D2E/DX2                !
 ! R5    R(2,17)                 1.0971         estimate D2E/DX2                !
 ! R6    R(3,4)                  2.0588         estimate D2E/DX2                !
 ! R7    R(4,5)                  2.0006         estimate D2E/DX2                !
 ! R8    R(5,6)                  1.7438         estimate D2E/DX2                !
 ! R9    R(5,9)                  1.707          estimate D2E/DX2                !
 ! R10   R(6,7)                  1.7824         estimate D2E/DX2                !
 ! R11   R(6,10)                 1.7898         estimate D2E/DX2                !
 ! R12   R(7,8)                  1.7354         estimate D2E/DX2                !
 ! R13   R(8,9)                  1.3875         estimate D2E/DX2                !
 ! R14   R(8,18)                 1.0803         estimate D2E/DX2                !
 ! R15   R(9,19)                 1.0817         estimate D2E/DX2                !
 ! R16   R(10,11)                2.0436         estimate D2E/DX2                !
 ! R17   R(11,12)                1.742          estimate D2E/DX2                !
 ! R18   R(12,13)                1.3569         estimate D2E/DX2                !
 ! R19   R(12,20)                1.0997         estimate D2E/DX2                !
 ! R20   R(13,14)                1.7706         estimate D2E/DX2                !
 ! R21   R(13,21)                1.1055         estimate D2E/DX2                !
 ! R22   R(14,15)                1.7635         estimate D2E/DX2                !
 ! R23   R(15,22)                1.0296         estimate D2E/DX2                !
 ! A1    A(2,1,15)             126.87           estimate D2E/DX2                !
 ! A2    A(2,1,16)             117.0697         estimate D2E/DX2                !
 ! A3    A(15,1,16)            115.6525         estimate D2E/DX2                !
 ! A4    A(1,2,3)              118.5831         estimate D2E/DX2                !
 ! A5    A(1,2,17)             115.3635         estimate D2E/DX2                !
 ! A6    A(3,2,17)             111.8232         estimate D2E/DX2                !
 ! A7    A(2,3,4)               93.5325         estimate D2E/DX2                !
 ! A8    A(3,4,5)              120.6768         estimate D2E/DX2                !
 ! A9    A(4,5,6)              102.5748         estimate D2E/DX2                !
 ! A10   A(4,5,9)              100.7075         estimate D2E/DX2                !
 ! A11   A(6,5,9)               90.7849         estimate D2E/DX2                !
 ! A12   A(5,6,7)              117.9742         estimate D2E/DX2                !
 ! A13   A(5,6,10)             125.3061         estimate D2E/DX2                !
 ! A14   A(7,6,10)             114.3059         estimate D2E/DX2                !
 ! A15   A(6,7,8)               89.5085         estimate D2E/DX2                !
 ! A16   A(7,8,9)              118.8892         estimate D2E/DX2                !
 ! A17   A(7,8,18)             120.4508         estimate D2E/DX2                !
 ! A18   A(9,8,18)             120.6505         estimate D2E/DX2                !
 ! A19   A(5,9,8)              116.5403         estimate D2E/DX2                !
 ! A20   A(5,9,19)             122.1602         estimate D2E/DX2                !
 ! A21   A(8,9,19)             120.5931         estimate D2E/DX2                !
 ! A22   A(6,10,11)            103.6438         estimate D2E/DX2                !
 ! A23   A(10,11,12)            99.4214         estimate D2E/DX2                !
 ! A24   A(11,12,13)           123.1658         estimate D2E/DX2                !
 ! A25   A(11,12,20)           105.9121         estimate D2E/DX2                !
 ! A26   A(13,12,20)           117.8767         estimate D2E/DX2                !
 ! A27   A(12,13,14)           131.9505         estimate D2E/DX2                !
 ! A28   A(12,13,21)           104.795          estimate D2E/DX2                !
 ! A29   A(14,13,21)           108.9983         estimate D2E/DX2                !
 ! A30   A(13,14,15)           116.4165         estimate D2E/DX2                !
 ! A31   A(1,15,14)            115.292          estimate D2E/DX2                !
 ! A32   A(1,15,22)            104.4535         estimate D2E/DX2                !
 ! A33   A(14,15,22)           112.2106         estimate D2E/DX2                !
 ! D1    D(15,1,2,3)          -115.0225         estimate D2E/DX2                !
 ! D2    D(15,1,2,17)           21.5946         estimate D2E/DX2                !
 ! D3    D(16,1,2,3)            72.6668         estimate D2E/DX2                !
 ! D4    D(16,1,2,17)         -150.7162         estimate D2E/DX2                !
 ! D5    D(2,1,15,14)           17.215          estimate D2E/DX2                !
 ! D6    D(2,1,15,22)         -106.3959         estimate D2E/DX2                !
 ! D7    D(16,1,15,14)        -170.38           estimate D2E/DX2                !
 ! D8    D(16,1,15,22)          66.0091         estimate D2E/DX2                !
 ! D9    D(1,2,3,4)            110.4691         estimate D2E/DX2                !
 ! D10   D(17,2,3,4)           -27.5737         estimate D2E/DX2                !
 ! D11   D(2,3,4,5)           -167.1197         estimate D2E/DX2                !
 ! D12   D(3,4,5,6)             61.7492         estimate D2E/DX2                !
 ! D13   D(3,4,5,9)            -31.4875         estimate D2E/DX2                !
 ! D14   D(4,5,6,7)           -125.258          estimate D2E/DX2                !
 ! D15   D(4,5,6,10)            73.4351         estimate D2E/DX2                !
 ! D16   D(9,5,6,7)            -24.1047         estimate D2E/DX2                !
 ! D17   D(9,5,6,10)           174.5885         estimate D2E/DX2                !
 ! D18   D(4,5,9,8)            126.379          estimate D2E/DX2                !
 ! D19   D(4,5,9,19)           -63.2071         estimate D2E/DX2                !
 ! D20   D(6,5,9,8)             23.4241         estimate D2E/DX2                !
 ! D21   D(6,5,9,19)          -166.162          estimate D2E/DX2                !
 ! D22   D(5,6,7,8)             16.96           estimate D2E/DX2                !
 ! D23   D(10,6,7,8)          -179.7178         estimate D2E/DX2                !
 ! D24   D(5,6,10,11)           -9.1153         estimate D2E/DX2                !
 ! D25   D(7,6,10,11)         -171.021          estimate D2E/DX2                !
 ! D26   D(6,7,8,9)             -0.0795         estimate D2E/DX2                !
 ! D27   D(6,7,8,18)           178.8069         estimate D2E/DX2                !
 ! D28   D(7,8,9,5)            -16.9673         estimate D2E/DX2                !
 ! D29   D(7,8,9,19)           172.4587         estimate D2E/DX2                !
 ! D30   D(18,8,9,5)           164.1486         estimate D2E/DX2                !
 ! D31   D(18,8,9,19)           -6.4254         estimate D2E/DX2                !
 ! D32   D(6,10,11,12)        -132.4292         estimate D2E/DX2                !
 ! D33   D(10,11,12,13)        132.183          estimate D2E/DX2                !
 ! D34   D(10,11,12,20)        -87.7199         estimate D2E/DX2                !
 ! D35   D(11,12,13,14)        -40.9546         estimate D2E/DX2                !
 ! D36   D(11,12,13,21)         92.6855         estimate D2E/DX2                !
 ! D37   D(20,12,13,14)       -176.6963         estimate D2E/DX2                !
 ! D38   D(20,12,13,21)        -43.0561         estimate D2E/DX2                !
 ! D39   D(12,13,14,15)        -94.8384         estimate D2E/DX2                !
 ! D40   D(21,13,14,15)        132.8934         estimate D2E/DX2                !
 ! D41   D(13,14,15,1)         123.8338         estimate D2E/DX2                !
 ! D42   D(13,14,15,22)       -116.7521         estimate D2E/DX2                !
 --------------------------------------------------------------------------------
 Trust Radius=3.00D-01 FncErr=1.00D-07 GrdErr=1.00D-06 EigMax=2.50D+02 EigMin=1.00D-04
 Number of steps in this run=    108 maximum allowed number of steps=    132.
 GradGradGradGradGradGradGradGradGradGradGradGradGradGradGradGradGradGrad

                          Input orientation:                          
 ---------------------------------------------------------------------
 Center     Atomic      Atomic             Coordinates (Angstroms)
 Number     Number       Type             X           Y           Z
 ---------------------------------------------------------------------
      1          6           0        2.380120   -0.253000   -1.025220
      2          6           0        2.890240   -0.142320    0.181830
      3         16           0        3.411820   -1.619350    1.023820
      4         16           0        5.410230   -1.143130    0.889200
      5         16           0        6.814570   -2.510710    1.289010
      6          6           0        6.509990   -3.731740    0.081910
      7         16           0        6.245410   -5.405690    0.634120
      8          6           0        5.948080   -4.813730    2.238060
      9          6           0        6.016990   -3.447830    2.471970
     10         16           0        6.893090   -3.582490   -1.660060
     11         16           0        7.428210   -1.621350   -1.869650
     12          6           0        6.476620   -1.214300   -3.270830
     13          6           0        5.704600   -0.100990   -3.345950
     14         16           0        4.643190    0.685120   -2.166770
     15          7           0        2.934480    0.255230   -2.240170
     16          1           0        1.356950   -0.680050   -1.104770
     17          1           0        3.606210    0.678080    0.316050
     18          1           0        5.695820   -5.497040    3.035810
     19          1           0        5.719430   -3.037220    3.427450
     20          1           0        7.098080   -1.468760   -4.141620
     21          1           0        6.355160    0.662880   -3.809970
     22          1           0        2.339980    1.062000   -2.476170
 ---------------------------------------------------------------------
                    Distance matrix (angstroms):
                    1          2          3          4          5
     1  C    0.000000
     2  C    1.315083   0.000000
     3  S    2.670184   1.778373   0.000000
     4  S    3.693088   2.802203   2.058774   0.000000
     5  S    5.487920   4.715452   3.527542   2.000573   0.000000
     6  C    5.512095   5.098677   3.866270   2.926105   1.743781
     7  S    6.651623   6.258178   4.745258   4.351093   3.022207
     8  C    6.646773   5.949835   4.255709   3.947406   2.637310
     9  C    5.971943   5.093889   3.496768   2.860937   1.706963
    10  S    5.644061   5.590182   4.814184   3.827281   3.138772
    11  S    5.297986   5.195120   4.950107   3.451404   3.338360
    12  C    4.769505   5.092359   5.291605   4.295125   4.752581
    13  C    4.057223   4.513044   5.163056   4.371408   5.340565
    14  S    2.702719   3.045228   4.123920   3.642774   5.183689
    15  N    1.428886   2.454809   3.794145   4.228204   5.929640
    16  H    1.111565   2.072552   3.104138   4.540863   6.234350
    17  H    2.041865   1.097125   2.411827   2.626746   4.626944
    18  H    7.415240   6.685021   4.929629   4.862718   3.636080
    19  H    6.223274   5.188334   3.621168   3.182121   2.459567
    20  H    5.783526   6.177182   6.347674   5.316392   5.536947
    21  H    4.939090   5.346820   6.102241   5.122183   6.023481
    22  H    1.958594   2.969535   4.537445   5.061102   6.852940
                    6          7          8          9         10
     6  C    0.000000
     7  S    1.782427   0.000000
     8  C    2.476980   1.735352   0.000000
     9  C    2.456836   2.695011   1.387496   0.000000
    10  S    1.789833   3.001135   4.195752   4.226033   0.000000
    11  S    3.017526   4.689255   5.408822   4.917035   2.043612
    12  C    4.192789   5.733223   6.601751   6.178970   2.894193
    13  C    5.057788   6.653817   7.310976   6.719161   4.046675
    14  S    5.296240   6.892754   7.165376   6.362901   4.850907
    15  N    5.837145   7.160294   7.404774   6.739346   5.543935
    16  H    6.105313   7.018009   7.024265   6.493816   6.275456
    17  H    5.285194   6.639187   6.272038   5.242422   5.732456
    18  H    3.536196   2.465463   1.080256   2.149495   5.210581
    19  H    3.507133   3.699865   2.150097   1.081704   5.249529
    20  H    4.827539   6.247732   7.294631   6.987492   3.266193
    21  H    5.872256   7.522601   8.169311   7.514989   4.789013
    22  H    6.849285   8.170514   8.352637   7.638263   6.555008
                   11         12         13         14         15
    11  S    0.000000
    12  C    1.741987   0.000000
    13  C    2.731627   1.356878   0.000000
    14  S    3.628281   2.861505   1.770600   0.000000
    15  N    4.883897   3.970961   3.003865   1.763486   0.000000
    16  H    6.191226   5.584645   4.925470   3.713611   2.156961
    17  H    4.967127   4.968507   4.291903   2.690682   2.676618
    18  H    6.487348   7.663238   8.357290   8.148250   8.279467
    19  H    5.743160   6.983074   7.382453   6.805101   7.121663
    20  H    2.300895   1.099653   2.108476   3.816506   4.891137
    21  H    3.183392   1.956842   1.105459   2.373066   3.785697
    22  H    5.784317   4.787987   3.664660   2.354261   1.029565
                   16         17         18         19         20
    16  H    0.000000
    17  H    2.987042   0.000000
    18  H    7.692437   7.063687   0.000000
    19  H    6.717775   5.286772   2.490914   0.000000
    20  H    6.542560   6.055815   8.349184   7.851851   0.000000
    21  H    5.839835   4.957923   9.232770   8.153229   2.281625
    22  H    2.425247   3.089858   9.201336   7.942104   5.640743
                   21         22
    21  H    0.000000
    22  H    4.249705   0.000000
 Stoichiometry    C7H7NS7
 Framework group  C1[X(C7H7NS7)]
 Deg. of freedom    60
 Full point group                 C1      NOp   1
 Largest Abelian subgroup         C1      NOp   1
 Largest concise Abelian subgroup C1      NOp   1
                         Standard orientation:                         
 ---------------------------------------------------------------------
 Center     Atomic      Atomic             Coordinates (Angstroms)
 Number     Number       Type             X           Y           Z
 ---------------------------------------------------------------------
      1          6           0       -2.823724   -1.959365   -1.097916
      2          6           0       -2.077672   -2.469468   -0.142591
      3         16           0       -0.313037   -2.492933   -0.361957
      4         16           0        0.014494   -1.073172    1.092537
      5         16           0        1.798823   -0.185943    1.269423
      6          6           0        1.974772    0.622304   -0.265683
      7         16           0        3.437229    0.282961   -1.226471
      8          6           0        3.719445   -1.135973   -0.268125
      9          6           0        2.830897   -1.443348    0.752241
     10         16           0        1.089164    2.094673   -0.767012
     11         16           0       -0.308060    2.341073    0.703839
     12          6           0       -1.717840    2.608196   -0.283928
     13          6           0       -2.897243    1.968132   -0.082820
     14         16           0       -3.277131    0.289139    0.331539
     15          7           0       -3.639260   -0.788918   -1.016252
     16          1           0       -2.930411   -2.556160   -2.029598
     17          1           0       -2.357994   -2.179971    0.877847
     18          1           0        4.563133   -1.777899   -0.475668
     19          1           0        2.909132   -2.380570    1.286637
     20          1           0       -1.746873    3.689519   -0.481752
     21          1           0       -3.474741    2.641175    0.577141
     22          1           0       -4.602938   -1.149317   -0.978279
 ---------------------------------------------------------------------
 Rotational constants (GHZ):           0.4480893           0.2585983           0.1923160
 Standard basis: 6-31G(2df,p) (6D, 7F)
 There are   528 symmetry adapted cartesian basis functions of A   symmetry.
 There are   483 symmetry adapted basis functions of A   symmetry.
   483 basis functions,   877 primitive gaussians,   528 cartesian basis functions
    84 alpha electrons       84 beta electrons
       nuclear repulsion energy      1983.0530921747 Hartrees.
 NAtoms=   22 NActive=   22 NUniq=   22 SFac= 1.00D+00 NAtFMM=   60 NAOKFM=F Big=F
 Integral buffers will be    131072 words long.
 Raffenetti 2 integral format.
 Two-electron integral symmetry is turned on.
 One-electron integrals computed using PRISM.
 PrsmSu:  requested number of processors reduced to:  12 ShMem   1 Linda.
 NBasis=   483 RedAO= T EigKep=  4.59D-04  NBF=   483
 NBsUse=   483 1.00D-06 EigRej= -1.00D+00 NBFU=   483
 ExpMin= 1.17D-01 ExpMax= 2.19D+04 ExpMxC= 3.30D+03 IAcc=3 IRadAn=         5 AccDes= 0.00D+00
 Harris functional with IExCor=  402 and IRadAn=       5 diagonalized for initial guess.
 HarFok:  IExCor=  402 AccDes= 0.00D+00 IRadAn=         5 IDoV= 1 UseB2=F ITyADJ=14
 ICtDFT=  3500011 ScaDFX=  1.000000  1.000000  1.000000  1.000000
 FoFCou: FMM=F IPFlag=           0 FMFlag=      100000 FMFlg1=           0
         NFxFlg=           0 DoJE=T BraDBF=F KetDBF=T FulRan=T
         wScrn=  0.000000 ICntrl=       500 IOpCl=  0 I1Cent=   200000004 NGrid=           0
         NMat0=    1 NMatS0=      1 NMatT0=    0 NMatD0=    1 NMtDS0=    0 NMtDT0=    0
 Petite list used in FoFCou.
 Requested convergence on RMS density matrix=1.00D-08 within 128 cycles.
 Requested convergence on MAX density matrix=1.00D-06.
 Requested convergence on             energy=1.00D-06.
 No special actions if energy rises.
 Integral accuracy reduced to 1.0D-05 until final iterations.
 EnCoef did     6 forward-backward iterations
 EnCoef did   100 forward-backward iterations
 Problem detected with inexpensive integrals.
 Switching to full accuracy and repeating last cycle.
 EnCoef did     4 forward-backward iterations
 EnCoef did     2 forward-backward iterations
 EnCoef did     3 forward-backward iterations
 EnCoef did     3 forward-backward iterations
 EnCoef did     1 forward-backward iterations
 EnCoef did     2 forward-backward iterations
 EnCoef did     1 forward-backward iterations
 Restarting incremental Fock formation.
 SCF Done:  E(RB3LYP) =  -3112.70976154     A.U. after   29 cycles
            NFock= 29  Conv=0.54D-08     -V/T= 2.0033

 **********************************************************************

            Population analysis using the SCF density.

 **********************************************************************

 Orbital symmetries:
       Occupied  (A) (A) (A) (A) (A) (A) (A) (A) (A) (A) (A) (A)
                 (A) (A) (A) (A) (A) (A) (A) (A) (A) (A) (A) (A)
                 (A) (A) (A) (A) (A) (A) (A) (A) (A) (A) (A) (A)
                 (A) (A) (A) (A) (A) (A) (A) (A) (A) (A) (A) (A)
                 (A) (A) (A) (A) (A) (A) (A) (A) (A) (A) (A) (A)
                 (A) (A) (A) (A) (A) (A) (A) (A) (A) (A) (A) (A)
                 (A) (A) (A) (A) (A) (A) (A) (A) (A) (A) (A) (A)
       Virtual   (A) (A) (A) (A) (A) (A) (A) (A) (A) (A) (A) (A)
                 (A) (A) (A) (A) (A) (A) (A) (A) (A) (A) (A) (A)
                 (A) (A) (A) (A) (A) (A) (A) (A) (A) (A) (A) (A)
                 (A) (A) (A) (A) (A) (A) (A) (A) (A) (A) (A) (A)
                 (A) (A) (A) (A) (A) (A) (A) (A) (A) (A) (A) (A)
                 (A) (A) (A) (A) (A) (A) (A) (A) (A) (A) (A) (A)
                 (A) (A) (A) (A) (A) (A) (A) (A) (A) (A) (A) (A)
                 (A) (A) (A) (A) (A) (A) (A) (A) (A) (A) (A) (A)
                 (A) (A) (A) (A) (A) (A) (A) (A) (A) (A) (A) (A)
                 (A) (A) (A) (A) (A) (A) (A) (A) (A) (A) (A) (A)
                 (A) (A) (A) (A) (A) (A) (A) (A) (A) (A) (A) (A)
                 (A) (A) (A) (A) (A) (A) (A) (A) (A) (A) (A) (A)
                 (A) (A) (A) (A) (A) (A) (A) (A) (A) (A) (A) (A)
                 (A) (A) (A) (A) (A) (A) (A) (A) (A) (A) (A) (A)
                 (A) (A) (A) (A) (A) (A) (A) (A) (A) (A) (A) (A)
                 (A) (A) (A) (A) (A) (A) (A) (A) (A) (A) (A) (A)
                 (A) (A) (A) (A) (A) (A) (A) (A) (A) (A) (A) (A)
                 (A) (A) (A) (A) (A) (A) (A) (A) (A) (A) (A) (A)
                 (A) (A) (A) (A) (A) (A) (A) (A) (A) (A) (A) (A)
                 (A) (A) (A) (A) (A) (A) (A) (A) (A) (A) (A) (A)
                 (A) (A) (A) (A) (A) (A) (A) (A) (A) (A) (A) (A)
                 (A) (A) (A) (A) (A) (A) (A) (A) (A) (A) (A) (A)
                 (A) (A) (A) (A) (A) (A) (A) (A) (A) (A) (A) (A)
                 (A) (A) (A) (A) (A) (A) (A) (A) (A) (A) (A) (A)
                 (A) (A) (A) (A) (A) (A) (A) (A) (A) (A) (A) (A)
                 (A) (A) (A) (A) (A) (A) (A) (A) (A) (A) (A) (A)
                 (A) (A) (A) (A) (A) (A) (A) (A) (A) (A) (A) (A)
                 (A) (A) (A) (A) (A) (A) (A) (A) (A) (A) (A) (A)
                 (A) (A) (A) (A) (A) (A) (A) (A) (A) (A) (A) (A)
                 (A) (A) (A) (A) (A) (A) (A) (A) (A) (A) (A) (A)
                 (A) (A) (A) (A) (A) (A) (A) (A) (A) (A) (A) (A)
                 (A) (A) (A) (A) (A) (A) (A) (A) (A) (A) (A) (A)
                 (A) (A) (A) (A) (A) (A) (A) (A) (A) (A) (A) (A)
                 (A) (A) (A)
 The electronic state is 1-A.
 Alpha  occ. eigenvalues --  -88.99048 -88.91959 -88.91684 -88.90911 -88.90297
 Alpha  occ. eigenvalues --  -88.88074 -88.86047 -14.38630 -10.24404 -10.24135
 Alpha  occ. eigenvalues --  -10.24046 -10.23143 -10.23105 -10.22725 -10.19213
 Alpha  occ. eigenvalues --   -8.04157  -7.97941  -7.97864  -7.96833  -7.96508
 Alpha  occ. eigenvalues --   -7.94328  -7.92987  -6.00469  -6.00417  -6.00027
 Alpha  occ. eigenvalues --   -5.94388  -5.94383  -5.94052  -5.94028  -5.93616
 Alpha  occ. eigenvalues --   -5.93413  -5.93337  -5.93031  -5.92991  -5.92653
 Alpha  occ. eigenvalues --   -5.92294  -5.91987  -5.90861  -5.90498  -5.89757
 Alpha  occ. eigenvalues --   -5.89554  -5.88882  -5.88476  -0.93831  -0.91222
 Alpha  occ. eigenvalues --   -0.85232  -0.82321  -0.80417  -0.79344  -0.75265
 Alpha  occ. eigenvalues --   -0.72290  -0.71072  -0.65972  -0.63913  -0.58286
 Alpha  occ. eigenvalues --   -0.57213  -0.55480  -0.53257  -0.51069  -0.50098
 Alpha  occ. eigenvalues --   -0.47700  -0.47028  -0.44317  -0.43992  -0.43185
 Alpha  occ. eigenvalues --   -0.41427  -0.40702  -0.39978  -0.38828  -0.37388
 Alpha  occ. eigenvalues --   -0.37052  -0.35485  -0.34336  -0.31764  -0.31086
 Alpha  occ. eigenvalues --   -0.29804  -0.28139  -0.27116  -0.26128  -0.24080
 Alpha  occ. eigenvalues --   -0.22144  -0.21704  -0.18422  -0.14729
 Alpha virt. eigenvalues --   -0.10770  -0.07609  -0.05297  -0.03034  -0.01411
 Alpha virt. eigenvalues --   -0.00772   0.00664   0.01315   0.03204   0.03544
 Alpha virt. eigenvalues --    0.05306   0.06873   0.08018   0.09360   0.09541
 Alpha virt. eigenvalues --    0.11002   0.11315   0.12938   0.13995   0.15434
 Alpha virt. eigenvalues --    0.16478   0.17427   0.18136   0.19949   0.20835
 Alpha virt. eigenvalues --    0.22792   0.23502   0.24097   0.25076   0.25195
 Alpha virt. eigenvalues --    0.26333   0.26733   0.27409   0.28169   0.28728
 Alpha virt. eigenvalues --    0.29481   0.30398   0.31087   0.31793   0.32303
 Alpha virt. eigenvalues --    0.32532   0.32629   0.33643   0.34195   0.34483
 Alpha virt. eigenvalues --    0.34879   0.35735   0.36117   0.37240   0.37538
 Alpha virt. eigenvalues --    0.38014   0.39014   0.39389   0.40855   0.41134
 Alpha virt. eigenvalues --    0.42150   0.42568   0.43637   0.43991   0.44434
 Alpha virt. eigenvalues --    0.45420   0.46000   0.46885   0.47282   0.48476
 Alpha virt. eigenvalues --    0.50131   0.52368   0.53025   0.54080   0.54950
 Alpha virt. eigenvalues --    0.55422   0.55924   0.56692   0.57610   0.59310
 Alpha virt. eigenvalues --    0.59578   0.59628   0.60675   0.61033   0.61646
 Alpha virt. eigenvalues --    0.63328   0.63963   0.64785   0.65418   0.66010
 Alpha virt. eigenvalues --    0.66663   0.67188   0.67496   0.68536   0.69029
 Alpha virt. eigenvalues --    0.70609   0.71159   0.72018   0.72424   0.72837
 Alpha virt. eigenvalues --    0.73555   0.73618   0.75085   0.75953   0.76764
 Alpha virt. eigenvalues --    0.77310   0.78506   0.79296   0.80416   0.80814
 Alpha virt. eigenvalues --    0.81415   0.81890   0.83593   0.84380   0.84416
 Alpha virt. eigenvalues --    0.84878   0.86011   0.86932   0.87793   0.89618
 Alpha virt. eigenvalues --    0.90901   0.91276   0.92929   0.93552   0.94068
 Alpha virt. eigenvalues --    0.94735   0.96306   0.97216   0.98319   0.99100
 Alpha virt. eigenvalues --    1.00117   1.01908   1.04728   1.05591   1.06468
 Alpha virt. eigenvalues --    1.08034   1.09056   1.09488   1.11116   1.12827
 Alpha virt. eigenvalues --    1.17066   1.19143   1.20203   1.20643   1.21538
 Alpha virt. eigenvalues --    1.25288   1.26058   1.27711   1.30492   1.32210
 Alpha virt. eigenvalues --    1.34581   1.36785   1.36877   1.38494   1.39565
 Alpha virt. eigenvalues --    1.40094   1.42042   1.42406   1.44461   1.44987
 Alpha virt. eigenvalues --    1.47121   1.49228   1.50534   1.51653   1.52523
 Alpha virt. eigenvalues --    1.52832   1.53519   1.54456   1.55600   1.57232
 Alpha virt. eigenvalues --    1.57892   1.58275   1.59072   1.59460   1.60174
 Alpha virt. eigenvalues --    1.60799   1.62272   1.63283   1.64236   1.65669
 Alpha virt. eigenvalues --    1.66188   1.66703   1.67636   1.69347   1.70096
 Alpha virt. eigenvalues --    1.71275   1.72876   1.73682   1.74949   1.77169
 Alpha virt. eigenvalues --    1.77644   1.78884   1.78981   1.80132   1.81748
 Alpha virt. eigenvalues --    1.82443   1.82814   1.83846   1.84336   1.84731
 Alpha virt. eigenvalues --    1.86145   1.86454   1.88553   1.89009   1.90306
 Alpha virt. eigenvalues --    1.90773   1.91078   1.92152   1.93245   1.94036
 Alpha virt. eigenvalues --    1.94564   1.96133   1.96677   1.97294   1.98124
 Alpha virt. eigenvalues --    2.00376   2.01948   2.02464   2.04016   2.05318
 Alpha virt. eigenvalues --    2.07785   2.09587   2.09950   2.10251   2.13661
 Alpha virt. eigenvalues --    2.14746   2.15893   2.17149   2.18099   2.21789
 Alpha virt. eigenvalues --    2.22249   2.22874   2.24544   2.24962   2.26125
 Alpha virt. eigenvalues --    2.26896   2.27896   2.29241   2.29652   2.30088
 Alpha virt. eigenvalues --    2.31091   2.32077   2.32405   2.33847   2.34334
 Alpha virt. eigenvalues --    2.35050   2.36893   2.37178   2.37592   2.40015
 Alpha virt. eigenvalues --    2.40885   2.42535   2.42909   2.43687   2.45855
 Alpha virt. eigenvalues --    2.46718   2.47919   2.49897   2.50340   2.52387
 Alpha virt. eigenvalues --    2.53309   2.54843   2.55662   2.57543   2.58861
 Alpha virt. eigenvalues --    2.59890   2.61268   2.63665   2.65380   2.65965
 Alpha virt. eigenvalues --    2.69696   2.71424   2.73087   2.74987   2.77143
 Alpha virt. eigenvalues --    2.79897   2.80349   2.83709   2.84815   2.86238
 Alpha virt. eigenvalues --    2.86729   2.89425   2.92247   2.92699   2.95224
 Alpha virt. eigenvalues --    2.95561   2.97382   2.98661   3.05266   3.06761
 Alpha virt. eigenvalues --    3.08817   3.10804   3.13236   3.15783   3.16310
 Alpha virt. eigenvalues --    3.17533   3.18560   3.19775   3.20981   3.22143
 Alpha virt. eigenvalues --    3.23223   3.24547   3.24714   3.26115   3.27860
 Alpha virt. eigenvalues --    3.31698   3.32095   3.33941   3.35084   3.36691
 Alpha virt. eigenvalues --    3.37619   3.41349   3.42114   3.42870   3.44756
 Alpha virt. eigenvalues --    3.45422   3.46041   3.46934   3.51665   3.53602
 Alpha virt. eigenvalues --    3.56457   3.58964   3.60987   3.62730   3.68078
 Alpha virt. eigenvalues --    3.71599   3.72608   3.74775   3.77776   3.79748
 Alpha virt. eigenvalues --    3.84399   3.86585   3.90581   3.91505   3.96603
 Alpha virt. eigenvalues --    3.97735   3.98905   4.00256   4.02286   4.05855
 Alpha virt. eigenvalues --    4.07030   4.10480   4.14314   4.17804   4.20633
 Alpha virt. eigenvalues --    4.23867   4.26838   4.28582   4.29588   4.32099
 Alpha virt. eigenvalues --    4.33837   4.34208   4.36800   4.37820   4.44230
 Alpha virt. eigenvalues --    4.46322   4.47466   4.48595   4.49228   4.50324
 Alpha virt. eigenvalues --    4.52435   4.53712   4.54673   4.55728   4.58547
 Alpha virt. eigenvalues --    4.61135   4.61405   4.64837   4.67167   4.68335
 Alpha virt. eigenvalues --    4.70800   4.77807   4.79684   4.82102   4.83502
 Alpha virt. eigenvalues --    4.84894   4.87812   4.88600   4.89895   4.91331
 Alpha virt. eigenvalues --    4.95752   4.98403   5.00276   5.04151   5.07956
 Alpha virt. eigenvalues --    5.09002   5.13738   5.22223   5.25515   5.35043
 Alpha virt. eigenvalues --    5.35498   5.37857   5.49660   5.50977   5.55608
 Alpha virt. eigenvalues --   10.49650  10.58408  10.71866  11.10898  11.45459
 Alpha virt. eigenvalues --   11.50506  11.68622  11.71660  12.77114
          Condensed to atoms (all electrons):
               1          2          3          4          5          6
     1  C    4.828902   0.609148  -0.071209   0.000503   0.000018  -0.000098
     2  C    0.609148   5.036244   0.280757  -0.006919   0.001134  -0.000087
     3  S   -0.071209   0.280757  15.901567  -0.018859   0.020627   0.019253
     4  S    0.000503  -0.006919  -0.018859  16.454928  -0.084882  -0.154560
     5  S    0.000018   0.001134   0.020627  -0.084882  15.434619   0.330715
     6  C   -0.000098  -0.000087   0.019253  -0.154560   0.330715   5.319019
     7  S    0.000006  -0.000008  -0.001159   0.008126  -0.071669   0.305182
     8  C    0.000001   0.000006  -0.000269   0.006723  -0.034921  -0.039520
     9  C   -0.000004   0.000110   0.012489  -0.079618   0.314435   0.006084
    10  S    0.000146  -0.000033  -0.001612   0.012912  -0.056409   0.276746
    11  S   -0.000042   0.000083   0.001659  -0.032920   0.015253  -0.008328
    12  C    0.000015  -0.000003   0.000175  -0.000598  -0.000050   0.000785
    13  C    0.000501   0.000237  -0.000019  -0.000037  -0.000002  -0.000039
    14  S   -0.067345  -0.001672  -0.002123  -0.012465  -0.000309  -0.000021
    15  N    0.396678  -0.032533   0.005914  -0.000155  -0.000009   0.000003
    16  H    0.370177  -0.064734  -0.002206  -0.000038   0.000006  -0.000001
    17  H   -0.038270   0.364105  -0.043918  -0.005481  -0.000059  -0.000009
    18  H    0.000000   0.000000   0.000053  -0.000265   0.005954   0.002126
    19  H   -0.000000  -0.000002  -0.000127   0.003119  -0.045557   0.002864
    20  H   -0.000001   0.000000   0.000002  -0.000051   0.000021  -0.000037
    21  H   -0.000053  -0.000012   0.000005  -0.000053   0.000003   0.000001
    22  H   -0.059996   0.004435  -0.000534  -0.000035   0.000000  -0.000000
               7          8          9         10         11         12
     1  C    0.000006   0.000001  -0.000004   0.000146  -0.000042   0.000015
     2  C   -0.000008   0.000006   0.000110  -0.000033   0.000083  -0.000003
     3  S   -0.001159  -0.000269   0.012489  -0.001612   0.001659   0.000175
     4  S    0.008126   0.006723  -0.079618   0.012912  -0.032920  -0.000598
     5  S   -0.071669  -0.034921   0.314435  -0.056409   0.015253  -0.000050
     6  C    0.305182  -0.039520   0.006084   0.276746  -0.008328   0.000785
     7  S   15.527128   0.369451  -0.045991  -0.052843   0.002660  -0.000031
     8  C    0.369451   4.831119   0.632225   0.002494   0.000021  -0.000000
     9  C   -0.045991   0.632225   4.966521   0.001780   0.000331   0.000001
    10  S   -0.052843   0.002494   0.001780  15.793092   0.110538  -0.044874
    11  S    0.002660   0.000021   0.000331   0.110538  15.740938   0.324891
    12  C   -0.000031  -0.000000   0.000001  -0.044874   0.324891   4.943428
    13  C    0.000001  -0.000000  -0.000000   0.004883  -0.037740   0.586586
    14  S   -0.000003   0.000000  -0.000001  -0.000195  -0.006341  -0.032020
    15  N   -0.000000  -0.000000  -0.000000  -0.000027   0.000186  -0.000687
    16  H    0.000000   0.000000  -0.000000   0.000001   0.000003  -0.000003
    17  H    0.000000   0.000000  -0.000006   0.000014  -0.000019   0.000009
    18  H   -0.043560   0.364977  -0.031977  -0.000089   0.000003  -0.000000
    19  H    0.006082  -0.031736   0.371584  -0.000118   0.000003   0.000000
    20  H    0.000004   0.000000   0.000000   0.004645  -0.084085   0.371302
    21  H   -0.000000  -0.000000   0.000000  -0.000283   0.005746  -0.063182
    22  H    0.000000   0.000000  -0.000000   0.000001  -0.000004  -0.000012
              13         14         15         16         17         18
     1  C    0.000501  -0.067345   0.396678   0.370177  -0.038270   0.000000
     2  C    0.000237  -0.001672  -0.032533  -0.064734   0.364105   0.000000
     3  S   -0.000019  -0.002123   0.005914  -0.002206  -0.043918   0.000053
     4  S   -0.000037  -0.012465  -0.000155  -0.000038  -0.005481  -0.000265
     5  S   -0.000002  -0.000309  -0.000009   0.000006  -0.000059   0.005954
     6  C   -0.000039  -0.000021   0.000003  -0.000001  -0.000009   0.002126
     7  S    0.000001  -0.000003  -0.000000   0.000000   0.000000  -0.043560
     8  C   -0.000000   0.000000  -0.000000   0.000000   0.000000   0.364977
     9  C   -0.000000  -0.000001  -0.000000  -0.000000  -0.000006  -0.031977
    10  S    0.004883  -0.000195  -0.000027   0.000001   0.000014  -0.000089
    11  S   -0.037740  -0.006341   0.000186   0.000003  -0.000019   0.000003
    12  C    0.586586  -0.032020  -0.000687  -0.000003   0.000009  -0.000000
    13  C    4.957860   0.286242  -0.012963   0.000016  -0.000018   0.000000
    14  S    0.286242  15.702040   0.247859   0.005492   0.005207  -0.000000
    15  N   -0.012963   0.247859   6.430938  -0.047449  -0.016659   0.000000
    16  H    0.000016   0.005492  -0.047449   0.608762   0.006613   0.000000
    17  H   -0.000018   0.005207  -0.016659   0.006613   0.588679  -0.000000
    18  H    0.000000  -0.000000   0.000000   0.000000  -0.000000   0.561760
    19  H    0.000000   0.000000   0.000000  -0.000000   0.000000  -0.004825
    20  H   -0.041174   0.004758  -0.000010   0.000000  -0.000000   0.000000
    21  H    0.361722  -0.053111   0.000508   0.000001   0.000003  -0.000000
    22  H    0.000859  -0.034946   0.325789   0.004491   0.000615  -0.000000
              19         20         21         22
     1  C   -0.000000  -0.000001  -0.000053  -0.059996
     2  C   -0.000002   0.000000  -0.000012   0.004435
     3  S   -0.000127   0.000002   0.000005  -0.000534
     4  S    0.003119  -0.000051  -0.000053  -0.000035
     5  S   -0.045557   0.000021   0.000003   0.000000
     6  C    0.002864  -0.000037   0.000001  -0.000000
     7  S    0.006082   0.000004  -0.000000   0.000000
     8  C   -0.031736   0.000000  -0.000000   0.000000
     9  C    0.371584   0.000000   0.000000  -0.000000
    10  S   -0.000118   0.004645  -0.000283   0.000001
    11  S    0.000003  -0.084085   0.005746  -0.000004
    12  C    0.000000   0.371302  -0.063182  -0.000012
    13  C    0.000000  -0.041174   0.361722   0.000859
    14  S    0.000000   0.004758  -0.053111  -0.034946
    15  N    0.000000  -0.000010   0.000508   0.325789
    16  H   -0.000000   0.000000   0.000001   0.004491
    17  H    0.000000  -0.000000   0.000003   0.000615
    18  H   -0.004825   0.000000  -0.000000  -0.000000
    19  H    0.547858   0.000000   0.000000   0.000000
    20  H    0.000000   0.611795  -0.007608   0.000001
    21  H    0.000000  -0.007608   0.611563   0.000031
    22  H    0.000000   0.000001   0.000031   0.494458
 Mulliken charges:
               1
     1  C    0.030924
     2  C   -0.190258
     3  S   -0.100467
     4  S   -0.089374
     5  S    0.171081
     6  C   -0.060076
     7  S   -0.003376
     8  C   -0.100574
     9  C   -0.147964
    10  S   -0.050768
    11  S   -0.032838
    12  C   -0.085732
    13  C   -0.106913
    14  S   -0.041047
    15  N   -0.297383
    16  H    0.118870
    17  H    0.139193
    18  H    0.145843
    19  H    0.150855
    20  H    0.140436
    21  H    0.144720
    22  H    0.264847
 Sum of Mulliken charges =  -0.00000
 Mulliken charges with hydrogens summed into heavy atoms:
               1
     1  C    0.149794
     2  C   -0.051065
     3  S   -0.100467
     4  S   -0.089374
     5  S    0.171081
     6  C   -0.060076
     7  S   -0.003376
     8  C    0.045270
     9  C    0.002891
    10  S   -0.050768
    11  S   -0.032838
    12  C    0.054705
    13  C    0.037807
    14  S   -0.041047
    15  N   -0.032536
 Electronic spatial extent (au):  <R**2>=           5617.5617
 Charge=             -0.0000 electrons
 Dipole moment (field-independent basis, Debye):
    X=             -0.4932    Y=              0.1232    Z=              0.2909  Tot=              0.5857
 Quadrupole moment (field-independent basis, Debye-Ang):
   XX=           -115.8099   YY=           -133.0716   ZZ=           -136.6513
   XY=             -6.7987   XZ=              4.4790   YZ=              2.3508
 Traceless Quadrupole moment (field-independent basis, Debye-Ang):
   XX=             12.7011   YY=             -4.5607   ZZ=             -8.1404
   XY=             -6.7987   XZ=              4.4790   YZ=              2.3508
 Octapole moment (field-independent basis, Debye-Ang**2):
  XXX=            -13.5876  YYY=             25.9889  ZZZ=              2.9548  XYY=            -18.9168
  XXY=            -51.7262  XXZ=            -12.6797  XZZ=              1.3842  YZZ=             -2.2797
  YYZ=             -4.1040  XYZ=            -14.3855
 Hexadecapole moment (field-independent basis, Debye-Ang**3):
 XXXX=          -4103.2842 YYYY=          -2478.1991 ZZZZ=           -730.6676 XXXY=            -20.6088
 XXXZ=             44.3025 YYYX=            -95.3485 YYYZ=              4.5965 ZZZX=             11.0035
 ZZZY=             13.4654 XXYY=          -1043.2797 XXZZ=           -854.9231 YYZZ=           -512.0878
 XXYZ=             48.6763 YYXZ=             22.8400 ZZXY=             14.6517
 N-N= 1.983053092175D+03 E-N=-1.134598503270D+04  KE= 3.102532473939D+03
 PrsmSu:  requested number of processors reduced to:  13 ShMem   1 Linda.
 Calling FoFJK, ICntrl=      2127 FMM=F ISym2X=0 I1Cent= 0 IOpClX= 0 NMat=1 NMatS=1 NMatT=0.
 ***** Axes restored to original set *****
 -------------------------------------------------------------------
 Center     Atomic                   Forces (Hartrees/Bohr)
 Number     Number              X              Y              Z
 -------------------------------------------------------------------
      1        6          -0.037713460   -0.006781972   -0.044745794
      2        6           0.048932554    0.008056286    0.023648598
      3       16          -0.036076422   -0.013590717    0.033143767
      4       16          -0.017729020    0.082562193   -0.005864741
      5       16           0.001177337   -0.049630252   -0.033990003
      6        6           0.029092668   -0.015406145   -0.003775166
      7       16          -0.000319172    0.021907647    0.015525427
      8        6          -0.005085125    0.024375477    0.004031898
      9        6           0.009629789   -0.063952458    0.022932833
     10       16           0.006266464   -0.022793398    0.018220012
     11       16          -0.013931737   -0.008235501    0.007175957
     12        6           0.020698031    0.002906167   -0.004969153
     13        6           0.014654078    0.016057900   -0.000953330
     14       16          -0.001093824    0.024596738    0.022023573
     15        7          -0.014057002    0.007776927    0.015395889
     16        1           0.017048924   -0.010514400   -0.014471371
     17        1           0.002077429   -0.007441083    0.001320474
     18        1          -0.005202053   -0.003380996   -0.002325174
     19        1           0.006803171    0.005341521   -0.000427015
     20        1          -0.008080456    0.008316520   -0.001226474
     21        1          -0.030623383    0.002916318   -0.031636263
     22        1           0.013531208   -0.003086772   -0.019033945
 -------------------------------------------------------------------
 Cartesian Forces:  Max     0.082562193 RMS     0.022756070

 GradGradGradGradGradGradGradGradGradGradGradGradGradGradGradGradGradGrad
 Berny optimization.
 FormGI is forming the generalized inverse of G from B-inverse, IUseBI=4.
 Internal  Forces:  Max     0.075869812 RMS     0.020130978
 Search for a local minimum.
 Step number   1 out of a maximum of  108
 All quantities printed in internal units (Hartrees-Bohrs-Radians)
 Mixed Optimization -- RFO/linear search
 Second derivative matrix not updated -- first step.
 ITU=  0
     Eigenvalues ---    0.00743   0.00874   0.01019   0.01159   0.01254
     Eigenvalues ---    0.01459   0.01821   0.01895   0.02008   0.02208
     Eigenvalues ---    0.02443   0.03085   0.03181   0.03295   0.04082
     Eigenvalues ---    0.05075   0.06047   0.07620   0.08881   0.12386
     Eigenvalues ---    0.13260   0.14248   0.14647   0.15229   0.15686
     Eigenvalues ---    0.15931   0.15998   0.16176   0.19364   0.21233
     Eigenvalues ---    0.21871   0.22709   0.22744   0.23427   0.24000
     Eigenvalues ---    0.24389   0.24971   0.26844   0.27097   0.27815
     Eigenvalues ---    0.28368   0.28472   0.29047   0.29572   0.29988
     Eigenvalues ---    0.31123   0.31477   0.32435   0.33086   0.33720
     Eigenvalues ---    0.34002   0.34238   0.34333   0.35789   0.35963
     Eigenvalues ---    0.40858   0.42846   0.45861   0.53130   0.62647
 RFO step:  Lambda=-1.31534369D-01 EMin= 7.43031772D-03
 Linear search not attempted -- first point.
 Maximum step size (   0.300) exceeded in Quadratic search.
    -- Step size scaled by   0.663
 Iteration  1 RMS(Cart)=  0.12822655 RMS(Int)=  0.00475560
 Iteration  2 RMS(Cart)=  0.00689885 RMS(Int)=  0.00112861
 Iteration  3 RMS(Cart)=  0.00002713 RMS(Int)=  0.00112855
 Iteration  4 RMS(Cart)=  0.00000009 RMS(Int)=  0.00112855
 Variable       Old X    -DE/DX   Delta X   Delta X   Delta X     New X
                                 (Linear)    (Quad)   (Total)
    R1        2.48515   0.06331   0.00000   0.05516   0.05554   2.54069
    R2        2.70020  -0.00029   0.00000  -0.00167  -0.00096   2.69924
    R3        2.10055  -0.01062   0.00000  -0.01543  -0.01543   2.08512
    R4        3.36064   0.01289   0.00000   0.02126   0.02149   3.38213
    R5        2.07327  -0.00405   0.00000  -0.00568  -0.00568   2.06758
    R6        3.89052   0.01955   0.00000   0.03369   0.03316   3.92368
    R7        3.78054   0.07587   0.00000   0.10699   0.10677   3.88731
    R8        3.29527  -0.00961   0.00000  -0.01609  -0.01601   3.27926
    R9        3.22569   0.03162   0.00000   0.04245   0.04276   3.26845
   R10        3.36830  -0.00747   0.00000  -0.01133  -0.01123   3.35707
   R11        3.38229  -0.00077   0.00000   0.00012  -0.00056   3.38173
   R12        3.27934  -0.01000   0.00000  -0.01286  -0.01340   3.26594
   R13        2.62199  -0.03243   0.00000  -0.03511  -0.03547   2.58652
   R14        2.04139   0.00164   0.00000   0.00221   0.00221   2.04360
   R15        2.04413  -0.00022   0.00000  -0.00030  -0.00030   2.04382
   R16        3.86187   0.02874   0.00000   0.04486   0.04463   3.90650
   R17        3.29188   0.02445   0.00000   0.03563   0.03541   3.32729
   R18        2.56413   0.02629   0.00000   0.02515   0.02535   2.58948
   R19        2.07804  -0.00552   0.00000  -0.00780  -0.00780   2.07024
   R20        3.34595   0.00707   0.00000   0.00907   0.00974   3.35569
   R21        2.08902  -0.00273   0.00000  -0.00391  -0.00391   2.08511
   R22        3.33251  -0.00686   0.00000  -0.01331  -0.01286   3.31965
   R23        1.94560  -0.00587   0.00000  -0.00694  -0.00694   1.93865
    A1        2.21430  -0.00026   0.00000   0.00609   0.00682   2.22112
    A2        2.04325   0.01570   0.00000   0.03196   0.03154   2.07480
    A3        2.01852  -0.01522   0.00000  -0.03721  -0.03765   1.98087
    A4        2.06967   0.01969   0.00000   0.04633   0.04799   2.11765
    A5        2.01347  -0.00893   0.00000  -0.00654  -0.00830   2.00518
    A6        1.95168   0.00127   0.00000   0.00720   0.00572   1.95740
    A7        1.63245  -0.01627   0.00000  -0.02267  -0.02290   1.60955
    A8        2.10621  -0.01199   0.00000  -0.01883  -0.01837   2.08784
    A9        1.79027   0.02195   0.00000   0.07563   0.07403   1.86430
   A10        1.75768   0.02948   0.00000   0.06999   0.06836   1.82604
   A11        1.58449   0.00314   0.00000   0.01888   0.01692   1.60141
   A12        2.05904  -0.01135   0.00000  -0.01980  -0.01933   2.03971
   A13        2.18700   0.00768   0.00000   0.01258   0.01206   2.19906
   A14        1.99501   0.00602   0.00000   0.01362   0.01344   2.00845
   A15        1.56222   0.01891   0.00000   0.03679   0.03634   1.59855
   A16        2.07501  -0.00771   0.00000  -0.01380  -0.01440   2.06060
   A17        2.10226   0.00022   0.00000  -0.00136  -0.00114   2.10112
   A18        2.10575   0.00759   0.00000   0.01549   0.01571   2.12146
   A19        2.03401   0.00561   0.00000   0.00891   0.00928   2.04329
   A20        2.13210  -0.00854   0.00000  -0.01761  -0.01797   2.11413
   A21        2.10475   0.00356   0.00000   0.01152   0.01135   2.11610
   A22        1.80893   0.02334   0.00000   0.04116   0.04039   1.84931
   A23        1.73523   0.05530   0.00000   0.09521   0.09318   1.82841
   A24        2.14965   0.02382   0.00000   0.05395   0.05494   2.20459
   A25        1.84851   0.01143   0.00000   0.03553   0.03429   1.88280
   A26        2.05734  -0.02215   0.00000  -0.04096  -0.04305   2.01429
   A27        2.30297  -0.01630   0.00000  -0.02490  -0.02276   2.28021
   A28        1.82902   0.03268   0.00000   0.08978   0.08771   1.91672
   A29        1.90238  -0.00329   0.00000   0.00306   0.00034   1.90272
   A30        2.03185  -0.05443   0.00000  -0.11490  -0.11416   1.91769
   A31        2.01222   0.01710   0.00000   0.03654   0.03802   2.05024
   A32        1.82306   0.01980   0.00000   0.05839   0.05641   1.87947
   A33        1.95844  -0.02041   0.00000  -0.03805  -0.03962   1.91883
    D1       -2.00752  -0.02979   0.00000  -0.11206  -0.11372  -2.12124
    D2        0.37690  -0.01425   0.00000  -0.04958  -0.04999   0.32691
    D3        1.26827  -0.03085   0.00000  -0.11738  -0.11812   1.15015
    D4       -2.63049  -0.01531   0.00000  -0.05490  -0.05440  -2.68489
    D5        0.30046  -0.00948   0.00000  -0.02014  -0.01841   0.28205
    D6       -1.85696  -0.00886   0.00000  -0.03775  -0.03736  -1.89432
    D7       -2.97369  -0.00639   0.00000  -0.01032  -0.00975  -2.98344
    D8        1.15208  -0.00577   0.00000  -0.02793  -0.02871   1.12337
    D9        1.92805  -0.01387   0.00000  -0.03135  -0.03045   1.89760
   D10       -0.48125  -0.02439   0.00000  -0.08541  -0.08628  -0.56753
   D11       -2.91679   0.03543   0.00000   0.15216   0.15013  -2.76666
   D12        1.07773  -0.00216   0.00000   0.00987   0.01055   1.08827
   D13       -0.54956  -0.01677   0.00000  -0.04151  -0.04511  -0.59467
   D14       -2.18616  -0.01241   0.00000  -0.01950  -0.02148  -2.20764
   D15        1.28168  -0.02208   0.00000  -0.04557  -0.04748   1.23421
   D16       -0.42071   0.01983   0.00000   0.06105   0.06051  -0.36019
   D17        3.04714   0.01017   0.00000   0.03497   0.03451   3.08166
   D18        2.20573   0.01117   0.00000   0.02974   0.02988   2.23561
   D19       -1.10317   0.01582   0.00000   0.04994   0.05003  -1.05314
   D20        0.40883  -0.01351   0.00000  -0.05511  -0.05618   0.35264
   D21       -2.90007  -0.00887   0.00000  -0.03491  -0.03603  -2.93610
   D22        0.29601  -0.00973   0.00000  -0.03422  -0.03418   0.26183
   D23       -3.13667  -0.00036   0.00000  -0.01030  -0.01046   3.13606
   D24       -0.15909   0.00063   0.00000  -0.00064  -0.00153  -0.16062
   D25       -2.98488  -0.00585   0.00000  -0.02037  -0.02176  -3.00664
   D26       -0.00139  -0.00169   0.00000  -0.00990  -0.00988  -0.01127
   D27        3.12077   0.00405   0.00000   0.01016   0.00969   3.13046
   D28       -0.29613   0.01398   0.00000   0.05299   0.05262  -0.24352
   D29        3.00997   0.01066   0.00000   0.03610   0.03543   3.04541
   D30        2.86493   0.00832   0.00000   0.03308   0.03300   2.89793
   D31       -0.11214   0.00500   0.00000   0.01620   0.01582  -0.09633
   D32       -2.31133   0.01082   0.00000   0.00921   0.00992  -2.30141
   D33        2.30703   0.00946   0.00000   0.02540   0.02429   2.33132
   D34       -1.53100   0.01629   0.00000   0.06973   0.07155  -1.45945
   D35       -0.71479   0.01828   0.00000   0.06098   0.05986  -0.65493
   D36        1.61767   0.04121   0.00000   0.17022   0.17071   1.78838
   D37       -3.08393  -0.00427   0.00000  -0.02166  -0.02204  -3.10598
   D38       -0.75147   0.01866   0.00000   0.08758   0.08881  -0.66266
   D39       -1.65524   0.01366   0.00000   0.06272   0.06256  -1.59268
   D40        2.31943  -0.02114   0.00000  -0.07683  -0.07636   2.24307
   D41        2.16131  -0.00929   0.00000  -0.02863  -0.02483   2.13647
   D42       -2.03771   0.01381   0.00000   0.04638   0.04758  -1.99012
         Item               Value     Threshold  Converged?
 Maximum Force            0.075870     0.000450     NO 
 RMS     Force            0.020131     0.000300     NO 
 Maximum Displacement     0.396465     0.001800     NO 
 RMS     Displacement     0.127800     0.001200     NO 
 Predicted change in Energy=-7.396007D-02
 GradGradGradGradGradGradGradGradGradGradGradGradGradGradGradGradGradGrad

                          Input orientation:                          
 ---------------------------------------------------------------------
 Center     Atomic      Atomic             Coordinates (Angstroms)
 Number     Number       Type             X           Y           Z
 ---------------------------------------------------------------------
      1          6           0        2.453030   -0.257769   -1.097103
      2          6           0        2.911163   -0.107823    0.157982
      3         16           0        3.353189   -1.521598    1.162497
      4         16           0        5.378984   -1.087460    1.025401
      5         16           0        6.762123   -2.573298    1.358220
      6          6           0        6.505813   -3.780247    0.138026
      7         16           0        6.265459   -5.449111    0.697518
      8          6           0        5.979954   -4.916249    2.316601
      9          6           0        6.044813   -3.573400    2.573435
     10         16           0        6.878974   -3.610637   -1.603932
     11         16           0        7.360689   -1.620897   -1.890873
     12          6           0        6.417588   -1.128856   -3.293947
     13          6           0        5.671333    0.014561   -3.409713
     14         16           0        4.670836    0.868577   -2.216833
     15          7           0        3.017246    0.280655   -2.293772
     16          1           0        1.477636   -0.749448   -1.253138
     17          1           0        3.599887    0.730432    0.299688
     18          1           0        5.757459   -5.631453    3.096636
     19          1           0        5.789156   -3.175283    3.546000
     20          1           0        6.973495   -1.420308   -4.191831
     21          1           0        6.215011    0.755989   -4.019771
     22          1           0        2.395432    1.027236   -2.623040
 ---------------------------------------------------------------------
                    Distance matrix (angstroms):
                    1          2          3          4          5
     1  C    0.000000
     2  C    1.344473   0.000000
     3  S    2.741047   1.789747   0.000000
     4  S    3.708722   2.793250   2.076323   0.000000
     5  S    5.473442   4.727476   3.572844   2.057074   0.000000
     6  C    5.509850   5.138931   4.011244   3.050947   1.735308
     7  S    6.686203   6.330225   4.911505   4.462884   2.992240
     8  C    6.767126   6.099022   4.444717   4.085093   2.649472
     9  C    6.112869   5.259696   3.666808   3.003270   1.729591
    10  S    5.575624   5.578312   4.944530   3.940784   3.140711
    11  S    5.154930   5.126936   5.039145   3.566001   3.438306
    12  C    4.615478   5.025270   5.422608   4.442654   4.883417
    13  C    3.972380   4.512423   5.351511   4.579318   5.533535
    14  S    2.727841   3.112805   4.343846   3.852225   5.385256
    15  N    1.428376   2.484606   3.912386   4.297262   5.958708
    16  H    1.103398   2.111383   3.154236   4.530619   6.170204
    17  H    2.059817   1.094117   2.424239   2.645104   4.694130
    18  H    7.575169   6.873688   5.139292   5.008107   3.658382
    19  H    6.418725   5.401002   3.788100   3.298585   2.468893
    20  H    5.600308   6.094754   6.464186   5.465598   5.672489
    21  H    4.870544   5.395850   6.342974   5.436083   6.348721
    22  H    1.995755   3.047690   4.663061   5.165718   6.919700
                    6          7          8          9         10
     6  C    0.000000
     7  S    1.776487   0.000000
     8  C    2.512611   1.728261   0.000000
     9  C    2.487272   2.661961   1.368727   0.000000
    10  S    1.789535   3.008830   4.228881   4.260000   0.000000
    11  S    3.083834   4.749159   5.519837   5.047161   2.067232
    12  C    4.337752   5.883836   6.783370   6.367175   3.037805
    13  C    5.261499   6.861052   7.562988   6.986487   4.226263
    14  S    5.524859   7.137888   7.465254   6.675750   5.031389
    15  N    5.880023   7.233873   7.552548   6.907214   5.525484
    16  H    6.033544   6.986783   7.097614   6.593669   6.122410
    17  H    5.368125   6.741683   6.451175   5.447068   5.763771
    18  H    3.569366   2.459082   1.081424   2.142871   5.238019
    19  H    3.534666   3.675732   2.139810   1.081546   5.281954
    20  H    4.953353   6.374817   7.454422   7.160103   3.391710
    21  H    6.160298   7.794781   8.507592   7.889419   5.034336
    22  H    6.901493   8.242953   8.519029   7.841376   6.530742
                   11         12         13         14         15
    11  S    0.000000
    12  C    1.760727   0.000000
    13  C    2.799200   1.370292   0.000000
    14  S    3.679543   2.863748   1.775753   0.000000
    15  N    4.758543   3.814368   2.891420   1.756682   0.000000
    16  H    5.981341   5.358355   4.777197   3.707187   2.124718
    17  H    4.946810   4.930578   4.308481   2.738411   2.695886
    18  H    6.597739   7.845298   8.614956   8.465465   8.456849
    19  H    5.869022   7.167123   7.653164   7.128372   7.330070
    20  H    2.341915   1.095524   2.089542   3.800243   4.706147
    21  H    3.390335   2.029901   1.103391   2.376496   3.664794
    22  H    5.674720   4.612655   3.517938   2.316816   1.025891
                   16         17         18         19         20
    16  H    0.000000
    17  H    3.017492   0.000000
    18  H    7.814819   7.276786   0.000000
    19  H    6.892431   5.530465   2.497139   0.000000
    20  H    6.268208   6.015036   8.504954   8.022258   0.000000
    21  H    5.688876   5.049480   9.573506   8.536811   2.311097
    22  H    2.423960   3.175081   9.399790   8.199730   5.423121
                   21         22
    21  H    0.000000
    22  H    4.075980   0.000000
 Stoichiometry    C7H7NS7
 Framework group  C1[X(C7H7NS7)]
 Deg. of freedom    60
 Full point group                 C1      NOp   1
 Largest Abelian subgroup         C1      NOp   1
 Largest concise Abelian subgroup C1      NOp   1
                         Standard orientation:                         
 ---------------------------------------------------------------------
 Center     Atomic      Atomic             Coordinates (Angstroms)
 Number     Number       Type             X           Y           Z
 ---------------------------------------------------------------------
      1          6           0       -2.750419   -1.889706   -1.198481
      2          6           0       -2.017165   -2.478433   -0.237571
      3         16           0       -0.237567   -2.610705   -0.374421
      4         16           0        0.063041   -1.197367    1.116628
      5         16           0        1.857361   -0.196996    1.222607
      6          6           0        2.017424    0.704412   -0.251549
      7         16           0        3.509422    0.459657   -1.184258
      8          6           0        3.891768   -0.968499   -0.289235
      9          6           0        3.033821   -1.354356    0.704974
     10         16           0        1.064053    2.147557   -0.710733
     11         16           0       -0.438546    2.308495    0.699849
     12          6           0       -1.910115    2.545696   -0.237370
     13          6           0       -3.103170    1.897453   -0.052708
     14         16           0       -3.447723    0.213363    0.392740
     15          7           0       -3.618947   -0.764656   -1.056430
     16          1           0       -2.801855   -2.362185   -2.194274
     17          1           0       -2.337049   -2.258703    0.785408
     18          1           0        4.785545   -1.533408   -0.516213
     19          1           0        3.174822   -2.284937    1.237776
     20          1           0       -1.986697    3.611455   -0.479171
     21          1           0       -3.811843    2.560449    0.472354
     22          1           0       -4.583814   -1.103563   -1.137829
 ---------------------------------------------------------------------
 Rotational constants (GHZ):           0.4434004           0.2449721           0.1835439
 Standard basis: 6-31G(2df,p) (6D, 7F)
 There are   528 symmetry adapted cartesian basis functions of A   symmetry.
 There are   483 symmetry adapted basis functions of A   symmetry.
   483 basis functions,   877 primitive gaussians,   528 cartesian basis functions
    84 alpha electrons       84 beta electrons
       nuclear repulsion energy      1951.9790688310 Hartrees.
 NAtoms=   22 NActive=   22 NUniq=   22 SFac= 1.00D+00 NAtFMM=   60 NAOKFM=F Big=F
 Integral buffers will be    131072 words long.
 Raffenetti 2 integral format.
 Two-electron integral symmetry is turned on.
 One-electron integrals computed using PRISM.
 PrsmSu:  requested number of processors reduced to:  12 ShMem   1 Linda.
 NBasis=   483 RedAO= T EigKep=  4.69D-04  NBF=   483
 NBsUse=   483 1.00D-06 EigRej= -1.00D+00 NBFU=   483
 Initial guess from the checkpoint file:  "C1dCSSS2dCqSCdC2rSSCdCSN1.chk"
 B after Tr=    -0.000000   -0.000000    0.000000
         Rot=    0.999781   -0.012902    0.001800   -0.016408 Ang=  -2.40 deg.
 ExpMin= 1.17D-01 ExpMax= 2.19D+04 ExpMxC= 3.30D+03 IAcc=2 IRadAn=         4 AccDes= 0.00D+00
 Harris functional with IExCor=  402 and IRadAn=       4 diagonalized for initial guess.
 HarFok:  IExCor=  402 AccDes= 0.00D+00 IRadAn=         4 IDoV= 1 UseB2=F ITyADJ=14
 ICtDFT=  3500011 ScaDFX=  1.000000  1.000000  1.000000  1.000000
 FoFCou: FMM=F IPFlag=           0 FMFlag=      100000 FMFlg1=           0
         NFxFlg=           0 DoJE=T BraDBF=F KetDBF=T FulRan=T
         wScrn=  0.000000 ICntrl=       500 IOpCl=  0 I1Cent=   200000004 NGrid=           0
         NMat0=    1 NMatS0=      1 NMatT0=    0 NMatD0=    1 NMtDS0=    0 NMtDT0=    0
 Petite list used in FoFCou.
 Requested convergence on RMS density matrix=1.00D-08 within 128 cycles.
 Requested convergence on MAX density matrix=1.00D-06.
 Requested convergence on             energy=1.00D-06.
 No special actions if energy rises.
 Integral accuracy reduced to 1.0D-05 until final iterations.
 Initial convergence to 1.0D-05 achieved.  Increase integral accuracy.
 SCF Done:  E(RB3LYP) =  -3112.78141215     A.U. after   17 cycles
            NFock= 17  Conv=0.70D-08     -V/T= 2.0034
 PrsmSu:  requested number of processors reduced to:  13 ShMem   1 Linda.
 Calling FoFJK, ICntrl=      2127 FMM=F ISym2X=0 I1Cent= 0 IOpClX= 0 NMat=1 NMatS=1 NMatT=0.
 ***** Axes restored to original set *****
 -------------------------------------------------------------------
 Center     Atomic                   Forces (Hartrees/Bohr)
 Number     Number              X              Y              Z
 -------------------------------------------------------------------
      1        6          -0.018652760   -0.003798122   -0.015952975
      2        6           0.030094100    0.001377743   -0.007030118
      3       16          -0.028688792    0.001273502    0.018728214
      4       16          -0.016543662    0.055793220    0.003553862
      5       16          -0.001133126   -0.045616181   -0.029575743
      6        6           0.023546454   -0.005532332    0.004026227
      7       16          -0.003473524    0.014857977    0.008356550
      8        6          -0.002776295    0.013925714   -0.000636588
      9        6           0.011446373   -0.035233632    0.014990280
     10       16           0.005723909   -0.013867951    0.009584714
     11       16          -0.015857509   -0.004447492    0.005289348
     12        6           0.009934611    0.015087146   -0.007957584
     13        6           0.023858788    0.003637258    0.010171168
     14       16          -0.003737365    0.012691462    0.013928180
     15        7          -0.009825333    0.011020032    0.016938062
     16        1           0.014169662   -0.009696591   -0.007933114
     17        1           0.002073116   -0.006080084    0.002440142
     18        1          -0.004501388   -0.002514455   -0.002997086
     19        1           0.005694997    0.005579755   -0.000769240
     20        1          -0.004259077    0.003589805    0.000410490
     21        1          -0.025357511   -0.007133598   -0.022584847
     22        1           0.008264334   -0.004913177   -0.012979941
 -------------------------------------------------------------------
 Cartesian Forces:  Max     0.055793220 RMS     0.015751278

 GradGradGradGradGradGradGradGradGradGradGradGradGradGradGradGradGradGrad
 Berny optimization.
 Using GEDIIS/GDIIS optimizer.
 FormGI is forming the generalized inverse of G from B-inverse, IUseBI=4.
 Internal  Forces:  Max     0.056577894 RMS     0.012544911
 Search for a local minimum.
 Step number   2 out of a maximum of  108
 All quantities printed in internal units (Hartrees-Bohrs-Radians)
 Mixed Optimization -- RFO/linear search
 Update second derivatives using D2CorX and points    1    2
 DE= -7.17D-02 DEPred=-7.40D-02 R= 9.69D-01
 TightC=F SS=  1.41D+00  RLast= 4.87D-01 DXNew= 5.0454D-01 1.4621D+00
 Trust test= 9.69D-01 RLast= 4.87D-01 DXMaxT set to 5.05D-01
 ITU=  1  0
 Use linear search instead of GDIIS.
 Linear search step of   0.596 exceeds DXMaxT=   0.505 but not scaled.
 Quartic linear search produced a step of  2.00000.
 Iteration  1 RMS(Cart)=  0.22619205 RMS(Int)=  0.02139121
 Iteration  2 RMS(Cart)=  0.05607518 RMS(Int)=  0.00717606
 Iteration  3 RMS(Cart)=  0.00180707 RMS(Int)=  0.00708791
 Iteration  4 RMS(Cart)=  0.00002349 RMS(Int)=  0.00708791
 Iteration  5 RMS(Cart)=  0.00000063 RMS(Int)=  0.00708791
 Variable       Old X    -DE/DX   Delta X   Delta X   Delta X     New X
                                 (Linear)    (Quad)   (Total)
    R1        2.54069   0.01886   0.11108   0.00000   0.11412   2.65481
    R2        2.69924  -0.00701  -0.00193   0.00000   0.00236   2.70160
    R3        2.08512  -0.00708  -0.03087   0.00000  -0.03087   2.05425
    R4        3.38213   0.00300   0.04299   0.00000   0.04553   3.42766
    R5        2.06758  -0.00304  -0.01137   0.00000  -0.01137   2.05621
    R6        3.92368   0.01236   0.06633   0.00000   0.06347   3.98716
    R7        3.88731   0.05658   0.21354   0.00000   0.21249   4.09979
    R8        3.27926  -0.01316  -0.03203   0.00000  -0.03194   3.24731
    R9        3.26845   0.01415   0.08552   0.00000   0.08748   3.35593
   R10        3.35707  -0.00744  -0.02245   0.00000  -0.02235   3.33472
   R11        3.38173  -0.00326  -0.00113   0.00000  -0.00547   3.37626
   R12        3.26594  -0.00735  -0.02680   0.00000  -0.03007   3.23587
   R13        2.58652  -0.01686  -0.07094   0.00000  -0.07268   2.51384
   R14        2.04360   0.00043   0.00441   0.00000   0.00441   2.04801
   R15        2.04382   0.00002  -0.00060   0.00000  -0.00060   2.04322
   R16        3.90650   0.01477   0.08927   0.00000   0.08781   3.99431
   R17        3.32729   0.00950   0.07083   0.00000   0.06905   3.39634
   R18        2.58948  -0.00054   0.05070   0.00000   0.05125   2.64072
   R19        2.07024  -0.00345  -0.01561   0.00000  -0.01561   2.05464
   R20        3.35569   0.00506   0.01947   0.00000   0.02325   3.37893
   R21        2.08511  -0.00480  -0.00782   0.00000  -0.00782   2.07729
   R22        3.31965  -0.00611  -0.02571   0.00000  -0.02345   3.29620
   R23        1.93865  -0.00442  -0.01389   0.00000  -0.01389   1.92476
    A1        2.22112  -0.00438   0.01364   0.00000   0.01555   2.23667
    A2        2.07480   0.01117   0.06309   0.00000   0.06171   2.13651
    A3        1.98087  -0.00670  -0.07529   0.00000  -0.07654   1.90433
    A4        2.11765   0.01089   0.09597   0.00000   0.10658   2.22424
    A5        2.00518  -0.00330  -0.01659   0.00000  -0.02769   1.97749
    A6        1.95740   0.00062   0.01143   0.00000   0.00071   1.95810
    A7        1.60955  -0.00699  -0.04581   0.00000  -0.04530   1.56424
    A8        2.08784  -0.00571  -0.03674   0.00000  -0.03326   2.05457
    A9        1.86430   0.01390   0.14805   0.00000   0.13689   2.00119
   A10        1.82604   0.01448   0.13672   0.00000   0.12501   1.95105
   A11        1.60141   0.00278   0.03383   0.00000   0.02135   1.62277
   A12        2.03971  -0.00397  -0.03865   0.00000  -0.03476   2.00495
   A13        2.19906   0.00319   0.02412   0.00000   0.01889   2.21795
   A14        2.00845   0.00251   0.02688   0.00000   0.02675   2.03521
   A15        1.59855   0.00947   0.07267   0.00000   0.06914   1.66769
   A16        2.06060  -0.00415  -0.02881   0.00000  -0.03220   2.02840
   A17        2.10112  -0.00155  -0.00228   0.00000  -0.00099   2.10013
   A18        2.12146   0.00569   0.03142   0.00000   0.03258   2.15404
   A19        2.04329   0.00164   0.01856   0.00000   0.02061   2.06391
   A20        2.11413  -0.00698  -0.03593   0.00000  -0.03783   2.07630
   A21        2.11610   0.00592   0.02270   0.00000   0.02161   2.13771
   A22        1.84931   0.00818   0.08078   0.00000   0.07390   1.92322
   A23        1.82841   0.02306   0.18636   0.00000   0.17287   2.00128
   A24        2.20459   0.01435   0.10989   0.00000   0.11610   2.32069
   A25        1.88280   0.00609   0.06857   0.00000   0.05953   1.94233
   A26        2.01429  -0.01188  -0.08609   0.00000  -0.09850   1.91578
   A27        2.28021  -0.00370  -0.04552   0.00000  -0.03570   2.24451
   A28        1.91672   0.01573   0.17541   0.00000   0.15997   2.07669
   A29        1.90272  -0.00037   0.00069   0.00000  -0.01838   1.88435
   A30        1.91769  -0.03592  -0.22832   0.00000  -0.22020   1.69749
   A31        2.05024   0.00994   0.07603   0.00000   0.07947   2.12971
   A32        1.87947   0.01154   0.11282   0.00000   0.10177   1.98124
   A33        1.91883  -0.01093  -0.07923   0.00000  -0.08603   1.83280
    D1       -2.12124  -0.02383  -0.22743   0.00000  -0.23649  -2.35773
    D2        0.32691  -0.01179  -0.09998   0.00000  -0.10219   0.22472
    D3        1.15015  -0.02434  -0.23625   0.00000  -0.23917   0.91098
    D4       -2.68489  -0.01230  -0.10879   0.00000  -0.10487  -2.78976
    D5        0.28205  -0.00436  -0.03682   0.00000  -0.02592   0.25613
    D6       -1.89432  -0.00685  -0.07473   0.00000  -0.07054  -1.96486
    D7       -2.98344  -0.00274  -0.01950   0.00000  -0.01553  -2.99897
    D8        1.12337  -0.00523  -0.05741   0.00000  -0.06015   1.06322
    D9        1.89760  -0.00861  -0.06090   0.00000  -0.05333   1.84427
   D10       -0.56753  -0.01881  -0.17256   0.00000  -0.17570  -0.74323
   D11       -2.76666   0.03183   0.30026   0.00000   0.28561  -2.48105
   D12        1.08827  -0.00122   0.02109   0.00000   0.02483   1.11311
   D13       -0.59467  -0.01318  -0.09021   0.00000  -0.11060  -0.70527
   D14       -2.20764  -0.00403  -0.04296   0.00000  -0.05404  -2.26168
   D15        1.23421  -0.01136  -0.09496   0.00000  -0.10554   1.12867
   D16       -0.36019   0.01372   0.12103   0.00000   0.11693  -0.24326
   D17        3.08166   0.00638   0.06902   0.00000   0.06543  -3.13609
   D18        2.23561   0.00511   0.05976   0.00000   0.06003   2.29564
   D19       -1.05314   0.01000   0.10007   0.00000   0.09986  -0.95327
   D20        0.35264  -0.01182  -0.11237   0.00000  -0.11791   0.23474
   D21       -2.93610  -0.00692  -0.07206   0.00000  -0.07807  -3.01417
   D22        0.26183  -0.00784  -0.06836   0.00000  -0.06794   0.19389
   D23        3.13606  -0.00104  -0.02092   0.00000  -0.02207   3.11399
   D24       -0.16062  -0.00050  -0.00306   0.00000  -0.00905  -0.16967
   D25       -3.00664  -0.00675  -0.04351   0.00000  -0.05213  -3.05877
   D26       -0.01127  -0.00069  -0.01977   0.00000  -0.01960  -0.03088
   D27        3.13046   0.00247   0.01938   0.00000   0.01661  -3.13612
   D28       -0.24352   0.01045   0.10524   0.00000   0.10291  -0.14061
   D29        3.04541   0.00671   0.07087   0.00000   0.06690   3.11231
   D30        2.89793   0.00725   0.06600   0.00000   0.06546   2.96339
   D31       -0.09633   0.00351   0.03163   0.00000   0.02946  -0.06687
   D32       -2.30141   0.00606   0.01984   0.00000   0.02335  -2.27806
   D33        2.33132   0.00625   0.04858   0.00000   0.04125   2.37257
   D34       -1.45945   0.01465   0.14311   0.00000   0.15273  -1.30672
   D35       -0.65493   0.01102   0.11972   0.00000   0.11206  -0.54287
   D36        1.78838   0.03216   0.34142   0.00000   0.34447   2.13285
   D37       -3.10598  -0.00441  -0.04409   0.00000  -0.04668   3.13053
   D38       -0.66266   0.01673   0.17761   0.00000   0.18573  -0.47694
   D39       -1.59268   0.00893   0.12513   0.00000   0.12146  -1.47121
   D40        2.24307  -0.01686  -0.15271   0.00000  -0.14686   2.09621
   D41        2.13647  -0.00285  -0.04967   0.00000  -0.02465   2.11183
   D42       -1.99012   0.01127   0.09517   0.00000   0.10372  -1.88641
         Item               Value     Threshold  Converged?
 Maximum Force            0.056578     0.000450     NO 
 RMS     Force            0.012545     0.000300     NO 
 Maximum Displacement     0.661886     0.001800     NO 
 RMS     Displacement     0.244156     0.001200     NO 
 Predicted change in Energy=-5.333845D-02
 GradGradGradGradGradGradGradGradGradGradGradGradGradGradGradGradGradGrad

                          Input orientation:                          
 ---------------------------------------------------------------------
 Center     Atomic      Atomic             Coordinates (Angstroms)
 Number     Number       Type             X           Y           Z
 ---------------------------------------------------------------------
      1          6           0        2.642040   -0.292449   -1.227509
      2          6           0        2.982346   -0.068948    0.117065
      3         16           0        3.250064   -1.314239    1.408420
      4         16           0        5.328432   -0.970847    1.289266
      5         16           0        6.646934   -2.682441    1.486245
      6          6           0        6.488017   -3.856847    0.241886
      7         16           0        6.285044   -5.515737    0.808374
      8          6           0        6.021463   -5.099679    2.448360
      9          6           0        6.087212   -3.804337    2.743946
     10         16           0        6.852496   -3.642993   -1.494061
     11         16           0        7.214234   -1.604049   -1.917819
     12          6           0        6.298368   -0.955838   -3.321804
     13          6           0        5.590262    0.230511   -3.531367
     14         16           0        4.692612    1.218832   -2.342005
     15          7           0        3.197863    0.321267   -2.392947
     16          1           0        1.797643   -0.911586   -1.519692
     17          1           0        3.600581    0.814404    0.263485
     18          1           0        5.848151   -5.872615    3.188001
     19          1           0        5.911136   -3.426768    3.741690
     20          1           0        6.718666   -1.304184   -4.262099
     21          1           0        5.882595    0.885277   -4.364543
     22          1           0        2.543109    0.926876   -2.884844
 ---------------------------------------------------------------------
                    Distance matrix (angstroms):
                    1          2          3          4          5
     1  C    0.000000
     2  C    1.404863   0.000000
     3  S    2.891690   1.813842   0.000000
     4  S    3.743138   2.773372   2.109912   0.000000
     5  S    5.395897   4.704700   3.662889   2.169517   0.000000
     6  C    5.445696   5.162702   4.279018   3.281865   1.718404
     7  S    6.685734   6.407280   5.217637   4.669303   2.935650
     8  C    6.931233   6.322928   4.805381   4.344082   2.675803
     9  C    6.322581   5.522122   4.004201   3.274219   1.775881
    10  S    5.387499   5.508864   5.179286   4.148499   3.138015
[...]
 5125,0.00073081,0.00037284,0.00863976,0.01029372,0.00616325,-0.0343329
 9,-0.09033307,-0.05830261,-0.21074819,0.42993495,0.00304678,-0.0018840
 2,0.00767915,-0.00236630,0.00095112,-0.00315599,-0.00200352,-0.0017074
 0,0.00088897,0.00237637,-0.00008639,0.00080473,-0.00052400,0.00127804,
 -0.00236884,-0.00509037,-0.00358967,0.00362010,0.00123178,0.00066869,0
 .00136709,-0.00043009,-0.00024168,0.00026937,0.00008414,-0.00080706,-0
 .00033799,-0.00869366,0.01268754,-0.01616216,-0.04017699,-0.05116860,-
 0.07978582,0.13942652,0.12144117,0.27812680,-0.00035754,0.00243108,-0.
 00577612,0.00127057,-0.00030644,0.00246635,0.00140833,0.00082226,-0.00
 081419,-0.00171936,0.00031513,-0.00013225,0.00023459,-0.00038493,0.001
 26096,0.00216822,0.00076491,-0.00268118,0.00002226,0.00020024,-0.00060
 666,0.00026080,-0.00002502,0.00012176,-0.00017753,0.00021506,-0.000044
 00,0.00143084,-0.00677000,0.00433171,-0.02680416,-0.00324110,-0.025920
 03,-0.41357079,0.12688974,-0.11615312,0.62148837,-0.00140750,0.0031358
 0,-0.00227424,0.00117420,-0.00010881,-0.00022233,0.00010061,-0.0005268
 4,0.00048471,0.00012036,-0.00019228,-0.00025713,-0.00033287,0.00074573
 ,0.00061826,0.00061244,0.00073587,-0.00082650,-0.00067128,-0.00068737,
 0.00001666,0.00055437,0.00005679,-0.00033394,-0.00005658,-0.00009040,0
 .00018953,-0.00003152,-0.00114900,-0.00042771,-0.01250588,0.00609912,-
 0.00289173,0.09728469,-0.10614182,0.00614408,-0.07606558,0.36470535,-0
 .00035070,-0.00383601,-0.00229945,0.00032689,-0.00035907,0.00195393,0.
 00074476,0.00085409,-0.00069106,-0.00086587,-0.00029661,-0.00038177,-0
 .00000999,0.00002814,0.00096584,0.00161527,0.00073244,-0.00114201,0.00
 018122,0.00015618,-0.00086767,-0.00000180,0.00036297,0.00034203,-0.000
 06418,-0.00005318,0.00000871,-0.00086078,-0.00368444,0.00112202,-0.026
 89537,-0.00236293,-0.01202824,-0.14113976,0.02616402,-0.10670514,0.237
 19838,0.13673016,0.33205353,-0.01080311,-0.00991784,0.02753866,-0.0018
 2531,0.00251831,-0.00854385,-0.00269082,-0.00102198,-0.00047391,0.0030
 8819,0.00045522,0.00076075,-0.00052798,-0.00052877,-0.00216834,-0.0039
 7848,-0.00099614,0.00318011,0.00054978,0.00037121,0.00119747,0.0002466
 5,-0.00025228,-0.00094238,0.00038069,0.00027436,0.00043283,0.00023144,
 0.00574165,-0.00350583,0.00394713,-0.00070267,0.00548929,-0.02238727,0
 .02008401,-0.00093038,-0.04115930,0.03670593,0.01054425,0.23832836,-0.
 01272554,-0.01070738,0.01268469,-0.00154513,0.00039407,-0.00081085,-0.
 00060886,0.00053425,-0.00072399,0.00014773,0.00015346,0.00019115,-0.00
 004140,-0.00023127,-0.00038529,-0.00030348,0.00026764,0.00004044,0.000
 55319,0.00016491,-0.00000098,-0.00022733,0.00005174,0.00019528,0.00008
 422,-0.00003826,-0.00010526,0.00100738,-0.00167803,-0.00041691,-0.0073
 0515,0.00044214,0.00015667,0.01914196,-0.01494338,0.00060497,0.0129605
 4,-0.14835467,-0.02886080,0.01863604,0.23948651,0.02351440,0.01440177,
 -0.02002492,0.00349285,-0.00050932,0.00276147,0.00247820,0.00210403,-0
 .00064819,-0.00232834,-0.00040685,-0.00052404,0.00050909,-0.00009661,0
 .00142885,0.00279393,0.00067573,-0.00216903,-0.00003263,-0.00021923,-0
 .00077094,-0.00035179,0.00027906,0.00069082,-0.00014669,-0.00012008,-0
 .00024551,-0.00101496,-0.00358414,0.00178009,-0.00188800,0.00427946,-0
 .00417502,0.00529379,0.00729864,0.00954869,0.00316462,-0.03519449,-0.0
 4670454,-0.08154570,0.00320943,0.10401032,-0.10761467,-0.01341894,-0.0
 2117805,0.01214449,0.01368128,-0.03097592,-0.00175520,-0.00147453,0.00
 194116,-0.00192726,-0.00082459,-0.00255629,0.00006560,0.00083758,0.001
 66389,0.00156168,0.00023307,-0.00166779,-0.00045781,-0.00017740,-0.000
 53269,0.00007381,0.00020151,0.00014796,-0.00012289,-0.00011864,-0.0001
 3831,-0.00109947,-0.00141858,0.00121853,-0.00173489,-0.00032208,-0.001
 12809,0.00382140,0.00200740,0.00641049,-0.02531583,0.00220544,0.007605
 19,-0.15218374,-0.04399906,0.04369201,0.58713848,-0.02605194,-0.062725
 35,0.07418412,0.00888487,0.00477439,0.01676543,0.00241475,0.00508149,0
 .00020049,-0.00426077,-0.00000878,-0.00004309,0.00056615,0.00061702,0.
 00187558,0.00480920,0.00069326,-0.00331407,-0.00083317,-0.00051040,-0.
 00111139,-0.00015826,0.00027780,0.00085011,-0.00052688,-0.00026720,-0.
 00028738,-0.00177730,-0.00436722,0.00354319,-0.00107009,0.00276921,-0.
 00381996,0.00231129,0.00264571,0.00181011,0.01196036,0.00940690,-0.005
 46117,-0.05474174,-0.04703327,0.02927275,0.08753751,0.09691338,0.01355
 764,0.09350163,-0.25073671,-0.01782260,0.02105160,-0.04909530,-0.00770
 310,-0.00431490,0.00001138,0.00829667,0.00201828,0.00245474,-0.0016684
 9,-0.00093433,-0.00512663,-0.00945586,-0.00216518,0.00728911,0.0014820
 4,0.00083620,0.00267921,0.00076260,-0.00071922,-0.00215386,0.00086286,
 0.00054599,0.00079490,0.00229810,0.01004637,-0.00593402,0.00501631,-0.
 00395715,0.00532829,-0.00603825,-0.00610538,-0.00870176,0.01446599,0.0
 0121493,0.00011910,0.03519436,0.01911317,-0.05140555,0.15951903,-0.138
 24179,0.55905510,-0.29078352,-0.08194158,0.05326471,-0.01836853,-0.008
 10501,0.00571354,0.00000603,0.00067289,0.00079663,0.00000637,-0.000003
 60,-0.00005278,-0.00000846,0.00009458,0.00010460,0.00008889,-0.0000225
 2,-0.00010855,-0.00003876,-0.00002290,-0.00000062,0.00002936,0.0000198
 4,-0.00002912,-0.00001902,-0.00001839,-0.00000600,-0.00005518,-0.00009
 229,0.00011820,-0.00001574,0.00015215,0.00008097,-0.00014730,0.0000254
 5,-0.00016448,0.00026136,-0.00014995,-0.00017699,0.00194371,0.00018639
 ,-0.00046914,-0.00195430,-0.00142851,0.00024662,0.30918963,-0.08049936
 ,-0.06588367,0.02235804,0.00220092,0.00541070,0.00035223,0.00136584,-0
 .00253344,-0.00082535,-0.00042536,-0.00064895,-0.00066322,0.00029288,-
 0.00016289,0.00045890,0.00024729,0.00030588,-0.00027374,0.00002337,-0.
 00007882,-0.00016980,-0.00008890,0.00002670,0.00011643,-0.00003081,0.0
 0003807,-0.00002464,-0.00004090,-0.00046363,0.00030884,-0.00020526,-0.
 00013429,-0.00033454,0.00060352,0.00023800,0.00084784,-0.00099929,0.00
 063475,0.00002550,0.00079597,0.00073598,0.00045429,-0.01355347,-0.0024
 3429,0.00643610,0.09152874,0.05768987,0.04873259,0.02204269,-0.0650505
 9,-0.02028785,-0.00669511,0.00924823,-0.00021261,-0.00131694,0.0005440
 1,0.00036891,-0.00007048,-0.00039637,0.00014138,-0.00013080,0.00002581
 ,-0.00009418,0.00003734,0.00009076,0.00001293,-0.00001349,-0.00001570,
 -0.00001913,-0.00002735,0.00001484,0.00000322,0.00002401,0.00000477,0.
 00008102,0.00008330,-0.00000967,-0.00009951,-0.00002781,0.00020353,-0.
 00018341,-0.00035593,-0.00028209,-0.00025043,0.00012777,0.00057002,0.0
 0035397,0.00276341,-0.00313460,0.03024093,0.01310920,-0.01265872,-0.05
 639749,-0.03237955,0.07222873,-0.01576453,-0.00722983,0.00472682,-0.30
 175212,-0.08894510,0.05088614,0.00039890,0.00018030,-0.00270129,0.0013
 7540,0.00057652,-0.00013003,0.00002398,0.00018996,-0.00034554,-0.00055
 369,0.00015334,0.00040329,0.00009408,0.00005487,0.00014546,-0.00006187
 ,-0.00006308,-0.00002992,0.00003488,0.00004071,0.00000118,0.00008198,0
 .00069973,-0.00079920,-0.00003428,-0.00078381,0.00077211,0.00027161,0.
 00019442,0.00064769,-0.00028365,-0.00058935,-0.00029778,0.00070099,0.0
 0045404,0.00088897,-0.00006578,-0.00007105,0.00260209,-0.00088686,-0.0
 0163032,-0.00304161,0.31669677,0.00314788,0.00671713,-0.00021867,-0.09
 161815,-0.06265981,0.02187314,-0.00811787,-0.00354742,0.00522680,0.000
 97371,0.00063550,-0.00123679,-0.00027714,0.00025702,0.00039298,0.00005
 132,0.00025688,0.00000752,-0.00005753,-0.00030932,-0.00030359,-0.00008
 687,0.00003907,0.00019557,-0.00000349,-0.00018193,-0.00005637,0.000371
 29,-0.00007997,-0.00013920,-0.00025793,-0.00020665,0.00068572,0.000221
 70,-0.00041916,-0.00043975,0.00018146,0.00043925,-0.00013762,0.0000425
 7,-0.00123726,0.00061167,0.00021550,-0.00375180,-0.00021025,-0.0012065
 3,0.00763071,0.00343691,0.09657879,0.05707219,-0.01969395,-0.00671026,
 0.01088610,0.05654527,0.02269954,-0.05394332,0.01784464,0.01115939,-0.
 01579530,0.00132750,-0.00068309,0.00280355,-0.00068365,0.00068581,0.00
 009500,0.00012270,-0.00001478,0.00004030,-0.00001809,0.00000919,-0.000
 05638,-0.00000141,-0.00000298,0.00001921,0.00006841,-0.00012201,-0.000
 03834,-0.00017776,-0.00019815,0.00036012,0.00009137,0.00025651,-0.0005
 1030,0.00019387,-0.00018571,-0.00055882,0.00058332,0.00001859,-0.00055
 227,-0.00073543,-0.00009584,-0.00127918,0.00121136,-0.00092917,-0.0006
 6396,-0.00342629,0.00354887,-0.00180174,-0.05363246,-0.02921174,0.0607
 6950,0.00004866,-0.00000786,0.00004632,-0.00003876,-0.00002361,-0.0000
 6148,-0.00005178,-0.00001725,-0.00001974,0.00012064,-0.00017301,0.0000
 6436,0.00408913,-0.00269963,-0.00026488,0.00068525,-0.00047523,0.00148
 950,-0.00478921,-0.00373863,-0.00020351,-0.18694006,-0.16126499,0.0013
 3177,-0.00079363,-0.00565800,0.00318730,0.00030749,-0.00031814,0.00031
 878,-0.00018567,-0.00046056,-0.00012739,-0.00006089,0.00011389,-0.0001
 3026,0.00000333,-0.00000033,-0.00000379,-0.00001312,-0.00000147,-0.000
 00035,0.00000141,0.00001392,-0.00005182,-0.00000963,0.00001448,0.00000
 077,-0.00000244,-0.00001204,-0.00000017,0.18985043,-0.00005347,-0.0000
 0583,-0.00001609,0.00004093,0.00005191,0.00016940,0.00030222,0.0000408
 4,0.00004501,-0.00014287,0.00035813,-0.00016482,-0.00400044,0.00263672
 ,-0.00174061,0.00023906,0.00123606,-0.00039045,-0.00076528,-0.00200582
 ,-0.00103778,-0.15994196,-0.19401713,0.00042819,-0.00991210,-0.0047419
 5,0.00205146,-0.00087620,-0.00022694,-0.00012621,0.00013522,0.00066735
 ,0.00001565,0.00007578,-0.00011475,0.00010897,0.00001497,0.00001427,0.
 00000346,-0.00001344,-0.00000861,-0.00000037,0.00001490,0.00000835,0.0
 0002670,0.00001816,-0.00001992,-0.00000326,-0.00000791,0.00001247,-0.0
 0000540,0.17194805,0.19806257,0.00001638,-0.00001238,0.00002302,-0.000
 00613,-0.00000750,-0.00000967,-0.00006210,-0.00005395,-0.00007628,0.00
 004929,0.00027020,0.00030993,-0.00193943,-0.00368952,-0.00228952,0.000
 92232,-0.00012650,-0.00604289,0.01489376,0.01520774,0.00207971,0.00570
 055,0.00379717,-0.04808297,-0.01663243,-0.01784734,0.00412832,0.001950
 18,0.00196905,0.00026828,0.00013816,-0.00044764,0.00016664,-0.00006299
 ,0.00003723,0.00006770,-0.00001511,-0.00002243,-0.00002183,0.00000458,
 -0.00000431,-0.00001369,-0.00001845,0.00000803,-0.00004487,-0.00001172
 ,0.00000982,0.00000998,0.00000102,0.00000274,-0.00002069,-0.00478102,-
 0.00007255,0.04882718,0.00001407,0.00000267,-0.00002362,-0.00009518,-0
 .00012517,-0.00012895,0.00011883,0.00024647,-0.00000867,-0.00038866,0.
 00040615,0.00019320,-0.00602118,-0.00161480,0.01368767,-0.00198197,-0.
 00429425,-0.00036947,0.00375325,-0.00351190,-0.00170895,0.00695251,-0.
 00000921,-0.01163555,-0.07311104,-0.02299285,0.10527552,0.00017564,0.0
 0018688,0.00097291,-0.00002160,0.00014044,0.00018963,-0.00001331,-0.00
 011926,0.00000019,0.00000583,0.00003968,0.00001904,0.00001672,0.000017
 75,0.00001477,-0.00000236,-0.00002404,0.00002371,0.00000133,0.00000137
 ,-0.00000614,0.00000024,-0.00000856,0.00004924,-0.00221481,0.00291049,
 -0.00014714,0.07281812,-0.00007061,-0.00000541,-0.00014900,-0.00000223
 ,-0.00000054,0.00022506,0.00089999,0.00007314,0.00040397,-0.00057282,0
 .00046858,-0.00077961,-0.00542713,-0.00216254,0.01662085,-0.00293548,-
 0.00286189,-0.00094548,-0.00332493,0.00242064,-0.00411001,0.00469220,0
 .00606919,-0.01397487,-0.02354043,-0.04366225,0.03535868,-0.00114557,-
 0.00015562,0.00224010,-0.00002129,0.00043322,-0.00037049,-0.00006671,-
 0.00003875,-0.00000319,0.00009772,0.00000386,0.00001526,-0.00000073,-0
 .00000732,-0.00003180,0.00000584,-0.00001791,0.00009079,-0.00000008,-0
 .00001067,-0.00000123,-0.00002669,0.00001974,0.00000397,0.00274053,-0.
 00191678,0.00095926,0.02875139,0.04132407,-0.00000970,0.00004026,-0.00
 007869,-0.00000383,-0.00004452,-0.00007972,-0.00017192,-0.00006038,-0.
 00002103,0.00007683,-0.00029910,0.00024855,-0.00122832,-0.00076808,0.0
 0158322,-0.00089598,-0.00145574,0.00013785,-0.00026120,-0.00215492,-0.
 00054906,0.00943327,0.00493097,-0.01530430,0.10015512,0.03458597,-0.31
 260722,0.00011753,0.00019820,0.00033516,-0.00002869,-0.00005526,0.0000
 8306,0.00000338,-0.00002845,-0.00003285,-0.00000004,-0.00001287,0.0000
 1835,0.00004102,0.00002909,0.00000124,-0.00001901,-0.00005889,0.000092
 06,-0.00000056,-0.00000221,-0.00000055,0.00001260,-0.00000837,0.000011
 58,-0.00080572,0.00072434,0.00072395,-0.10639831,-0.03557207,0.3254298
 3,-0.00026172,0.00013147,-0.00151384,0.00038655,-0.00018511,0.00059544
 ,0.00029546,0.00027134,-0.00007388,-0.00027562,-0.00012455,-0.00019478
 ,-0.00006059,-0.00001996,0.00036236,0.00073195,0.00063318,-0.00041840,
 -0.00000908,-0.00019898,0.00006952,-0.00023014,-0.00000664,0.00005750,
 0.00001313,-0.00000561,-0.00002990,0.00034449,-0.00136673,0.00157138,0
 .00149992,-0.01367229,-0.01284326,-0.09974459,0.10326391,0.04383397,-0
 .00830645,0.02283114,0.01008277,-0.00128946,0.00550860,-0.00383201,-0.
 00017745,-0.00178474,0.00095214,-0.00004085,0.00004819,0.00011545,-0.0
 0013544,0.00001366,-0.00006365,0.00000087,-0.00000124,0.00000707,-0.00
 000652,-0.00006112,-0.00000827,0.10790009,-0.00018472,-0.00005625,-0.0
 0027795,0.00003589,-0.00001653,0.00005456,0.00016927,0.00007520,0.0000
 9803,-0.00012307,-0.00006402,-0.00029165,0.00011198,-0.00016220,0.0002
 7892,0.00051219,0.00014513,-0.00042326,-0.00045168,-0.00020717,-0.0000
 0914,0.00020939,0.00002032,-0.00008945,-0.00002642,0.00010287,0.000082
 39,-0.00050456,0.00116477,0.00203958,0.00239916,-0.00850918,-0.0080032
 8,0.10744596,-0.23387857,-0.09119880,0.00348414,-0.00318508,-0.0058062
 7,0.00061178,0.00578323,-0.00295102,0.00142814,-0.00138390,0.00081852,
 -0.00001727,0.00004058,0.00011411,-0.00002241,-0.00003231,-0.00009041,
 0.00002184,-0.00002052,-0.00000822,-0.00000301,0.00001534,0.00000547,-
 0.11390251,0.24107085,-0.00013080,0.00044505,-0.00049433,0.00025472,0.
 00005004,0.00014052,-0.00000956,-0.00005082,-0.00009478,-0.00008854,0.
 00025130,0.00012523,-0.00000270,-0.00035590,-0.00007655,0.00040937,0.0
 0042673,-0.00078495,0.00000714,0.00017361,-0.00030827,0.00020955,0.000
 06212,-0.00019478,-0.00002208,0.00010241,0.00026952,0.00115746,-0.0015
 2467,0.00188917,-0.00125811,-0.01409046,-0.00880456,0.05164857,-0.0944
 9222,-0.08052374,-0.00914127,0.00768655,0.00708717,-0.00121117,-0.0058
 9242,0.00411456,-0.00234000,0.00148776,0.00036706,0.00003433,-0.000102
 92,-0.00008411,-0.00014834,-0.00001770,0.00012103,-0.00000382,-0.00000
 993,0.00002560,-0.00000007,0.00001585,0.00000522,-0.04100946,0.1032030
 9,0.07960312,-0.00042383,-0.00046583,0.00007159,0.00007315,-0.00010682
 ,0.00016562,0.00014203,0.00015791,-0.00015038,-0.00019472,0.00001428,-
 0.00002452,0.00000869,-0.00002897,0.00016842,0.00043101,-0.00002925,-0
 .00019612,0.00010906,-0.00000249,-0.00012194,0.00004533,0.00003543,0.0
 0009724,-0.00004299,-0.00001889,-0.00000828,-0.00093811,-0.00073594,0.
 00008370,-0.00047812,0.00381009,-0.00221347,-0.01132853,-0.01408078,-0
 .02175430,-0.10887886,-0.06998687,-0.09610904,0.00453130,0.01292057,0.
 00865575,0.00200710,-0.00135234,-0.00128440,-0.00000310,-0.00001278,0.
 00003354,-0.00000805,0.00007651,-0.00004574,-0.00001129,0.00001157,-0.
 00000787,0.00000781,0.00001086,0.00000486,-0.00047264,-0.00130515,0.00
 180291,0.11579035,0.00068437,-0.00091320,0.00166527,-0.00072881,0.0000
 8192,-0.00044624,-0.00030130,-0.00029003,-0.00007557,0.00036424,0.0002
 2189,0.00025865,-0.00003500,-0.00020544,-0.00052477,-0.00064393,-0.000
 27243,0.00047107,0.00019491,0.00017214,0.00026673,-0.00001802,-0.00011
 660,-0.00006979,0.00002288,0.00004246,0.00004359,-0.00015175,0.0010605
 7,-0.00076139,0.00480849,0.00254182,0.00022833,0.00678168,0.00604339,0
 .00515439,-0.07668776,-0.12618539,-0.11657795,-0.00585004,-0.01903335,
 -0.01395234,0.00171539,0.00326852,-0.00004991,0.00003749,0.00007565,-0
 .00012109,0.00020802,-0.00002320,0.00002183,-0.00001023,0.00000083,0.0
 0002043,-0.00000766,0.00000101,0.00000190,-0.00158898,-0.00077438,0.00
 249339,0.07077062,0.13377548,0.00013823,0.00039919,-0.00089412,0.00018
 663,0.00006863,0.00016245,0.00010579,0.00005391,0.00009992,-0.00008800
 ,-0.00005818,-0.00015846,-0.00000123,0.00005351,0.00023469,0.00020018,
 0.00016706,-0.00001285,-0.00017810,-0.00012201,-0.00006393,0.00014174,
 0.00008204,-0.00016471,0.00003363,0.00004576,0.00006337,0.00034480,-0.
 00061120,0.00078627,-0.00426881,-0.00293096,0.00243537,-0.00306584,-0.
 00704542,-0.00265004,-0.10476596,-0.11214804,-0.17438912,-0.00128141,-
 0.00311037,0.00099112,-0.00041048,0.00079661,0.00048614,0.00001513,-0.
 00002168,0.00000632,-0.00011108,-0.00006514,0.00007564,0.00001803,-0.0
 0000574,-0.00003273,0.00000242,0.00000811,0.00000041,0.00207606,0.0026
 4351,-0.00261620,0.11083591,0.12241912,0.17588110,0.00521413,0.0012066
 9,0.00463071,0.00212890,-0.00129316,0.00234332,0.00079061,0.00023037,0
 .00006034,-0.00090705,-0.00003859,-0.00008506,0.00026350,-0.00010234,0
 .00043500,0.00108706,0.00012570,-0.00072422,-0.00016279,-0.00004747,-0
 .00025423,-0.00006140,0.00003417,0.00020056,-0.00008754,-0.00001632,-0
 .00007155,-0.00039673,-0.00110648,0.00099235,-0.00054832,0.00079716,-0
 .00090182,0.00054734,0.00070069,0.00135955,-0.00198104,0.00016885,-0.0
 0154172,-0.01710638,-0.00486101,-0.00288879,-0.31240231,-0.02441723,-0
 .20125564,0.00080458,0.00036388,0.00050767,-0.00013014,-0.00022826,0.0
 0044091,0.00000406,0.00000356,0.00000107,-0.00000773,-0.00000271,-0.00
 001305,-0.00016189,0.00011109,-0.00015812,-0.00036558,0.00043541,0.000
 07237,0.32347875,0.01513746,-0.00620686,0.00781235,-0.00175682,0.00069
 829,0.00218566,0.00007293,0.00120593,0.00064379,0.00042716,-0.00037669
 ,0.00023592,-0.00029279,0.00049279,0.00019775,-0.00009936,-0.00001462,
 0.00004490,-0.00005444,-0.00011401,-0.00007723,0.00005164,0.00006208,-
 0.00004116,-0.00001062,-0.00004377,-0.00000343,-0.00032539,0.00053779,
 -0.00017447,0.00091777,-0.00075733,0.00013288,-0.00002114,-0.00120142,
 -0.00057036,0.00414252,0.00064398,0.00236384,-0.01221142,-0.00474114,-
 0.00552056,-0.03477626,-0.00395591,0.00099783,0.00027295,-0.00045634,-
 0.00059570,0.00003886,-0.00063110,-0.00015416,0.00000827,-0.00001125,0
 .00001068,0.00000744,0.00001089,0.00000465,0.00021697,-0.00012819,0.00
 013914,0.00031828,0.00052835,-0.00061872,0.02793600,0.01445854,-0.0261
 1012,-0.00604708,-0.01596350,0.00285715,0.00271224,-0.00398246,-0.0009
 6198,0.00034194,0.00019550,0.00002045,0.00016234,0.00011667,-0.0000480
 6,-0.00007632,-0.00044070,-0.00049134,-0.00015244,0.00042429,0.0001010
 8,0.00007662,0.00017230,0.00001495,-0.00004552,-0.00011055,0.00002379,
 0.00005784,0.00004904,0.00024994,0.00060721,-0.00057574,0.00018222,-0.
 00041274,0.00039332,-0.00018623,-0.00120740,-0.00110736,0.00270726,0.0
 0138020,0.00154239,0.01660111,0.00141871,0.00576805,-0.19268546,0.0093
 6351,-0.19215573,0.00046902,-0.00011920,0.00048716,0.00014988,-0.00038
 784,0.00003824,-0.00000287,0.00000004,0.00000485,-0.00000142,-0.000004
 17,0.00000294,0.00026378,-0.00018873,0.00023406,-0.00000349,-0.0004656
 3,-0.00024063,0.19685034,-0.00701359,0.20514787\\0.00000183,0.00000248
 ,0.00000233,-0.00000329,0.00000503,-0.00000242,0.00000649,-0.00000349,
 0.00000580,-0.00000798,0.00000067,-0.00000624,0.00000609,-0.00000254,-
 0.00000190,-0.00000415,-0.00000047,0.00000179,0.00000047,0.,-0.0000016
 4,0.00000193,0.00000049,0.00000319,-0.00000245,-0.00000410,0.00000053,
 0.00000163,0.00000062,-0.00000291,0.00000050,0.00000198,-0.00000105,-0
 .00000096,-0.00000306,0.00000027,0.00000070,0.00000493,0.00000317,0.00
 000633,-0.00000050,-0.00000263,-0.00000665,-0.00000761,0.00000451,-0.0
 0000053,-0.00000019,0.00000153,0.00000110,0.00000003,0.00000144,0.0000
 0025,0.00000017,-0.00000319,0.00000182,-0.00000016,-0.00000034,-0.0000
 0043,0.00000152,-0.00000105,-0.00000201,0.00000265,-0.00000015,-0.0000
 0071,0.00000155,-0.00000105\\\@


 Children are likely to live up to what you believe of them.
 -- Lady Bird Johnson
 Job cpu time:       0 days  6 hours  3 minutes 30.1 seconds.
 Elapsed time:       0 days  1 hours 30 minutes 53.2 seconds.
 File lengths (MBytes):  RWF=    511 Int=      0 D2E=      0 Chk=     19 Scr=      1
 Normal termination of Gaussian 16 at Wed May 17 19:02:45 2023.
### All Done ###
