### Starting Gaussian ###
 Entering Gaussian System, Link 0=g16
 Initial command:
 /cluster/software/gaussian/gaussian-16-A.03/avx2/g16/l1.exe "/local/scratch/yxie/Gau-21050.inp" -scrdir="/local/scratch/yxie/"
 Entering Link 1 = /cluster/software/gaussian/gaussian-16-A.03/avx2/g16/l1.exe PID=     21051.
  
 Copyright (c) 1988,1990,1992,1993,1995,1998,2003,2009,2016,
            Gaussian, Inc.  All Rights Reserved.
  
 This is part of the Gaussian(R) 16 program.  It is based on
 the Gaussian(R) 09 system (copyright 2009, Gaussian, Inc.),
 the Gaussian(R) 03 system (copyright 2003, Gaussian, Inc.),
 the Gaussian(R) 98 system (copyright 1998, Gaussian, Inc.),
 the Gaussian(R) 94 system (copyright 1995, Gaussian, Inc.),
 the Gaussian 92(TM) system (copyright 1992, Gaussian, Inc.),
 the Gaussian 90(TM) system (copyright 1990, Gaussian, Inc.),
 the Gaussian 88(TM) system (copyright 1988, Gaussian, Inc.),
 the Gaussian 86(TM) system (copyright 1986, Carnegie Mellon
 University), and the Gaussian 82(TM) system (copyright 1983,
 Carnegie Mellon University). Gaussian is a federally registered
 trademark of Gaussian, Inc.
  
 This software contains proprietary and confidential information,
 including trade secrets, belonging to Gaussian, Inc.
  
 This software is provided under written license and may be
 used, copied, transmitted, or stored only in accord with that
 written license.
  
 The following legend is applicable only to US Government
 contracts under FAR:
  
                    RESTRICTED RIGHTS LEGEND
  
 Use, reproduction and disclosure by the US Government is
 subject to restrictions as set forth in subparagraphs (a)
 and (c) of the Commercial Computer Software - Restricted
 Rights clause in FAR 52.227-19.
  
 Gaussian, Inc.
 340 Quinnipiac St., Bldg. 40, Wallingford CT 06492
  
  
 ---------------------------------------------------------------
 Warning -- This program may not be used in any manner that
 competes with the business of Gaussian, Inc. or will provide
 assistance to any competitor of Gaussian, Inc.  The licensee
 of this program is prohibited from giving any competitor of
 Gaussian, Inc. access to this program.  By using this program,
 the user acknowledges that Gaussian, Inc. is engaged in the
 business of creating and licensing software in the field of
 computational chemistry and represents and warrants to the
 licensee that it is not a competitor of Gaussian, Inc. and that
 it will not use this program in any manner prohibited above.
 ---------------------------------------------------------------
  

 Cite this work as:
 Gaussian 16, Revision A.03,
 M. J. Frisch, G. W. Trucks, H. B. Schlegel, G. E. Scuseria, 
 M. A. Robb, J. R. Cheeseman, G. Scalmani, V. Barone, 
 G. A. Petersson, H. Nakatsuji, X. Li, M. Caricato, A. V. Marenich, 
 J. Bloino, B. G. Janesko, R. Gomperts, B. Mennucci, H. P. Hratchian, 
 J. V. Ortiz, A. F. Izmaylov, J. L. Sonnenberg, D. Williams-Young, 
 F. Ding, F. Lipparini, F. Egidi, J. Goings, B. Peng, A. Petrone, 
 T. Henderson, D. Ranasinghe, V. G. Zakrzewski, J. Gao, N. Rega, 
 G. Zheng, W. Liang, M. Hada, M. Ehara, K. Toyota, R. Fukuda, 
 J. Hasegawa, M. Ishida, T. Nakajima, Y. Honda, O. Kitao, H. Nakai, 
 T. Vreven, K. Throssell, J. A. Montgomery, Jr., J. E. Peralta, 
 F. Ogliaro, M. J. Bearpark, J. J. Heyd, E. N. Brothers, K. N. Kudin, 
 V. N. Staroverov, T. A. Keith, R. Kobayashi, J. Normand, 
 K. Raghavachari, A. P. Rendell, J. C. Burant, S. S. Iyengar, 
 J. Tomasi, M. Cossi, J. M. Millam, M. Klene, C. Adamo, R. Cammi, 
 J. W. Ochterski, R. L. Martin, K. Morokuma, O. Farkas, 
 J. B. Foresman, and D. J. Fox, Gaussian, Inc., Wallingford CT, 2016.
 
 ******************************************
 Gaussian 16:  ES64L-G16RevA.03 25-Dec-2016
                19-May-2023 
 ******************************************
 %chk=C1dCCdC2CdCqCSS2rSCCdC1.chk
 %NProcShared=20
 Will use up to   20 processors via shared memory.
 -----------------------------
 # opt freq b3lyp/6-31g(2df,p)
 -----------------------------
 1/18=20,19=15,26=3,38=1/1,3;
 2/9=110,12=2,17=6,18=5,40=1/2;
 3/5=1,6=6,7=104,11=2,25=1,30=1,71=1,74=-5/1,2,3;
 4//1;
 5/5=2,38=5/2;
 6/7=2,8=2,9=2,10=2,28=1/1;
 7//1,2,3,16;
 1/18=20,19=15,26=3/3(2);
 2/9=110/2;
 99//99;
 2/9=110/2;
 3/5=1,6=6,7=104,11=2,25=1,30=1,71=1,74=-5/1,2,3;
 4/5=5,16=3,69=1/1;
 5/5=2,38=5/2;
 7//1,2,3,16;
 1/18=20,19=15,26=3/3(-5);
 2/9=110/2;
 6/7=2,8=2,9=2,10=2,19=2,28=1/1;
 99/9=1/99;
 -------------------
 Title Card Required
 -------------------
 Symbolic Z-matrix:
 Charge =  0 Multiplicity = 1
 C                     1.81916  -1.05146  -0.1689 
 C                     2.63001  -0.02433   0.09408 
 C                     3.00858   1.29991   0.29446 
 C                     4.3581    1.51234   0.30536 
 C                     5.24227   0.40581   0.06371 
 C                     6.53847   0.18816   0.08307 
 C                     7.52969   1.23731   0.32021 
 S                     6.97416   2.95868   0.46399 
 S                     4.94553   3.07673   0.65245 
 S                     7.01047  -1.45134  -0.1949 
 C                     5.57578  -2.54797  -0.37944 
 C                     3.97487  -2.74118  -0.44246 
 C                     2.62963  -2.34657  -0.38309 
 H                     0.76283  -0.84514  -0.28057 
 H                     3.42141  -0.61263   0.45537 
 H                     2.30495   2.11295   0.42937 
 H                     4.83032  -0.52317  -0.22732 
 H                     8.19635   1.24314  -0.54613 
 H                     8.07407   0.98344   1.22858 
 H                     5.86859  -2.89146  -1.3768 
 H                     5.86099  -3.22822   0.43056 
 H                     4.00829  -3.82372  -0.67239 
 H                     1.87674  -3.13179  -0.53085 
 

 GradGradGradGradGradGradGradGradGradGradGradGradGradGradGradGradGradGrad
 Berny optimization.
 Initialization pass.
                           ----------------------------
                           !    Initial Parameters    !
                           ! (Angstroms and Degrees)  !
 --------------------------                            --------------------------
 ! Name  Definition              Value          Derivative Info.                !
 --------------------------------------------------------------------------------
 ! R1    R(1,2)                  1.3348         estimate D2E/DX2                !
 ! R2    R(1,13)                 1.5427         estimate D2E/DX2                !
 ! R3    R(1,14)                 1.0821         estimate D2E/DX2                !
 ! R4    R(2,3)                  1.3918         estimate D2E/DX2                !
 ! R5    R(2,15)                 1.0502         estimate D2E/DX2                !
 ! R6    R(3,4)                  1.3662         estimate D2E/DX2                !
 ! R7    R(3,16)                 1.0837         estimate D2E/DX2                !
 ! R8    R(4,5)                  1.4369         estimate D2E/DX2                !
 ! R9    R(4,9)                  1.7067         estimate D2E/DX2                !
 ! R10   R(5,6)                  1.3145         estimate D2E/DX2                !
 ! R11   R(5,17)                 1.0571         estimate D2E/DX2                !
 ! R12   R(6,7)                  1.4627         estimate D2E/DX2                !
 ! R13   R(6,10)                 1.7286         estimate D2E/DX2                !
 ! R14   R(7,8)                  1.8145         estimate D2E/DX2                !
 ! R15   R(7,18)                 1.0932         estimate D2E/DX2                !
 ! R16   R(7,19)                 1.089          estimate D2E/DX2                !
 ! R17   R(8,9)                  2.0408         estimate D2E/DX2                !
 ! R18   R(10,11)                1.8152         estimate D2E/DX2                !
 ! R19   R(11,12)                1.6138         estimate D2E/DX2                !
 ! R20   R(11,20)                1.0947         estimate D2E/DX2                !
 ! R21   R(11,21)                1.0955         estimate D2E/DX2                !
 ! R22   R(12,13)                1.4032         estimate D2E/DX2                !
 ! R23   R(12,22)                1.1072         estimate D2E/DX2                !
 ! R24   R(13,23)                1.0978         estimate D2E/DX2                !
 ! A1    A(2,1,13)             110.7453         estimate D2E/DX2                !
 ! A2    A(2,1,14)             117.8163         estimate D2E/DX2                !
 ! A3    A(13,1,14)            131.1922         estimate D2E/DX2                !
 ! A4    A(1,2,3)              157.7843         estimate D2E/DX2                !
 ! A5    A(1,2,15)              95.4221         estimate D2E/DX2                !
 ! A6    A(3,2,15)             106.1699         estimate D2E/DX2                !
 ! A7    A(2,3,4)              114.6944         estimate D2E/DX2                !
 ! A8    A(2,3,16)             123.7221         estimate D2E/DX2                !
 ! A9    A(4,3,16)             121.583          estimate D2E/DX2                !
 ! A10   A(3,4,5)              119.1278         estimate D2E/DX2                !
 ! A11   A(3,4,9)              118.9561         estimate D2E/DX2                !
 ! A12   A(5,4,9)              121.8901         estimate D2E/DX2                !
 ! A13   A(4,5,6)              137.0395         estimate D2E/DX2                !
 ! A14   A(4,5,17)             118.8999         estimate D2E/DX2                !
 ! A15   A(6,5,17)             104.0535         estimate D2E/DX2                !
 ! A16   A(5,6,7)              123.4949         estimate D2E/DX2                !
 ! A17   A(5,6,10)             115.0831         estimate D2E/DX2                !
 ! A18   A(7,6,10)             121.422          estimate D2E/DX2                !
 ! A19   A(6,7,8)              119.0669         estimate D2E/DX2                !
 ! A20   A(6,7,18)             106.7748         estimate D2E/DX2                !
 ! A21   A(6,7,19)             107.8653         estimate D2E/DX2                !
 ! A22   A(8,7,18)             104.1493         estimate D2E/DX2                !
 ! A23   A(8,7,19)             107.9451         estimate D2E/DX2                !
 ! A24   A(18,7,19)            110.9431         estimate D2E/DX2                !
 ! A25   A(7,8,9)              111.502          estimate D2E/DX2                !
 ! A26   A(4,9,8)              105.6843         estimate D2E/DX2                !
 ! A27   A(6,10,11)            111.9336         estimate D2E/DX2                !
 ! A28   A(10,11,12)           149.3593         estimate D2E/DX2                !
 ! A29   A(10,11,20)            94.0585         estimate D2E/DX2                !
 ! A30   A(10,11,21)            95.405          estimate D2E/DX2                !
 ! A31   A(12,11,20)           101.081          estimate D2E/DX2                !
 ! A32   A(12,11,21)           102.2864         estimate D2E/DX2                !
 ! A33   A(20,11,21)           114.1509         estimate D2E/DX2                !
 ! A34   A(11,12,13)           156.3129         estimate D2E/DX2                !
 ! A35   A(11,12,22)            95.4644         estimate D2E/DX2                !
 ! A36   A(13,12,22)           108.2213         estimate D2E/DX2                !
 ! A37   A(1,13,12)            138.2116         estimate D2E/DX2                !
 ! A38   A(1,13,23)            105.0015         estimate D2E/DX2                !
 ! A39   A(12,13,23)           116.7846         estimate D2E/DX2                !
 ! D1    D(13,1,2,3)           169.7311         estimate D2E/DX2                !
 ! D2    D(13,1,2,15)          -23.7943         estimate D2E/DX2                !
 ! D3    D(14,1,2,3)            -5.2055         estimate D2E/DX2                !
 ! D4    D(14,1,2,15)          161.2691         estimate D2E/DX2                !
 ! D5    D(2,1,13,12)           -3.8642         estimate D2E/DX2                !
 ! D6    D(2,1,13,23)          176.7337         estimate D2E/DX2                !
 ! D7    D(14,1,13,12)         170.1816         estimate D2E/DX2                !
 ! D8    D(14,1,13,23)          -9.2205         estimate D2E/DX2                !
 ! D9    D(1,2,3,4)           -166.8655         estimate D2E/DX2                !
 ! D10   D(1,2,3,16)            12.9118         estimate D2E/DX2                !
 ! D11   D(15,2,3,4)            27.164          estimate D2E/DX2                !
 ! D12   D(15,2,3,16)         -153.0588         estimate D2E/DX2                !
 ! D13   D(2,3,4,5)              2.4551         estimate D2E/DX2                !
 ! D14   D(2,3,4,9)           -175.725          estimate D2E/DX2                !
 ! D15   D(16,3,4,5)          -177.3274         estimate D2E/DX2                !
 ! D16   D(16,3,4,9)             4.4925         estimate D2E/DX2                !
 ! D17   D(3,4,5,6)           -174.1515         estimate D2E/DX2                !
 ! D18   D(3,4,5,17)             7.0049         estimate D2E/DX2                !
 ! D19   D(9,4,5,6)              3.973          estimate D2E/DX2                !
 ! D20   D(9,4,5,17)          -174.8706         estimate D2E/DX2                !
 ! D21   D(3,4,9,8)           -177.071          estimate D2E/DX2                !
 ! D22   D(5,4,9,8)              4.8014         estimate D2E/DX2                !
 ! D23   D(4,5,6,7)             -4.5831         estimate D2E/DX2                !
 ! D24   D(4,5,6,10)           175.4041         estimate D2E/DX2                !
 ! D25   D(17,5,6,7)           174.3733         estimate D2E/DX2                !
 ! D26   D(17,5,6,10)           -5.6395         estimate D2E/DX2                !
 ! D27   D(5,6,7,8)             -5.1798         estimate D2E/DX2                !
 ! D28   D(5,6,7,18)          -122.5445         estimate D2E/DX2                !
 ! D29   D(5,6,7,19)           118.1543         estimate D2E/DX2                !
 ! D30   D(10,6,7,8)           174.8337         estimate D2E/DX2                !
 ! D31   D(10,6,7,18)           57.469          estimate D2E/DX2                !
 ! D32   D(10,6,7,19)          -61.8322         estimate D2E/DX2                !
 ! D33   D(5,6,10,11)           -2.7171         estimate D2E/DX2                !
 ! D34   D(7,6,10,11)          177.2704         estimate D2E/DX2                !
 ! D35   D(6,7,8,9)             12.0708         estimate D2E/DX2                !
 ! D36   D(18,7,8,9)           130.7989         estimate D2E/DX2                !
 ! D37   D(19,7,8,9)          -111.224          estimate D2E/DX2                !
 ! D38   D(7,8,9,4)            -10.9708         estimate D2E/DX2                !
 ! D39   D(6,10,11,12)           2.1694         estimate D2E/DX2                !
 ! D40   D(6,10,11,20)         122.0267         estimate D2E/DX2                !
 ! D41   D(6,10,11,21)        -123.2198         estimate D2E/DX2                !
 ! D42   D(10,11,12,13)         -3.534          estimate D2E/DX2                !
 ! D43   D(10,11,12,22)        175.8489         estimate D2E/DX2                !
 ! D44   D(20,11,12,13)       -121.7067         estimate D2E/DX2                !
 ! D45   D(20,11,12,22)         57.6761         estimate D2E/DX2                !
 ! D46   D(21,11,12,13)        120.3018         estimate D2E/DX2                !
 ! D47   D(21,11,12,22)        -60.3153         estimate D2E/DX2                !
 ! D48   D(11,12,13,1)           1.9026         estimate D2E/DX2                !
 ! D49   D(11,12,13,23)       -178.7443         estimate D2E/DX2                !
 ! D50   D(22,12,13,1)        -177.4506         estimate D2E/DX2                !
 ! D51   D(22,12,13,23)          1.9024         estimate D2E/DX2                !
 --------------------------------------------------------------------------------
 Trust Radius=3.00D-01 FncErr=1.00D-07 GrdErr=1.00D-06 EigMax=2.50D+02 EigMin=1.00D-04
 Number of steps in this run=    124 maximum allowed number of steps=    138.
 GradGradGradGradGradGradGradGradGradGradGradGradGradGradGradGradGradGrad

                          Input orientation:                          
 ---------------------------------------------------------------------
 Center     Atomic      Atomic             Coordinates (Angstroms)
 Number     Number       Type             X           Y           Z
 ---------------------------------------------------------------------
      1          6           0        1.819160   -1.051460   -0.168900
      2          6           0        2.630010   -0.024330    0.094080
      3          6           0        3.008580    1.299910    0.294460
      4          6           0        4.358100    1.512340    0.305360
      5          6           0        5.242270    0.405810    0.063710
      6          6           0        6.538470    0.188160    0.083070
      7          6           0        7.529690    1.237310    0.320210
      8         16           0        6.974160    2.958680    0.463990
      9         16           0        4.945530    3.076730    0.652450
     10         16           0        7.010470   -1.451340   -0.194900
     11          6           0        5.575780   -2.547970   -0.379440
     12          6           0        3.974870   -2.741180   -0.442460
     13          6           0        2.629630   -2.346570   -0.383090
     14          1           0        0.762830   -0.845140   -0.280570
     15          1           0        3.421410   -0.612630    0.455370
     16          1           0        2.304950    2.112950    0.429370
     17          1           0        4.830320   -0.523170   -0.227320
     18          1           0        8.196350    1.243140   -0.546130
     19          1           0        8.074070    0.983440    1.228580
     20          1           0        5.868590   -2.891460   -1.376800
     21          1           0        5.860990   -3.228220    0.430560
     22          1           0        4.008290   -3.823720   -0.672390
     23          1           0        1.876740   -3.131790   -0.530850
 ---------------------------------------------------------------------
                    Distance matrix (angstroms):
                    1          2          3          4          5
     1  C    0.000000
     2  C    1.334778   0.000000
     3  C    2.675512   1.391790   0.000000
     4  C    3.639259   2.322130   1.366181   0.000000
     5  C    3.727657   2.647611   2.417029   1.436858   0.000000
     6  C    4.885902   3.914247   3.706858   2.560640   1.314489
     7  C    6.171535   5.064557   4.521617   3.183527   2.447340
     8  S    6.561692   5.282691   4.301870   2.993465   3.110758
     9  S    5.243163   3.910241   2.652738   1.706711   2.751088
    10  S    5.206753   4.616091   4.880981   4.008582   2.577289
    11  C    4.049205   3.907754   4.674488   4.293927   3.005400
    12  C    2.752649   3.078603   4.219855   4.335727   3.430169
    13  C    1.542741   2.370757   3.728202   4.284012   3.821140
    14  H    1.082068   2.073753   3.158369   4.339008   4.663560
    15  H    1.774680   1.050210   1.963194   2.327099   2.122769
    16  H    3.256902   2.187704   1.083665   2.142787   3.416999
    17  H    3.057710   2.278926   2.629565   2.156395   1.057074
    18  H    6.787934   5.744605   5.255737   3.940770   3.130434
    19  H    6.724408   5.651591   5.160613   3.865295   3.116034
    20  H    4.608959   4.568624   5.342317   4.950222   3.652305
    21  H    4.629690   4.562605   5.353385   4.974662   3.704533
    22  H    3.568083   4.113696   5.309030   5.436166   4.466931
    23  H    2.112367   3.257953   4.647813   5.331448   4.918832
                    6          7          8          9         10
     6  C    0.000000
     7  C    1.462692   0.000000
     8  S    2.830319   1.814497   0.000000
     9  S    3.347460   3.189315   2.040782   0.000000
    10  S    1.728587   2.786354   4.459118   5.048306   0.000000
    11  C    2.937192   4.316899   5.743695   5.753196   1.815210
    12  C    3.928010   5.389508   6.504291   5.999090   3.307543
    13  C    4.682007   6.111417   6.909281   5.987313   4.475334
    14  H    5.878602   7.105486   7.321478   5.809180   6.277565
    15  H    3.239743   4.507606   5.037496   3.996644   3.742678
    16  H    4.663414   5.298733   4.745311   2.819805   5.935975
    17  H    1.876195   3.268895   4.146955   3.707634   2.369727
    18  H    2.063357   1.093167   2.336058   3.920010   2.964776
    19  H    2.074302   1.089007   2.386624   3.808090   3.014248
    20  H    3.473330   4.762965   6.231768   6.370964   2.185114
    21  H    3.500197   4.768406   6.286334   6.374927   2.206764
    22  H    4.802886   6.244961   7.489239   7.088711   3.856069
    23  H    5.755927   7.195080   8.004200   7.025909   5.412205
                   11         12         13         14         15
    11  C    0.000000
    12  C    1.613758   0.000000
    13  C    2.953028   1.403179   0.000000
    14  H    5.106260   3.733414   2.397863   0.000000
    15  H    3.013927   2.375530   2.082421   2.768342   0.000000
    16  H    5.751233   5.206851   4.544538   3.410637   2.945496
    17  H    2.163022   2.386975   2.862182   4.080561   1.568151
    18  H    4.611690   5.805725   6.625781   7.725843   5.219860
    19  H    4.614980   5.785206   6.582429   7.686057   4.979211
    20  H    1.094737   2.117015   3.431505   5.608737   3.812952
    21  H    1.095529   2.134671   3.446886   5.672390   3.576797
    22  H    2.042151   1.107194   2.041169   4.422496   3.453602
    23  H    3.747888   2.136010   1.097837   2.555818   3.115253
                   16         17         18         19         20
    16  H    0.000000
    17  H    3.709159   0.000000
    18  H    6.034630   3.814662   0.000000
    19  H    5.932729   3.861532   1.797774   0.000000
    20  H    6.403585   2.829860   4.816990   5.164010   0.000000
    21  H    6.416659   2.968566   5.138180   4.824172   1.838482
    22  H    6.273699   3.430372   6.574866   6.576704   2.196820
    23  H    5.349083   3.952299   7.686203   7.644450   4.087573
                   21         22         23
    21  H    0.000000
    22  H    2.236876   0.000000
    23  H    4.099739   2.245508   0.000000
 Stoichiometry    C10H10S3
 Framework group  C1[X(C10H10S3)]
 Deg. of freedom    63
 Full point group                 C1      NOp   1
 Largest Abelian subgroup         C1      NOp   1
 Largest concise Abelian subgroup C1      NOp   1
                         Standard orientation:                         
 ---------------------------------------------------------------------
 Center     Atomic      Atomic             Coordinates (Angstroms)
 Number     Number       Type             X           Y           Z
 ---------------------------------------------------------------------
      1          6           0        2.863043   -2.207918   -0.044175
      2          6           0        1.543733   -2.024013    0.040872
      3          6           0        0.192153   -2.354861    0.011698
      4          6           0       -0.657045   -1.284881   -0.009619
      5          6           0       -0.108673    0.042465   -0.054352
      6          6           0       -0.564136    1.274023    0.006480
      7          6           0       -1.987441    1.606422    0.062884
      8         16           0       -3.210466    0.275197   -0.093478
      9         16           0       -2.339212   -1.563433    0.065108
     10         16           0        0.649761    2.504619    0.016290
     11          6           0        2.324666    1.804849    0.018394
     12          6           0        3.289069    0.511414   -0.015776
     13          6           0        3.605356   -0.855583   -0.029659
     14          1           0        3.223600   -3.217207   -0.193192
     15          1           0        1.604320   -1.081727    0.500619
     16          1           0       -0.177842   -3.373363    0.002376
     17          1           0        0.933943    0.160415   -0.182588
     18          1           0       -2.192917    2.259528   -0.789317
     19          1           0       -2.172738    2.123548    1.003193
     20          1           0        2.622402    2.313726   -0.904020
     21          1           0        2.647258    2.312045    0.934293
     22          1           0        4.234661    1.085976   -0.055922
     23          1           0        4.671643   -1.116562   -0.042630
 ---------------------------------------------------------------------
 Rotational constants (GHZ):           0.8063819           0.4458122           0.2884829
 Standard basis: 6-31G(2df,p) (6D, 7F)
 There are   465 symmetry adapted cartesian basis functions of A   symmetry.
 There are   426 symmetry adapted basis functions of A   symmetry.
   426 basis functions,   714 primitive gaussians,   465 cartesian basis functions
    59 alpha electrons       59 beta electrons
       nuclear repulsion energy      1065.2589397034 Hartrees.
 NAtoms=   23 NActive=   23 NUniq=   23 SFac= 1.00D+00 NAtFMM=   60 NAOKFM=F Big=F
 Integral buffers will be    131072 words long.
 Raffenetti 2 integral format.
 Two-electron integral symmetry is turned on.
 One-electron integrals computed using PRISM.
 PrsmSu:  requested number of processors reduced to:  13 ShMem   1 Linda.
 NBasis=   426 RedAO= T EigKep=  1.79D-04  NBF=   426
 NBsUse=   426 1.00D-06 EigRej= -1.00D+00 NBFU=   426
 ExpMin= 1.17D-01 ExpMax= 2.19D+04 ExpMxC= 3.30D+03 IAcc=3 IRadAn=         5 AccDes= 0.00D+00
 Harris functional with IExCor=  402 and IRadAn=       5 diagonalized for initial guess.
 HarFok:  IExCor=  402 AccDes= 0.00D+00 IRadAn=         5 IDoV= 1 UseB2=F ITyADJ=14
 ICtDFT=  3500011 ScaDFX=  1.000000  1.000000  1.000000  1.000000
 FoFCou: FMM=F IPFlag=           0 FMFlag=      100000 FMFlg1=           0
         NFxFlg=           0 DoJE=T BraDBF=F KetDBF=T FulRan=T
         wScrn=  0.000000 ICntrl=       500 IOpCl=  0 I1Cent=   200000004 NGrid=           0
         NMat0=    1 NMatS0=      1 NMatT0=    0 NMatD0=    1 NMtDS0=    0 NMtDT0=    0
 Petite list used in FoFCou.
 Requested convergence on RMS density matrix=1.00D-08 within 128 cycles.
 Requested convergence on MAX density matrix=1.00D-06.
 Requested convergence on             energy=1.00D-06.
 No special actions if energy rises.
 Integral accuracy reduced to 1.0D-05 until final iterations.
 EnCoef did     3 forward-backward iterations
 Initial convergence to 1.0D-05 achieved.  Increase integral accuracy.
 SCF Done:  E(RB3LYP) =  -1581.44551141     A.U. after   17 cycles
            NFock= 17  Conv=0.60D-08     -V/T= 2.0039

 **********************************************************************

            Population analysis using the SCF density.

 **********************************************************************

 Orbital symmetries:
       Occupied  (A) (A) (A) (A) (A) (A) (A) (A) (A) (A) (A) (A)
                 (A) (A) (A) (A) (A) (A) (A) (A) (A) (A) (A) (A)
                 (A) (A) (A) (A) (A) (A) (A) (A) (A) (A) (A) (A)
                 (A) (A) (A) (A) (A) (A) (A) (A) (A) (A) (A) (A)
                 (A) (A) (A) (A) (A) (A) (A) (A) (A) (A) (A)
       Virtual   (A) (A) (A) (A) (A) (A) (A) (A) (A) (A) (A) (A)
                 (A) (A) (A) (A) (A) (A) (A) (A) (A) (A) (A) (A)
                 (A) (A) (A) (A) (A) (A) (A) (A) (A) (A) (A) (A)
                 (A) (A) (A) (A) (A) (A) (A) (A) (A) (A) (A) (A)
                 (A) (A) (A) (A) (A) (A) (A) (A) (A) (A) (A) (A)
                 (A) (A) (A) (A) (A) (A) (A) (A) (A) (A) (A) (A)
                 (A) (A) (A) (A) (A) (A) (A) (A) (A) (A) (A) (A)
                 (A) (A) (A) (A) (A) (A) (A) (A) (A) (A) (A) (A)
                 (A) (A) (A) (A) (A) (A) (A) (A) (A) (A) (A) (A)
                 (A) (A) (A) (A) (A) (A) (A) (A) (A) (A) (A) (A)
                 (A) (A) (A) (A) (A) (A) (A) (A) (A) (A) (A) (A)
                 (A) (A) (A) (A) (A) (A) (A) (A) (A) (A) (A) (A)
                 (A) (A) (A) (A) (A) (A) (A) (A) (A) (A) (A) (A)
                 (A) (A) (A) (A) (A) (A) (A) (A) (A) (A) (A) (A)
                 (A) (A) (A) (A) (A) (A) (A) (A) (A) (A) (A) (A)
                 (A) (A) (A) (A) (A) (A) (A) (A) (A) (A) (A) (A)
                 (A) (A) (A) (A) (A) (A) (A) (A) (A) (A) (A) (A)
                 (A) (A) (A) (A) (A) (A) (A) (A) (A) (A) (A) (A)
                 (A) (A) (A) (A) (A) (A) (A) (A) (A) (A) (A) (A)
                 (A) (A) (A) (A) (A) (A) (A) (A) (A) (A) (A) (A)
                 (A) (A) (A) (A) (A) (A) (A) (A) (A) (A) (A) (A)
                 (A) (A) (A) (A) (A) (A) (A) (A) (A) (A) (A) (A)
                 (A) (A) (A) (A) (A) (A) (A) (A) (A) (A) (A) (A)
                 (A) (A) (A) (A) (A) (A) (A) (A) (A) (A) (A) (A)
                 (A) (A) (A) (A) (A) (A) (A) (A) (A) (A) (A) (A)
                 (A) (A) (A) (A) (A) (A) (A) (A) (A) (A) (A) (A)
                 (A) (A) (A) (A) (A) (A) (A) (A) (A) (A) (A) (A)
                 (A) (A) (A) (A) (A) (A) (A) (A) (A) (A) (A) (A)
                 (A) (A) (A) (A) (A) (A) (A) (A) (A) (A) (A) (A)
                 (A) (A) (A) (A) (A) (A) (A) (A) (A) (A) (A) (A)
                 (A) (A) (A) (A) (A) (A) (A)
 The electronic state is 1-A.
 Alpha  occ. eigenvalues --  -88.90998 -88.89892 -88.89668 -10.25105 -10.24187
 Alpha  occ. eigenvalues --  -10.23839 -10.23456 -10.22296 -10.21561 -10.19288
 Alpha  occ. eigenvalues --  -10.18804 -10.18042 -10.16717  -7.97383  -7.96356
 Alpha  occ. eigenvalues --   -7.96034  -5.93905  -5.93462  -5.92921  -5.92897
 Alpha  occ. eigenvalues --   -5.92556  -5.92467  -5.92095  -5.91757  -5.91589
 Alpha  occ. eigenvalues --   -0.89161  -0.84703  -0.82833  -0.79157  -0.78726
 Alpha  occ. eigenvalues --   -0.73504  -0.71877  -0.67759  -0.64381  -0.61169
 Alpha  occ. eigenvalues --   -0.56816  -0.52915  -0.51897  -0.49433  -0.48967
 Alpha  occ. eigenvalues --   -0.48081  -0.46888  -0.44500  -0.42957  -0.41665
 Alpha  occ. eigenvalues --   -0.39045  -0.38507  -0.37641  -0.35895  -0.34857
 Alpha  occ. eigenvalues --   -0.34162  -0.32986  -0.32382  -0.31724  -0.27913
 Alpha  occ. eigenvalues --   -0.27412  -0.24481  -0.21325  -0.17835
 Alpha virt. eigenvalues --   -0.06772  -0.03368  -0.00867  -0.00046   0.00576
 Alpha virt. eigenvalues --    0.05110   0.05746   0.06765   0.09313   0.10405
 Alpha virt. eigenvalues --    0.11022   0.12125   0.13171   0.13512   0.14511
 Alpha virt. eigenvalues --    0.15869   0.16016   0.17095   0.18287   0.21022
 Alpha virt. eigenvalues --    0.21637   0.22542   0.24491   0.25394   0.26230
 Alpha virt. eigenvalues --    0.27370   0.27631   0.28961   0.30811   0.31874
 Alpha virt. eigenvalues --    0.32316   0.33576   0.34238   0.35586   0.36032
 Alpha virt. eigenvalues --    0.36659   0.37879   0.38591   0.39213   0.40020
 Alpha virt. eigenvalues --    0.41255   0.43005   0.43941   0.44181   0.44489
 Alpha virt. eigenvalues --    0.45493   0.46288   0.48847   0.49693   0.51581
 Alpha virt. eigenvalues --    0.52406   0.53724   0.54315   0.54670   0.57069
 Alpha virt. eigenvalues --    0.57584   0.58439   0.58885   0.59102   0.60662
 Alpha virt. eigenvalues --    0.61446   0.62305   0.63466   0.65186   0.65746
 Alpha virt. eigenvalues --    0.67543   0.68660   0.69262   0.69844   0.70204
 Alpha virt. eigenvalues --    0.70722   0.71330   0.72918   0.74131   0.74754
 Alpha virt. eigenvalues --    0.75612   0.76281   0.76621   0.77222   0.77625
 Alpha virt. eigenvalues --    0.77785   0.79033   0.79690   0.79900   0.81663
 Alpha virt. eigenvalues --    0.82614   0.83839   0.85201   0.86298   0.87019
 Alpha virt. eigenvalues --    0.87937   0.89005   0.89957   0.91325   0.92414
 Alpha virt. eigenvalues --    0.92879   0.94455   0.96076   0.97925   0.99238
 Alpha virt. eigenvalues --    1.01937   1.03784   1.04967   1.06802   1.08188
 Alpha virt. eigenvalues --    1.10929   1.11618   1.13241   1.14785   1.16593
 Alpha virt. eigenvalues --    1.18844   1.21033   1.23136   1.24193   1.25701
 Alpha virt. eigenvalues --    1.27731   1.29929   1.31467   1.32568   1.32836
 Alpha virt. eigenvalues --    1.33695   1.34807   1.35203   1.39325   1.41594
 Alpha virt. eigenvalues --    1.41819   1.43148   1.44873   1.45866   1.46692
 Alpha virt. eigenvalues --    1.47698   1.48823   1.50412   1.51703   1.53059
 Alpha virt. eigenvalues --    1.54275   1.56579   1.59740   1.60033   1.61309
 Alpha virt. eigenvalues --    1.62338   1.63573   1.65851   1.66418   1.67252
 Alpha virt. eigenvalues --    1.68452   1.69186   1.71458   1.72185   1.73460
 Alpha virt. eigenvalues --    1.77314   1.78472   1.80765   1.81196   1.82431
 Alpha virt. eigenvalues --    1.83458   1.83831   1.84804   1.88784   1.89898
 Alpha virt. eigenvalues --    1.90949   1.91773   1.93540   1.95624   1.96400
 Alpha virt. eigenvalues --    1.97723   1.98318   2.00887   2.03554   2.04218
 Alpha virt. eigenvalues --    2.04722   2.05314   2.07740   2.09693   2.09867
 Alpha virt. eigenvalues --    2.11119   2.13488   2.15537   2.17047   2.19283
 Alpha virt. eigenvalues --    2.19831   2.21685   2.22816   2.25950   2.27260
 Alpha virt. eigenvalues --    2.29065   2.29800   2.31351   2.32164   2.34243
 Alpha virt. eigenvalues --    2.34524   2.37295   2.38183   2.39288   2.40640
 Alpha virt. eigenvalues --    2.41564   2.42299   2.43251   2.45761   2.46388
 Alpha virt. eigenvalues --    2.47132   2.49675   2.52045   2.53614   2.55129
 Alpha virt. eigenvalues --    2.55962   2.59462   2.60091   2.62147   2.68060
 Alpha virt. eigenvalues --    2.69618   2.71295   2.71860   2.75610   2.76164
 Alpha virt. eigenvalues --    2.78942   2.79619   2.80830   2.82805   2.84389
 Alpha virt. eigenvalues --    2.85495   2.88320   2.91275   2.92537   2.92691
 Alpha virt. eigenvalues --    2.94966   2.96032   2.97777   3.00252   3.00587
 Alpha virt. eigenvalues --    3.01101   3.04216   3.05739   3.10390   3.10909
 Alpha virt. eigenvalues --    3.11962   3.13167   3.13795   3.15405   3.18425
 Alpha virt. eigenvalues --    3.19654   3.21090   3.22852   3.24023   3.25696
 Alpha virt. eigenvalues --    3.28060   3.28498   3.29173   3.31589   3.32348
 Alpha virt. eigenvalues --    3.33217   3.36639   3.37370   3.40275   3.41920
 Alpha virt. eigenvalues --    3.42493   3.44531   3.48061   3.48650   3.50315
 Alpha virt. eigenvalues --    3.51945   3.53103   3.54414   3.55559   3.57023
 Alpha virt. eigenvalues --    3.58248   3.60238   3.61710   3.63615   3.63665
 Alpha virt. eigenvalues --    3.65491   3.66981   3.70091   3.70678   3.72864
 Alpha virt. eigenvalues --    3.73136   3.76489   3.77683   3.79125   3.82542
 Alpha virt. eigenvalues --    3.86548   3.88391   3.91747   3.93464   3.94654
 Alpha virt. eigenvalues --    3.97462   3.99196   4.03021   4.04628   4.07531
 Alpha virt. eigenvalues --    4.10037   4.16354   4.20078   4.20877   4.24978
 Alpha virt. eigenvalues --    4.27811   4.30248   4.32124   4.33899   4.34846
 Alpha virt. eigenvalues --    4.38236   4.38297   4.39887   4.41490   4.46245
 Alpha virt. eigenvalues --    4.46964   4.48473   4.50448   4.51175   4.52689
 Alpha virt. eigenvalues --    4.55539   4.57516   4.59413   4.59894   4.61352
 Alpha virt. eigenvalues --    4.61910   4.63968   4.65337   4.68086   4.69683
 Alpha virt. eigenvalues --    4.71391   4.72969   4.75732   4.76392   4.78138
 Alpha virt. eigenvalues --    4.80536   4.82691   4.83325   4.86599   4.87229
 Alpha virt. eigenvalues --    4.89967   4.93589   4.94285   4.97969   5.00037
 Alpha virt. eigenvalues --    5.02983   5.07291   5.08525   5.16233   5.19399
 Alpha virt. eigenvalues --    5.20109   5.25116   5.28956   5.33356   5.39315
 Alpha virt. eigenvalues --    5.42938   5.44601   5.55935   5.58587   5.65303
 Alpha virt. eigenvalues --    5.69348   5.76989   5.81106   5.93308   6.01230
 Alpha virt. eigenvalues --    6.10046   6.61715   9.98496  10.20713  10.55892
 Alpha virt. eigenvalues --   10.80084  11.34266  11.47849  11.69812  11.97314
 Alpha virt. eigenvalues --   12.08513  12.40591
          Condensed to atoms (all electrons):
               1          2          3          4          5          6
     1  C    5.160401   0.582247  -0.048041   0.007649   0.000841  -0.000444
     2  C    0.582247   4.450012   0.505563  -0.016589  -0.018810   0.003245
     3  C   -0.048041   0.505563   5.185195   0.516608  -0.028024   0.009986
     4  C    0.007649  -0.016589   0.516608   4.701216   0.430222  -0.005513
     5  C    0.000841  -0.018810  -0.028024   0.430222   4.870435   0.601042
     6  C   -0.000444   0.003245   0.009986  -0.005513   0.601042   4.743109
     7  C    0.000002  -0.000105  -0.000215  -0.031396  -0.011599   0.360408
     8  S    0.000003  -0.000018   0.003008  -0.007217  -0.012444  -0.014270
     9  S   -0.000158   0.001742  -0.086542   0.346552  -0.032496  -0.019430
    10  S    0.000132   0.000705   0.000284   0.010158  -0.042771   0.312276
    11  C   -0.002388  -0.001355   0.000199   0.000013  -0.012685  -0.011963
    12  C   -0.025134  -0.016472   0.001070  -0.000072  -0.006589  -0.000190
    13  C    0.422973   0.002053   0.005750   0.000794  -0.000157   0.000092
    14  H    0.334629  -0.026928  -0.005591  -0.000515   0.000044   0.000005
    15  H   -0.088441   0.370961  -0.024237  -0.055982   0.003361   0.005089
    16  H   -0.004724  -0.040477   0.357792  -0.049812   0.005961   0.000001
    17  H    0.002091   0.002106  -0.034225  -0.045974   0.367614  -0.068702
    18  H   -0.000000  -0.000001   0.000011   0.000655  -0.001530  -0.024551
    19  H   -0.000000   0.000003   0.000016   0.000875  -0.003200  -0.025125
    20  H    0.000056   0.000027  -0.000007  -0.000015   0.000469   0.002040
    21  H    0.000033  -0.000026  -0.000011  -0.000001   0.000933   0.001862
    22  H    0.003442   0.000551  -0.000003   0.000004   0.000368  -0.000033
    23  H   -0.042330  -0.002025  -0.000300  -0.000016  -0.000042   0.000001
               7          8          9         10         11         12
     1  C    0.000002   0.000003  -0.000158   0.000132  -0.002388  -0.025134
     2  C   -0.000105  -0.000018   0.001742   0.000705  -0.001355  -0.016472
     3  C   -0.000215   0.003008  -0.086542   0.000284   0.000199   0.001070
     4  C   -0.031396  -0.007217   0.346552   0.010158   0.000013  -0.000072
     5  C   -0.011599  -0.012444  -0.032496  -0.042771  -0.012685  -0.006589
     6  C    0.360408  -0.014270  -0.019430   0.312276  -0.011963  -0.000190
     7  C    5.061974   0.284091  -0.002605  -0.066967   0.000903  -0.000024
     8  S    0.284091  15.824030   0.110345   0.003941  -0.000085  -0.000000
     9  S   -0.002605   0.110345  15.707461  -0.000410  -0.000030  -0.000013
    10  S   -0.066967   0.003941  -0.000410  15.822345   0.288809  -0.013831
    11  C    0.000903  -0.000085  -0.000030   0.288809   5.013808   0.343430
    12  C   -0.000024  -0.000000  -0.000013  -0.013831   0.343430   4.880942
    13  C   -0.000003   0.000000   0.000004  -0.001114  -0.018062   0.648234
    14  H   -0.000000   0.000000   0.000002   0.000001  -0.000017   0.002226
    15  H   -0.000068  -0.000019   0.000275  -0.000112   0.000330   0.011568
    16  H   -0.000007   0.000123  -0.003428   0.000013  -0.000001  -0.000007
    17  H    0.013165   0.000034   0.007266  -0.055591   0.002383   0.007601
    18  H    0.366094  -0.051097   0.002524  -0.000167   0.000025   0.000001
    19  H    0.360672  -0.051330   0.001654   0.002546  -0.000007   0.000002
    20  H   -0.000009   0.000003   0.000001  -0.068053   0.374795  -0.029142
    21  H    0.000001   0.000002   0.000002  -0.065486   0.376463  -0.030175
    22  H    0.000001  -0.000000   0.000000   0.004037  -0.050772   0.346703
    23  H   -0.000000   0.000000  -0.000000  -0.000046   0.003221  -0.023508
              13         14         15         16         17         18
     1  C    0.422973   0.334629  -0.088441  -0.004724   0.002091  -0.000000
     2  C    0.002053  -0.026928   0.370961  -0.040477   0.002106  -0.000001
     3  C    0.005750  -0.005591  -0.024237   0.357792  -0.034225   0.000011
     4  C    0.000794  -0.000515  -0.055982  -0.049812  -0.045974   0.000655
     5  C   -0.000157   0.000044   0.003361   0.005961   0.367614  -0.001530
     6  C    0.000092   0.000005   0.005089   0.000001  -0.068702  -0.024551
     7  C   -0.000003  -0.000000  -0.000068  -0.000007   0.013165   0.366094
     8  S    0.000000   0.000000  -0.000019   0.000123   0.000034  -0.051097
     9  S    0.000004   0.000002   0.000275  -0.003428   0.007266   0.002524
    10  S   -0.001114   0.000001  -0.000112   0.000013  -0.055591  -0.000167
    11  C   -0.018062  -0.000017   0.000330  -0.000001   0.002383   0.000025
    12  C    0.648234   0.002226   0.011568  -0.000007   0.007601   0.000001
    13  C    4.841357  -0.043446  -0.050524  -0.000204   0.000344   0.000000
    14  H   -0.043446   0.628134   0.013072   0.001415  -0.000054   0.000000
    15  H   -0.050524   0.013072   0.685279   0.008477  -0.005938   0.000006
    16  H   -0.000204   0.001415   0.008477   0.618935  -0.000039  -0.000000
    17  H    0.000344  -0.000054  -0.005938  -0.000039   0.695803  -0.000400
    18  H    0.000000   0.000000   0.000006  -0.000000  -0.000400   0.578571
    19  H    0.000000   0.000000  -0.000009  -0.000000  -0.000117  -0.038578
    20  H    0.001030   0.000001   0.000128   0.000000   0.000050  -0.000002
    21  H    0.000597   0.000000  -0.000106  -0.000000  -0.000086  -0.000001
    22  H   -0.026274  -0.000070  -0.000497   0.000000  -0.000716  -0.000000
    23  H    0.334170   0.001642   0.002571   0.000006   0.000096   0.000000
              19         20         21         22         23
     1  C   -0.000000   0.000056   0.000033   0.003442  -0.042330
     2  C    0.000003   0.000027  -0.000026   0.000551  -0.002025
     3  C    0.000016  -0.000007  -0.000011  -0.000003  -0.000300
     4  C    0.000875  -0.000015  -0.000001   0.000004  -0.000016
     5  C   -0.003200   0.000469   0.000933   0.000368  -0.000042
     6  C   -0.025125   0.002040   0.001862  -0.000033   0.000001
     7  C    0.360672  -0.000009   0.000001   0.000001  -0.000000
     8  S   -0.051330   0.000003   0.000002  -0.000000   0.000000
     9  S    0.001654   0.000001   0.000002   0.000000  -0.000000
    10  S    0.002546  -0.068053  -0.065486   0.004037  -0.000046
    11  C   -0.000007   0.374795   0.376463  -0.050772   0.003221
    12  C    0.000002  -0.029142  -0.030175   0.346703  -0.023508
    13  C    0.000000   0.001030   0.000597  -0.026274   0.334170
    14  H    0.000000   0.000001   0.000000  -0.000070   0.001642
    15  H   -0.000009   0.000128  -0.000106  -0.000497   0.002571
    16  H   -0.000000   0.000000  -0.000000   0.000000   0.000006
    17  H   -0.000117   0.000050  -0.000086  -0.000716   0.000096
    18  H   -0.038578  -0.000002  -0.000001  -0.000000   0.000000
    19  H    0.591757  -0.000001  -0.000001  -0.000000   0.000000
    20  H   -0.000001   0.568057  -0.024370  -0.005825  -0.000071
    21  H   -0.000001  -0.024370   0.568200  -0.004316  -0.000115
    22  H   -0.000000  -0.005825  -0.004316   0.633405  -0.014854
    23  H    0.000000  -0.000071  -0.000115  -0.014854   0.635560
 Mulliken charges:
               1
     1  C   -0.302838
     2  C    0.203589
     3  C   -0.358286
     4  C    0.198359
     5  C   -0.110944
     6  C    0.131066
     7  C   -0.334313
     8  S   -0.089101
     9  S   -0.032717
    10  S   -0.130700
    11  C   -0.307014
    12  C   -0.096621
    13  C   -0.117615
    14  H    0.095450
    15  H    0.124813
    16  H    0.105973
    17  H    0.113289
    18  H    0.168439
    19  H    0.160844
    20  H    0.180839
    21  H    0.176602
    22  H    0.114848
    23  H    0.106038
 Sum of Mulliken charges =  -0.00000
 Mulliken charges with hydrogens summed into heavy atoms:
               1
     1  C   -0.207388
     2  C    0.328401
     3  C   -0.252312
     4  C    0.198359
     5  C    0.002344
     6  C    0.131066
     7  C   -0.005029
     8  S   -0.089101
     9  S   -0.032717
    10  S   -0.130700
    11  C    0.050427
    12  C    0.018227
    13  C   -0.011577
 Electronic spatial extent (au):  <R**2>=           3578.0331
 Charge=             -0.0000 electrons
 Dipole moment (field-independent basis, Debye):
    X=              1.4693    Y=              1.3599    Z=              0.1185  Tot=              2.0056
 Quadrupole moment (field-independent basis, Debye-Ang):
   XX=            -95.6178   YY=            -92.9209   ZZ=           -101.3884
   XY=             -0.2760   XZ=             -0.3892   YZ=              0.2819
 Traceless Quadrupole moment (field-independent basis, Debye-Ang):
   XX=              1.0246   YY=              3.7215   ZZ=             -4.7460
   XY=             -0.2760   XZ=             -0.3892   YZ=              0.2819
 Octapole moment (field-independent basis, Debye-Ang**2):
  XXX=             28.6713  YYY=            -12.6124  ZZZ=              0.9442  XYY=             -1.0312
  XXY=             19.5175  XXZ=             -0.4947  XZZ=             -4.4027  YZZ=              7.7340
  YYZ=             -1.4423  XYZ=              0.5844
 Hexadecapole moment (field-independent basis, Debye-Ang**3):
 XXXX=          -3025.8728 YYYY=          -1706.4309 ZZZZ=           -132.5908 XXXY=             22.8682
 XXXZ=             -3.2189 YYYX=            -11.6421 YYYZ=              2.4325 ZZZX=             -0.9030
 ZZZY=              0.8864 XXYY=           -733.9830 XXZZ=           -565.7172 YYZZ=           -322.3480
 XXYZ=              2.4975 YYXZ=             -2.1478 ZZXY=              7.4112
 N-N= 1.065258939703D+03 E-N=-5.865153293235D+03  KE= 1.575312444925D+03
 PrsmSu:  requested number of processors reduced to:  13 ShMem   1 Linda.
 Calling FoFJK, ICntrl=      2127 FMM=F ISym2X=0 I1Cent= 0 IOpClX= 0 NMat=1 NMatS=1 NMatT=0.
 ***** Axes restored to original set *****
 -------------------------------------------------------------------
 Center     Atomic                   Forces (Hartrees/Bohr)
 Number     Number              X              Y              Z
 -------------------------------------------------------------------
      1        6           0.014548993   -0.001330206   -0.011083824
      2        6           0.012322595   -0.026391234    0.028371372
      3        6          -0.018115885    0.023439231   -0.002702339
      4        6           0.001201021   -0.011028351   -0.003071915
      5        6          -0.013338367    0.000427642   -0.007481796
      6        6          -0.008373697    0.019575061    0.003766538
      7        6           0.018983779   -0.008746756    0.004233983
      8       16           0.025350973    0.013318838   -0.007969046
      9       16          -0.014597928    0.016125706    0.011572203
     10       16           0.035554422    0.013666284    0.003159497
     11        6          -0.027578515   -0.012358377   -0.004807667
     12        6          -0.032007604   -0.007389010   -0.002386193
     13        6          -0.011922667    0.012008506    0.005661207
     14        1          -0.007616235   -0.023008674   -0.012783071
     15        1           0.028766662    0.002287986    0.000964702
     16        1           0.000377715    0.004385920   -0.003114935
     17        1          -0.022957997    0.003764308   -0.002948546
     18        1           0.007507603    0.002674755    0.003369294
     19        1           0.008418184    0.002205881    0.001251410
     20        1          -0.004216664   -0.014553178    0.006423994
     21        1          -0.004413040   -0.009502026   -0.010271341
     22        1          -0.003751437    0.009003435    0.003733905
     23        1           0.015858088   -0.008575738   -0.003887434
 -------------------------------------------------------------------
 Cartesian Forces:  Max     0.035554422 RMS     0.013569696

 GradGradGradGradGradGradGradGradGradGradGradGradGradGradGradGradGradGrad
 Berny optimization.
 FormGI is forming the generalized inverse of G from B-inverse, IUseBI=4.
 Internal  Forces:  Max     0.046481486 RMS     0.014005325
 Search for a local minimum.
 Step number   1 out of a maximum of  124
 All quantities printed in internal units (Hartrees-Bohrs-Radians)
 Mixed Optimization -- RFO/linear search
 Second derivative matrix not updated -- first step.
 ITU=  0
     Eigenvalues ---    0.00241   0.00551   0.00748   0.00996   0.01072
     Eigenvalues ---    0.01261   0.01463   0.01638   0.01713   0.01875
     Eigenvalues ---    0.01888   0.02190   0.02249   0.02360   0.02514
     Eigenvalues ---    0.02587   0.02777   0.05020   0.06560   0.07690
     Eigenvalues ---    0.12204   0.12764   0.14962   0.15327   0.15904
     Eigenvalues ---    0.15963   0.15999   0.16000   0.16000   0.16000
     Eigenvalues ---    0.21769   0.21982   0.22077   0.22674   0.22879
     Eigenvalues ---    0.23162   0.23601   0.24094   0.24880   0.24948
     Eigenvalues ---    0.24959   0.24979   0.28191   0.29974   0.32516
     Eigenvalues ---    0.32899   0.33922   0.34181   0.34271   0.34449
     Eigenvalues ---    0.34522   0.34928   0.35555   0.35746   0.36258
     Eigenvalues ---    0.38717   0.38913   0.39848   0.44674   0.46705
     Eigenvalues ---    0.51207   0.57929   0.60661
 RFO step:  Lambda=-6.93303294D-02 EMin= 2.41201801D-03
 Linear search not attempted -- first point.
 Maximum step size (   0.300) exceeded in Quadratic search.
    -- Step size scaled by   0.650
 Iteration  1 RMS(Cart)=  0.07122779 RMS(Int)=  0.00158754
 Iteration  2 RMS(Cart)=  0.00204487 RMS(Int)=  0.00036781
 Iteration  3 RMS(Cart)=  0.00000373 RMS(Int)=  0.00036780
 Iteration  4 RMS(Cart)=  0.00000000 RMS(Int)=  0.00036780
 Variable       Old X    -DE/DX   Delta X   Delta X   Delta X     New X
                                 (Linear)    (Quad)   (Total)
    R1        2.52236   0.03729   0.00000   0.03772   0.03789   2.56025
    R2        2.91536  -0.02780   0.00000  -0.05240  -0.05229   2.86306
    R3        2.04481   0.00437   0.00000   0.00665   0.00665   2.05146
    R4        2.63010   0.03550   0.00000   0.04305   0.04325   2.67335
    R5        1.98461   0.02073   0.00000   0.02880   0.02880   2.01341
    R6        2.58171   0.01163   0.00000   0.01402   0.01414   2.59585
    R7        2.04783   0.00266   0.00000   0.00407   0.00407   2.05190
    R8        2.71527  -0.01080   0.00000  -0.01301  -0.01307   2.70220
    R9        3.22522   0.02130   0.00000   0.03300   0.03302   3.25823
   R10        2.48402   0.02703   0.00000   0.02677   0.02678   2.51081
   R11        1.99758   0.00645   0.00000   0.00914   0.00914   2.00672
   R12        2.76409   0.02774   0.00000   0.04182   0.04180   2.80589
   R13        3.26656   0.02688   0.00000   0.04466   0.04452   3.31107
   R14        3.42890   0.01491   0.00000   0.02910   0.02913   3.45803
   R15        2.06579   0.00192   0.00000   0.00302   0.00302   2.06881
   R16        2.05792   0.00474   0.00000   0.00736   0.00736   2.06528
   R17        3.85652   0.03176   0.00000   0.05411   0.05409   3.91061
   R18        3.43025   0.04648   0.00000   0.09311   0.09293   3.52318
   R19        3.04956  -0.00791   0.00000  -0.01953  -0.01963   3.02993
   R20        2.06875  -0.00241   0.00000  -0.00381  -0.00381   2.06495
   R21        2.07025  -0.00284   0.00000  -0.00449  -0.00449   2.06576
   R22        2.65162  -0.04340   0.00000  -0.05548  -0.05551   2.59612
   R23        2.09229  -0.00969   0.00000  -0.01581  -0.01581   2.07648
   R24        2.07461  -0.00422   0.00000  -0.00671  -0.00671   2.06790
    A1        1.93287   0.02418   0.00000   0.05377   0.05421   1.98708
    A2        2.05628   0.01452   0.00000   0.04862   0.04840   2.10468
    A3        2.28974  -0.03867   0.00000  -0.10279  -0.10294   2.18680
    A4        2.75386  -0.02405   0.00000  -0.05667  -0.05675   2.69710
    A5        1.66543   0.02915   0.00000   0.07829   0.07842   1.74385
    A6        1.85301  -0.00512   0.00000  -0.01867  -0.01862   1.83439
    A7        2.00180  -0.02067   0.00000  -0.04009  -0.03944   1.96236
    A8        2.15936   0.01325   0.00000   0.02829   0.02797   2.18732
    A9        2.12202   0.00742   0.00000   0.01179   0.01146   2.13348
   A10        2.07917  -0.02745   0.00000  -0.05073  -0.05030   2.02887
   A11        2.07618   0.02818   0.00000   0.05304   0.05280   2.12898
   A12        2.12738  -0.00076   0.00000  -0.00250  -0.00271   2.12467
   A13        2.39179  -0.00123   0.00000  -0.00252  -0.00259   2.38920
   A14        2.07519  -0.02178   0.00000  -0.06215  -0.06213   2.01306
   A15        1.81608   0.02302   0.00000   0.06480   0.06482   1.88090
   A16        2.15539   0.00767   0.00000   0.01729   0.01729   2.17269
   A17        2.00858   0.00691   0.00000   0.01581   0.01551   2.02409
   A18        2.11921  -0.01458   0.00000  -0.03309  -0.03282   2.08639
   A19        2.07811  -0.00880   0.00000  -0.01719  -0.01728   2.06083
   A20        1.86357   0.00664   0.00000   0.01842   0.01843   1.88200
   A21        1.88260   0.00850   0.00000   0.02675   0.02670   1.90931
   A22        1.81775  -0.00111   0.00000  -0.00709  -0.00722   1.81053
   A23        1.88400   0.00061   0.00000  -0.00025   0.00011   1.88411
   A24        1.93632  -0.00678   0.00000  -0.02433  -0.02456   1.91176
   A25        1.94608  -0.00091   0.00000  -0.00592  -0.00595   1.94013
   A26        1.84454   0.00315   0.00000   0.00450   0.00445   1.84899
   A27        1.95361   0.02046   0.00000   0.03987   0.03901   1.99262
   A28        2.60681  -0.01454   0.00000  -0.03352  -0.03374   2.57308
   A29        1.64163   0.01350   0.00000   0.04312   0.04333   1.68497
   A30        1.66513   0.01334   0.00000   0.03874   0.03901   1.70414
   A31        1.76420  -0.00357   0.00000  -0.01130  -0.01087   1.75333
   A32        1.78523  -0.00302   0.00000  -0.01213  -0.01191   1.77332
   A33        1.99231  -0.00922   0.00000  -0.04548  -0.04624   1.94607
   A34        2.72818  -0.00905   0.00000  -0.02589  -0.02596   2.70221
   A35        1.66617   0.00811   0.00000   0.02311   0.02314   1.68931
   A36        1.88882   0.00094   0.00000   0.00278   0.00282   1.89164
   A37        2.41225  -0.00415   0.00000  -0.01392  -0.01368   2.39857
   A38        1.83262   0.02053   0.00000   0.05921   0.05904   1.89166
   A39        2.03828  -0.01639   0.00000  -0.04541  -0.04558   1.99270
    D1        2.96237  -0.00040   0.00000  -0.00892  -0.00793   2.95443
    D2       -0.41529   0.00586   0.00000   0.03806   0.03887  -0.37642
    D3       -0.09085   0.00151   0.00000   0.00124   0.00162  -0.08924
    D4        2.81468   0.00777   0.00000   0.04821   0.04842   2.86309
    D5       -0.06744  -0.00372   0.00000  -0.02286  -0.02313  -0.09057
    D6        3.08459  -0.00192   0.00000  -0.00610  -0.00631   3.07827
    D7        2.97023  -0.00164   0.00000  -0.02276  -0.02250   2.94773
    D8       -0.16093   0.00017   0.00000  -0.00600  -0.00569  -0.16662
    D9       -2.91235   0.00446   0.00000   0.03029   0.03025  -2.88211
   D10        0.22535   0.00464   0.00000   0.02641   0.02685   0.25220
   D11        0.47410  -0.00310   0.00000  -0.02172  -0.02146   0.45264
   D12       -2.67138  -0.00292   0.00000  -0.02560  -0.02486  -2.69624
   D13        0.04285   0.00389   0.00000   0.01577   0.01691   0.05976
   D14       -3.06698   0.00481   0.00000   0.02247   0.02357  -3.04341
   D15       -3.09495   0.00370   0.00000   0.01951   0.02015  -3.07480
   D16        0.07841   0.00462   0.00000   0.02622   0.02680   0.10521
   D17       -3.03952   0.00287   0.00000   0.02081   0.02061  -3.01891
   D18        0.12226   0.00130   0.00000   0.00935   0.00953   0.13179
   D19        0.06934   0.00245   0.00000   0.01491   0.01502   0.08437
   D20       -3.05207   0.00088   0.00000   0.00345   0.00395  -3.04812
   D21       -3.09047  -0.00117   0.00000  -0.00037  -0.00073  -3.09120
   D22        0.08380   0.00027   0.00000   0.00740   0.00711   0.09091
   D23       -0.07999  -0.00180   0.00000  -0.01431  -0.01414  -0.09413
   D24        3.06138  -0.00247   0.00000  -0.02141  -0.02114   3.04024
   D25        3.04339  -0.00070   0.00000  -0.00488  -0.00457   3.03882
   D26       -0.09843  -0.00138   0.00000  -0.01199  -0.01157  -0.11000
   D27       -0.09040  -0.00216   0.00000  -0.01207  -0.01236  -0.10277
   D28       -2.13881  -0.00039   0.00000  -0.00645  -0.00632  -2.14512
   D29        2.06218  -0.00048   0.00000  -0.00186  -0.00201   2.06017
   D30        3.05142  -0.00144   0.00000  -0.00453  -0.00513   3.04629
   D31        1.00302   0.00033   0.00000   0.00109   0.00092   1.00394
   D32       -1.07918   0.00024   0.00000   0.00567   0.00522  -1.07395
   D33       -0.04742   0.00028   0.00000  -0.00836  -0.00762  -0.05504
   D34        3.09395  -0.00038   0.00000  -0.01530  -0.01424   3.07971
   D35        0.21068   0.00318   0.00000   0.02672   0.02656   0.23724
   D36        2.28287   0.00567   0.00000   0.03480   0.03456   2.31743
   D37       -1.94122  -0.00237   0.00000   0.00324   0.00304  -1.93819
   D38       -0.19148  -0.00368   0.00000  -0.02508  -0.02505  -0.21653
   D39        0.03786   0.00003   0.00000   0.00216   0.00208   0.03994
   D40        2.12977   0.00364   0.00000   0.02746   0.02647   2.15624
   D41       -2.15059  -0.00222   0.00000  -0.00793  -0.00752  -2.15811
   D42       -0.06168   0.00016   0.00000   0.00493   0.00456  -0.05712
   D43        3.06914   0.00024   0.00000   0.00577   0.00542   3.07456
   D44       -2.12418  -0.00680   0.00000  -0.03203  -0.03206  -2.15625
   D45        1.00664  -0.00672   0.00000  -0.03119  -0.03120   0.97543
   D46        2.09966   0.00541   0.00000   0.02504   0.02480   2.12446
   D47       -1.05270   0.00549   0.00000   0.02588   0.02566  -1.02704
   D48        0.03321  -0.00130   0.00000  -0.00321  -0.00379   0.02941
   D49       -3.11968  -0.00310   0.00000  -0.02091  -0.02085  -3.14052
   D50       -3.09710  -0.00139   0.00000  -0.00411  -0.00471  -3.10181
   D51        0.03320  -0.00319   0.00000  -0.02180  -0.02176   0.01144
         Item               Value     Threshold  Converged?
 Maximum Force            0.046481     0.000450     NO 
 RMS     Force            0.014005     0.000300     NO 
 Maximum Displacement     0.259021     0.001800     NO 
 RMS     Displacement     0.071310     0.001200     NO 
 Predicted change in Energy=-3.419740D-02
 GradGradGradGradGradGradGradGradGradGradGradGradGradGradGradGradGradGrad

                          Input orientation:                          
 ---------------------------------------------------------------------
 Center     Atomic      Atomic             Coordinates (Angstroms)
 Number     Number       Type             X           Y           Z
 ---------------------------------------------------------------------
      1          6           0        1.895602   -1.080899   -0.176112
      2          6           0        2.701165   -0.031001    0.114305
      3          6           0        2.992105    1.339247    0.311994
      4          6           0        4.342197    1.592467    0.321362
      5          6           0        5.196776    0.476175    0.059975
      6          6           0        6.501958    0.228255    0.079437
      7          6           0        7.548580    1.252094    0.326425
      8         16           0        7.027553    3.001008    0.462118
      9         16           0        4.975923    3.154116    0.685300
     10         16           0        6.970996   -1.436625   -0.200185
     11          6           0        5.536470   -2.612269   -0.389753
     12          6           0        3.945777   -2.804371   -0.449619
     13          6           0        2.639410   -2.383876   -0.386899
     14          1           0        0.831060   -0.934333   -0.330282
     15          1           0        3.558478   -0.551508    0.473846
     16          1           0        2.254335    2.125909    0.437919
     17          1           0        4.702175   -0.414535   -0.239467
     18          1           0        8.229150    1.249392   -0.531087
     19          1           0        8.101872    0.994145    1.232934
     20          1           0        5.819848   -2.997001   -1.372464
     21          1           0        5.812073   -3.307590    0.407461
     22          1           0        3.953103   -3.881078   -0.668858
     23          1           0        1.904655   -3.178230   -0.549991
 ---------------------------------------------------------------------
                    Distance matrix (angstroms):
                    1          2          3          4          5
     1  C    0.000000
     2  C    1.354828   0.000000
     3  C    2.701421   1.414676   0.000000
     4  C    3.657894   2.317651   1.373666   0.000000
     5  C    3.657590   2.547204   2.380963   1.429942   0.000000
     6  C    4.795593   3.809784   3.688829   2.565963   1.328662
     7  C    6.136087   5.018840   4.557332   3.224402   2.490789
     8  S    6.588340   5.294495   4.366787   3.035611   3.144558
     9  S    5.307143   3.955443   2.714524   1.724183   2.758836
    10  S    5.087902   4.506233   4.878460   4.044501   2.621897
    11  C    3.955586   3.867295   4.751918   4.428518   3.139447
    12  C    2.692282   3.091707   4.319620   4.481489   3.547769
    13  C    1.515069   2.406458   3.804536   4.383198   3.862604
    14  H    1.085587   2.123902   3.201843   4.374636   4.604488
    15  H    1.862218   1.065449   1.980386   2.287814   1.977736
    16  H    3.284713   2.226352   1.085816   2.158081   3.394469
    17  H    2.885291   2.067919   2.510817   2.114750   1.061913
    18  H    6.757965   5.710915   5.305234   3.994093   3.184731
    19  H    6.693953   5.609803   5.203551   3.914602   3.175486
    20  H    4.527959   4.553440   5.443949   5.110353   3.808287
    21  H    4.542847   4.527662   5.436399   5.116493   3.849183
    22  H    3.509574   4.123565   5.397906   5.575986   4.589507
    23  H    2.130414   3.313724   4.725798   5.427745   4.956288
                    6          7          8          9         10
     6  C    0.000000
     7  C    1.484812   0.000000
     8  S    2.847955   1.829913   0.000000
     9  S    3.355073   3.219478   2.069405   0.000000
    10  S    1.752145   2.800023   4.487140   5.083237   0.000000
    11  C    3.036591   4.415291   5.870084   5.892465   1.864387
    12  C    4.001348   5.480633   6.635588   6.152464   3.329399
    13  C    4.686147   6.150533   6.998114   6.105593   4.437880
    14  H    5.803324   7.094843   7.383179   5.909883   6.161821
    15  H    3.070450   4.381281   4.965378   3.973099   3.589293
    16  H    4.666037   5.367030   4.852833   2.919838   5.945226
    17  H    1.937550   3.346626   4.191126   3.696674   2.488727
    18  H    2.097296   1.094765   2.344878   3.961194   2.984482
    19  H    2.115861   1.092899   2.403293   3.838871   3.039959
    20  H    3.602162   4.891783   6.387515   6.540859   2.265867
    21  H    3.617422   4.879830   6.424857   6.521502   2.283166
    22  H    4.893182   6.345668   7.621972   7.236979   3.911865
    23  H    5.756346   7.228400   8.090206   7.145435   5.368740
                   11         12         13         14         15
    11  C    0.000000
    12  C    1.603369   0.000000
    13  C    2.906050   1.373806   0.000000
    14  H    4.995987   3.634934   2.318299   0.000000
    15  H    2.984123   2.465397   2.223318   2.869144   0.000000
    16  H    5.823038   5.287377   4.600736   3.461347   2.978362
    17  H    2.355561   2.515476   2.855703   3.906913   1.354850
    18  H    4.709875   5.898044   6.668330   7.716263   5.105713
    19  H    4.713875   5.876464   6.623698   7.682928   4.858774
    20  H    1.092723   2.097830   3.385623   5.498067   3.808292
    21  H    1.093151   2.114445   3.398535   5.566606   3.560770
    22  H    2.048128   1.098826   2.011691   4.306401   3.542251
    23  H    3.679140   2.077504   1.094286   2.497188   3.268492
                   16         17         18         19         20
    16  H    0.000000
    17  H    3.592300   0.000000
    18  H    6.116018   3.910659   0.000000
    19  H    6.008879   3.963620   1.786930   0.000000
    20  H    6.498813   3.033481   4.954241   5.284409   0.000000
    21  H    6.494716   3.165464   5.243016   4.942622   1.806837
    22  H    6.339926   3.572452   6.680216   6.678091   2.182061
    23  H    5.406674   3.944687   7.720326   7.680692   4.004753
                   21         22         23
    21  H    0.000000
    22  H    2.223313   0.000000
    23  H    4.025092   2.168932   0.000000
 Stoichiometry    C10H10S3
 Framework group  C1[X(C10H10S3)]
 Deg. of freedom    63
 Full point group                 C1      NOp   1
 Largest Abelian subgroup         C1      NOp   1
 Largest concise Abelian subgroup C1      NOp   1
                         Standard orientation:                         
 ---------------------------------------------------------------------
 Center     Atomic      Atomic             Coordinates (Angstroms)
 Number     Number       Type             X           Y           Z
 ---------------------------------------------------------------------
      1          6           0        2.823025   -2.185102   -0.053088
      2          6           0        1.486739   -1.989682    0.055128
      3          6           0        0.130085   -2.388476    0.013155
      4          6           0       -0.730402   -1.318050   -0.013448
      5          6           0       -0.127010   -0.022946   -0.071404
      6          6           0       -0.532844    1.240267   -0.001146
      7          6           0       -1.954134    1.663935    0.070308
      8         16           0       -3.245581    0.379209   -0.103550
      9         16           0       -2.440489   -1.518589    0.077076
     10         16           0        0.731943    2.452715    0.016043
     11          6           0        2.460027    1.753015    0.025181
     12          6           0        3.389006    0.446664   -0.010043
     13          6           0        3.633272   -0.905113   -0.029409
     14          1           0        3.223125   -3.177389   -0.236895
     15          1           0        1.478400   -1.023890    0.504970
     16          1           0       -0.222181   -3.415415   -0.004216
     17          1           0        0.925230   -0.017779   -0.214309
     18          1           0       -2.145090    2.339795   -0.769489
     19          1           0       -2.128632    2.191807    1.011227
     20          1           0        2.807528    2.267820   -0.873852
     21          1           0        2.813033    2.249446    0.932883
     22          1           0        4.352914    0.973433   -0.038547
     23          1           0        4.695107   -1.168262   -0.056276
 ---------------------------------------------------------------------
 Rotational constants (GHZ):           0.8207307           0.4301571           0.2836253
 Standard basis: 6-31G(2df,p) (6D, 7F)
 There are   465 symmetry adapted cartesian basis functions of A   symmetry.
 There are   426 symmetry adapted basis functions of A   symmetry.
   426 basis functions,   714 primitive gaussians,   465 cartesian basis functions
    59 alpha electrons       59 beta electrons
       nuclear repulsion energy      1057.2386413731 Hartrees.
 NAtoms=   23 NActive=   23 NUniq=   23 SFac= 1.00D+00 NAtFMM=   60 NAOKFM=F Big=F
 Integral buffers will be    131072 words long.
 Raffenetti 2 integral format.
 Two-electron integral symmetry is turned on.
 One-electron integrals computed using PRISM.
 PrsmSu:  requested number of processors reduced to:  13 ShMem   1 Linda.
 NBasis=   426 RedAO= T EigKep=  1.91D-04  NBF=   426
 NBsUse=   426 1.00D-06 EigRej= -1.00D+00 NBFU=   426
 Initial guess from the checkpoint file:  "C1dCCdC2CdCqCSS2rSCCdC1.chk"
 B after Tr=     0.000000    0.000000   -0.000000
         Rot=    0.999922   -0.000050    0.000142    0.012455 Ang=  -1.43 deg.
 ExpMin= 1.17D-01 ExpMax= 2.19D+04 ExpMxC= 3.30D+03 IAcc=2 IRadAn=         4 AccDes= 0.00D+00
 Harris functional with IExCor=  402 and IRadAn=       4 diagonalized for initial guess.
 HarFok:  IExCor=  402 AccDes= 0.00D+00 IRadAn=         4 IDoV= 1 UseB2=F ITyADJ=14
 ICtDFT=  3500011 ScaDFX=  1.000000  1.000000  1.000000  1.000000
 FoFCou: FMM=F IPFlag=           0 FMFlag=      100000 FMFlg1=           0
         NFxFlg=           0 DoJE=T BraDBF=F KetDBF=T FulRan=T
         wScrn=  0.000000 ICntrl=       500 IOpCl=  0 I1Cent=   200000004 NGrid=           0
         NMat0=    1 NMatS0=      1 NMatT0=    0 NMatD0=    1 NMtDS0=    0 NMtDT0=    0
 Petite list used in FoFCou.
 Requested convergence on RMS density matrix=1.00D-08 within 128 cycles.
 Requested convergence on MAX density matrix=1.00D-06.
 Requested convergence on             energy=1.00D-06.
 No special actions if energy rises.
 Integral accuracy reduced to 1.0D-05 until final iterations.
 Initial convergence to 1.0D-05 achieved.  Increase integral accuracy.
 SCF Done:  E(RB3LYP) =  -1581.47529131     A.U. after   13 cycles
            NFock= 13  Conv=0.55D-08     -V/T= 2.0041
 PrsmSu:  requested number of processors reduced to:  13 ShMem   1 Linda.
 Calling FoFJK, ICntrl=      2127 FMM=F ISym2X=0 I1Cent= 0 IOpClX= 0 NMat=1 NMatS=1 NMatT=0.
 ***** Axes restored to original set *****
 -------------------------------------------------------------------
 Center     Atomic                   Forces (Hartrees/Bohr)
 Number     Number              X              Y              Z
 -------------------------------------------------------------------
      1        6           0.016631406    0.012109477   -0.006690851
      2        6          -0.006742258   -0.032933106    0.028194371
      3        6          -0.012819874    0.012292148   -0.004191292
      4        6          -0.002064633   -0.004073757   -0.001983926
      5        6           0.016839690   -0.002009777   -0.010967566
      6        6          -0.012906410    0.015145064    0.003393177
      7        6           0.009908371   -0.010511510    0.004371096
      8       16           0.016196195    0.007010014   -0.008355622
      9       16          -0.011709325    0.007801439    0.009715204
     10       16           0.018775681    0.007463295    0.000935684
     11        6          -0.023455027   -0.004161191   -0.002991162
     12        6          -0.010344171   -0.005691442   -0.001561464
     13        6          -0.013454265    0.016225472    0.006351023
     14        1          -0.001725169   -0.014267364   -0.009340401
     15        1          -0.002014378   -0.000837545    0.001790459
     16        1           0.000728967    0.000549357   -0.002844435
     17        1           0.000837452    0.005319474   -0.007445512
     18        1           0.004133758    0.001425275    0.002530764
     19        1           0.003770410    0.001080325    0.000041714
     20        1           0.000829482   -0.007334240    0.004315019
     21        1           0.000405031   -0.004555712   -0.005616832
     22        1          -0.000356172    0.003781209    0.002075496
     23        1           0.008535239   -0.003826905   -0.001724946
 -------------------------------------------------------------------
 Cartesian Forces:  Max     0.032933106 RMS     0.009890918

 GradGradGradGradGradGradGradGradGradGradGradGradGradGradGradGradGradGrad
 Berny optimization.
 Using GEDIIS/GDIIS optimizer.
 FormGI is forming the generalized inverse of G from B-inverse, IUseBI=4.
 Internal  Forces:  Max     0.029516456 RMS     0.007094364
 Search for a local minimum.
 Step number   2 out of a maximum of  124
 All quantities printed in internal units (Hartrees-Bohrs-Radians)
 Mixed Optimization -- RFO/linear search
 Update second derivatives using D2CorX and points    1    2
 DE= -2.98D-02 DEPred=-3.42D-02 R= 8.71D-01
 TightC=F SS=  1.41D+00  RLast= 3.30D-01 DXNew= 5.0454D-01 9.9117D-01
 Trust test= 8.71D-01 RLast= 3.30D-01 DXMaxT set to 5.05D-01
 ITU=  1  0
 Use linear search instead of GDIIS.
     Eigenvalues ---    0.00242   0.00555   0.00758   0.01000   0.01110
     Eigenvalues ---    0.01226   0.01483   0.01700   0.01819   0.01874
     Eigenvalues ---    0.01898   0.02175   0.02264   0.02360   0.02469
     Eigenvalues ---    0.02637   0.02806   0.05053   0.06620   0.07623
     Eigenvalues ---    0.12102   0.12655   0.14022   0.14907   0.15253
     Eigenvalues ---    0.15981   0.15982   0.16000   0.16000   0.16889
     Eigenvalues ---    0.20769   0.21931   0.22024   0.22433   0.22875
     Eigenvalues ---    0.23259   0.23471   0.23806   0.24712   0.24883
     Eigenvalues ---    0.24962   0.27600   0.29446   0.31510   0.32860
     Eigenvalues ---    0.33821   0.33923   0.34197   0.34277   0.34391
     Eigenvalues ---    0.34458   0.34947   0.35568   0.35757   0.36853
     Eigenvalues ---    0.38833   0.39166   0.41441   0.45497   0.46919
     Eigenvalues ---    0.51741   0.59830   0.74278
 RFO step:  Lambda=-3.68473025D-02 EMin= 2.42278081D-03
 Quartic linear search produced a step of  0.46193.
 Iteration  1 RMS(Cart)=  0.11659642 RMS(Int)=  0.00582184
 Iteration  2 RMS(Cart)=  0.00658366 RMS(Int)=  0.00143398
 Iteration  3 RMS(Cart)=  0.00003020 RMS(Int)=  0.00143377
 Iteration  4 RMS(Cart)=  0.00000009 RMS(Int)=  0.00143377
 Variable       Old X    -DE/DX   Delta X   Delta X   Delta X     New X
                                 (Linear)    (Quad)   (Total)
    R1        2.56025  -0.00554   0.01750  -0.01012   0.00751   2.56776
    R2        2.86306  -0.01949  -0.02416  -0.08028  -0.10463   2.75843
    R3        2.05146   0.00109   0.00307   0.00365   0.00672   2.05818
    R4        2.67335   0.02128   0.01998   0.05743   0.07758   2.75093
    R5        2.01341  -0.00061   0.01330  -0.00184   0.01147   2.02487
    R6        2.59585   0.02258   0.00653   0.05587   0.06296   2.65881
    R7        2.05190  -0.00043   0.00188  -0.00150   0.00038   2.05228
    R8        2.70220   0.00469  -0.00604   0.01482   0.00998   2.71218
    R9        3.25823   0.01127   0.01525   0.03896   0.05443   3.31266
   R10        2.51081  -0.00521   0.01237  -0.00900   0.00425   2.51505
   R11        2.00672  -0.00275   0.00422  -0.00866  -0.00443   2.00229
   R12        2.80589   0.00872   0.01931   0.02819   0.04752   2.85341
   R13        3.31107   0.01014   0.02056   0.03651   0.05723   3.36831
   R14        3.45803   0.00881   0.01346   0.03960   0.05276   3.51079
   R15        2.06881   0.00058   0.00139   0.00201   0.00341   2.07221
   R16        2.06528   0.00169   0.00340   0.00577   0.00917   2.07445
   R17        3.91061   0.02266   0.02499   0.08811   0.11244   4.02305
   R18        3.52318   0.02952   0.04293   0.13163   0.17408   3.69726
   R19        3.02993   0.00053  -0.00907   0.00187  -0.00776   3.02217
   R20        2.06495  -0.00108  -0.00176  -0.00377  -0.00553   2.05942
   R21        2.06576  -0.00110  -0.00208  -0.00381  -0.00589   2.05987
   R22        2.59612  -0.01015  -0.02564  -0.02940  -0.05556   2.54056
   R23        2.07648  -0.00412  -0.00730  -0.01481  -0.02211   2.05437
   R24        2.06790  -0.00270  -0.00310  -0.00950  -0.01260   2.05530
    A1        1.98708  -0.00369   0.02504  -0.02254   0.00241   1.98949
    A2        2.10468   0.01850   0.02236   0.11350   0.13419   2.23887
    A3        2.18680  -0.01508  -0.04755  -0.09662  -0.14414   2.04265
    A4        2.69710  -0.00164  -0.02622  -0.00741  -0.03471   2.66240
    A5        1.74385  -0.00025   0.03622  -0.00823   0.02839   1.77224
    A6        1.83439   0.00212  -0.00860   0.01844   0.01010   1.84449
    A7        1.96236   0.00620  -0.01822   0.04244   0.02638   1.98874
    A8        2.18732  -0.00238   0.01292  -0.01725  -0.00546   2.18187
    A9        2.13348  -0.00383   0.00529  -0.02531  -0.02121   2.11227
   A10        2.02887   0.00631  -0.02323   0.03877   0.01784   2.04671
   A11        2.12898   0.00581   0.02439   0.02177   0.04455   2.17353
   A12        2.12467  -0.01213  -0.00125  -0.06055  -0.06250   2.06217
   A13        2.38920   0.00855  -0.00120   0.03916   0.03632   2.42552
   A14        2.01306  -0.00548  -0.02870  -0.02043  -0.04833   1.96473
   A15        1.88090  -0.00307   0.02994  -0.01871   0.01204   1.89293
   A16        2.17269   0.00960   0.00799   0.03976   0.04646   2.21915
   A17        2.02409  -0.01268   0.00716  -0.05689  -0.04849   1.97560
   A18        2.08639   0.00306  -0.01516   0.01688   0.00097   2.08737
   A19        2.06083  -0.01083  -0.00798  -0.05777  -0.06622   1.99461
   A20        1.88200   0.00451   0.00851   0.02434   0.03313   1.91513
   A21        1.90931   0.00648   0.01233   0.04439   0.05620   1.96550
   A22        1.81053   0.00143  -0.00333  -0.00207  -0.00589   1.80464
   A23        1.88411   0.00218   0.00005   0.01351   0.01592   1.90003
   A24        1.91176  -0.00411  -0.01135  -0.02573  -0.03813   1.87362
   A25        1.94013   0.00017  -0.00275  -0.00021  -0.00463   1.93550
   A26        1.84899   0.00342   0.00206   0.01584   0.01644   1.86542
   A27        1.99262   0.00545   0.01802   0.01987   0.03817   2.03080
   A28        2.57308   0.00485  -0.01558   0.02666   0.01003   2.58310
   A29        1.68497   0.00137   0.02002   0.01560   0.03599   1.72096
   A30        1.70414   0.00033   0.01802   0.00542   0.02324   1.72739
   A31        1.75333  -0.00207  -0.00502  -0.00698  -0.01278   1.74055
   A32        1.77332  -0.00208  -0.00550  -0.01132  -0.01623   1.75710
   A33        1.94607  -0.00585  -0.02136  -0.06588  -0.08822   1.85785
   A34        2.70221   0.00174  -0.01199   0.00673  -0.00609   2.69613
   A35        1.68931  -0.00055   0.01069  -0.00239   0.00871   1.69802
   A36        1.89164  -0.00119   0.00130  -0.00440  -0.00272   1.88892
   A37        2.39857  -0.00015  -0.00632  -0.00208  -0.00961   2.38896
   A38        1.89166   0.00945   0.02727   0.05827   0.08466   1.97632
   A39        1.99270  -0.00936  -0.02105  -0.05762  -0.07905   1.91365
    D1        2.95443  -0.00504  -0.00366  -0.08224  -0.08768   2.86675
    D2       -0.37642  -0.00193   0.01795  -0.04637  -0.03014  -0.40656
    D3       -0.08924  -0.00120   0.00075  -0.01622  -0.01179  -0.10103
    D4        2.86309   0.00191   0.02236   0.01965   0.04575   2.90884
    D5       -0.09057  -0.00464  -0.01068  -0.11323  -0.12665  -0.21722
    D6        3.07827  -0.00109  -0.00292  -0.03795  -0.04084   3.03744
    D7        2.94773  -0.00645  -0.01039  -0.16885  -0.17636   2.77136
    D8       -0.16662  -0.00290  -0.00263  -0.09358  -0.09055  -0.25716
    D9       -2.88211   0.00594   0.01397   0.12476   0.13936  -2.74274
   D10        0.25220   0.00498   0.01240   0.10662   0.12006   0.37226
   D11        0.45264   0.00288  -0.00991   0.08939   0.08027   0.53291
   D12       -2.69624   0.00192  -0.01148   0.07126   0.06097  -2.63527
   D13        0.05976   0.00488   0.00781   0.10981   0.11923   0.17899
   D14       -3.04341   0.00541   0.01089   0.11124   0.12398  -2.91943
   D15       -3.07480   0.00580   0.00931   0.12727   0.13761  -2.93719
   D16        0.10521   0.00633   0.01238   0.12871   0.14237   0.24758
   D17       -3.01891   0.00439   0.00952   0.08503   0.09506  -2.92385
   D18        0.13179   0.00373   0.00440   0.08152   0.08600   0.21779
   D19        0.08437   0.00428   0.00694   0.08555   0.09304   0.17741
   D20       -3.04812   0.00362   0.00183   0.08204   0.08397  -2.96414
   D21       -3.09120   0.00014  -0.00034   0.00125   0.00079  -3.09042
   D22        0.09091   0.00027   0.00328   0.00048   0.00380   0.09470
   D23       -0.09413  -0.00396  -0.00653  -0.07039  -0.07747  -0.17159
   D24        3.04024  -0.00608  -0.00977  -0.10987  -0.12067   2.91957
   D25        3.03882  -0.00335  -0.00211  -0.06709  -0.06886   2.96996
   D26       -0.11000  -0.00547  -0.00535  -0.10657  -0.11207  -0.22207
   D27       -0.10277  -0.00175  -0.00571  -0.03669  -0.04473  -0.14750
   D28       -2.14512  -0.00018  -0.00292  -0.01599  -0.01973  -2.16485
   D29        2.06017  -0.00152  -0.00093  -0.02427  -0.02770   2.03247
   D30        3.04629   0.00051  -0.00237   0.00439   0.00112   3.04741
   D31        1.00394   0.00207   0.00042   0.02509   0.02612   1.03006
[...]
 9,0.00015779,-0.00018064,-0.00043322,-0.00078671,0.00123697,0.00003536
 ,0.00028583,-0.00080435,-0.00032343,-0.00012991,0.00021872,-0.00001038
 ,0.00005482,-0.00002826,0.00001227,-0.00003833,-0.00019067,0.00018880,
 0.00040791,0.00054967,-0.00012642,-0.00146284,-0.00048707,0.00055382,-
 0.00111895,-0.00341612,-0.00096899,0.01048897,-0.01791379,0.02294333,-
 0.04430033,0.14713388,-0.05403846,0.11346807,-0.20852851,-0.00722738,0
 .01629477,-0.02574367,0.00348745,0.00147910,0.00082776,-0.00055123,-0.
 00025443,0.00065844,0.00028388,-0.00063413,0.00015958,-0.00009757,0.00
 028958,0.00017550,0.00002593,-0.00011716,-0.00000971,-0.00006013,0.000
 08307,0.00000152,0.00003792,0.00023036,-0.00013180,0.00004457,-0.00019
 126,0.00005376,-0.00016889,-0.00022447,-0.00013811,0.00093192,-0.00053
 776,-0.00006674,0.00183168,-0.00523901,0.00639934,0.05926858,-0.123383
 51,0.23005531,0.00299224,-0.00295545,-0.01294981,-0.03751563,0.0270271
 1,-0.02380488,-0.00169720,-0.01366712,0.00551336,0.00419763,0.00106210
 ,-0.00213656,-0.00065442,0.00047738,-0.00024948,0.00073962,-0.00044239
 ,-0.00005536,0.00003661,0.00015856,-0.00035273,0.00002560,-0.00007419,
 -0.00003243,-0.00077183,-0.00072103,-0.00041193,0.00073390,0.00085955,
 -0.00003591,-0.00164210,-0.00051744,0.00019733,0.00164145,-0.00022352,
 0.00175277,-0.00738884,0.00088842,0.00131974,0.00952228,0.00055985,-0.
 00363144,0.02922025,-0.00335211,0.01091502,-0.01217944,0.01771167,-0.1
 2889920,0.12108478,-0.00212786,-0.01715765,0.02392505,0.00317486,-0.00
 260201,-0.00066342,-0.00030387,0.00015510,0.00022306,0.00035257,0.0000
 7293,0.00023836,-0.00026570,-0.00015853,0.00018848,-0.00020978,0.00024
 590,-0.00021019,-0.00122745,-0.00049868,-0.00115967,0.00002056,0.00002
 299,0.00008758,0.00041605,0.00038910,0.00022373,-0.00034494,0.00009076
 ,-0.00013227,0.00035211,0.00127244,-0.00032006,-0.00150773,-0.00067928
 ,-0.00274510,-0.01220752,0.13622703,-0.00552964,0.01767984,-0.02118876
 ,-0.02864526,0.10990596,-0.23260231,0.00121571,0.00143858,0.00430075,-
 0.00180939,-0.00077726,0.00142429,0.00036151,-0.00049187,-0.00003586,-
 0.00027492,0.00026914,0.00002048,-0.00004752,-0.00002531,0.00019131,0.
 00000473,0.00004917,-0.00009690,-0.00003069,0.00038266,-0.00025245,-0.
 00001087,-0.00013598,-0.00014323,-0.00003261,-0.00008954,-0.00023875,0
 .00021424,-0.00058727,-0.00017103,0.00015659,0.00149778,0.00166855,-0.
 00151740,-0.00281969,-0.00376799,0.03533417,-0.12751930,0.25076800,0.0
 0097569,-0.00173949,0.00108488,0.00458225,-0.00863635,-0.01018116,-0.0
 7683971,0.05230240,0.07922221,-0.01168973,0.01271858,0.02168086,-0.001
 67766,-0.00472972,0.00540608,0.00145241,-0.00040714,0.00058898,-0.0003
 2444,0.00021584,0.00033120,0.00016145,0.00050141,-0.00071173,-0.000219
 02,0.00227153,-0.00029315,-0.00003462,0.00033345,-0.00073335,0.0000320
 1,0.00040871,0.00002058,-0.00032589,0.00027599,-0.00024248,-0.00089524
 ,-0.00092385,-0.00040778,0.00074674,0.00018985,-0.00021582,0.00040862,
 -0.00023736,0.00037878,0.08358684,0.00072011,-0.00514172,0.00116254,0.
 00791331,-0.00961612,-0.02246861,0.05272545,-0.14142339,-0.11681109,-0
 .00315207,0.00949200,0.00798314,-0.00389985,0.00132920,-0.00274459,-0.
 00024256,0.00083330,0.00026253,0.00035053,0.00007487,-0.00040168,0.000
 09649,-0.00058278,0.00056308,0.00009528,-0.00016855,0.00074939,-0.0000
 8847,0.00043200,0.00041615,-0.00045407,-0.00042398,0.00007238,0.000152
 99,-0.00018656,0.00015343,-0.00193803,0.00029698,-0.00070670,0.0003840
 4,0.00014470,-0.00017561,-0.00052711,0.00069413,0.00090910,-0.05236557
 ,0.14513018,0.00154090,0.00012430,0.00204753,-0.00119122,-0.00346329,0
 .00012476,0.08786011,-0.11495604,-0.19590138,0.00262787,-0.01191663,-0
 .00861621,0.00430511,-0.00069808,0.00524595,0.00036070,-0.00140593,-0.
 00041951,-0.00060666,0.00005016,0.00042848,0.00016886,0.00043504,-0.00
 052769,-0.00006859,0.00202825,-0.00071150,0.00040549,-0.00015433,-0.00
 050175,0.00017078,0.00041065,0.00000169,-0.00037184,0.00023426,-0.0002
 9149,-0.00020990,-0.00073985,-0.00018549,0.00060377,0.00013454,-0.0001
 2783,0.00033190,-0.00115918,-0.00013838,-0.09562751,0.13095000,0.19962
 776,-0.00526536,-0.00371989,0.00234713,-0.00415873,0.00097708,0.003967
 55,-0.00161963,-0.00024359,-0.00048233,0.01045539,0.00956140,0.0067878
 8,-0.15736554,-0.11196003,-0.09522063,-0.02350728,-0.01893792,-0.01374
 675,-0.00259414,0.00305080,-0.00067237,0.00023925,0.00025319,-0.000320
 43,-0.00035918,0.00064945,0.00294789,-0.00013705,-0.00102434,0.0009091
 8,0.00009327,0.00077557,-0.00080657,0.00016796,0.00045719,0.00009754,-
 0.00046367,-0.00157898,-0.00027949,-0.00339663,-0.00042005,0.00016388,
 0.00020452,-0.00027757,-0.00037547,0.00000830,-0.00019537,-0.00035269,
 0.18908542,-0.00415671,-0.00068572,0.00140893,-0.00281512,0.00078697,0
 .00176463,-0.00150493,-0.00106371,0.00102230,-0.00994865,-0.01409638,-
 0.01268625,-0.11728176,-0.16325532,-0.10375378,0.00544422,0.00641262,0
 .00228264,0.00276518,0.00123641,-0.00569105,0.00082490,0.00014424,-0.0
 0003705,-0.00020823,-0.00215945,-0.00246106,0.00403782,-0.00080611,0.0
 0337096,0.00075978,-0.00071424,0.00088472,0.00042971,-0.00089849,0.000
 11035,-0.00160185,-0.00045012,0.00046651,-0.00055396,-0.00018231,0.000
 61304,0.00017755,0.00005419,-0.00000681,0.00030507,-0.00023845,0.00021
 087,0.12334136,0.17535263,0.00162799,0.00119761,0.00118977,0.00035712,
 -0.00099025,-0.00139920,0.00105583,0.00099233,-0.00010347,-0.01057165,
 -0.01359997,-0.00477509,-0.09366558,-0.09942578,-0.11590955,0.00413524
 ,-0.00032758,0.00361113,-0.00037574,-0.00241832,0.00940185,-0.00045618
 ,0.00037890,-0.00022077,0.00274167,-0.00101409,-0.00009724,-0.00117226
 ,0.00130698,-0.00327687,0.00037484,0.00031680,0.00033172,0.00028954,0.
 00037977,-0.00027388,-0.00010576,0.00052041,0.00017763,-0.00072219,-0.
 00025101,0.00058093,0.00027122,0.00012404,-0.00011524,-0.00027407,0.00
 046748,-0.00011276,0.09554442,0.11223734,0.11140841,-0.00016169,-0.000
 19161,0.00003492,0.00015476,0.00007325,0.00001879,0.00000456,0.0002675
 0,-0.00004368,0.00011829,-0.00013185,0.00065922,0.00071711,-0.00424185
 ,-0.00153108,-0.02373936,0.00165986,0.01091555,-0.21654165,0.01980153,
 0.12539627,-0.00450821,0.00322597,0.00262996,-0.00023364,0.00068874,-0
 .00049812,0.00080951,0.00032090,-0.00085697,-0.00030983,-0.00026779,0.
 00060533,0.00024366,-0.00000267,-0.00008671,-0.00003980,0.00027309,-0.
 00001927,0.00001299,-0.00004213,0.00001070,0.00001919,-0.00003935,-0.0
 0001206,-0.00001944,-0.00000181,0.00000375,-0.00053260,0.00086922,-0.0
 0070391,0.23758741,-0.00006018,0.00012756,0.00018030,-0.00021274,-0.00
 024639,-0.00024537,0.00056870,0.00085587,0.00032676,-0.00137460,-0.002
 22375,0.00007620,-0.00104578,-0.00283915,-0.00232254,-0.01814532,0.003
 13387,0.01211994,0.02497345,-0.04485811,-0.01796178,0.01785938,-0.0038
 7485,-0.01264294,0.00454651,-0.00435482,-0.00112138,-0.00036028,0.0009
 8189,-0.00003907,0.00026154,0.00006386,0.00035124,0.00004231,0.0000199
 3,-0.00019985,0.00004920,0.00007539,0.00005891,0.00004800,-0.00004907,
 0.00001711,0.00008399,0.00005828,-0.00000783,-0.00012007,-0.00008154,0
 .00007486,-0.00043230,0.00129611,-0.00099808,-0.02123396,0.05010853,-0
 .00006735,0.00007900,0.00005285,0.00003887,-0.00021086,-0.00002827,0.0
 0010844,0.00023540,-0.00007452,-0.00020287,0.00020897,0.00017276,-0.00
 031942,-0.00169395,-0.00109505,-0.01214903,0.00137602,0.00713431,0.122
 67750,-0.01499588,-0.12874215,-0.00187670,-0.00035523,0.00049114,-0.00
 043846,-0.00015829,0.00073030,0.00008328,0.00037132,0.00056199,0.00010
 917,-0.00002684,-0.00001735,-0.00006094,0.00002898,-0.00005924,0.00001
 819,-0.00003898,0.00001300,0.00001811,-0.00000801,0.00001010,0.0000536
 4,-0.00002119,-0.00001849,-0.00003888,0.00003546,-0.00007769,-0.000355
 00,0.00048200,-0.00053922,-0.13211291,0.01852318,0.13813517,0.00016322
 ,0.00004210,0.00009231,-0.00025084,0.00019559,0.00009154,-0.00002947,0
 .00005764,0.00030057,-0.00039627,-0.00068669,-0.00098485,-0.00121038,-
 0.00106808,-0.00111070,-0.00888899,0.00221429,-0.02333426,-0.05807436,
 0.00952448,-0.06496440,-0.00146407,0.00637757,-0.00438927,0.00083699,-
 0.00060056,-0.00055720,-0.00001786,0.00049091,0.00055246,-0.00005836,-
 0.00017744,-0.00020804,-0.00010224,-0.00000989,0.00003656,0.00003211,0
 .00003541,0.00003070,0.00001022,-0.00003384,0.00002175,-0.00009392,-0.
 00000454,0.00003961,-0.00006644,-0.00000024,0.00003855,-0.00059113,-0.
 00091644,0.00173536,0.00631146,-0.00554178,0.02450685,0.06396348,0.000
 18594,0.00004357,0.00001389,0.00003855,0.00040134,0.00032851,-0.000560
 14,0.00024740,0.00035372,0.00061380,-0.00052206,-0.00073914,-0.0004028
 0,-0.00008405,-0.00132766,-0.00560590,0.00477522,-0.01683225,0.0117557
 6,-0.04578272,0.04940600,0.00759586,-0.01822296,0.02150148,-0.00202359
 ,0.00207787,-0.00036281,0.00010546,0.00008636,0.00049499,0.00015739,0.
 00000241,-0.00004183,-0.00011916,-0.00000961,-0.00009900,0.00011255,0.
 00004488,-0.00000481,0.00002596,-0.00002190,0.00000792,-0.00014502,-0.
 00005950,0.00004354,-0.00009866,0.00000890,-0.00001777,-0.00048268,-0.
 00069830,0.00141948,-0.00106449,0.00183240,-0.00377239,-0.00993322,0.0
 5592782,-0.00006936,-0.00000299,0.00009041,-0.00002664,0.00000264,-0.0
 0006225,0.00017485,0.00024567,-0.00000167,-0.00012953,0.00049756,-0.00
 042494,0.00122795,-0.00105205,-0.00057145,-0.00530018,-0.00028244,-0.0
 0637283,-0.05998210,0.04775858,-0.28455300,0.00171868,-0.00046125,0.00
 212490,-0.00135418,0.00017279,0.00163707,0.00004983,0.00017830,0.00044
 690,-0.00004277,-0.00016081,-0.00002823,-0.00004741,-0.00003227,-0.000
 00930,0.00001931,0.00004251,0.00002649,0.00002064,-0.00001516,0.000004
 87,0.00000695,-0.00001109,0.00000846,-0.00001228,-0.00000550,0.0000056
 5,-0.00015042,-0.00027484,0.00050232,-0.00431852,0.00387430,-0.0166635
 3,0.06821703,-0.05039974,0.30397019,0.00063136,-0.00048167,-0.00051850
 ,-0.00032726,-0.00053885,-0.00042119,0.00070465,-0.00012605,-0.0003277
 9,-0.00058637,0.00123733,0.00013305,0.00001238,-0.00164926,0.00016350,
 -0.00119460,-0.00119428,0.00334802,0.00021469,-0.00020038,0.00007571,-
 0.00011047,-0.00019124,-0.00014703,0.00002902,0.00008430,0.00004862,0.
 00274713,-0.01622046,0.00589160,-0.10950068,0.11112555,-0.05015636,-0.
 01801517,0.02051314,-0.01100738,-0.00142788,-0.00258881,-0.00259214,-0
 .00016850,0.00011604,0.00002757,0.00018718,0.00013338,-0.00008033,0.00
 013265,0.00006928,0.00006830,-0.00002995,-0.00019437,0.00015472,0.0000
 2932,0.00000987,-0.00000988,0.00002506,-0.00003906,0.00000645,0.130456
 04,0.00023840,-0.00009275,-0.00005941,-0.00035061,-0.00006163,-0.00018
 333,0.00024591,-0.00011852,-0.00019490,-0.00047311,0.00070920,0.000393
 30,-0.00099957,-0.00128214,0.00112854,0.00022554,-0.00217676,0.0006708
 2,0.00028604,-0.00004614,0.00026102,-0.00008258,-0.00013121,-0.0001492
 7,-0.00002772,0.00000445,-0.00001263,0.00057727,-0.00864021,0.00419290
 ,0.11476468,-0.20734228,0.07211626,-0.00826403,0.00839540,-0.00678457,
 -0.00143838,-0.00064345,-0.00033943,0.00001293,0.00011819,-0.00003788,
 0.00017201,-0.00000336,0.00006574,0.00005692,0.00001769,0.00001450,-0.
 00001547,0.00004988,-0.00028870,0.00000430,-0.00003768,0.00000445,-0.0
 0003305,0.00000287,-0.00006015,-0.11357149,0.22361046,0.00058080,-0.00
 049191,-0.00040452,-0.00022697,0.00056681,0.00040772,-0.00040127,-0.00
 016612,0.00022517,0.00036680,-0.00054887,-0.00020596,-0.00003350,0.000
 40452,0.00039232,0.00121861,0.00015550,-0.00204381,-0.00008651,0.00012
 942,-0.00009434,0.00006086,0.00012599,0.00009911,0.00002574,0.00002184
 ,0.00000022,-0.00001555,0.01472060,-0.00580192,-0.05737355,0.07154419,
 -0.08165053,-0.01045846,0.01291719,-0.00429438,-0.00191401,-0.00171378
 ,-0.00104499,0.00008681,0.00007147,-0.00001622,-0.00005752,-0.00008307
 ,0.00013075,-0.00002240,-0.00002147,-0.00001877,0.00002461,0.00010537,
 -0.00003109,-0.00002319,-0.00001772,0.00001498,-0.00003902,0.00001960,
 -0.00002328,0.05677194,-0.07924336,0.08251070,-0.00031433,0.00032686,-
 0.00083231,-0.00105267,0.00081259,0.00022771,0.00011289,0.00013292,0.0
 0017822,0.00031306,0.00003235,-0.00002587,0.00076045,-0.00007194,-0.00
 053847,0.00016079,0.00236960,-0.00031316,-0.00006461,-0.00012428,-0.00
 012814,-0.00003788,0.00003750,0.00001377,-0.00000610,-0.00000824,-0.00
 009252,-0.00984349,0.00263285,0.01436530,-0.05144118,0.04038882,0.0385
 9618,0.00580972,-0.01865474,-0.02091477,0.00064364,-0.00106728,0.00133
 238,0.00040398,0.00042527,0.00005952,-0.00059700,0.00003154,0.00052261
 ,-0.00001997,0.00001146,-0.00002805,-0.00010294,0.00009174,-0.00017336
 ,0.00005245,0.00008447,0.00001870,-0.00013257,-0.00013819,-0.00001853,
 -0.00329334,0.00901357,0.01171884,0.06255718,0.00028364,-0.00001532,-0
 .00040109,0.00119949,-0.00051554,-0.00020285,0.00049915,-0.00004577,0.
 00000316,0.00022692,-0.00030788,-0.00029276,0.00061877,-0.00033114,-0.
 00006770,-0.00205990,0.00241911,0.00203181,-0.00029678,0.00002137,0.00
 051466,-0.00006166,-0.00007219,0.00000779,0.00005015,0.00004207,0.0000
 2754,-0.00964160,-0.00049639,0.01331387,0.04088892,-0.15832641,-0.1381
 0033,-0.00068519,-0.00641775,-0.00636532,0.00093962,0.00035984,0.00068
 038,-0.00033619,0.00004936,0.00014505,0.00022865,-0.00007958,0.0001399
 3,-0.00003370,0.00004767,-0.00003957,0.00008490,-0.00033468,0.00022991
 ,0.00005771,0.00003437,-0.00005883,0.00008832,0.00002327,0.00000413,0.
 00451830,-0.01323014,-0.01854735,-0.03494410,0.17659416,0.00048086,-0.
 00036323,-0.00057428,0.00049286,0.00003254,0.00046543,0.00002026,0.000
 09424,0.00011581,-0.00018661,0.00035872,0.00005923,-0.00130867,0.00040
 736,0.00058016,0.00030752,-0.00334691,0.00140763,0.00022813,0.00024041
 ,0.00010676,-0.00003674,-0.00008168,-0.00012625,-0.00008005,-0.0000746
 4,-0.00002203,0.01144356,-0.00100014,-0.01410066,0.03109842,-0.1416075
 1,-0.20237009,0.00458377,-0.01069145,-0.00843914,0.00011830,0.00069073
 ,0.00050026,-0.00023162,0.00009075,0.00005193,0.00033214,-0.00023089,0
 .00013640,0.00002907,-0.00005976,-0.00000286,-0.00010327,0.00019456,-0
 .00039523,-0.00007454,-0.00008513,-0.00002234,-0.00008823,-0.00002086,
 -0.00009816,-0.00296307,0.00798519,0.01083219,-0.04180155,0.14806210,0
 .21147674,-0.00287165,0.00138078,-0.00326080,-0.00038369,-0.00022089,-
 0.00073228,0.00047546,0.00004028,0.00007576,-0.00032374,0.00017507,0.0
 0017681,0.00004406,-0.00017182,0.00015849,0.00014877,0.00000135,0.0001
 8568,0.00002027,0.00005162,0.00000374,-0.00000318,0.00000678,-0.000010
 42,0.00009726,0.00007943,0.00001106,-0.00012666,0.00010577,-0.00002616
 ,0.00223122,-0.02316353,-0.01510241,-0.05555759,0.02538506,0.01071545,
 -0.00496815,0.02967776,0.01226491,-0.00006505,0.00133889,0.00025886,0.
 00002075,-0.00001482,0.00018448,0.00000582,0.00011174,-0.00000524,-0.0
 0011770,0.00002804,-0.00001167,0.00002425,-0.00000011,0.00000135,0.000
 02585,0.00002371,0.00000469,0.00083602,0.00013117,0.00053652,-0.003832
 91,-0.00154055,-0.00222108,0.06431436,0.00314766,0.00250493,-0.0054025
 9,0.00035998,-0.00053164,0.00049596,-0.00089915,0.00003815,0.00017610,
 0.00016271,-0.00014767,-0.00004903,0.00005773,0.00003283,-0.00017955,0
 .00006457,-0.00002962,0.00009675,-0.00001327,0.00005185,-0.00006653,-0
 .00001979,-0.00001309,0.00000430,-0.00007416,-0.00014629,-0.00001285,-
 0.00041981,0.00004808,0.00044174,0.00365981,-0.00722437,-0.00523061,0.
 02817838,-0.26710239,-0.11413723,0.00161449,-0.01073276,-0.00675960,-0
 .00000881,0.00073159,0.00028090,0.00025507,-0.00013694,0.00003797,0.00
 003019,-0.00002305,0.00000551,-0.00002184,0.00009581,-0.00010432,0.000
 00310,0.00000303,0.00000448,-0.00000378,-0.00002776,-0.00000370,-0.000
 55329,0.00119647,0.00011653,-0.00120651,0.00059501,-0.00064375,-0.0330
 7567,0.28133085,-0.00257144,-0.00245750,0.01125670,-0.00042445,0.00138
 290,-0.00010678,0.00111665,-0.00027853,-0.00018393,-0.00006721,0.00031
 706,-0.00008399,-0.00019787,0.00010658,0.00025649,-0.00029283,-0.00006
 969,0.00003780,0.00011324,-0.00006175,0.00011279,-0.00002614,-0.000053
 07,-0.00002804,0.00010551,0.00015459,-0.00000985,-0.00002217,-0.000504
 29,-0.00068409,-0.00137206,-0.01223990,-0.00484056,0.01387230,-0.11442
 787,-0.09455217,-0.00467155,-0.00016374,0.00245901,0.00037681,-0.00190
 488,-0.00073288,-0.00040031,0.00014334,-0.00006147,-0.00003226,-0.0000
 0993,-0.00000784,0.00004491,-0.00007914,0.00001133,0.00001299,0.000007
 19,0.00000358,0.00001489,0.00002776,-0.00000297,0.00053416,-0.00004143
 ,0.00048357,-0.00305113,-0.00105515,0.00025477,-0.00546706,0.12741079,
 0.09135344,0.00827286,0.00535139,0.00515868,0.00006014,0.00118758,0.00
 036649,-0.00053259,0.00044338,0.00037776,-0.00019372,-0.00002916,0.000
 10170,0.00016803,-0.00020059,-0.00010470,-0.00001570,0.00018276,0.0001
 4256,0.00002498,0.00001941,0.00001234,-0.00001287,-0.00002015,-0.00000
 430,-0.00001138,-0.00004738,0.00001606,0.00047067,0.00013952,0.0000183
 5,-0.00091251,0.00497653,-0.00206635,-0.02288230,-0.01512108,-0.016991
 92,-0.17582930,-0.09064389,-0.09891696,0.00007680,-0.00034179,-0.00046
 328,0.00041111,-0.00007213,-0.00004628,0.00001937,0.00023446,-0.000024
 40,-0.00001258,0.00010742,-0.00005559,0.00000124,-0.00000032,-0.000002
 64,0.00000852,-0.00000207,0.00000553,-0.00135128,-0.00047273,-0.000739
 59,-0.00007518,-0.00008486,-0.00003949,0.00000624,-0.00123761,0.002405
 03,0.19230949,-0.01803095,-0.01043197,-0.01836215,0.00010515,-0.004465
 84,0.00127875,0.00107649,-0.00009234,-0.00130855,0.00033167,-0.0000276
 2,0.00020178,-0.00001793,0.00005486,-0.00015587,0.00019676,-0.00020879
 ,0.00016999,-0.00010201,0.00005715,-0.00011313,-0.00004412,0.00011046,
 0.00001611,-0.00006471,-0.00013667,-0.00009766,0.00114312,0.00049809,0
 .00046166,0.00295559,0.00223327,-0.00431741,0.01161815,0.00795695,0.00
 502722,-0.09440101,-0.12364387,-0.07436833,0.00105958,0.00068648,0.000
 63133,-0.00046945,0.00007686,0.00004144,-0.00031802,-0.00061548,-0.000
 12228,0.00015910,0.00015445,-0.00015293,-0.00002767,-0.00002572,-0.000
 00881,-0.00001677,-0.00004547,-0.00001450,-0.00025800,-0.00029834,-0.0
 0006538,-0.00017627,-0.00001344,0.00004935,-0.00035004,-0.00051300,0.0
 0379664,0.09563132,0.12868998,-0.00451768,-0.00886180,-0.00481201,-0.0
 0032800,-0.00064586,0.00274873,0.00054568,-0.00113629,-0.00054245,0.00
 056310,0.00027827,-0.00035131,-0.00045125,0.00020686,0.00013468,-0.000
 00583,-0.00014843,-0.00019773,0.00003846,-0.00000602,0.00007975,0.0000
 4375,-0.00010644,-0.00002577,-0.00006644,0.00003252,-0.00002067,-0.001
 54720,-0.00049910,-0.00045074,-0.00191413,-0.00400638,0.00847579,0.000
 44370,-0.00398269,0.00230872,-0.10655883,-0.07129555,-0.11368133,-0.00
 031736,-0.00103904,0.00028442,-0.00099488,0.00019646,0.00018188,0.0000
 5023,-0.00031975,0.00015930,0.00003043,-0.00016424,0.00003454,-0.00000
 653,0.00003173,0.00001767,-0.00000220,0.00000136,-0.00000568,0.0010000
 2,0.00056234,0.00053308,0.00088466,-0.00002938,0.00016371,0.00225931,0
 .00351873,-0.00493491,0.11085099,0.08741272,0.10990033\\0.00001707,-0.
 00001254,-0.00000338,0.00000555,0.00003922,0.00005117,-0.00000690,-0.0
 0005565,-0.00008208,0.00002028,0.00004736,0.00004256,0.00000609,-0.000
 01500,0.00000972,-0.00006359,0.00001151,-0.00003003,-0.00000263,0.0000
 0883,0.00000166,0.00001009,-0.00002438,-0.00001510,-0.00002930,0.00001
 832,0.00000340,-0.00004103,-0.00007003,0.00006375,0.00008521,0.0000837
 5,-0.00008622,-0.00002495,-0.00000164,-0.00000431,0.00000852,-0.000000
 26,0.00001226,0.00000042,-0.00000672,-0.00000907,-0.00000816,-0.000012
 63,-0.00001224,0.00000390,-0.00000651,0.00002360,0.00001737,0.00000198
 ,0.00001665,0.00000777,-0.00000575,0.00000491,0.00001721,-0.00000158,-
 0.00000063,-0.00000252,-0.00000196,0.00000365,-0.00001840,0.00000607,0
 .00001505,-0.00000108,0.00000081,-0.00000043,-0.00000092,-0.00000319,-
 0.00000489\\\@


 TO ERR IS HUMAN - AND TO BLAME IT ON A COMPUTER IS EVEN MORE SO.
 Job cpu time:       0 days  5 hours  7 minutes 22.4 seconds.
 Elapsed time:       0 days  1 hours 16 minutes 51.4 seconds.
 File lengths (MBytes):  RWF=    360 Int=      0 D2E=      0 Chk=     16 Scr=      1
 Normal termination of Gaussian 16 at Fri May 19 22:32:44 2023.
### All Done ###
