### Starting Gaussian ###
 Entering Gaussian System, Link 0=g16
 Initial command:
 /cluster/software/gaussian/gaussian-16-A.03/avx2/g16/l1.exe "/local/scratch/cz9n3/Gau-17005.inp" -scrdir="/local/scratch/cz9n3/"
 Entering Link 1 = /cluster/software/gaussian/gaussian-16-A.03/avx2/g16/l1.exe PID=     17006.
  
 Copyright (c) 1988,1990,1992,1993,1995,1998,2003,2009,2016,
            Gaussian, Inc.  All Rights Reserved.
  
 This is part of the Gaussian(R) 16 program.  It is based on
 the Gaussian(R) 09 system (copyright 2009, Gaussian, Inc.),
 the Gaussian(R) 03 system (copyright 2003, Gaussian, Inc.),
 the Gaussian(R) 98 system (copyright 1998, Gaussian, Inc.),
 the Gaussian(R) 94 system (copyright 1995, Gaussian, Inc.),
 the Gaussian 92(TM) system (copyright 1992, Gaussian, Inc.),
 the Gaussian 90(TM) system (copyright 1990, Gaussian, Inc.),
 the Gaussian 88(TM) system (copyright 1988, Gaussian, Inc.),
 the Gaussian 86(TM) system (copyright 1986, Carnegie Mellon
 University), and the Gaussian 82(TM) system (copyright 1983,
 Carnegie Mellon University). Gaussian is a federally registered
 trademark of Gaussian, Inc.
  
 This software contains proprietary and confidential information,
 including trade secrets, belonging to Gaussian, Inc.
  
 This software is provided under written license and may be
 used, copied, transmitted, or stored only in accord with that
 written license.
  
 The following legend is applicable only to US Government
 contracts under FAR:
  
                    RESTRICTED RIGHTS LEGEND
  
 Use, reproduction and disclosure by the US Government is
 subject to restrictions as set forth in subparagraphs (a)
 and (c) of the Commercial Computer Software - Restricted
 Rights clause in FAR 52.227-19.
  
 Gaussian, Inc.
 340 Quinnipiac St., Bldg. 40, Wallingford CT 06492
  
  
 ---------------------------------------------------------------
 Warning -- This program may not be used in any manner that
 competes with the business of Gaussian, Inc. or will provide
 assistance to any competitor of Gaussian, Inc.  The licensee
 of this program is prohibited from giving any competitor of
 Gaussian, Inc. access to this program.  By using this program,
 the user acknowledges that Gaussian, Inc. is engaged in the
 business of creating and licensing software in the field of
 computational chemistry and represents and warrants to the
 licensee that it is not a competitor of Gaussian, Inc. and that
 it will not use this program in any manner prohibited above.
 ---------------------------------------------------------------
  

 Cite this work as:
 Gaussian 16, Revision A.03,
 M. J. Frisch, G. W. Trucks, H. B. Schlegel, G. E. Scuseria, 
 M. A. Robb, J. R. Cheeseman, G. Scalmani, V. Barone, 
 G. A. Petersson, H. Nakatsuji, X. Li, M. Caricato, A. V. Marenich, 
 J. Bloino, B. G. Janesko, R. Gomperts, B. Mennucci, H. P. Hratchian, 
 J. V. Ortiz, A. F. Izmaylov, J. L. Sonnenberg, D. Williams-Young, 
 F. Ding, F. Lipparini, F. Egidi, J. Goings, B. Peng, A. Petrone, 
 T. Henderson, D. Ranasinghe, V. G. Zakrzewski, J. Gao, N. Rega, 
 G. Zheng, W. Liang, M. Hada, M. Ehara, K. Toyota, R. Fukuda, 
 J. Hasegawa, M. Ishida, T. Nakajima, Y. Honda, O. Kitao, H. Nakai, 
 T. Vreven, K. Throssell, J. A. Montgomery, Jr., J. E. Peralta, 
 F. Ogliaro, M. J. Bearpark, J. J. Heyd, E. N. Brothers, K. N. Kudin, 
 V. N. Staroverov, T. A. Keith, R. Kobayashi, J. Normand, 
 K. Raghavachari, A. P. Rendell, J. C. Burant, S. S. Iyengar, 
 J. Tomasi, M. Cossi, J. M. Millam, M. Klene, C. Adamo, R. Cammi, 
 J. W. Ochterski, R. L. Martin, K. Morokuma, O. Farkas, 
 J. B. Foresman, and D. J. Fox, Gaussian, Inc., Wallingford CT, 2016.
 
 ******************************************
 Gaussian 16:  ES64L-G16RevA.03 25-Dec-2016
                16-May-2023 
 ******************************************
 %chk=C1dCOC2dCS2dc2nc3cqcc2-3rdC1.chk
 %NProcShared=20
 Will use up to   20 processors via shared memory.
 -----------------------------
 # opt freq b3lyp/6-31g(2df,p)
 -----------------------------
 1/18=20,19=15,26=3,38=1/1,3;
 2/9=110,12=2,17=6,18=5,40=1/2;
 3/5=1,6=6,7=104,11=2,25=1,30=1,71=1,74=-5/1,2,3;
 4//1;
 5/5=2,38=5/2;
 6/7=2,8=2,9=2,10=2,28=1/1;
 7//1,2,3,16;
 1/18=20,19=15,26=3/3(2);
 2/9=110/2;
 99//99;
 2/9=110/2;
 3/5=1,6=6,7=104,11=2,25=1,30=1,71=1,74=-5/1,2,3;
 4/5=5,16=3,69=1/1;
 5/5=2,38=5/2;
 7//1,2,3,16;
 1/18=20,19=15,26=3/3(-5);
 2/9=110/2;
 6/7=2,8=2,9=2,10=2,19=2,28=1/1;
 99/9=1/99;
 -------------------
 Title Card Required
 -------------------
 Symbolic Z-matrix:
 Charge =  0 Multiplicity = 1
 C                     0.89108  -0.20194   0.0305 
 C                     2.13008   0.07651  -0.3177 
 O                     2.82408   1.02267  -0.92206 
 C                     4.14861   0.81502  -0.79368 
 C                     5.22254   1.23158  -1.293 
 S                     5.49406   0.12706   0.1194 
 C                     4.40952  -0.95718   1.00936 
 N                     4.0173   -2.23726   0.70082 
 C                     3.2961   -2.29346   1.75869 
 C                     1.84007  -1.89114   1.7241 
 C                     2.3718   -1.05551   2.81111 
 C                     3.64416  -0.96426   2.30996 
 C                     0.80658  -1.36475   0.95048 
 H                     0.0779    0.42498  -0.30733 
 H                     2.76793  -0.70792  -0.07578 
 H                     5.49035   1.98244  -2.03748 
 H                     1.8344   -0.61438   3.64736 
 H                    -0.20148  -1.38427   1.37498 
 

 GradGradGradGradGradGradGradGradGradGradGradGradGradGradGradGradGradGrad
 Berny optimization.
 Initialization pass.
                           ----------------------------
                           !    Initial Parameters    !
                           ! (Angstroms and Degrees)  !
 --------------------------                            --------------------------
 ! Name  Definition              Value          Derivative Info.                !
 --------------------------------------------------------------------------------
 ! R1    R(1,2)                  1.3168         estimate D2E/DX2                !
 ! R2    R(1,13)                 1.4851         estimate D2E/DX2                !
 ! R3    R(1,14)                 1.0809         estimate D2E/DX2                !
 ! R4    R(2,3)                  1.3199         estimate D2E/DX2                !
 ! R5    R(2,15)                 1.0396         estimate D2E/DX2                !
 ! R6    R(3,4)                  1.3468         estimate D2E/DX2                !
 ! R7    R(4,5)                  1.2555         estimate D2E/DX2                !
 ! R8    R(4,6)                  1.7656         estimate D2E/DX2                !
 ! R9    R(5,6)                  1.8134         estimate D2E/DX2                !
 ! R10   R(5,16)                 1.0908         estimate D2E/DX2                !
 ! R11   R(6,7)                  1.7731         estimate D2E/DX2                !
 ! R12   R(7,8)                  1.3739         estimate D2E/DX2                !
 ! R13   R(7,12)                 1.5091         estimate D2E/DX2                !
 ! R14   R(8,9)                  1.2816         estimate D2E/DX2                !
 ! R15   R(9,10)                 1.511          estimate D2E/DX2                !
 ! R16   R(9,12)                 1.4805         estimate D2E/DX2                !
 ! R17   R(10,11)                1.4706         estimate D2E/DX2                !
 ! R18   R(10,13)                1.3942         estimate D2E/DX2                !
 ! R19   R(11,12)                1.3705         estimate D2E/DX2                !
 ! R20   R(11,17)                1.0875         estimate D2E/DX2                !
 ! R21   R(13,18)                1.094          estimate D2E/DX2                !
 ! A1    A(2,1,13)             112.5141         estimate D2E/DX2                !
 ! A2    A(2,1,14)             120.1702         estimate D2E/DX2                !
 ! A3    A(13,1,14)            127.2219         estimate D2E/DX2                !
 ! A4    A(1,2,3)              140.1222         estimate D2E/DX2                !
 ! A5    A(1,2,15)             110.8688         estimate D2E/DX2                !
 ! A6    A(3,2,15)             108.9566         estimate D2E/DX2                !
 ! A7    A(2,3,4)              111.28           estimate D2E/DX2                !
 ! A8    A(3,4,5)              138.7791         estimate D2E/DX2                !
 ! A9    A(3,4,6)              149.1816         estimate D2E/DX2                !
 ! A10   A(4,5,16)             135.2257         estimate D2E/DX2                !
 ! A11   A(6,5,16)             156.0789         estimate D2E/DX2                !
 ! A12   A(4,6,7)               91.8182         estimate D2E/DX2                !
 ! A13   A(5,6,7)              132.2056         estimate D2E/DX2                !
 ! A14   A(6,7,8)              129.1708         estimate D2E/DX2                !
 ! A15   A(6,7,12)             138.2162         estimate D2E/DX2                !
 ! A16   A(8,7,12)              92.5441         estimate D2E/DX2                !
 ! A17   A(7,8,9)               90.9247         estimate D2E/DX2                !
 ! A18   A(8,9,10)             120.778          estimate D2E/DX2                !
 ! A19   A(8,9,12)              97.7986         estimate D2E/DX2                !
 ! A20   A(10,9,12)             89.7718         estimate D2E/DX2                !
 ! A21   A(9,10,11)             77.6402         estimate D2E/DX2                !
 ! A22   A(9,10,13)            145.8503         estimate D2E/DX2                !
 ! A23   A(11,10,13)           117.6235         estimate D2E/DX2                !
 ! A24   A(10,11,12)            95.9249         estimate D2E/DX2                !
 ! A25   A(10,11,17)           128.3308         estimate D2E/DX2                !
 ! A26   A(12,11,17)           135.4728         estimate D2E/DX2                !
 ! A27   A(7,12,9)              78.6111         estimate D2E/DX2                !
 ! A28   A(7,12,11)            141.8395         estimate D2E/DX2                !
 ! A29   A(9,12,11)             81.8435         estimate D2E/DX2                !
 ! A30   A(1,13,10)            126.6684         estimate D2E/DX2                !
 ! A31   A(1,13,18)            107.8648         estimate D2E/DX2                !
 ! A32   A(10,13,18)           117.4535         estimate D2E/DX2                !
 ! D1    D(13,1,2,3)          -168.7839         estimate D2E/DX2                !
 ! D2    D(13,1,2,15)           14.2968         estimate D2E/DX2                !
 ! D3    D(14,1,2,3)             7.9412         estimate D2E/DX2                !
 ! D4    D(14,1,2,15)         -168.9781         estimate D2E/DX2                !
 ! D5    D(2,1,13,10)           19.2354         estimate D2E/DX2                !
 ! D6    D(2,1,13,18)          166.7853         estimate D2E/DX2                !
 ! D7    D(14,1,13,10)        -157.2087         estimate D2E/DX2                !
 ! D8    D(14,1,13,18)          -9.6588         estimate D2E/DX2                !
 ! D9    D(1,2,3,4)            170.3738         estimate D2E/DX2                !
 ! D10   D(15,2,3,4)           -12.6698         estimate D2E/DX2                !
 ! D11   D(2,3,4,5)            166.375          estimate D2E/DX2                !
 ! D12   D(2,3,4,6)            -26.5313         estimate D2E/DX2                !
 ! D13   D(3,4,5,16)             2.4623         estimate D2E/DX2                !
 ! D14   D(3,4,6,7)             18.1218         estimate D2E/DX2                !
 ! D15   D(4,5,6,16)          -163.5338         estimate D2E/DX2                !
 ! D16   D(16,5,6,7)           175.9847         estimate D2E/DX2                !
 ! D17   D(4,6,7,8)             90.6888         estimate D2E/DX2                !
 ! D18   D(4,6,7,12)           -93.2187         estimate D2E/DX2                !
 ! D19   D(5,6,7,8)             82.5459         estimate D2E/DX2                !
 ! D20   D(5,6,7,12)          -101.3616         estimate D2E/DX2                !
 ! D21   D(6,7,8,9)           -179.8656         estimate D2E/DX2                !
 ! D22   D(12,7,8,9)             2.7396         estimate D2E/DX2                !
 ! D23   D(6,7,12,9)          -179.3871         estimate D2E/DX2                !
 ! D24   D(6,7,12,11)          119.9914         estimate D2E/DX2                !
 ! D25   D(8,7,12,9)            -2.4186         estimate D2E/DX2                !
 ! D26   D(8,7,12,11)          -63.04           estimate D2E/DX2                !
 ! D27   D(7,8,9,10)            91.5941         estimate D2E/DX2                !
 ! D28   D(7,8,9,12)            -2.8159         estimate D2E/DX2                !
 ! D29   D(8,9,10,11)         -125.8309         estimate D2E/DX2                !
 ! D30   D(8,9,10,13)           -4.3301         estimate D2E/DX2                !
 ! D31   D(12,9,10,11)         -26.8813         estimate D2E/DX2                !
 ! D32   D(12,9,10,13)          94.6195         estimate D2E/DX2                !
 ! D33   D(8,9,12,7)             2.6147         estimate D2E/DX2                !
 ! D34   D(8,9,12,11)          149.6645         estimate D2E/DX2                !
 ! D35   D(10,9,12,7)         -118.4463         estimate D2E/DX2                !
 ! D36   D(10,9,12,11)          28.6036         estimate D2E/DX2                !
 ! D37   D(9,10,11,12)          29.4085         estimate D2E/DX2                !
 ! D38   D(9,10,11,17)        -155.8747         estimate D2E/DX2                !
 ! D39   D(13,10,11,12)       -117.8938         estimate D2E/DX2                !
 ! D40   D(13,10,11,17)         56.8231         estimate D2E/DX2                !
 ! D41   D(9,10,13,1)          -43.5419         estimate D2E/DX2                !
 ! D42   D(9,10,13,18)         171.593          estimate D2E/DX2                !
 ! D43   D(11,10,13,1)          66.4032         estimate D2E/DX2                !
 ! D44   D(11,10,13,18)        -78.4619         estimate D2E/DX2                !
 ! D45   D(10,11,12,7)          30.0122         estimate D2E/DX2                !
 ! D46   D(10,11,12,9)         -29.6393         estimate D2E/DX2                !
 ! D47   D(17,11,12,7)        -144.0757         estimate D2E/DX2                !
 ! D48   D(17,11,12,9)         156.2727         estimate D2E/DX2                !
 --------------------------------------------------------------------------------
 Trust Radius=3.00D-01 FncErr=1.00D-07 GrdErr=1.00D-06 EigMax=2.50D+02 EigMin=1.00D-04
 Number of steps in this run=    108 maximum allowed number of steps=    108.
 GradGradGradGradGradGradGradGradGradGradGradGradGradGradGradGradGradGrad

                          Input orientation:                          
 ---------------------------------------------------------------------
 Center     Atomic      Atomic             Coordinates (Angstroms)
 Number     Number       Type             X           Y           Z
 ---------------------------------------------------------------------
      1          6           0        0.891080   -0.201940    0.030500
      2          6           0        2.130080    0.076510   -0.317700
      3          8           0        2.824080    1.022670   -0.922060
      4          6           0        4.148610    0.815020   -0.793680
      5          6           0        5.222540    1.231580   -1.293000
      6         16           0        5.494060    0.127060    0.119400
      7          6           0        4.409520   -0.957180    1.009360
      8          7           0        4.017300   -2.237260    0.700820
      9          6           0        3.296100   -2.293460    1.758690
     10          6           0        1.840070   -1.891140    1.724100
     11          6           0        2.371800   -1.055510    2.811110
     12          6           0        3.644160   -0.964260    2.309960
     13          6           0        0.806580   -1.364750    0.950480
     14          1           0        0.077900    0.424980   -0.307330
     15          1           0        2.767930   -0.707920   -0.075780
     16          1           0        5.490350    1.982440   -2.037480
     17          1           0        1.834400   -0.614380    3.647360
     18          1           0       -0.201480   -1.384270    1.374980
 ---------------------------------------------------------------------
                    Distance matrix (angstroms):
                    1          2          3          4          5
     1  C    0.000000
     2  C    1.316776   0.000000
     3  O    2.478614   1.319889   0.000000
     4  C    3.510695   2.201458   1.346841   0.000000
     5  C    4.750598   3.442195   2.435950   1.255455   0.000000
     6  S    4.615579   3.392635   3.002590   1.765571   1.813439
     7  C    3.729340   2.832923   3.188073   2.541598   3.279106
     8  N    3.790133   3.154761   3.832057   3.401057   4.178609
     9  C    3.625633   3.359726   4.290215   4.111449   5.044788
    10  C    2.573375   2.850386   4.057182   4.357967   5.504124
    11  C    3.263879   3.336068   4.296504   4.432882   5.495563
    12  C    3.654657   3.206281   3.881543   3.612878   4.504921
    13  C    1.485137   2.331773   3.643691   4.354613   5.592391
    14  H    1.080935   2.081582   2.876913   4.118173   5.299950
    15  H    1.946761   1.039571   1.927248   2.177385   3.356843
    16  H    5.495575   4.228667   3.045376   2.170294   1.090763
    17  H    3.760537   4.035648   4.953685   5.207839   6.268510
    18  H    2.097431   3.230358   4.497084   5.335096   6.586409
                    6          7          8          9         10
     6  S    0.000000
     7  C    1.773086   0.000000
     8  N    2.847609   1.373913   0.000000
     9  C    3.657488   1.893896   1.281553   0.000000
    10  C    4.472118   2.825811   2.430480   1.510987   0.000000
    11  C    4.288622   2.721815   2.925325   1.869342   1.470580
    12  C    3.067843   1.509101   2.085448   1.480479   2.111180
    13  C    4.988854   3.626397   3.336514   2.777304   1.394158
    14  H    5.441107   4.733600   4.860325   4.692032   3.549136
    15  H    2.857809   1.983552   2.122007   2.481568   2.345315
    16  H    2.845098   4.369530   5.241568   6.124456   6.517565
    17  H    5.137056   3.702404   4.010098   2.919409   2.308479
    18  H    6.024929   4.645149   4.356626   3.634133   2.132306
                   11         12         13         14         15
    11  C    0.000000
    12  C    1.370539   0.000000
    13  C    2.451018   3.171819   0.000000
    14  H    4.144695   4.636637   2.305687   0.000000
    15  H    2.934599   2.554456   2.309010   2.928027   0.000000
    16  H    6.516389   5.567018   6.486084   5.891835   4.300916
    17  H    1.087524   2.277342   2.982051   4.450296   3.839531
    18  H    2.965185   3.979892   1.093968   2.486284   3.373359
                   16         17         18
    16  H    0.000000
    17  H    7.240639   0.000000
    18  H    7.441542   3.146625   0.000000
 Stoichiometry    C10H5NOS
 Framework group  C1[X(C10H5NOS)]
 Deg. of freedom    48
 Full point group                 C1      NOp   1
 Largest Abelian subgroup         C1      NOp   1
 Largest concise Abelian subgroup C1      NOp   1
                         Standard orientation:                         
 ---------------------------------------------------------------------
 Center     Atomic      Atomic             Coordinates (Angstroms)
 Number     Number       Type             X           Y           Z
 ---------------------------------------------------------------------
      1          6           0       -1.383168    2.104670   -0.080328
      2          6           0       -0.182820    1.565752   -0.131618
      3          8           0        1.071826    1.858027    0.155691
      4          6           0        1.861562    0.771406    0.057953
      5          6           0        3.085223    0.494372    0.012421
      6         16           0        2.040714   -0.983778    0.124836
      7          6           0        0.294698   -1.225878   -0.066598
      8          7           0       -0.438279   -1.385129   -1.217693
      9          6           0       -1.520342   -1.489222   -0.538957
     10          6           0       -2.359946   -0.271360   -0.230806
     11          6           0       -2.132033   -0.842750    1.104924
     12          6           0       -0.918914   -1.408972    0.811473
     13          6           0       -2.461906    1.115387   -0.331868
     14          1           0       -1.499828    3.147475    0.179225
     15          1           0       -0.218428    0.623198   -0.568690
     16          1           0        4.011539    1.067422    0.069993
     17          1           0       -2.733575   -0.720123    2.002598
     18          1           0       -3.411918    1.573726   -0.041750
 ---------------------------------------------------------------------
 Rotational constants (GHZ):           1.3764256           0.7673548           0.5511032
 Standard basis: 6-31G(2df,p) (6D, 7F)
 There are   432 symmetry adapted cartesian basis functions of A   symmetry.
 There are   393 symmetry adapted basis functions of A   symmetry.
   393 basis functions,   631 primitive gaussians,   432 cartesian basis functions
    48 alpha electrons       48 beta electrons
       nuclear repulsion energy       834.4511579370 Hartrees.
 NAtoms=   18 NActive=   18 NUniq=   18 SFac= 1.00D+00 NAtFMM=   60 NAOKFM=F Big=F
 Integral buffers will be    131072 words long.
 Raffenetti 2 integral format.
 Two-electron integral symmetry is turned on.
 One-electron integrals computed using PRISM.
 PrsmSu:  requested number of processors reduced to:  13 ShMem   1 Linda.
 NBasis=   393 RedAO= T EigKep=  1.70D-04  NBF=   393
 NBsUse=   393 1.00D-06 EigRej= -1.00D+00 NBFU=   393
 ExpMin= 1.17D-01 ExpMax= 2.19D+04 ExpMxC= 3.30D+03 IAcc=3 IRadAn=         5 AccDes= 0.00D+00
 Harris functional with IExCor=  402 and IRadAn=       5 diagonalized for initial guess.
 HarFok:  IExCor=  402 AccDes= 0.00D+00 IRadAn=         5 IDoV= 1 UseB2=F ITyADJ=14
 ICtDFT=  3500011 ScaDFX=  1.000000  1.000000  1.000000  1.000000
 FoFCou: FMM=F IPFlag=           0 FMFlag=      100000 FMFlg1=           0
         NFxFlg=           0 DoJE=T BraDBF=F KetDBF=T FulRan=T
         wScrn=  0.000000 ICntrl=       500 IOpCl=  0 I1Cent=   200000004 NGrid=           0
         NMat0=    1 NMatS0=      1 NMatT0=    0 NMatD0=    1 NMtDS0=    0 NMtDT0=    0
 Petite list used in FoFCou.
 Requested convergence on RMS density matrix=1.00D-08 within 128 cycles.
 Requested convergence on MAX density matrix=1.00D-06.
 Requested convergence on             energy=1.00D-06.
 No special actions if energy rises.
 Integral accuracy reduced to 1.0D-05 until final iterations.
 EnCoef did     4 forward-backward iterations
 EnCoef did     5 forward-backward iterations
 EnCoef did    12 forward-backward iterations
 EnCoef did     6 forward-backward iterations
 EnCoef did     3 forward-backward iterations
 Initial convergence to 1.0D-05 achieved.  Increase integral accuracy.
 SCF Done:  E(RB3LYP) =  -911.576150171     A.U. after   25 cycles
            NFock= 25  Conv=0.75D-08     -V/T= 2.0041

 **********************************************************************

            Population analysis using the SCF density.

 **********************************************************************

 Orbital symmetries:
       Occupied  (A) (A) (A) (A) (A) (A) (A) (A) (A) (A) (A) (A)
                 (A) (A) (A) (A) (A) (A) (A) (A) (A) (A) (A) (A)
                 (A) (A) (A) (A) (A) (A) (A) (A) (A) (A) (A) (A)
                 (A) (A) (A) (A) (A) (A) (A) (A) (A) (A) (A) (A)
       Virtual   (A) (A) (A) (A) (A) (A) (A) (A) (A) (A) (A) (A)
                 (A) (A) (A) (A) (A) (A) (A) (A) (A) (A) (A) (A)
                 (A) (A) (A) (A) (A) (A) (A) (A) (A) (A) (A) (A)
                 (A) (A) (A) (A) (A) (A) (A) (A) (A) (A) (A) (A)
                 (A) (A) (A) (A) (A) (A) (A) (A) (A) (A) (A) (A)
                 (A) (A) (A) (A) (A) (A) (A) (A) (A) (A) (A) (A)
                 (A) (A) (A) (A) (A) (A) (A) (A) (A) (A) (A) (A)
                 (A) (A) (A) (A) (A) (A) (A) (A) (A) (A) (A) (A)
                 (A) (A) (A) (A) (A) (A) (A) (A) (A) (A) (A) (A)
                 (A) (A) (A) (A) (A) (A) (A) (A) (A) (A) (A) (A)
                 (A) (A) (A) (A) (A) (A) (A) (A) (A) (A) (A) (A)
                 (A) (A) (A) (A) (A) (A) (A) (A) (A) (A) (A) (A)
                 (A) (A) (A) (A) (A) (A) (A) (A) (A) (A) (A) (A)
                 (A) (A) (A) (A) (A) (A) (A) (A) (A) (A) (A) (A)
                 (A) (A) (A) (A) (A) (A) (A) (A) (A) (A) (A) (A)
                 (A) (A) (A) (A) (A) (A) (A) (A) (A) (A) (A) (A)
                 (A) (A) (A) (A) (A) (A) (A) (A) (A) (A) (A) (A)
                 (A) (A) (A) (A) (A) (A) (A) (A) (A) (A) (A) (A)
                 (A) (A) (A) (A) (A) (A) (A) (A) (A) (A) (A) (A)
                 (A) (A) (A) (A) (A) (A) (A) (A) (A) (A) (A) (A)
                 (A) (A) (A) (A) (A) (A) (A) (A) (A) (A) (A) (A)
                 (A) (A) (A) (A) (A) (A) (A) (A) (A) (A) (A) (A)
                 (A) (A) (A) (A) (A) (A) (A) (A) (A) (A) (A) (A)
                 (A) (A) (A) (A) (A) (A) (A) (A) (A) (A) (A) (A)
                 (A) (A) (A) (A) (A) (A) (A) (A) (A) (A) (A) (A)
                 (A) (A) (A) (A) (A) (A) (A) (A) (A) (A) (A) (A)
                 (A) (A) (A) (A) (A) (A) (A) (A) (A) (A) (A) (A)
                 (A) (A) (A) (A) (A) (A) (A) (A) (A) (A) (A) (A)
                 (A) (A) (A) (A) (A) (A) (A) (A) (A)
 The electronic state is 1-A.
 Alpha  occ. eigenvalues --  -88.93761 -19.25654 -14.32543 -10.26362 -10.26083
 Alpha  occ. eigenvalues --  -10.25007 -10.24061 -10.23894 -10.23738 -10.23307
 Alpha  occ. eigenvalues --  -10.23172 -10.21014 -10.19443  -7.98764  -5.95291
 Alpha  occ. eigenvalues --   -5.94880  -5.94521  -1.15620  -1.02266  -0.90643
 Alpha  occ. eigenvalues --   -0.87871  -0.83862  -0.75164  -0.71076  -0.67937
 Alpha  occ. eigenvalues --   -0.62476  -0.61282  -0.60602  -0.56753  -0.52472
 Alpha  occ. eigenvalues --   -0.52042  -0.49729  -0.48997  -0.46127  -0.45844
 Alpha  occ. eigenvalues --   -0.44977  -0.42195  -0.40871  -0.37974  -0.36511
 Alpha  occ. eigenvalues --   -0.36020  -0.34612  -0.30594  -0.26488  -0.23931
 Alpha  occ. eigenvalues --   -0.21175  -0.19643  -0.17512
 Alpha virt. eigenvalues --   -0.13795  -0.08023  -0.05850   0.00287   0.01059
 Alpha virt. eigenvalues --    0.02649   0.04634   0.09373   0.10288   0.11439
 Alpha virt. eigenvalues --    0.13352   0.13929   0.15972   0.18017   0.18718
 Alpha virt. eigenvalues --    0.21554   0.22179   0.23086   0.23990   0.25195
 Alpha virt. eigenvalues --    0.26462   0.29544   0.32312   0.33704   0.34506
 Alpha virt. eigenvalues --    0.35499   0.35968   0.38437   0.40413   0.40831
 Alpha virt. eigenvalues --    0.41223   0.41688   0.42954   0.44237   0.44889
 Alpha virt. eigenvalues --    0.45362   0.46020   0.47160   0.48399   0.50234
 Alpha virt. eigenvalues --    0.51417   0.52807   0.53395   0.54857   0.56070
 Alpha virt. eigenvalues --    0.56724   0.57710   0.58216   0.59132   0.60745
 Alpha virt. eigenvalues --    0.62432   0.63581   0.64247   0.64897   0.66396
 Alpha virt. eigenvalues --    0.67133   0.67447   0.69490   0.71273   0.71590
 Alpha virt. eigenvalues --    0.72766   0.73176   0.73613   0.75076   0.75797
 Alpha virt. eigenvalues --    0.78507   0.78922   0.79674   0.81237   0.82545
 Alpha virt. eigenvalues --    0.82811   0.85138   0.85923   0.87357   0.89549
 Alpha virt. eigenvalues --    0.90397   0.91791   0.93078   0.93794   0.94697
 Alpha virt. eigenvalues --    0.95141   0.96427   0.99025   0.99840   1.00311
 Alpha virt. eigenvalues --    1.03666   1.05239   1.07310   1.07928   1.09543
 Alpha virt. eigenvalues --    1.12187   1.14008   1.15653   1.17948   1.19773
 Alpha virt. eigenvalues --    1.21806   1.23542   1.24360   1.26852   1.28330
 Alpha virt. eigenvalues --    1.31103   1.32775   1.34010   1.34145   1.36574
 Alpha virt. eigenvalues --    1.37211   1.38254   1.39583   1.42364   1.42774
 Alpha virt. eigenvalues --    1.44812   1.46001   1.46325   1.47962   1.50447
 Alpha virt. eigenvalues --    1.51998   1.53571   1.55518   1.57200   1.58124
 Alpha virt. eigenvalues --    1.59615   1.60245   1.62050   1.62978   1.64159
 Alpha virt. eigenvalues --    1.65419   1.69293   1.70224   1.71778   1.73087
 Alpha virt. eigenvalues --    1.73614   1.74738   1.75131   1.79896   1.82200
 Alpha virt. eigenvalues --    1.83017   1.85199   1.86341   1.86923   1.89466
 Alpha virt. eigenvalues --    1.92294   1.92667   1.94141   1.97461   2.00689
 Alpha virt. eigenvalues --    2.03891   2.07343   2.08094   2.09468   2.13379
 Alpha virt. eigenvalues --    2.15481   2.18619   2.22194   2.22887   2.26405
 Alpha virt. eigenvalues --    2.28587   2.30398   2.31991   2.33853   2.35144
 Alpha virt. eigenvalues --    2.40339   2.41496   2.44310   2.47526   2.48781
 Alpha virt. eigenvalues --    2.52661   2.55003   2.56466   2.59334   2.60745
 Alpha virt. eigenvalues --    2.62447   2.66116   2.70706   2.72805   2.73435
 Alpha virt. eigenvalues --    2.75401   2.77451   2.79977   2.80761   2.85526
 Alpha virt. eigenvalues --    2.86787   2.88379   2.90035   2.92832   2.94126
 Alpha virt. eigenvalues --    2.94994   2.96863   2.99144   3.00770   3.01627
 Alpha virt. eigenvalues --    3.03822   3.05435   3.07115   3.07845   3.09937
 Alpha virt. eigenvalues --    3.11568   3.12494   3.13788   3.15369   3.16740
 Alpha virt. eigenvalues --    3.18004   3.20208   3.21478   3.22367   3.23447
 Alpha virt. eigenvalues --    3.24902   3.26365   3.27196   3.28135   3.31048
 Alpha virt. eigenvalues --    3.31826   3.33113   3.34496   3.36413   3.38784
 Alpha virt. eigenvalues --    3.40241   3.41040   3.44941   3.46479   3.49075
 Alpha virt. eigenvalues --    3.49755   3.50257   3.54241   3.54545   3.56237
 Alpha virt. eigenvalues --    3.59723   3.64094   3.65589   3.66467   3.67297
 Alpha virt. eigenvalues --    3.73072   3.77087   3.78425   3.80494   3.82582
 Alpha virt. eigenvalues --    3.85247   3.86591   3.88379   3.91721   3.95144
 Alpha virt. eigenvalues --    3.99613   4.00598   4.02099   4.03992   4.07724
 Alpha virt. eigenvalues --    4.09898   4.13564   4.15208   4.16081   4.16609
 Alpha virt. eigenvalues --    4.20829   4.24218   4.26328   4.27211   4.28280
 Alpha virt. eigenvalues --    4.29341   4.31704   4.32757   4.33510   4.35315
 Alpha virt. eigenvalues --    4.39472   4.40241   4.41571   4.43491   4.43799
 Alpha virt. eigenvalues --    4.45797   4.49716   4.50534   4.51722   4.51938
 Alpha virt. eigenvalues --    4.52504   4.54458   4.55436   4.57860   4.57908
 Alpha virt. eigenvalues --    4.58561   4.60243   4.61881   4.63012   4.66037
 Alpha virt. eigenvalues --    4.68894   4.70148   4.71091   4.72792   4.76620
 Alpha virt. eigenvalues --    4.77615   4.80286   4.80628   4.83241   4.85483
 Alpha virt. eigenvalues --    4.86056   4.87754   4.91775   4.92862   4.95902
 Alpha virt. eigenvalues --    4.97996   5.00629   5.03711   5.06797   5.10099
 Alpha virt. eigenvalues --    5.11811   5.16118   5.18205   5.21051   5.22609
 Alpha virt. eigenvalues --    5.25160   5.28749   5.30500   5.34481   5.35618
 Alpha virt. eigenvalues --    5.39071   5.41603   5.46485   5.48266   5.50138
 Alpha virt. eigenvalues --    5.54432   5.56524   5.62919   5.67975   5.69851
 Alpha virt. eigenvalues --    5.74404   5.75875   5.80954   5.85623   5.92684
 Alpha virt. eigenvalues --    5.99495   6.07958   6.27687   6.37212   6.50016
 Alpha virt. eigenvalues --    6.73771   7.16776  10.13853  10.45685  10.60514
 Alpha virt. eigenvalues --   11.09009  11.33905  11.51130  11.62032  11.71257
 Alpha virt. eigenvalues --   11.84777  12.11474  12.29025  13.61434  19.16137
          Condensed to atoms (all electrons):
               1          2          3          4          5          6
     1  C    5.067476   0.526145   0.001007  -0.006043  -0.001133  -0.000082
     2  C    0.526145   4.611206   0.432035  -0.088733  -0.003033  -0.005368
     3  O    0.001007   0.432035   7.553293   0.322665  -0.057473  -0.034429
     4  C   -0.006043  -0.088733   0.322665   4.630070   0.653880   0.256872
     5  C   -0.001133  -0.003033  -0.057473   0.653880   5.431391   0.040330
     6  S   -0.000082  -0.005368  -0.034429   0.256872   0.040330  15.646688
     7  C    0.005863   0.016903   0.004555  -0.080442   0.003870   0.151706
     8  N    0.000340  -0.014893   0.000399   0.002114  -0.000309  -0.022257
     9  C   -0.012705  -0.006532   0.000565   0.000408  -0.000016   0.006882
    10  C   -0.018969   0.005682   0.000245  -0.000485  -0.000012   0.001105
    11  C   -0.008538   0.003015  -0.000207   0.000578   0.000015   0.001155
    12  C    0.007705   0.003629  -0.000646   0.000927  -0.000100  -0.019823
    13  C    0.461836  -0.004508   0.000800   0.001634   0.000031   0.000505
    14  H    0.352319  -0.028366  -0.003737  -0.000239  -0.000006   0.000005
    15  H   -0.072748   0.354429  -0.057860   0.014292   0.004834   0.009832
    16  H   -0.000006  -0.000038  -0.007739  -0.052805   0.298652   0.008900
    17  H   -0.000910  -0.000197  -0.000002   0.000008   0.000000   0.000083
    18  H   -0.058670   0.002577  -0.000024   0.000001  -0.000000   0.000012
               7          8          9         10         11         12
     1  C    0.005863   0.000340  -0.012705  -0.018969  -0.008538   0.007705
     2  C    0.016903  -0.014893  -0.006532   0.005682   0.003015   0.003629
     3  O    0.004555   0.000399   0.000565   0.000245  -0.000207  -0.000646
     4  C   -0.080442   0.002114   0.000408  -0.000485   0.000578   0.000927
     5  C    0.003870  -0.000309  -0.000016  -0.000012   0.000015  -0.000100
     6  S    0.151706  -0.022257   0.006882   0.001105   0.001155  -0.019823
     7  C    5.327435   0.395252  -0.231085  -0.021505  -0.007274   0.457727
     8  N    0.395252   6.420897   0.536353  -0.061284  -0.007438  -0.115447
     9  C   -0.231085   0.536353   5.118982   0.443557  -0.112808   0.218334
    10  C   -0.021505  -0.061284   0.443557   4.920113   0.387498  -0.092343
    11  C   -0.007274  -0.007438  -0.112808   0.387498   4.969358   0.536698
    12  C    0.457727  -0.115447   0.218334  -0.092343   0.536698   5.148063
    13  C    0.001950  -0.002502  -0.012707   0.474573  -0.037696  -0.010023
    14  H   -0.000040  -0.000050  -0.000025   0.002950   0.000050  -0.000068
    15  H   -0.008756   0.010137   0.007095   0.004433  -0.005747  -0.015031
    16  H   -0.001153   0.000007  -0.000000  -0.000000   0.000000   0.000005
    17  H    0.000578  -0.001497   0.014310  -0.066637   0.342225  -0.046434
    18  H   -0.000222  -0.000156   0.004286  -0.040987  -0.001202  -0.001212
              13         14         15         16         17         18
     1  C    0.461836   0.352319  -0.072748  -0.000006  -0.000910  -0.058670
     2  C   -0.004508  -0.028366   0.354429  -0.000038  -0.000197   0.002577
     3  O    0.000800  -0.003737  -0.057860  -0.007739  -0.000002  -0.000024
     4  C    0.001634  -0.000239   0.014292  -0.052805   0.000008   0.000001
     5  C    0.000031  -0.000006   0.004834   0.298652   0.000000  -0.000000
     6  S    0.000505   0.000005   0.009832   0.008900   0.000083   0.000012
     7  C    0.001950  -0.000040  -0.008756  -0.001153   0.000578  -0.000222
     8  N   -0.002502  -0.000050   0.010137   0.000007  -0.001497  -0.000156
     9  C   -0.012707  -0.000025   0.007095  -0.000000   0.014310   0.004286
    10  C    0.474573   0.002950   0.004433  -0.000000  -0.066637  -0.040987
    11  C   -0.037696   0.000050  -0.005747   0.000000   0.342225  -0.001202
    12  C   -0.010023  -0.000068  -0.015031   0.000005  -0.046434  -0.001212
    13  C    5.014758  -0.039304  -0.017677   0.000001   0.003382   0.353165
    14  H   -0.039304   0.582043   0.007590  -0.000001   0.000030  -0.001842
    15  H   -0.017677   0.007590   0.610915   0.000072   0.000286   0.000872
    16  H    0.000001  -0.000001   0.000072   0.617617   0.000000   0.000000
    17  H    0.003382   0.000030   0.000286   0.000000   0.636581   0.002415
    18  H    0.353165  -0.001842   0.000872   0.000000   0.002415   0.619233
 Mulliken charges:
               1
     1  C   -0.242886
     2  C    0.196047
     3  O   -0.153448
     4  C    0.345296
     5  C   -0.370919
     6  S   -0.042117
     7  C   -0.015363
     8  N   -0.139665
     9  C    0.025107
    10  C    0.062066
    11  C   -0.059683
    12  C   -0.071963
    13  C   -0.188218
    14  H    0.128690
    15  H    0.153034
    16  H    0.136489
    17  H    0.115779
    18  H    0.121754
 Sum of Mulliken charges =  -0.00000
 Mulliken charges with hydrogens summed into heavy atoms:
               1
     1  C   -0.114197
     2  C    0.349081
     3  O   -0.153448
     4  C    0.345296
     5  C   -0.234430
     6  S   -0.042117
     7  C   -0.015363
     8  N   -0.139665
     9  C    0.025107
    10  C    0.062066
    11  C    0.056096
    12  C   -0.071963
    13  C   -0.066464
 Electronic spatial extent (au):  <R**2>=           2008.6587
 Charge=             -0.0000 electrons
 Dipole moment (field-independent basis, Debye):
    X=             -1.2548    Y=              3.6047    Z=              1.5701  Tot=              4.1272
 Quadrupole moment (field-independent basis, Debye-Ang):
   XX=            -71.8517   YY=            -78.5418   ZZ=            -83.2434
   XY=             -0.5695   XZ=             -3.3071   YZ=             -0.9963
 Traceless Quadrupole moment (field-independent basis, Debye-Ang):
   XX=              6.0273   YY=             -0.6628   ZZ=             -5.3645
   XY=             -0.5695   XZ=             -3.3071   YZ=             -0.9963
 Octapole moment (field-independent basis, Debye-Ang**2):
  XXX=             13.8005  YYY=             26.5533  ZZZ=              7.6166  XYY=             -2.9466
  XXY=             18.3174  XXZ=              7.7722  XZZ=              1.3130  YZZ=              7.4958
  YYZ=              2.2053  XYZ=              1.6027
 Hexadecapole moment (field-independent basis, Debye-Ang**3):
 XXXX=          -1557.9591 YYYY=           -832.9237 ZZZZ=           -237.1593 XXXY=             18.2399
 XXXZ=            -20.3204 YYYX=            -26.7779 YYYZ=              9.9566 ZZZX=            -11.1700
 ZZZY=             -2.0586 XXYY=           -411.0892 XXZZ=           -313.3376 YYZZ=           -196.3176
 XXYZ=              2.1077 YYXZ=             -6.0557 ZZXY=              7.2714
 N-N= 8.344511579370D+02 E-N=-3.809223217304D+03  KE= 9.078533406580D+02
 PrsmSu:  requested number of processors reduced to:  13 ShMem   1 Linda.
 Calling FoFJK, ICntrl=      2127 FMM=F ISym2X=0 I1Cent= 0 IOpClX= 0 NMat=1 NMatS=1 NMatT=0.
 ***** Axes restored to original set *****
 -------------------------------------------------------------------
 Center     Atomic                   Forces (Hartrees/Bohr)
 Number     Number              X              Y              Z
 -------------------------------------------------------------------
      1        6          -0.034512757   -0.032043837    0.026160714
      2        6           0.051151911   -0.017672956   -0.010931573
      3        8          -0.014047079    0.026288213   -0.000798558
      4        6          -0.056967137    0.000546868    0.013325557
      5        6           0.058393650    0.074040810   -0.082657592
      6       16           0.005750693   -0.018532464    0.055381522
      7        6           0.027287614   -0.036581205    0.057750092
      8        7           0.052688353   -0.024979921   -0.066872895
      9        6          -0.105322382   -0.050761092   -0.075708701
     10        6           0.086615237   -0.045145204    0.044090760
     11        6          -0.025138593    0.059626068    0.041828137
     12        6           0.003061953    0.047584145    0.028965140
     13        6          -0.055137724    0.051046573   -0.031788933
     14        1          -0.012457521   -0.005521348    0.008709785
     15        1           0.016623474   -0.021295514    0.004154989
     16        1           0.003734693   -0.010212859   -0.011060914
     17        1          -0.002035855    0.011555688   -0.003606467
     18        1           0.000311469   -0.007941965    0.003058936
 -------------------------------------------------------------------
 Cartesian Forces:  Max     0.105322382 RMS     0.041002352

 GradGradGradGradGradGradGradGradGradGradGradGradGradGradGradGradGradGrad
 Berny optimization.
 FormGI is forming the generalized inverse of G from B-inverse, IUseBI=4.
 Internal  Forces:  Max     0.075285163 RMS     0.022017315
 Search for a local minimum.
 Step number   1 out of a maximum of  108
 All quantities printed in internal units (Hartrees-Bohrs-Radians)
 Mixed Optimization -- RFO/linear search
 Second derivative matrix not updated -- first step.
 ITU=  0
     Eigenvalues ---    0.00529   0.00937   0.01361   0.01500   0.01887
     Eigenvalues ---    0.02012   0.02155   0.02196   0.02369   0.02638
     Eigenvalues ---    0.03030   0.03074   0.03754   0.04210   0.09852
     Eigenvalues ---    0.11394   0.14217   0.14889   0.15088   0.15829
     Eigenvalues ---    0.15976   0.15997   0.18600   0.19620   0.22173
     Eigenvalues ---    0.22850   0.23465   0.24072   0.24512   0.27501
     Eigenvalues ---    0.27751   0.28109   0.29310   0.33334   0.33679
     Eigenvalues ---    0.34358   0.34725   0.35100   0.35882   0.41357
     Eigenvalues ---    0.44304   0.45042   0.46045   0.54266   0.59605
     Eigenvalues ---    0.62204   0.64562   0.76489
 RFO step:  Lambda=-1.21322629D-01 EMin= 5.29298759D-03
 Linear search not attempted -- first point.
 Maximum step size (   0.300) exceeded in Quadratic search.
    -- Step size scaled by   0.626
 Iteration  1 RMS(Cart)=  0.04917978 RMS(Int)=  0.00141784
 Iteration  2 RMS(Cart)=  0.00149858 RMS(Int)=  0.00065828
 Iteration  3 RMS(Cart)=  0.00000136 RMS(Int)=  0.00065827
 Iteration  4 RMS(Cart)=  0.00000000 RMS(Int)=  0.00065827
 Variable       Old X    -DE/DX   Delta X   Delta X   Delta X     New X
                                 (Linear)    (Quad)   (Total)
    R1        2.48835   0.06735   0.00000   0.05956   0.05953   2.54788
    R2        2.80650  -0.04324   0.00000  -0.05619  -0.05621   2.75029
    R3        2.04267   0.00345   0.00000   0.00449   0.00449   2.04717
    R4        2.49423   0.02947   0.00000   0.02772   0.02771   2.52193
    R5        1.96450   0.02724   0.00000   0.03188   0.03188   1.99638
    R6        2.54516   0.01208   0.00000   0.01414   0.01413   2.55929
    R7        2.37247   0.07529   0.00000   0.05433   0.05457   2.42704
    R8        3.33644   0.01665   0.00000   0.02467   0.02448   3.36092
    R9        3.42690   0.07359   0.00000   0.12076   0.12080   3.54770
   R10        2.06124   0.00144   0.00000   0.00192   0.00192   2.06316
   R11        3.35065   0.02907   0.00000   0.03955   0.03957   3.39022
   R12        2.59632   0.03074   0.00000   0.02504   0.02626   2.62258
   R13        2.85179   0.00716   0.00000   0.00126   0.00124   2.85302
   R14        2.42178   0.05688   0.00000   0.04480   0.04503   2.46681
   R15        2.85535  -0.02915   0.00000  -0.05036  -0.05044   2.80491
   R16        2.79770   0.06141   0.00000   0.09691   0.09527   2.89297
   R17        2.77899   0.03436   0.00000   0.04244   0.04354   2.82253
   R18        2.63458   0.03048   0.00000   0.03064   0.03062   2.66519
   R19        2.58994   0.01344   0.00000   0.01119   0.01052   2.60047
   R20        2.05512   0.00292   0.00000   0.00387   0.00387   2.05899
   R21        2.06730   0.00104   0.00000   0.00140   0.00140   2.06870
    A1        1.96374   0.00977   0.00000   0.02098   0.02095   1.98470
    A2        2.09736   0.01100   0.00000   0.02471   0.02465   2.12201
    A3        2.22044  -0.02101   0.00000  -0.04665  -0.04668   2.17376
    A4        2.44559  -0.02967   0.00000  -0.05535  -0.05524   2.39035
    A5        1.93502   0.01531   0.00000   0.02874   0.02867   1.96370
    A6        1.90165   0.01444   0.00000   0.02690   0.02683   1.92848
    A7        1.94220  -0.00392   0.00000   0.00463   0.00467   1.94687
    A8        2.42215   0.01452   0.00000   0.01780   0.01786   2.44001
    A9        2.60371  -0.02870   0.00000  -0.05192  -0.05164   2.55207
   A10        2.36013   0.01346   0.00000   0.01595   0.01528   2.37541
   A11        2.72409   0.01446   0.00000   0.02277   0.02268   2.74677
   A12        1.60253   0.00307   0.00000   0.01015   0.01106   1.61359
   A13        2.30742   0.01433   0.00000   0.00408   0.00401   2.31143
   A14        2.25446  -0.01364   0.00000  -0.01842  -0.01833   2.23613
   A15        2.41233  -0.01973   0.00000  -0.03301  -0.03406   2.37826
   A16        1.61520   0.03385   0.00000   0.05411   0.05357   1.66877
   A17        1.58693  -0.02395   0.00000  -0.03075  -0.03081   1.55613
   A18        2.10797   0.03704   0.00000   0.09409   0.09457   2.20255
   A19        1.70691   0.00059   0.00000   0.00651   0.00639   1.71330
   A20        1.56681  -0.00959   0.00000  -0.01790  -0.01917   1.54764
   A21        1.35508   0.03464   0.00000   0.07014   0.06980   1.42488
   A22        2.54557  -0.00984   0.00000  -0.03178  -0.03219   2.51337
   A23        2.05292  -0.03173   0.00000  -0.05655  -0.05612   1.99679
   A24        1.67421  -0.01840   0.00000  -0.02482  -0.02623   1.64798
   A25        2.23980   0.01305   0.00000   0.02043   0.02078   2.26057
   A26        2.36445   0.00654   0.00000   0.00746   0.00803   2.37247
   A27        1.37202  -0.01062   0.00000  -0.03022  -0.02951   1.34251
   A28        2.47557   0.01891   0.00000   0.03442   0.03350   2.50907
   A29        1.42844   0.01372   0.00000   0.03649   0.03583   1.46427
   A30        2.21078  -0.01955   0.00000  -0.04429  -0.04403   2.16675
   A31        1.88260   0.01665   0.00000   0.03964   0.03971   1.92231
   A32        2.04995   0.00215   0.00000   0.00557   0.00556   2.05551
    D1       -2.94583   0.00575   0.00000   0.02203   0.02184  -2.92399
    D2        0.24953   0.00254   0.00000   0.01210   0.01219   0.26172
    D3        0.13860   0.00088   0.00000   0.00359   0.00326   0.14186
    D4       -2.94923  -0.00233   0.00000  -0.00635  -0.00639  -2.95562
    D5        0.33572  -0.00371   0.00000  -0.01494  -0.01437   0.32135
    D6        2.91095  -0.00214   0.00000  -0.00623  -0.00583   2.90512
    D7       -2.74381   0.00018   0.00000   0.00200   0.00191  -2.74190
    D8       -0.16858   0.00176   0.00000   0.01071   0.01045  -0.15813
    D9        2.97358  -0.00775   0.00000  -0.02350  -0.02315   2.95044
   D10       -0.22113  -0.00453   0.00000  -0.01359  -0.01353  -0.23466
   D11        2.90379  -0.00947   0.00000  -0.04791  -0.04826   2.85553
   D12       -0.46306  -0.00036   0.00000  -0.00408  -0.00487  -0.46793
   D13        0.04297  -0.00130   0.00000   0.00677   0.00780   0.05078
   D14        0.31629   0.00167   0.00000   0.00737   0.00727   0.32355
   D15       -2.85420   0.00406   0.00000  -0.00281  -0.00393  -2.85813
   D16        3.07151   0.01420   0.00000   0.06159   0.06109   3.13260
   D17        1.58282  -0.00316   0.00000  -0.04026  -0.04059   1.54223
   D18       -1.62697   0.01132   0.00000   0.03764   0.03634  -1.59064
   D19        1.44070  -0.01717   0.00000  -0.07841  -0.07748   1.36322
   D20       -1.76909  -0.00270   0.00000  -0.00050  -0.00056  -1.76965
   D21       -3.13925   0.01044   0.00000   0.05486   0.05630  -3.08294
   D22        0.04781   0.00187   0.00000   0.00475   0.00477   0.05259
   D23       -3.13090  -0.01238   0.00000  -0.06327  -0.06362   3.08867
   D24        2.09425  -0.00347   0.00000  -0.05153  -0.05091   2.04333
   D25       -0.04221  -0.00182   0.00000  -0.00379  -0.00381  -0.04603
   D26       -1.10026   0.00709   0.00000   0.00795   0.00889  -1.09137
   D27        1.59862  -0.00505   0.00000  -0.00302  -0.00388   1.59474
   D28       -0.04915  -0.00090   0.00000  -0.00313  -0.00300  -0.05214
   D29       -2.19616   0.02177   0.00000   0.05492   0.05616  -2.14000
   D30       -0.07557   0.01052   0.00000   0.03906   0.03964  -0.03593
   D31       -0.46917   0.02000   0.00000   0.06019   0.05973  -0.40944
   D32        1.65142   0.00876   0.00000   0.04432   0.04321   1.69463
   D33        0.04563   0.00137   0.00000   0.00363   0.00356   0.04920
   D34        2.61214   0.02149   0.00000   0.03969   0.03841   2.65055
   D35       -2.06728  -0.03466   0.00000  -0.08931  -0.08965  -2.15693
   D36        0.49923  -0.01454   0.00000  -0.05324  -0.05481   0.44442
   D37        0.51327  -0.01389   0.00000  -0.05132  -0.05313   0.46014
   D38       -2.72053  -0.00241   0.00000  -0.02185  -0.02343  -2.74396
   D39       -2.05763  -0.01081   0.00000  -0.03401  -0.03453  -2.09216
   D40        0.99175   0.00067   0.00000  -0.00454  -0.00483   0.98692
   D41       -0.75995  -0.00013   0.00000   0.00532   0.00546  -0.75449
   D42        2.99486  -0.00487   0.00000  -0.01128  -0.01135   2.98351
   D43        1.15895   0.00572   0.00000   0.01773   0.01816   1.17711
   D44       -1.36942   0.00098   0.00000   0.00114   0.00135  -1.36807
   D45        0.52381   0.01354   0.00000   0.04516   0.04463   0.56844
   D46       -0.51730   0.02912   0.00000   0.07579   0.07457  -0.44273
   D47       -2.51460   0.00031   0.00000   0.01127   0.01078  -2.50382
   D48        2.72747   0.01588   0.00000   0.04189   0.04073   2.76820
         Item               Value     Threshold  Converged?
 Maximum Force            0.075285     0.000450     NO 
 RMS     Force            0.022017     0.000300     NO 
 Maximum Displacement     0.149588     0.001800     NO 
 RMS     Displacement     0.048626     0.001200     NO 
 Predicted change in Energy=-6.145291D-02
 GradGradGradGradGradGradGradGradGradGradGradGradGradGradGradGradGradGrad

                          Input orientation:                          
 ---------------------------------------------------------------------
 Center     Atomic      Atomic             Coordinates (Angstroms)
 Number     Number       Type             X           Y           Z
 ---------------------------------------------------------------------
      1          6           0        0.897922   -0.236255    0.068692
      2          6           0        2.171464    0.021852   -0.290927
      3          8           0        2.833273    1.011792   -0.893463
      4          6           0        4.173802    0.848490   -0.791051
      5          6           0        5.258412    1.280478   -1.326329
      6         16           0        5.510680    0.156665    0.156202
      7          6           0        4.416965   -0.975017    1.017371
      8          7           0        4.033430   -2.252978    0.635628
      9          6           0        3.251701   -2.309400    1.679531
     10          6           0        1.822441   -1.911763    1.726847
     11          6           0        2.334341   -1.010437    2.802241
     12          6           0        3.612164   -0.954621    2.294571
     13          6           0        0.762609   -1.371604    0.969156
     14          1           0        0.080475    0.404500   -0.239174
     15          1           0        2.824224   -0.779018   -0.070527
     16          1           0        5.520373    2.015636   -2.089806
     17          1           0        1.799690   -0.545139    3.629775
     18          1           0       -0.238885   -1.384992    1.410993
 ---------------------------------------------------------------------
                    Distance matrix (angstroms):
                    1          2          3          4          5
     1  C    0.000000
     2  C    1.348279   0.000000
     3  O    2.495786   1.334550   0.000000
     4  C    3.556293   2.223243   1.354317   0.000000
     5  C    4.822907   3.490765   2.478076   1.284334   0.000000
     6  S    4.630290   3.371715   3.000257   1.778525   1.877362
     7  C    3.718793   2.783463   3.179116   2.579669   3.359794
     8  N    3.770941   3.082251   3.799634   3.416755   4.223169
     9  C    3.526047   3.237955   4.222049   4.114160   5.094046
    10  C    2.532102   2.816397   4.054008   4.414488   5.596264
    11  C    3.183542   3.264940   4.242236   4.444206   5.553698
    12  C    3.582973   3.116715   3.825835   3.617694   4.562534
    13  C    1.455390   2.348276   3.665729   4.434341   5.702195
    14  H    1.083313   2.126342   2.893923   4.154157   5.362860
    15  H    2.006144   1.056439   1.970864   2.233673   3.426927
    16  H    5.576485   4.292590   3.107965   2.205051   1.091778
    17  H    3.686449   3.978894   4.894079   5.207909   6.313367
    18  H    2.100880   3.268872   4.526947   5.413802   6.694620
                    6          7          8          9         10
     6  S    0.000000
     7  C    1.794026   0.000000
     8  N    2.866792   1.387807   0.000000
     9  C    3.674914   1.891262   1.305381   0.000000
    10  C    4.510923   2.848228   2.489108   1.484297   0.000000
    11  C    4.295670   2.743053   3.020765   1.946620   1.493620
    12  C    3.067890   1.509756   2.148322   1.530893   2.107496
    13  C    5.053778   3.676128   3.403870   2.753120   1.410359
    14  H    5.450217   4.720923   4.842862   4.593838   3.502108
    15  H    2.853761   1.938752   2.033075   2.363791   2.348879
    16  H    2.915547   4.451524   5.278262   6.169336   6.608026
    17  H    5.131246   3.722846   4.107460   3.004065   2.342929
    18  H    6.083478   4.690411   4.428010   3.620889   2.150888
                   11         12         13         14         15
    11  C    0.000000
    12  C    1.376108   0.000000
    13  C    2.441512   3.170262   0.000000
    14  H    4.041306   4.554108   2.253866   0.000000
    15  H    2.923411   2.499074   2.383769   2.992877   0.000000
    16  H    6.575716   5.629072   6.592947   5.967670   4.376848
    17  H    1.089572   2.288123   2.972790   4.338926   3.846635
    18  H    2.949128   3.974482   1.094710   2.455061   3.456117
                   16         17         18
    16  H    0.000000
    17  H    7.287980   0.000000
    18  H    7.549101   3.127961   0.000000
 Stoichiometry    C10H5NOS
 Framework group  C1[X(C10H5NOS)]
 Deg. of freedom    48
 Full point group                 C1      NOp   1
 Largest Abelian subgroup         C1      NOp   1
 Largest concise Abelian subgroup C1      NOp   1
                         Standard orientation:                         
 ---------------------------------------------------------------------
 Center     Atomic      Atomic             Coordinates (Angstroms)
 Number     Number       Type             X           Y           Z
 ---------------------------------------------------------------------
      1          6           0       -1.451919    2.037721   -0.086633
      2          6           0       -0.221281    1.492762   -0.166664
      3          8           0        1.026205    1.851187    0.143710
      4          6           0        1.879776    0.802874    0.062298
      5          6           0        3.140592    0.567223   -0.003480
      6         16           0        2.065631   -0.963217    0.159925
      7          6           0        0.307950   -1.238259   -0.071246
      8          7           0       -0.387017   -1.382852   -1.263774
      9          6           0       -1.499630   -1.452655   -0.584628
     10          6           0       -2.381417   -0.313404   -0.227286
     11          6           0       -2.111541   -0.819991    1.151641
     12          6           0       -0.900211   -1.383837    0.822352
     13          6           0       -2.529347    1.086408   -0.315350
     14          1           0       -1.596548    3.073106    0.197316
     15          1           0       -0.229556    0.540548   -0.624140
     16          1           0        4.054653    1.163846    0.019173
     17          1           0       -2.690946   -0.687355    2.064802
     18          1           0       -3.486061    1.518746   -0.005234
 ---------------------------------------------------------------------
 Rotational constants (GHZ):           1.3962965           0.7480560           0.5491774
 Standard basis: 6-31G(2df,p) (6D, 7F)
 There are   432 symmetry adapted cartesian basis functions of A   symmetry.
 There are   393 symmetry adapted basis functions of A   symmetry.
   393 basis functions,   631 primitive gaussians,   432 cartesian basis functions
    48 alpha electrons       48 beta electrons
       nuclear repulsion energy       829.4838661116 Hartrees.
 NAtoms=   18 NActive=   18 NUniq=   18 SFac= 1.00D+00 NAtFMM=   60 NAOKFM=F Big=F
 Integral buffers will be    131072 words long.
 Raffenetti 2 integral format.
 Two-electron integral symmetry is turned on.
 One-electron integrals computed using PRISM.
 PrsmSu:  requested number of processors reduced to:  13 ShMem   1 Linda.
 NBasis=   393 RedAO= T EigKep=  1.77D-04  NBF=   393
 NBsUse=   393 1.00D-06 EigRej= -1.00D+00 NBFU=   393
 Initial guess from the checkpoint file:  "C1dCOC2dCS2dc2nc3cqcc2-3rdC1.chk"
 B after Tr=     0.000000   -0.000000   -0.000000
         Rot=    0.999965    0.002671   -0.000080   -0.007950 Ang=   0.96 deg.
 ExpMin= 1.17D-01 ExpMax= 2.19D+04 ExpMxC= 3.30D+03 IAcc=2 IRadAn=         4 AccDes= 0.00D+00
 Harris functional with IExCor=  402 and IRadAn=       4 diagonalized for initial guess.
 HarFok:  IExCor=  402 AccDes= 0.00D+00 IRadAn=         4 IDoV= 1 UseB2=F ITyADJ=14
 ICtDFT=  3500011 ScaDFX=  1.000000  1.000000  1.000000  1.000000
 FoFCou: FMM=F IPFlag=           0 FMFlag=      100000 FMFlg1=           0
         NFxFlg=           0 DoJE=T BraDBF=F KetDBF=T FulRan=T
         wScrn=  0.000000 ICntrl=       500 IOpCl=  0 I1Cent=   200000004 NGrid=           0
         NMat0=    1 NMatS0=      1 NMatT0=    0 NMatD0=    1 NMtDS0=    0 NMtDT0=    0
 Petite list used in FoFCou.
 Requested convergence on RMS density matrix=1.00D-08 within 128 cycles.
 Requested convergence on MAX density matrix=1.00D-06.
 Requested convergence on             energy=1.00D-06.
 No special actions if energy rises.
 Integral accuracy reduced to 1.0D-05 until final iterations.
 EnCoef did     5 forward-backward iterations
 Initial convergence to 1.0D-05 achieved.  Increase integral accuracy.
 SCF Done:  E(RB3LYP) =  -911.639087919     A.U. after   19 cycles
            NFock= 19  Conv=0.74D-08     -V/T= 2.0048
 PrsmSu:  requested number of processors reduced to:  13 ShMem   1 Linda.
 Calling FoFJK, ICntrl=      2127 FMM=F ISym2X=0 I1Cent= 0 IOpClX= 0 NMat=1 NMatS=1 NMatT=0.
 ***** Axes restored to original set *****
 -------------------------------------------------------------------
 Center     Atomic                   Forces (Hartrees/Bohr)
 Number     Number              X              Y              Z
 -------------------------------------------------------------------
      1        6          -0.012854383   -0.019634451    0.016661272
      2        6           0.028998544   -0.017205821   -0.009406560
      3        8          -0.011064609    0.010768611    0.006627653
      4        6          -0.016313101    0.011026756   -0.001219176
      5        6           0.021565330    0.053918471   -0.052159772
      6       16          -0.009407270   -0.014661770    0.040912004
      7        6           0.024254094   -0.035668567    0.051341581
      8        7           0.037642622   -0.011649415   -0.032717098
      9        6          -0.088308723   -0.016336415   -0.059397666
     10        6           0.076855513   -0.031005693    0.039262951
     11        6          -0.011644051    0.035471422    0.025291440
     12        6          -0.000786618    0.017541928    0.012028683
     13        6          -0.039828121    0.041171004   -0.024215831
     14        1          -0.006784367   -0.003554728    0.005631383
     15        1           0.004933803   -0.009014514   -0.003172872
     16        1           0.001618805   -0.011448155   -0.009943086
     17        1          -0.000315262    0.008176347   -0.006098128
     18        1           0.001437794   -0.007895011    0.000573223
 -------------------------------------------------------------------
 Cartesian Forces:  Max     0.088308723 RMS     0.028828929

 GradGradGradGradGradGradGradGradGradGradGradGradGradGradGradGradGradGrad
 Berny optimization.
 Using GEDIIS/GDIIS optimizer.
 FormGI is forming the generalized inverse of G from B-inverse, IUseBI=4.
 Internal  Forces:  Max     0.058787685 RMS     0.013979529
 Search for a local minimum.
 Step number   2 out of a maximum of  108
 All quantities printed in internal units (Hartrees-Bohrs-Radians)
 Mixed Optimization -- RFO/linear search
 Update second derivatives using D2CorX and points    1    2
 DE= -6.29D-02 DEPred=-6.15D-02 R= 1.02D+00
 TightC=F SS=  1.41D+00  RLast= 3.91D-01 DXNew= 5.0454D-01 1.1741D+00
 Trust test= 1.02D+00 RLast= 3.91D-01 DXMaxT set to 5.05D-01
 ITU=  1  0
 Use linear search instead of GDIIS.
 Linear search step of   0.599 exceeds DXMaxT=   0.505 but not scaled.
 Quartic linear search produced a step of  2.00000.
 Iteration  1 RMS(Cart)=  0.09465650 RMS(Int)=  0.00738866
 Iteration  2 RMS(Cart)=  0.00693756 RMS(Int)=  0.00402636
 Iteration  3 RMS(Cart)=  0.00002896 RMS(Int)=  0.00402624
 Iteration  4 RMS(Cart)=  0.00000019 RMS(Int)=  0.00402624
 Variable       Old X    -DE/DX   Delta X   Delta X   Delta X     New X
                                 (Linear)    (Quad)   (Total)
    R1        2.54788   0.03224   0.11906   0.00000   0.11888   2.66676
    R2        2.75029  -0.02863  -0.11243   0.00000  -0.11265   2.63763
    R3        2.04717   0.00142   0.00899   0.00000   0.00899   2.05615
    R4        2.52193   0.01343   0.05541   0.00000   0.05526   2.57719
    R5        1.99638   0.00922   0.06375   0.00000   0.06375   2.06013
    R6        2.55929   0.00779   0.02826   0.00000   0.02820   2.58749
    R7        2.42704   0.02968   0.10915   0.00000   0.11058   2.53762
    R8        3.36092   0.00978   0.04896   0.00000   0.04811   3.40904
    R9        3.54770   0.05879   0.24160   0.00000   0.24156   3.78926
   R10        2.06316  -0.00037   0.00384   0.00000   0.00384   2.06700
   R11        3.39022   0.01963   0.07915   0.00000   0.07933   3.46955
   R12        2.62258   0.01415   0.05251   0.00000   0.06099   2.68356
   R13        2.85302  -0.00327   0.00247   0.00000   0.00312   2.85615
   R14        2.46681   0.03113   0.09006   0.00000   0.09094   2.55775
   R15        2.80491  -0.03219  -0.10087   0.00000  -0.10073   2.70418
   R16        2.89297   0.03181   0.19054   0.00000   0.17769   3.07066
   R17        2.82253   0.01791   0.08708   0.00000   0.09406   2.91659
   R18        2.66519   0.02750   0.06123   0.00000   0.06109   2.72628
   R19        2.60047   0.00077   0.02105   0.00000   0.01824   2.61871
   R20        2.05899  -0.00099   0.00774   0.00000   0.00774   2.06673
   R21        2.06870  -0.00099   0.00281   0.00000   0.00281   2.07151
    A1        1.98470   0.00777   0.04191   0.00000   0.04154   2.02624
    A2        2.12201   0.00576   0.04929   0.00000   0.04907   2.17108
    A3        2.17376  -0.01372  -0.09336   0.00000  -0.09333   2.08043
    A4        2.39035  -0.01893  -0.11049   0.00000  -0.10941   2.28094
    A5        1.96370   0.00985   0.05734   0.00000   0.05673   2.02042
    A6        1.92848   0.00913   0.05367   0.00000   0.05307   1.98155
    A7        1.94687  -0.00013   0.00934   0.00000   0.00929   1.95616
    A8        2.44001   0.00757   0.03571   0.00000   0.03522   2.47523
    A9        2.55207  -0.02489  -0.10329   0.00000  -0.10118   2.45089
   A10        2.37541   0.00713   0.03055   0.00000   0.02669   2.40210
   A11        2.74677   0.01175   0.04537   0.00000   0.04465   2.79142
   A12        1.61359   0.01019   0.02212   0.00000   0.02752   1.64111
   A13        2.31143   0.00947   0.00801   0.00000   0.00862   2.32005
   A14        2.23613  -0.00885  -0.03666   0.00000  -0.03634   2.19978
   A15        2.37826  -0.01305  -0.06813   0.00000  -0.07382   2.30444
   A16        1.66877   0.02184   0.10715   0.00000   0.10279   1.77156
   A17        1.55613  -0.01569  -0.06162   0.00000  -0.06245   1.49368
   A18        2.20255   0.02593   0.18915   0.00000   0.19059   2.39314
   A19        1.71330   0.00011   0.01279   0.00000   0.01378   1.72708
   A20        1.54764  -0.00520  -0.03835   0.00000  -0.04496   1.50268
   A21        1.42488   0.02233   0.13960   0.00000   0.13581   1.56069
   A22        2.51337  -0.00770  -0.06439   0.00000  -0.06593   2.44745
   A23        1.99679  -0.01937  -0.11225   0.00000  -0.10878   1.88802
   A24        1.64798  -0.01321  -0.05245   0.00000  -0.06101   1.58697
   A25        2.26057   0.00900   0.04155   0.00000   0.04431   2.30488
   A26        2.37247   0.00463   0.01605   0.00000   0.01886   2.39133
   A27        1.34251  -0.00666  -0.05903   0.00000  -0.05486   1.28765
   A28        2.50907   0.01084   0.06700   0.00000   0.06113   2.57019
   A29        1.46427   0.00750   0.07167   0.00000   0.06753   1.53180
   A30        2.16675  -0.01116  -0.08806   0.00000  -0.08664   2.08011
   A31        1.92231   0.01206   0.07942   0.00000   0.08001   2.00231
   A32        2.05551  -0.00083   0.01113   0.00000   0.01097   2.06648
    D1       -2.92399   0.00615   0.04368   0.00000   0.04203  -2.88197
    D2        0.26172   0.00424   0.02438   0.00000   0.02479   0.28651
    D3        0.14186   0.00270   0.00652   0.00000   0.00458   0.14644
    D4       -2.95562   0.00079  -0.01278   0.00000  -0.01266  -2.96827
    D5        0.32135  -0.00020  -0.02874   0.00000  -0.02537   0.29597
    D6        2.90512   0.00068  -0.01167   0.00000  -0.00911   2.89600
    D7       -2.74190   0.00235   0.00381   0.00000   0.00326  -2.73864
    D8       -0.15813   0.00323   0.02089   0.00000   0.01952  -0.13861
    D9        2.95044  -0.00742  -0.04629   0.00000  -0.04360   2.90683
   D10       -0.23466  -0.00551  -0.02707   0.00000  -0.02650  -0.26117
   D11        2.85553  -0.00900  -0.09652   0.00000  -0.09823   2.75730
   D12       -0.46793  -0.00136  -0.00974   0.00000  -0.01446  -0.48239
   D13        0.05078  -0.00167   0.01560   0.00000   0.02124   0.07202
   D14        0.32355   0.00034   0.01454   0.00000   0.01396   0.33752
   D15       -2.85813   0.00109  -0.00786   0.00000  -0.01400  -2.87213
   D16        3.13260   0.01110   0.12218   0.00000   0.11919  -3.03139
   D17        1.54223  -0.00594  -0.08117   0.00000  -0.08232   1.45991
   D18       -1.59064   0.00782   0.07267   0.00000   0.06446  -1.52618
   D19        1.36322  -0.01401  -0.15496   0.00000  -0.14881   1.21441
   D20       -1.76965  -0.00025  -0.00111   0.00000  -0.00202  -1.77168
   D21       -3.08294   0.01414   0.11260   0.00000   0.12111  -2.96183
   D22        0.05259   0.00449   0.00955   0.00000   0.00951   0.06210
   D23        3.08867  -0.01500  -0.12724   0.00000  -0.12893   2.95974
   D24        2.04333  -0.00708  -0.10183   0.00000  -0.09859   1.94475
   D25       -0.04603  -0.00406  -0.00763   0.00000  -0.00767  -0.05370
   D26       -1.09137   0.00385   0.01778   0.00000   0.02267  -1.06869
   D27        1.59474  -0.00498  -0.00776   0.00000  -0.01276   1.58197
   D28       -0.05214  -0.00371  -0.00599   0.00000  -0.00515  -0.05729
   D29       -2.14000   0.01356   0.11233   0.00000   0.12077  -2.01923
   D30       -0.03593   0.00715   0.07928   0.00000   0.08300   0.04707
   D31       -0.40944   0.01231   0.11946   0.00000   0.11745  -0.29199
   D32        1.69463   0.00590   0.08642   0.00000   0.07967   1.77431
   D33        0.04920   0.00388   0.00713   0.00000   0.00669   0.05589
   D34        2.65055   0.01599   0.07682   0.00000   0.06922   2.71977
   D35       -2.15693  -0.02155  -0.17930   0.00000  -0.18034  -2.33727
   D36        0.44442  -0.00945  -0.10961   0.00000  -0.11781   0.32661
   D37        0.46014  -0.00932  -0.10627   0.00000  -0.11663   0.34352
   D38       -2.74396  -0.00335  -0.04687   0.00000  -0.05629  -2.80025
   D39       -2.09216  -0.00558  -0.06905   0.00000  -0.07195  -2.16411
   D40        0.98692   0.00039  -0.00965   0.00000  -0.01161   0.97531
   D41       -0.75449   0.00017   0.01093   0.00000   0.01241  -0.74207
   D42        2.98351  -0.00409  -0.02270   0.00000  -0.02269   2.96082
   D43        1.17711   0.00473   0.03631   0.00000   0.03904   1.21615
   D44       -1.36807   0.00047   0.00269   0.00000   0.00394  -1.36414
   D45        0.56844   0.00732   0.08925   0.00000   0.08513   0.65357
   D46       -0.44273   0.01840   0.14914   0.00000   0.14138  -0.30135
   D47       -2.50382   0.00050   0.02156   0.00000   0.01816  -2.48566
   D48        2.76820   0.01158   0.08145   0.00000   0.07441   2.84260
         Item               Value     Threshold  Converged?
 Maximum Force            0.058788     0.000450     NO 
 RMS     Force            0.013980     0.000300     NO 
 Maximum Displacement     0.299353     0.001800     NO 
 RMS     Displacement     0.093693     0.001200     NO 
 Predicted change in Energy=-4.935935D-02
 GradGradGradGradGradGradGradGradGradGradGradGradGradGradGradGradGradGrad

                          Input orientation:                          
 ---------------------------------------------------------------------
 Center     Atomic      Atomic             Coordinates (Angstroms)
 Number     Number       Type             X           Y           Z
 ---------------------------------------------------------------------
      1          6           0        0.913155   -0.303140    0.140925
      2          6           0        2.253298   -0.091073   -0.247007
      3          8           0        2.848265    0.984364   -0.838083
      4          6           0        4.214452    0.911667   -0.782732
      5          6           0        5.321479    1.375891   -1.384592
      6         16           0        5.529522    0.208455    0.232377
      7          6           0        4.427771   -1.019281    1.038430
      8          7           0        4.062890   -2.286764    0.512144
      9          6           0        3.161713   -2.329453    1.521120
     10          6           0        1.798991   -1.944241    1.726877
     11          6           0        2.264660   -0.918268    2.781676
     12          6           0        3.551145   -0.939377    2.267045
     13          6           0        0.686631   -1.374991    1.005802
     14          1           0        0.089068    0.363073   -0.105933
     15          1           0        2.934677   -0.923894   -0.072032
     16          1           0        5.572529    2.082862   -2.180572
     17          1           0        1.735349   -0.408816    3.591860
     18          1           0       -0.300516   -1.378824    1.482424
 ---------------------------------------------------------------------
                    Distance matrix (angstroms):
                    1          2          3          4          5
     1  C    0.000000
     2  C    1.411186   0.000000
     3  O    2.522058   1.363790   0.000000
     4  C    3.636958   2.266851   1.369239   0.000000
     5  C    4.957789   3.586059   2.562958   1.342851   0.000000
     6  S    4.645529   3.324631   2.989491   1.803985   2.005188
     7  C    3.697418   2.691143   3.167133   2.662836   3.522301
     8  N    3.740776   2.944825   3.741485   3.453931   4.312389
     9  C    3.326694   2.993632   4.079886   4.113496   5.180476
    10  C    2.448094   2.745331   4.031963   4.504309   5.754341
    11  C    3.029607   3.139634   4.130770   4.455935   5.653769
    12  C    3.447343   2.953724   3.719764   3.628702   4.672153
    13  C    1.395776   2.381684   3.693120   4.568717   5.896029
    14  H    1.088070   2.215861   2.921509   4.216373   5.480775
    15  H    2.125379   1.090176   2.058094   2.347808   3.564920
    16  H    5.726440   4.413837   3.229642   2.273769   1.093808
    17  H    3.549102   3.886660   4.775346   5.198719   6.388316
    18  H    2.104688   3.342334   4.569927   5.546369   6.885860
                    6          7          8          9         10
     6  S    0.000000
     7  C    1.836005   0.000000
     8  N    2.907817   1.420080   0.000000
     9  C    3.702480   1.884792   1.353505   0.000000
    10  C    4.559001   2.870538   2.591937   1.430991   0.000000
    11  C    4.292756   2.779956   3.202685   2.094074   1.543395
    12  C    3.061269   1.511408   2.270906   1.624921   2.090831
    13  C    5.153550   3.758154   3.531877   2.702328   1.442685
    14  H    5.453155   4.695190   4.816110   4.397515   3.406865
    15  H    2.847473   1.863211   1.863208   2.136651   2.359441
    16  H    3.055744   4.614730   5.350080   6.243643   6.762049
    17  H    5.105183   3.760559   4.292877   3.164067   2.416555
    18  H    6.170204   4.762677   4.561262   3.590574   2.188009
                   11         12         13         14         15
    11  C    0.000000
    12  C    1.385761   0.000000
    13  C    2.419194   3.160052   0.000000
    14  H    3.835795   4.394699   2.148000   0.000000
    15  H    2.931314   2.418999   2.533559   3.123287   0.000000
    16  H    6.676278   5.744669   6.780982   6.109840   4.521591
    17  H    1.093668   2.309490   2.953134   4.120646   3.889447
    18  H    2.912095   3.955254   1.096195   2.389322   3.617978
                   16         17         18
    16  H    0.000000
    17  H    7.365689   0.000000
    18  H    7.739087   3.087941   0.000000
 Stoichiometry    C10H5NOS
 Framework group  C1[X(C10H5NOS)]
 Deg. of freedom    48
 Full point group                 C1      NOp   1
 Largest Abelian subgroup         C1      NOp   1
 Largest concise Abelian subgroup C1      NOp   1
                         Standard orientation:                         
 ---------------------------------------------------------------------
 Center     Atomic      Atomic             Coordinates (Angstroms)
 Number     Number       Type             X           Y           Z
 ---------------------------------------------------------------------
      1          6           0       -1.558309    1.915482   -0.101286
      2          6           0       -0.273687    1.349103   -0.244143
      3          8           0        0.952783    1.824889    0.115468
      4          6           0        1.915516    0.852283    0.070773
      5          6           0        3.244112    0.686035   -0.031424
      6         16           0        2.094301   -0.935669    0.230852
      7          6           0        0.316231   -1.271451   -0.080003
      8          7           0       -0.303618   -1.378754   -1.353150
      9          6           0       -1.471715   -1.361162   -0.669617
     10          6           0       -2.408006   -0.377419   -0.218682
     11          6           0       -2.073827   -0.751162    1.241013
     12          6           0       -0.879134   -1.329681    0.843071
     13          6           0       -2.635757    1.045943   -0.277917
     14          1           0       -1.747365    2.934538    0.229894
     15          1           0       -0.235769    0.380219   -0.742450
     16          1           0        4.136691    1.316938   -0.072422
     17          1           0       -2.611647   -0.591185    2.179771
     18          1           0       -3.600206    1.434535    0.069181
 ---------------------------------------------------------------------
 Rotational constants (GHZ):           1.4311410           0.7163203           0.5474535
 Standard basis: 6-31G(2df,p) (6D, 7F)
 There are   432 symmetry adapted cartesian basis functions of A   symmetry.
 There are   393 symmetry adapted basis functions of A   symmetry.
   393 basis functions,   631 primitive gaussians,   432 cartesian basis functions
    48 alpha electrons       48 beta electrons
       nuclear repulsion energy       821.4718141387 Hartrees.
 NAtoms=   18 NActive=   18 NUniq=   18 SFac= 1.00D+00 NAtFMM=   60 NAOKFM=F Big=F
 Integral buffers will be    131072 words long.
 Raffenetti 2 integral format.
 Two-electron integral symmetry is turned on.
 One-electron integrals computed using PRISM.
 PrsmSu:  requested number of processors reduced to:  13 ShMem   1 Linda.
 NBasis=   393 RedAO= T EigKep=  1.96D-04  NBF=   393
 NBsUse=   393 1.00D-06 EigRej= -1.00D+00 NBFU=   393
 Initial guess from the checkpoint file:  "C1dCOC2dCS2dc2nc3cqcc2-3rdC1.chk"
 B after Tr=     0.000000   -0.000000   -0.000000
         Rot=    0.999922    0.006100   -0.000013   -0.010908 Ang=   1.43 deg.
 ExpMin= 1.17D-01 ExpMax= 2.19D+04 ExpMxC= 3.30D+03 IAcc=2 IRadAn=         4 AccDes= 0.00D+00
 Harris functional with IExCor=  402 and IRadAn=       4 diagonalized for initial guess.
 HarFok:  IExCor=  402 AccDes= 0.00D+00 IRadAn=         4 IDoV= 1 UseB2=F ITyADJ=14
 ICtDFT=  3500011 ScaDFX=  1.000000  1.000000  1.000000  1.000000
 FoFCou: FMM=F IPFlag=           0 FMFlag=      100000 FMFlg1=           0
         NFxFlg=           0 DoJE=T BraDBF=F KetDBF=T FulRan=T
         wScrn=  0.000000 ICntrl=       500 IOpCl=  0 I1Cent=   200000004 NGrid=           0
         NMat0=    1 NMatS0=      1 NMatT0=    0 NMatD0=    1 NMtDS0=    0 NMtDT0=    0
 Petite list used in FoFCou.
 Requested convergence on RMS density matrix=1.00D-08 within 128 cycles.
 Requested convergence on MAX density matrix=1.00D-06.
 Requested convergence on             energy=1.00D-06.
 No special actions if energy rises.
 Integral accuracy reduced to 1.0D-05 until final iterations.
 EnCoef did     5 forward-backward iterations
 Initial convergence to 1.0D-05 achieved.  Increase integral accuracy.
 SCF Done:  E(RB3LYP) =  -911.692594329     A.U. after   19 cycles
            NFock= 19  Conv=0.67D-08     -V/T= 2.0059
 PrsmSu:  requested number of processors reduced to:  13 ShMem   1 Linda.
 Calling FoFJK, ICntrl=      2127 FMM=F ISym2X=0 I1Cent= 0 IOpClX= 0 NMat=1 NMatS=1 NMatT=0.
 ***** Axes restored to original set *****
 -------------------------------------------------------------------
 Center     Atomic                   Forces (Hartrees/Bohr)
 Number     Number              X              Y              Z
 -------------------------------------------------------------------
      1        6           0.016342588    0.008025424   -0.006688382
      2        6          -0.003933099   -0.008939755   -0.009896826
      3        8          -0.004697782   -0.013893926    0.015112910
      4        6           0.042647185    0.022971505   -0.024487006
      5        6          -0.033425326    0.022928029   -0.001379266
      6       16          -0.030191212   -0.011957393    0.016912100
      7        6           0.018442918   -0.027102642    0.037382466
      8        7           0.009983862    0.010076603    0.029265320
      9        6          -0.045149490    0.016379749   -0.027264151
     10        6           0.039362942   -0.000915828    0.028129093
     11        6           0.013384543   -0.009436660   -0.001688745
     12        6          -0.000336929   -0.017085463   -0.015394593
     13        6          -0.012923185    0.011704300   -0.002262474
     14        1           0.003339296    0.001130959   -0.001544770
     15        1          -0.016865857    0.015396633   -0.016499229
     16        1          -0.002359607   -0.012567638   -0.007539482
     17        1           0.003178682    0.000827543   -0.008425261
     18        1           0.003200470   -0.007541437   -0.003731705
 -------------------------------------------------------------------
 Cartesian Forces:  Max     0.045149490 RMS     0.018341854

 GradGradGradGradGradGradGradGradGradGradGradGradGradGradGradGradGradGrad
 Berny optimization.
 Using GEDIIS/GDIIS optimizer.
 FormGI is forming the generalized inverse of G from B-inverse, IUseBI=4.
 Internal  Forces:  Max     0.041233298 RMS     0.010502787
 Search for a local minimum.
 Step number   3 out of a maximum of  108
 All quantities printed in internal units (Hartrees-Bohrs-Radians)
 Mixed Optimization -- RFO/linear search
[...]
 Iteration 98 RMS(Cart)=  0.00037309 RMS(Int)=  0.28457168
 Iteration 99 RMS(Cart)=  0.00037004 RMS(Int)=  0.28443449
 Iteration100 RMS(Cart)=  0.00036704 RMS(Int)=  0.28429759
 New curvilinear step not converged.
 ITry= 5 IFail=1 DXMaxC= 6.74D+00 DCOld= 1.00D+10 DXMaxT= 3.75D-01 DXLimC= 3.00D+00 Rises=T
 Iteration  1 RMS(Cart)=  0.15091628 RMS(Int)=  0.77034753
 Iteration  2 RMS(Cart)=  0.08209184 RMS(Int)=  0.73364635
 Iteration  3 RMS(Cart)=  0.07516360 RMS(Int)=  0.69881992
 Iteration  4 RMS(Cart)=  0.07592836 RMS(Int)=  0.66541896
 Iteration  5 RMS(Cart)=  0.07864337 RMS(Int)=  0.63279217
 Iteration  6 RMS(Cart)=  0.08771087 RMS(Int)=  0.60182080
 Iteration  7 RMS(Cart)=  0.10116427 RMS(Int)=  0.57285021
 Iteration  8 RMS(Cart)=  0.12180141 RMS(Int)=  0.54717129
 Iteration  9 RMS(Cart)=  0.13572812 RMS(Int)=  0.52477615
 Iteration 10 RMS(Cart)=  0.07800124 RMS(Int)=  0.50761704
 Iteration 11 RMS(Cart)=  0.03516527 RMS(Int)=  0.49746658
 Iteration 12 RMS(Cart)=  0.02999099 RMS(Int)=  0.48819325
 Iteration 13 RMS(Cart)=  0.02881212 RMS(Int)=  0.47911095
 Iteration 14 RMS(Cart)=  0.02907355 RMS(Int)=  0.46996865
 Iteration 15 RMS(Cart)=  0.03025642 RMS(Int)=  0.46060511
 Iteration 16 RMS(Cart)=  0.02737268 RMS(Int)=  0.45222089
 Iteration 17 RMS(Cart)=  0.02697165 RMS(Int)=  0.44406953
 Iteration 18 RMS(Cart)=  0.02792447 RMS(Int)=  0.43575385
 Iteration 19 RMS(Cart)=  0.02979233 RMS(Int)=  0.42702337
 Iteration 20 RMS(Cart)=  0.03230298 RMS(Int)=  0.41772074
 Iteration 21 RMS(Cart)=  0.03513099 RMS(Int)=  0.40778863
 Iteration 22 RMS(Cart)=  0.03778557 RMS(Int)=  0.39730078
 Iteration 23 RMS(Cart)=  0.03955950 RMS(Int)=  0.38649769
 Iteration 24 RMS(Cart)=  0.03959113 RMS(Int)=  0.37580476
 Iteration 25 RMS(Cart)=  0.03716967 RMS(Int)=  0.36579317
 Iteration 26 RMS(Cart)=  0.03241666 RMS(Int)=  0.35700831
 Iteration 27 RMS(Cart)=  0.02655858 RMS(Int)=  0.34972827
 Iteration 28 RMS(Cart)=  0.02113828 RMS(Int)=  0.34386613
 Iteration 29 RMS(Cart)=  0.01686637 RMS(Int)=  0.33914547
 Iteration 30 RMS(Cart)=  0.01371803 RMS(Int)=  0.33528122
 Iteration 31 RMS(Cart)=  0.01144993 RMS(Int)=  0.33204235
 Iteration 32 RMS(Cart)=  0.00980071 RMS(Int)=  0.32926293
 Iteration 33 RMS(Cart)=  0.00858213 RMS(Int)=  0.32682567
 Iteration 34 RMS(Cart)=  0.06322331 RMS(Int)=  0.31291738
 Iteration 35 RMS(Cart)=  0.03965615 RMS(Int)=  0.30481144
 Iteration 36 RMS(Cart)=  0.01899950 RMS(Int)=  0.30053827
 Iteration 37 RMS(Cart)=  0.00912904 RMS(Int)=  0.29832495
 Iteration 38 RMS(Cart)=  0.00458374 RMS(Int)=  0.29717819
 Iteration 39 RMS(Cart)=  0.00291678 RMS(Int)=  0.29643955
 Iteration 40 RMS(Cart)=  0.00215562 RMS(Int)=  0.29589023
 Iteration 41 RMS(Cart)=  0.00173827 RMS(Int)=  0.29544549
 Iteration 42 RMS(Cart)=  0.00148016 RMS(Int)=  0.29506568
 Iteration 43 RMS(Cart)=  0.00130672 RMS(Int)=  0.29472961
 Iteration 44 RMS(Cart)=  0.00118284 RMS(Int)=  0.29442480
 Iteration 45 RMS(Cart)=  0.00109943 RMS(Int)=  0.29414052
 Iteration 46 RMS(Cart)=  0.00104579 RMS(Int)=  0.29386841
 Iteration 47 RMS(Cart)=  0.00099814 RMS(Int)=  0.29360714
 Iteration 48 RMS(Cart)=  0.00095534 RMS(Int)=  0.29335563
 Iteration 49 RMS(Cart)=  0.00091640 RMS(Int)=  0.29311302
 Iteration 50 RMS(Cart)=  0.00088036 RMS(Int)=  0.29287869
 Iteration 51 RMS(Cart)=  0.00084611 RMS(Int)=  0.29265229
 Iteration 52 RMS(Cart)=  0.00081217 RMS(Int)=  0.29243385
 Iteration 53 RMS(Cart)=  0.00077619 RMS(Int)=  0.29222405
 Iteration 54 RMS(Cart)=  0.00074607 RMS(Int)=  0.29202121
 Iteration 55 RMS(Cart)=  0.00073295 RMS(Int)=  0.29182044
 Iteration 56 RMS(Cart)=  0.00072026 RMS(Int)=  0.29162168
 Iteration 57 RMS(Cart)=  0.00070796 RMS(Int)=  0.29142487
 Iteration 58 RMS(Cart)=  0.00069604 RMS(Int)=  0.29122994
 Iteration 59 RMS(Cart)=  0.00068451 RMS(Int)=  0.29103684
 Iteration 60 RMS(Cart)=  0.00067332 RMS(Int)=  0.29084549
 Iteration 61 RMS(Cart)=  0.00066246 RMS(Int)=  0.29065586
 Iteration 62 RMS(Cart)=  0.00065190 RMS(Int)=  0.29046789
 Iteration 63 RMS(Cart)=  0.00064167 RMS(Int)=  0.29028152
 Iteration 64 RMS(Cart)=  0.00063173 RMS(Int)=  0.29009672
 Iteration 65 RMS(Cart)=  0.00062207 RMS(Int)=  0.28991343
 Iteration 66 RMS(Cart)=  0.00061266 RMS(Int)=  0.28973161
 Iteration 67 RMS(Cart)=  0.00060350 RMS(Int)=  0.28955123
 Iteration 68 RMS(Cart)=  0.00059460 RMS(Int)=  0.28937224
 Iteration 69 RMS(Cart)=  0.00058592 RMS(Int)=  0.28919460
 Iteration 70 RMS(Cart)=  0.00057747 RMS(Int)=  0.28901828
 Iteration 71 RMS(Cart)=  0.00056924 RMS(Int)=  0.28884324
 Iteration 72 RMS(Cart)=  0.00056122 RMS(Int)=  0.28866945
 Iteration 73 RMS(Cart)=  0.00055341 RMS(Int)=  0.28849687
 Iteration 74 RMS(Cart)=  0.00054575 RMS(Int)=  0.28832548
 Iteration 75 RMS(Cart)=  0.00053832 RMS(Int)=  0.28815524
 Iteration 76 RMS(Cart)=  0.00053104 RMS(Int)=  0.28798613
 Iteration 77 RMS(Cart)=  0.00052397 RMS(Int)=  0.28781812
 Iteration 78 RMS(Cart)=  0.00051708 RMS(Int)=  0.28765115
 Iteration 79 RMS(Cart)=  0.00051027 RMS(Int)=  0.28748525
 Iteration 80 RMS(Cart)=  0.00050367 RMS(Int)=  0.28732036
 Iteration 81 RMS(Cart)=  0.00049724 RMS(Int)=  0.28715645
 Iteration 82 RMS(Cart)=  0.00049104 RMS(Int)=  0.28699348
 Iteration 83 RMS(Cart)=  0.00048493 RMS(Int)=  0.28683143
 Iteration 84 RMS(Cart)=  0.00047899 RMS(Int)=  0.28667027
 Iteration 85 RMS(Cart)=  0.00047320 RMS(Int)=  0.28650997
 Iteration 86 RMS(Cart)=  0.00046764 RMS(Int)=  0.28635048
 Iteration 87 RMS(Cart)=  0.00046232 RMS(Int)=  0.28619173
 Iteration 88 RMS(Cart)=  0.00045732 RMS(Int)=  0.28603364
 Iteration 89 RMS(Cart)=  0.00045287 RMS(Int)=  0.28587602
 Iteration 90 RMS(Cart)=  0.00044965 RMS(Int)=  0.28571847
 Iteration 91 RMS(Cart)=  0.00045113 RMS(Int)=  0.28555933
 Iteration 92 RMS(Cart)=  0.00043579 RMS(Int)=  0.28540454
 Iteration 93 RMS(Cart)=  0.00039458 RMS(Int)=  0.28526344
 Iteration 94 RMS(Cart)=  0.00038751 RMS(Int)=  0.28512401
 Iteration 95 RMS(Cart)=  0.00038322 RMS(Int)=  0.28498530
 Iteration 96 RMS(Cart)=  0.00037970 RMS(Int)=  0.28484703
 Iteration 97 RMS(Cart)=  0.00037628 RMS(Int)=  0.28470918
 Iteration 98 RMS(Cart)=  0.00037309 RMS(Int)=  0.28457168
 Iteration 99 RMS(Cart)=  0.00037004 RMS(Int)=  0.28443449
 Iteration100 RMS(Cart)=  0.00036704 RMS(Int)=  0.28429759
 New curvilinear step not converged.
 ITry= 6 IFail=1 DXMaxC= 6.74D+00 DCOld= 1.00D+10 DXMaxT= 3.75D-01 DXLimC= 3.00D+00 Rises=T
 Iteration  1 RMS(Cart)=  0.15091628 RMS(Int)=  0.77034753
 Iteration  2 RMS(Cart)=  0.08209184 RMS(Int)=  0.73364635
 Iteration  3 RMS(Cart)=  0.07516360 RMS(Int)=  0.69881992
 Iteration  4 RMS(Cart)=  0.07592836 RMS(Int)=  0.66541896
 Iteration  5 RMS(Cart)=  0.07864337 RMS(Int)=  0.63279217
 Iteration  6 RMS(Cart)=  0.08771087 RMS(Int)=  0.60182080
 Iteration  7 RMS(Cart)=  0.10116427 RMS(Int)=  0.57285021
 Iteration  8 RMS(Cart)=  0.12180141 RMS(Int)=  0.54717129
 Iteration  9 RMS(Cart)=  0.13572812 RMS(Int)=  0.52477615
 Iteration 10 RMS(Cart)=  0.07800124 RMS(Int)=  0.50761704
 Iteration 11 RMS(Cart)=  0.03516527 RMS(Int)=  0.49746658
 Iteration 12 RMS(Cart)=  0.02999099 RMS(Int)=  0.48819325
 Iteration 13 RMS(Cart)=  0.02881212 RMS(Int)=  0.47911095
 Iteration 14 RMS(Cart)=  0.02907355 RMS(Int)=  0.46996865
 Iteration 15 RMS(Cart)=  0.03025642 RMS(Int)=  0.46060511
 Iteration 16 RMS(Cart)=  0.02737268 RMS(Int)=  0.45222089
 Iteration 17 RMS(Cart)=  0.02697165 RMS(Int)=  0.44406953
 Iteration 18 RMS(Cart)=  0.02792447 RMS(Int)=  0.43575385
 Iteration 19 RMS(Cart)=  0.02979233 RMS(Int)=  0.42702337
 Iteration 20 RMS(Cart)=  0.03230298 RMS(Int)=  0.41772074
 Iteration 21 RMS(Cart)=  0.03513099 RMS(Int)=  0.40778863
 Iteration 22 RMS(Cart)=  0.03778557 RMS(Int)=  0.39730078
 Iteration 23 RMS(Cart)=  0.03955950 RMS(Int)=  0.38649769
 Iteration 24 RMS(Cart)=  0.03959113 RMS(Int)=  0.37580476
 Iteration 25 RMS(Cart)=  0.03716967 RMS(Int)=  0.36579317
 Iteration 26 RMS(Cart)=  0.03241666 RMS(Int)=  0.35700831
 Iteration 27 RMS(Cart)=  0.02655858 RMS(Int)=  0.34972827
 Iteration 28 RMS(Cart)=  0.02113828 RMS(Int)=  0.34386613
 Iteration 29 RMS(Cart)=  0.01686637 RMS(Int)=  0.33914547
 Iteration 30 RMS(Cart)=  0.01371803 RMS(Int)=  0.33528122
 Iteration 31 RMS(Cart)=  0.01144993 RMS(Int)=  0.33204235
 Iteration 32 RMS(Cart)=  0.00980071 RMS(Int)=  0.32926293
 Iteration 33 RMS(Cart)=  0.00858213 RMS(Int)=  0.32682567
 Iteration 34 RMS(Cart)=  0.06322331 RMS(Int)=  0.31291738
 Iteration 35 RMS(Cart)=  0.03965615 RMS(Int)=  0.30481144
 Iteration 36 RMS(Cart)=  0.01899950 RMS(Int)=  0.30053827
 Iteration 37 RMS(Cart)=  0.00912904 RMS(Int)=  0.29832495
 Iteration 38 RMS(Cart)=  0.00458374 RMS(Int)=  0.29717819
 Iteration 39 RMS(Cart)=  0.00291678 RMS(Int)=  0.29643955
 Iteration 40 RMS(Cart)=  0.00215562 RMS(Int)=  0.29589023
 Iteration 41 RMS(Cart)=  0.00173827 RMS(Int)=  0.29544549
 Iteration 42 RMS(Cart)=  0.00148016 RMS(Int)=  0.29506568
 Iteration 43 RMS(Cart)=  0.00130672 RMS(Int)=  0.29472961
 Iteration 44 RMS(Cart)=  0.00118284 RMS(Int)=  0.29442480
 Iteration 45 RMS(Cart)=  0.00109943 RMS(Int)=  0.29414052
 Iteration 46 RMS(Cart)=  0.00104579 RMS(Int)=  0.29386841
 Iteration 47 RMS(Cart)=  0.00099814 RMS(Int)=  0.29360714
 Iteration 48 RMS(Cart)=  0.00095534 RMS(Int)=  0.29335563
 Iteration 49 RMS(Cart)=  0.00091640 RMS(Int)=  0.29311302
 Iteration 50 RMS(Cart)=  0.00088036 RMS(Int)=  0.29287869
 Iteration 51 RMS(Cart)=  0.00084611 RMS(Int)=  0.29265229
 Iteration 52 RMS(Cart)=  0.00081217 RMS(Int)=  0.29243385
 Iteration 53 RMS(Cart)=  0.00077619 RMS(Int)=  0.29222405
 Iteration 54 RMS(Cart)=  0.00074607 RMS(Int)=  0.29202121
 Iteration 55 RMS(Cart)=  0.00073295 RMS(Int)=  0.29182044
 Iteration 56 RMS(Cart)=  0.00072026 RMS(Int)=  0.29162168
 Iteration 57 RMS(Cart)=  0.00070796 RMS(Int)=  0.29142487
 Iteration 58 RMS(Cart)=  0.00069604 RMS(Int)=  0.29122994
 Iteration 59 RMS(Cart)=  0.00068451 RMS(Int)=  0.29103684
 Iteration 60 RMS(Cart)=  0.00067332 RMS(Int)=  0.29084549
 Iteration 61 RMS(Cart)=  0.00066246 RMS(Int)=  0.29065586
 Iteration 62 RMS(Cart)=  0.00065190 RMS(Int)=  0.29046789
 Iteration 63 RMS(Cart)=  0.00064167 RMS(Int)=  0.29028152
 Iteration 64 RMS(Cart)=  0.00063173 RMS(Int)=  0.29009672
 Iteration 65 RMS(Cart)=  0.00062207 RMS(Int)=  0.28991343
 Iteration 66 RMS(Cart)=  0.00061266 RMS(Int)=  0.28973161
 Iteration 67 RMS(Cart)=  0.00060350 RMS(Int)=  0.28955123
 Iteration 68 RMS(Cart)=  0.00059460 RMS(Int)=  0.28937224
 Iteration 69 RMS(Cart)=  0.00058592 RMS(Int)=  0.28919460
 Iteration 70 RMS(Cart)=  0.00057747 RMS(Int)=  0.28901828
 Iteration 71 RMS(Cart)=  0.00056924 RMS(Int)=  0.28884324
 Iteration 72 RMS(Cart)=  0.00056122 RMS(Int)=  0.28866945
 Iteration 73 RMS(Cart)=  0.00055341 RMS(Int)=  0.28849687
 Iteration 74 RMS(Cart)=  0.00054575 RMS(Int)=  0.28832548
 Iteration 75 RMS(Cart)=  0.00053832 RMS(Int)=  0.28815524
 Iteration 76 RMS(Cart)=  0.00053104 RMS(Int)=  0.28798613
 Iteration 77 RMS(Cart)=  0.00052397 RMS(Int)=  0.28781812
 Iteration 78 RMS(Cart)=  0.00051708 RMS(Int)=  0.28765115
 Iteration 79 RMS(Cart)=  0.00051027 RMS(Int)=  0.28748525
 Iteration 80 RMS(Cart)=  0.00050367 RMS(Int)=  0.28732036
 Iteration 81 RMS(Cart)=  0.00049724 RMS(Int)=  0.28715645
 Iteration 82 RMS(Cart)=  0.00049104 RMS(Int)=  0.28699348
 Iteration 83 RMS(Cart)=  0.00048493 RMS(Int)=  0.28683143
 Iteration 84 RMS(Cart)=  0.00047899 RMS(Int)=  0.28667027
 Iteration 85 RMS(Cart)=  0.00047320 RMS(Int)=  0.28650997
 Iteration 86 RMS(Cart)=  0.00046764 RMS(Int)=  0.28635048
 Iteration 87 RMS(Cart)=  0.00046232 RMS(Int)=  0.28619173
 Iteration 88 RMS(Cart)=  0.00045732 RMS(Int)=  0.28603364
 Iteration 89 RMS(Cart)=  0.00045287 RMS(Int)=  0.28587602
 Iteration 90 RMS(Cart)=  0.00044965 RMS(Int)=  0.28571847
 Iteration 91 RMS(Cart)=  0.00045113 RMS(Int)=  0.28555933
 Iteration 92 RMS(Cart)=  0.00043579 RMS(Int)=  0.28540454
 Iteration 93 RMS(Cart)=  0.00039458 RMS(Int)=  0.28526344
 Iteration 94 RMS(Cart)=  0.00038751 RMS(Int)=  0.28512401
 Iteration 95 RMS(Cart)=  0.00038322 RMS(Int)=  0.28498530
 Iteration 96 RMS(Cart)=  0.00037970 RMS(Int)=  0.28484703
 Iteration 97 RMS(Cart)=  0.00037628 RMS(Int)=  0.28470918
 Iteration 98 RMS(Cart)=  0.00037309 RMS(Int)=  0.28457168
 Iteration 99 RMS(Cart)=  0.00037004 RMS(Int)=  0.28443449
 Iteration100 RMS(Cart)=  0.00036704 RMS(Int)=  0.28429759
 New curvilinear step not converged.
 ITry= 7 IFail=1 DXMaxC= 6.74D+00 DCOld= 1.00D+10 DXMaxT= 3.75D-01 DXLimC= 3.00D+00 Rises=T
 Iteration  1 RMS(Cart)=  0.15091628 RMS(Int)=  0.77034753
 Iteration  2 RMS(Cart)=  0.08209184 RMS(Int)=  0.73364635
 Iteration  3 RMS(Cart)=  0.07516360 RMS(Int)=  0.69881992
 Iteration  4 RMS(Cart)=  0.07592836 RMS(Int)=  0.66541896
 Iteration  5 RMS(Cart)=  0.07864337 RMS(Int)=  0.63279217
 Iteration  6 RMS(Cart)=  0.08771087 RMS(Int)=  0.60182080
 Iteration  7 RMS(Cart)=  0.10116427 RMS(Int)=  0.57285021
 Iteration  8 RMS(Cart)=  0.12180141 RMS(Int)=  0.54717129
 Iteration  9 RMS(Cart)=  0.13572812 RMS(Int)=  0.52477615
 Iteration 10 RMS(Cart)=  0.07800124 RMS(Int)=  0.50761704
 Iteration 11 RMS(Cart)=  0.03516527 RMS(Int)=  0.49746658
 Iteration 12 RMS(Cart)=  0.02999099 RMS(Int)=  0.48819325
 Iteration 13 RMS(Cart)=  0.02881212 RMS(Int)=  0.47911095
 Iteration 14 RMS(Cart)=  0.02907355 RMS(Int)=  0.46996865
 Iteration 15 RMS(Cart)=  0.03025642 RMS(Int)=  0.46060511
 Iteration 16 RMS(Cart)=  0.02737268 RMS(Int)=  0.45222089
 Iteration 17 RMS(Cart)=  0.02697165 RMS(Int)=  0.44406953
 Iteration 18 RMS(Cart)=  0.02792447 RMS(Int)=  0.43575385
 Iteration 19 RMS(Cart)=  0.02979233 RMS(Int)=  0.42702337
 Iteration 20 RMS(Cart)=  0.03230298 RMS(Int)=  0.41772074
 Iteration 21 RMS(Cart)=  0.03513099 RMS(Int)=  0.40778863
 Iteration 22 RMS(Cart)=  0.03778557 RMS(Int)=  0.39730078
 Iteration 23 RMS(Cart)=  0.03955950 RMS(Int)=  0.38649769
 Iteration 24 RMS(Cart)=  0.03959113 RMS(Int)=  0.37580476
 Iteration 25 RMS(Cart)=  0.03716967 RMS(Int)=  0.36579317
 Iteration 26 RMS(Cart)=  0.03241666 RMS(Int)=  0.35700831
 Iteration 27 RMS(Cart)=  0.02655858 RMS(Int)=  0.34972827
 Iteration 28 RMS(Cart)=  0.02113828 RMS(Int)=  0.34386613
 Iteration 29 RMS(Cart)=  0.01686637 RMS(Int)=  0.33914547
 Iteration 30 RMS(Cart)=  0.01371803 RMS(Int)=  0.33528122
 Iteration 31 RMS(Cart)=  0.01144993 RMS(Int)=  0.33204235
 Iteration 32 RMS(Cart)=  0.00980071 RMS(Int)=  0.32926293
 Iteration 33 RMS(Cart)=  0.00858213 RMS(Int)=  0.32682567
 Iteration 34 RMS(Cart)=  0.06322331 RMS(Int)=  0.31291738
 Iteration 35 RMS(Cart)=  0.03965615 RMS(Int)=  0.30481144
 Iteration 36 RMS(Cart)=  0.01899950 RMS(Int)=  0.30053827
 Iteration 37 RMS(Cart)=  0.00912904 RMS(Int)=  0.29832495
 Iteration 38 RMS(Cart)=  0.00458374 RMS(Int)=  0.29717819
 Iteration 39 RMS(Cart)=  0.00291678 RMS(Int)=  0.29643955
 Iteration 40 RMS(Cart)=  0.00215562 RMS(Int)=  0.29589023
 Iteration 41 RMS(Cart)=  0.00173827 RMS(Int)=  0.29544549
 Iteration 42 RMS(Cart)=  0.00148016 RMS(Int)=  0.29506568
 Iteration 43 RMS(Cart)=  0.00130672 RMS(Int)=  0.29472961
 Iteration 44 RMS(Cart)=  0.00118284 RMS(Int)=  0.29442480
 Iteration 45 RMS(Cart)=  0.00109943 RMS(Int)=  0.29414052
 Iteration 46 RMS(Cart)=  0.00104579 RMS(Int)=  0.29386841
 Iteration 47 RMS(Cart)=  0.00099814 RMS(Int)=  0.29360714
 Iteration 48 RMS(Cart)=  0.00095534 RMS(Int)=  0.29335563
 Iteration 49 RMS(Cart)=  0.00091640 RMS(Int)=  0.29311302
 Iteration 50 RMS(Cart)=  0.00088036 RMS(Int)=  0.29287869
 Iteration 51 RMS(Cart)=  0.00084611 RMS(Int)=  0.29265229
 Iteration 52 RMS(Cart)=  0.00081217 RMS(Int)=  0.29243385
 Iteration 53 RMS(Cart)=  0.00077619 RMS(Int)=  0.29222405
 Iteration 54 RMS(Cart)=  0.00074607 RMS(Int)=  0.29202121
 Iteration 55 RMS(Cart)=  0.00073295 RMS(Int)=  0.29182044
 Iteration 56 RMS(Cart)=  0.00072026 RMS(Int)=  0.29162168
 Iteration 57 RMS(Cart)=  0.00070796 RMS(Int)=  0.29142487
 Iteration 58 RMS(Cart)=  0.00069604 RMS(Int)=  0.29122994
 Iteration 59 RMS(Cart)=  0.00068451 RMS(Int)=  0.29103684
 Iteration 60 RMS(Cart)=  0.00067332 RMS(Int)=  0.29084549
 Iteration 61 RMS(Cart)=  0.00066246 RMS(Int)=  0.29065586
 Iteration 62 RMS(Cart)=  0.00065190 RMS(Int)=  0.29046789
 Iteration 63 RMS(Cart)=  0.00064167 RMS(Int)=  0.29028152
 Iteration 64 RMS(Cart)=  0.00063173 RMS(Int)=  0.29009672
 Iteration 65 RMS(Cart)=  0.00062207 RMS(Int)=  0.28991343
 Iteration 66 RMS(Cart)=  0.00061266 RMS(Int)=  0.28973161
 Iteration 67 RMS(Cart)=  0.00060350 RMS(Int)=  0.28955123
 Iteration 68 RMS(Cart)=  0.00059460 RMS(Int)=  0.28937224
 Iteration 69 RMS(Cart)=  0.00058592 RMS(Int)=  0.28919460
 Iteration 70 RMS(Cart)=  0.00057747 RMS(Int)=  0.28901828
 Iteration 71 RMS(Cart)=  0.00056924 RMS(Int)=  0.28884324
 Iteration 72 RMS(Cart)=  0.00056122 RMS(Int)=  0.28866945
 Iteration 73 RMS(Cart)=  0.00055341 RMS(Int)=  0.28849687
 Iteration 74 RMS(Cart)=  0.00054575 RMS(Int)=  0.28832548
 Iteration 75 RMS(Cart)=  0.00053832 RMS(Int)=  0.28815524
 Iteration 76 RMS(Cart)=  0.00053104 RMS(Int)=  0.28798613
 Iteration 77 RMS(Cart)=  0.00052397 RMS(Int)=  0.28781812
 Iteration 78 RMS(Cart)=  0.00051708 RMS(Int)=  0.28765115
 Iteration 79 RMS(Cart)=  0.00051027 RMS(Int)=  0.28748525
 Iteration 80 RMS(Cart)=  0.00050367 RMS(Int)=  0.28732036
 Iteration 81 RMS(Cart)=  0.00049724 RMS(Int)=  0.28715645
 Iteration 82 RMS(Cart)=  0.00049104 RMS(Int)=  0.28699348
 Iteration 83 RMS(Cart)=  0.00048493 RMS(Int)=  0.28683143
 Iteration 84 RMS(Cart)=  0.00047899 RMS(Int)=  0.28667027
 Iteration 85 RMS(Cart)=  0.00047320 RMS(Int)=  0.28650997
 Iteration 86 RMS(Cart)=  0.00046764 RMS(Int)=  0.28635048
 Iteration 87 RMS(Cart)=  0.00046232 RMS(Int)=  0.28619173
 Iteration 88 RMS(Cart)=  0.00045732 RMS(Int)=  0.28603364
 Iteration 89 RMS(Cart)=  0.00045287 RMS(Int)=  0.28587602
 Iteration 90 RMS(Cart)=  0.00044965 RMS(Int)=  0.28571847
 Iteration 91 RMS(Cart)=  0.00045113 RMS(Int)=  0.28555933
 Iteration 92 RMS(Cart)=  0.00043579 RMS(Int)=  0.28540454
 Iteration 93 RMS(Cart)=  0.00039458 RMS(Int)=  0.28526344
 Iteration 94 RMS(Cart)=  0.00038751 RMS(Int)=  0.28512401
 Iteration 95 RMS(Cart)=  0.00038322 RMS(Int)=  0.28498530
 Iteration 96 RMS(Cart)=  0.00037970 RMS(Int)=  0.28484703
 Iteration 97 RMS(Cart)=  0.00037628 RMS(Int)=  0.28470918
 Iteration 98 RMS(Cart)=  0.00037309 RMS(Int)=  0.28457168
 Iteration 99 RMS(Cart)=  0.00037004 RMS(Int)=  0.28443449
 Iteration100 RMS(Cart)=  0.00036704 RMS(Int)=  0.28429759
 New curvilinear step not converged.
 ITry= 8 IFail=1 DXMaxC= 6.74D+00 DCOld= 1.00D+10 DXMaxT= 3.75D-01 DXLimC= 3.00D+00 Rises=T
 Iteration  1 RMS(Cart)=  0.15091628 RMS(Int)=  0.77034753
 Iteration  2 RMS(Cart)=  0.08209184 RMS(Int)=  0.73364635
 Iteration  3 RMS(Cart)=  0.07516360 RMS(Int)=  0.69881992
 Iteration  4 RMS(Cart)=  0.07592836 RMS(Int)=  0.66541896
 Iteration  5 RMS(Cart)=  0.07864337 RMS(Int)=  0.63279217
 Iteration  6 RMS(Cart)=  0.08771087 RMS(Int)=  0.60182080
 Iteration  7 RMS(Cart)=  0.10116427 RMS(Int)=  0.57285021
 Iteration  8 RMS(Cart)=  0.12180141 RMS(Int)=  0.54717129
 Iteration  9 RMS(Cart)=  0.13572812 RMS(Int)=  0.52477615
 Iteration 10 RMS(Cart)=  0.07800124 RMS(Int)=  0.50761704
 Iteration 11 RMS(Cart)=  0.03516527 RMS(Int)=  0.49746658
 Iteration 12 RMS(Cart)=  0.02999099 RMS(Int)=  0.48819325
 Iteration 13 RMS(Cart)=  0.02881212 RMS(Int)=  0.47911095
 Iteration 14 RMS(Cart)=  0.02907355 RMS(Int)=  0.46996865
 Iteration 15 RMS(Cart)=  0.03025642 RMS(Int)=  0.46060511
 Iteration 16 RMS(Cart)=  0.02737268 RMS(Int)=  0.45222089
 Iteration 17 RMS(Cart)=  0.02697165 RMS(Int)=  0.44406953
 Iteration 18 RMS(Cart)=  0.02792447 RMS(Int)=  0.43575385
 Iteration 19 RMS(Cart)=  0.02979233 RMS(Int)=  0.42702337
 Iteration 20 RMS(Cart)=  0.03230298 RMS(Int)=  0.41772074
 Iteration 21 RMS(Cart)=  0.03513099 RMS(Int)=  0.40778863
 Iteration 22 RMS(Cart)=  0.03778557 RMS(Int)=  0.39730078
 Iteration 23 RMS(Cart)=  0.03955950 RMS(Int)=  0.38649769
 Iteration 24 RMS(Cart)=  0.03959113 RMS(Int)=  0.37580476
 Iteration 25 RMS(Cart)=  0.03716967 RMS(Int)=  0.36579317
slurmstepd: error: *** JOB 27447089 ON lewis4-r630-hpc4-node224 CANCELLED AT 2023-05-16T11:51:20 DUE TO TIME LIMIT ***
