### Starting Gaussian ###
 Entering Gaussian System, Link 0=g16
 Initial command:
 /cluster/software/gaussian/gaussian-16-A.03/avx2/g16/l1.exe "/local/scratch/ks29c/Gau-678.inp" -scrdir="/local/scratch/ks29c/"
 Entering Link 1 = /cluster/software/gaussian/gaussian-16-A.03/avx2/g16/l1.exe PID=       679.
  
 Copyright (c) 1988,1990,1992,1993,1995,1998,2003,2009,2016,
            Gaussian, Inc.  All Rights Reserved.
  
 This is part of the Gaussian(R) 16 program.  It is based on
 the Gaussian(R) 09 system (copyright 2009, Gaussian, Inc.),
 the Gaussian(R) 03 system (copyright 2003, Gaussian, Inc.),
 the Gaussian(R) 98 system (copyright 1998, Gaussian, Inc.),
 the Gaussian(R) 94 system (copyright 1995, Gaussian, Inc.),
 the Gaussian 92(TM) system (copyright 1992, Gaussian, Inc.),
 the Gaussian 90(TM) system (copyright 1990, Gaussian, Inc.),
 the Gaussian 88(TM) system (copyright 1988, Gaussian, Inc.),
 the Gaussian 86(TM) system (copyright 1986, Carnegie Mellon
 University), and the Gaussian 82(TM) system (copyright 1983,
 Carnegie Mellon University). Gaussian is a federally registered
 trademark of Gaussian, Inc.
  
 This software contains proprietary and confidential information,
 including trade secrets, belonging to Gaussian, Inc.
  
 This software is provided under written license and may be
 used, copied, transmitted, or stored only in accord with that
 written license.
  
 The following legend is applicable only to US Government
 contracts under FAR:
  
                    RESTRICTED RIGHTS LEGEND
  
 Use, reproduction and disclosure by the US Government is
 subject to restrictions as set forth in subparagraphs (a)
 and (c) of the Commercial Computer Software - Restricted
 Rights clause in FAR 52.227-19.
  
 Gaussian, Inc.
 340 Quinnipiac St., Bldg. 40, Wallingford CT 06492
  
  
 ---------------------------------------------------------------
 Warning -- This program may not be used in any manner that
 competes with the business of Gaussian, Inc. or will provide
 assistance to any competitor of Gaussian, Inc.  The licensee
 of this program is prohibited from giving any competitor of
 Gaussian, Inc. access to this program.  By using this program,
 the user acknowledges that Gaussian, Inc. is engaged in the
 business of creating and licensing software in the field of
 computational chemistry and represents and warrants to the
 licensee that it is not a competitor of Gaussian, Inc. and that
 it will not use this program in any manner prohibited above.
 ---------------------------------------------------------------
  

 Cite this work as:
 Gaussian 16, Revision A.03,
 M. J. Frisch, G. W. Trucks, H. B. Schlegel, G. E. Scuseria, 
 M. A. Robb, J. R. Cheeseman, G. Scalmani, V. Barone, 
 G. A. Petersson, H. Nakatsuji, X. Li, M. Caricato, A. V. Marenich, 
 J. Bloino, B. G. Janesko, R. Gomperts, B. Mennucci, H. P. Hratchian, 
 J. V. Ortiz, A. F. Izmaylov, J. L. Sonnenberg, D. Williams-Young, 
 F. Ding, F. Lipparini, F. Egidi, J. Goings, B. Peng, A. Petrone, 
 T. Henderson, D. Ranasinghe, V. G. Zakrzewski, J. Gao, N. Rega, 
 G. Zheng, W. Liang, M. Hada, M. Ehara, K. Toyota, R. Fukuda, 
 J. Hasegawa, M. Ishida, T. Nakajima, Y. Honda, O. Kitao, H. Nakai, 
 T. Vreven, K. Throssell, J. A. Montgomery, Jr., J. E. Peralta, 
 F. Ogliaro, M. J. Bearpark, J. J. Heyd, E. N. Brothers, K. N. Kudin, 
 V. N. Staroverov, T. A. Keith, R. Kobayashi, J. Normand, 
 K. Raghavachari, A. P. Rendell, J. C. Burant, S. S. Iyengar, 
 J. Tomasi, M. Cossi, J. M. Millam, M. Klene, C. Adamo, R. Cammi, 
 J. W. Ochterski, R. L. Martin, K. Morokuma, O. Farkas, 
 J. B. Foresman, and D. J. Fox, Gaussian, Inc., Wallingford CT, 2016.
 
 ******************************************
 Gaussian 16:  ES64L-G16RevA.03 25-Dec-2016
                17-May-2023 
 ******************************************
 %chk=C1dNC2dc3sccc3dNC23SC3dC1.chk
 %NProcShared=20
 Will use up to   20 processors via shared memory.
 -----------------------------
 # opt freq b3lyp/6-31g(2df,p)
 -----------------------------
 1/18=20,19=15,26=3,38=1/1,3;
 2/9=110,12=2,17=6,18=5,40=1/2;
 3/5=1,6=6,7=104,11=2,25=1,30=1,71=1,74=-5/1,2,3;
 4//1;
 5/5=2,38=5/2;
 6/7=2,8=2,9=2,10=2,28=1/1;
 7//1,2,3,16;
 1/18=20,19=15,26=3/3(2);
 2/9=110/2;
 99//99;
 2/9=110/2;
 3/5=1,6=6,7=104,11=2,25=1,30=1,71=1,74=-5/1,2,3;
 4/5=5,16=3,69=1/1;
 5/5=2,38=5/2;
 7//1,2,3,16;
 1/18=20,19=15,26=3/3(-5);
 2/9=110/2;
 6/7=2,8=2,9=2,10=2,19=2,28=1/1;
 99/9=1/99;
 -------------------
 Title Card Required
 -------------------
 Symbolic Z-matrix:
 Charge =  0 Multiplicity = 1
 C                     1.61978  -0.10717  -0.08174 
 N                     1.3691    0.9632   -0.72726 
 C                     0.10715   1.46263  -0.6006 
 C                    -0.09785   2.71858  -0.83002 
 S                     0.91205   3.93961  -1.36801 
 C                    -0.38896   5.01875  -1.07921 
 C                    -1.5188    4.53661  -0.50499 
 C                    -1.37459   3.05605  -0.21435 
 N                    -1.9472    2.03346   0.39268 
 C                    -1.00983   0.87001   0.1199 
 S                    -1.74984  -0.5554   -0.46181 
 C                    -0.60246  -0.38089   0.83692 
 C                     0.64877  -0.90844   0.70476 
 H                     2.67645  -0.41512  -0.06974 
 H                    -0.18791   6.02673  -1.41223 
 H                    -2.35874   5.19605  -0.34786 
 H                     1.1463   -1.641     1.32756 
 

 GradGradGradGradGradGradGradGradGradGradGradGradGradGradGradGradGradGrad
 Berny optimization.
 Initialization pass.
                           ----------------------------
                           !    Initial Parameters    !
                           ! (Angstroms and Degrees)  !
 --------------------------                            --------------------------
 ! Name  Definition              Value          Derivative Info.                !
 --------------------------------------------------------------------------------
 ! R1    R(1,2)                  1.2748         estimate D2E/DX2                !
 ! R2    R(1,13)                 1.4844         estimate D2E/DX2                !
 ! R3    R(1,14)                 1.1007         estimate D2E/DX2                !
 ! R4    R(2,3)                  1.3631         estimate D2E/DX2                !
 ! R5    R(3,4)                  1.2931         estimate D2E/DX2                !
 ! R6    R(3,10)                 1.4553         estimate D2E/DX2                !
 ! R7    R(4,5)                  1.6734         estimate D2E/DX2                !
 ! R8    R(4,8)                  1.4571         estimate D2E/DX2                !
 ! R9    R(5,6)                  1.7148         estimate D2E/DX2                !
 ! R10   R(6,7)                  1.356          estimate D2E/DX2                !
 ! R11   R(6,15)                 1.0804         estimate D2E/DX2                !
 ! R12   R(7,8)                  1.5157         estimate D2E/DX2                !
 ! R13   R(7,16)                 1.0794         estimate D2E/DX2                !
 ! R14   R(8,9)                  1.3199         estimate D2E/DX2                !
 ! R15   R(9,10)                 1.5188         estimate D2E/DX2                !
 ! R16   R(10,11)                1.7082         estimate D2E/DX2                !
 ! R17   R(10,12)                1.4983         estimate D2E/DX2                !
 ! R18   R(11,12)                1.7417         estimate D2E/DX2                !
 ! R19   R(12,13)                1.3643         estimate D2E/DX2                !
 ! R20   R(13,17)                1.0826         estimate D2E/DX2                !
 ! A1    A(2,1,13)             126.361          estimate D2E/DX2                !
 ! A2    A(2,1,14)             115.4165         estimate D2E/DX2                !
 ! A3    A(13,1,14)            118.1107         estimate D2E/DX2                !
 ! A4    A(1,2,3)              116.2716         estimate D2E/DX2                !
 ! A5    A(2,3,4)              119.0887         estimate D2E/DX2                !
 ! A6    A(2,3,10)             127.3998         estimate D2E/DX2                !
 ! A7    A(4,3,10)             111.203          estimate D2E/DX2                !
 ! A8    A(3,4,5)              132.0733         estimate D2E/DX2                !
 ! A9    A(3,4,8)              106.7926         estimate D2E/DX2                !
 ! A10   A(5,4,8)              119.7137         estimate D2E/DX2                !
 ! A11   A(4,5,6)               86.9716         estimate D2E/DX2                !
 ! A12   A(5,6,7)              118.6668         estimate D2E/DX2                !
 ! A13   A(5,6,15)             113.2045         estimate D2E/DX2                !
 ! A14   A(7,6,15)             128.1183         estimate D2E/DX2                !
 ! A15   A(6,7,8)              110.4411         estimate D2E/DX2                !
 ! A16   A(6,7,16)             119.5251         estimate D2E/DX2                !
 ! A17   A(8,7,16)             130.0091         estimate D2E/DX2                !
 ! A18   A(4,8,7)              103.214          estimate D2E/DX2                !
 ! A19   A(4,8,9)              113.2685         estimate D2E/DX2                !
 ! A20   A(7,8,9)              143.4868         estimate D2E/DX2                !
 ! A21   A(8,9,10)             104.072          estimate D2E/DX2                !
 ! A22   A(3,10,9)             104.5177         estimate D2E/DX2                !
 ! A23   A(3,10,11)            120.2457         estimate D2E/DX2                !
 ! A24   A(3,10,12)            111.606          estimate D2E/DX2                !
 ! A25   A(9,10,11)            115.6599         estimate D2E/DX2                !
 ! A26   A(9,10,12)            136.172          estimate D2E/DX2                !
 ! A27   A(10,12,13)           121.7244         estimate D2E/DX2                !
 ! A28   A(11,12,13)           119.5499         estimate D2E/DX2                !
 ! A29   A(1,13,12)            116.2647         estimate D2E/DX2                !
 ! A30   A(1,13,17)            111.6809         estimate D2E/DX2                !
 ! A31   A(12,13,17)           128.858          estimate D2E/DX2                !
 ! D1    D(13,1,2,3)             4.8954         estimate D2E/DX2                !
 ! D2    D(14,1,2,3)          -171.1628         estimate D2E/DX2                !
 ! D3    D(2,1,13,12)           -5.9238         estimate D2E/DX2                !
 ! D4    D(2,1,13,17)         -167.5587         estimate D2E/DX2                !
 ! D5    D(14,1,13,12)         170.0396         estimate D2E/DX2                !
 ! D6    D(14,1,13,17)           8.4048         estimate D2E/DX2                !
 ! D7    D(1,2,3,4)            157.0016         estimate D2E/DX2                !
 ! D8    D(1,2,3,10)            -4.1413         estimate D2E/DX2                !
 ! D9    D(2,3,4,5)              4.077          estimate D2E/DX2                !
 ! D10   D(2,3,4,8)           -161.8342         estimate D2E/DX2                !
 ! D11   D(10,3,4,5)           168.0907         estimate D2E/DX2                !
 ! D12   D(10,3,4,8)             2.1795         estimate D2E/DX2                !
 ! D13   D(2,3,10,9)           158.6975         estimate D2E/DX2                !
 ! D14   D(2,3,10,11)          -69.3292         estimate D2E/DX2                !
 ! D15   D(2,3,10,12)            3.9965         estimate D2E/DX2                !
 ! D16   D(4,3,10,9)            -3.6676         estimate D2E/DX2                !
 ! D17   D(4,3,10,11)          128.3057         estimate D2E/DX2                !
 ! D18   D(4,3,10,12)         -158.3686         estimate D2E/DX2                !
 ! D19   D(3,4,5,6)           -173.8845         estimate D2E/DX2                !
 ! D20   D(8,4,5,6)             -9.4492         estimate D2E/DX2                !
 ! D21   D(3,4,8,7)            178.8823         estimate D2E/DX2                !
 ! D22   D(3,4,8,9)              0.4112         estimate D2E/DX2                !
 ! D23   D(5,4,8,7)             10.8902         estimate D2E/DX2                !
 ! D24   D(5,4,8,9)           -167.5809         estimate D2E/DX2                !
 ! D25   D(4,5,6,7)              4.8251         estimate D2E/DX2                !
 ! D26   D(4,5,6,15)          -174.0938         estimate D2E/DX2                !
 ! D27   D(5,6,7,8)              0.4576         estimate D2E/DX2                !
 ! D28   D(5,6,7,16)          -177.9119         estimate D2E/DX2                !
 ! D29   D(15,6,7,8)           179.1946         estimate D2E/DX2                !
 ! D30   D(15,6,7,16)            0.8251         estimate D2E/DX2                !
 ! D31   D(6,7,8,4)             -6.4088         estimate D2E/DX2                !
 ! D32   D(6,7,8,9)            171.2301         estimate D2E/DX2                !
 ! D33   D(16,7,8,4)           171.7388         estimate D2E/DX2                !
 ! D34   D(16,7,8,9)           -10.6222         estimate D2E/DX2                !
 ! D35   D(4,8,9,10)            -2.6032         estimate D2E/DX2                !
 ! D36   D(7,8,9,10)           179.8989         estimate D2E/DX2                !
 ! D37   D(8,9,10,3)             3.6511         estimate D2E/DX2                !
 ! D38   D(8,9,10,11)         -130.9085         estimate D2E/DX2                !
 ! D39   D(8,9,10,12)          148.6393         estimate D2E/DX2                !
 ! D40   D(3,10,12,13)          -4.8252         estimate D2E/DX2                !
 ! D41   D(9,10,12,13)        -148.1413         estimate D2E/DX2                !
 ! D42   D(10,12,13,1)           5.6497         estimate D2E/DX2                !
 ! D43   D(10,12,13,17)        163.5643         estimate D2E/DX2                !
 ! D44   D(11,12,13,1)          80.5326         estimate D2E/DX2                !
 ! D45   D(11,12,13,17)       -121.5527         estimate D2E/DX2                !
 --------------------------------------------------------------------------------
 Trust Radius=3.00D-01 FncErr=1.00D-07 GrdErr=1.00D-06 EigMax=2.50D+02 EigMin=1.00D-04
 Number of steps in this run=    102 maximum allowed number of steps=    102.
 GradGradGradGradGradGradGradGradGradGradGradGradGradGradGradGradGradGrad

                          Input orientation:                          
 ---------------------------------------------------------------------
 Center     Atomic      Atomic             Coordinates (Angstroms)
 Number     Number       Type             X           Y           Z
 ---------------------------------------------------------------------
      1          6           0        1.619780   -0.107170   -0.081740
      2          7           0        1.369100    0.963200   -0.727260
      3          6           0        0.107150    1.462630   -0.600600
      4          6           0       -0.097850    2.718580   -0.830020
      5         16           0        0.912050    3.939610   -1.368010
      6          6           0       -0.388960    5.018750   -1.079210
      7          6           0       -1.518800    4.536610   -0.504990
      8          6           0       -1.374590    3.056050   -0.214350
      9          7           0       -1.947200    2.033460    0.392680
     10          6           0       -1.009830    0.870010    0.119900
     11         16           0       -1.749840   -0.555400   -0.461810
     12          6           0       -0.602460   -0.380890    0.836920
     13          6           0        0.648770   -0.908440    0.704760
     14          1           0        2.676450   -0.415120   -0.069740
     15          1           0       -0.187910    6.026730   -1.412230
     16          1           0       -2.358740    5.196050   -0.347860
     17          1           0        1.146300   -1.641000    1.327560
 ---------------------------------------------------------------------
                    Distance matrix (angstroms):
                    1          2          3          4          5
     1  C    0.000000
     2  N    1.274844   0.000000
     3  C    2.240879   1.363081   0.000000
     4  C    3.390433   2.289948   1.293085   0.000000
     5  S    4.304858   3.078713   2.715182   1.673393   0.000000
     6  C    5.595091   4.434200   3.622317   2.331871   1.714811
     7  C    5.620900   4.599851   3.478823   2.330231   2.647687
     8  C    4.357729   3.488686   2.209916   1.457052   2.709305
     9  N    4.186970   3.660269   2.352192   2.320448   3.861185
    10  C    2.812541   2.526989   1.455322   2.269640   3.915347
    11  S    3.420483   3.479137   2.745928   3.685593   5.302072
    12  C    2.420167   2.853119   2.443067   3.555283   5.081553
    13  C    1.484411   2.464263   2.760306   4.008524   5.279136
    14  H    1.100695   2.010289   3.226307   4.253803   4.874657
    15  H    6.531667   5.341610   4.645085   3.360199   2.359648
    16  H    6.635027   5.653119   4.481397   3.388504   3.649303
    17  H    2.136105   3.324723   3.798704   5.020856   6.201950
                    6          7          8          9         10
     6  C    0.000000
     7  C    1.355996   0.000000
     8  C    2.360432   1.515693   0.000000
     9  N    3.675123   2.693529   1.319870   0.000000
    10  C    4.362956   3.754130   2.241326   1.518778   0.000000
    11  S    5.770990   5.097432   3.639316   2.733368   1.708155
    12  C    5.733520   5.179016   3.676127   2.799064   1.498272
    13  C    6.276226   5.984181   4.544880   3.935890   2.501180
    14  H    6.320025   6.504552   5.336746   5.252382   3.908476
    15  H    1.080438   2.194268   3.415855   4.722182   5.441942
    16  H    2.108635   1.079375   2.359232   3.274101   4.555544
    17  H    7.245815   6.973081   5.549293   4.893404   3.523139
                   11         12         13         14         15
    11  S    0.000000
    12  C    1.741733   0.000000
    13  C    2.690512   1.364314   0.000000
    14  H    4.445834   3.402125   2.225916   0.000000
    15  H    6.831351   6.803537   7.299196   7.176647   0.000000
    16  H    5.784714   5.965776   6.886067   7.544251   2.556446
    17  H    3.573234   2.210603   1.082617   2.407610   8.251100
                   16         17
    16  H    0.000000
    17  H    7.863688   0.000000
 Stoichiometry    C9H4N2S2
 Framework group  C1[X(C9H4N2S2)]
 Deg. of freedom    45
 Full point group                 C1      NOp   1
 Largest Abelian subgroup         C1      NOp   1
 Largest concise Abelian subgroup C1      NOp   1
                         Standard orientation:                         
 ---------------------------------------------------------------------
 Center     Atomic      Atomic             Coordinates (Angstroms)
 Number     Number       Type             X           Y           Z
 ---------------------------------------------------------------------
      1          6           0       -1.805255    1.990804   -0.192946
      2          7           0       -0.626964    1.755577    0.233112
      3          6           0       -0.218175    0.455941    0.190342
      4          6           0        1.048247    0.195686    0.167767
      5         16           0        2.397356    1.180532    0.268911
      6          6           0        3.332121   -0.221044   -0.051052
      7          6           0        2.689313   -1.381793   -0.330672
      8          6           0        1.188081   -1.174046   -0.308973
      9          7           0        0.033306   -1.750374   -0.585376
     10          6           0       -1.001144   -0.704296   -0.208120
     11         16           0       -2.285169   -1.254618    0.774845
     12          6           0       -2.365298   -0.311236   -0.687086
     13          6           0       -2.800621    0.980557   -0.631268
     14          1           0       -2.066996    3.055037   -0.295068
     15          1           0        4.396307   -0.048322    0.019807
     16          1           0        3.263180   -2.279999   -0.500825
     17          1           0       -3.635487    1.438818   -1.146103
 ---------------------------------------------------------------------
 Rotational constants (GHZ):           1.4455695           0.5546441           0.4304595
 Standard basis: 6-31G(2df,p) (6D, 7F)
 There are   431 symmetry adapted cartesian basis functions of A   symmetry.
 There are   392 symmetry adapted basis functions of A   symmetry.
   392 basis functions,   648 primitive gaussians,   431 cartesian basis functions
    52 alpha electrons       52 beta electrons
       nuclear repulsion energy       927.6316525318 Hartrees.
 NAtoms=   17 NActive=   17 NUniq=   17 SFac= 1.00D+00 NAtFMM=   60 NAOKFM=F Big=F
 Integral buffers will be    131072 words long.
 Raffenetti 2 integral format.
 Two-electron integral symmetry is turned on.
 One-electron integrals computed using PRISM.
 PrsmSu:  requested number of processors reduced to:  13 ShMem   1 Linda.
 NBasis=   392 RedAO= T EigKep=  1.44D-04  NBF=   392
 NBsUse=   392 1.00D-06 EigRej= -1.00D+00 NBFU=   392
 ExpMin= 1.17D-01 ExpMax= 2.19D+04 ExpMxC= 3.30D+03 IAcc=3 IRadAn=         5 AccDes= 0.00D+00
 Harris functional with IExCor=  402 and IRadAn=       5 diagonalized for initial guess.
 HarFok:  IExCor=  402 AccDes= 0.00D+00 IRadAn=         5 IDoV= 1 UseB2=F ITyADJ=14
 ICtDFT=  3500011 ScaDFX=  1.000000  1.000000  1.000000  1.000000
 FoFCou: FMM=F IPFlag=           0 FMFlag=      100000 FMFlg1=           0
         NFxFlg=           0 DoJE=T BraDBF=F KetDBF=T FulRan=T
         wScrn=  0.000000 ICntrl=       500 IOpCl=  0 I1Cent=   200000004 NGrid=           0
         NMat0=    1 NMatS0=      1 NMatT0=    0 NMatD0=    1 NMtDS0=    0 NMtDT0=    0
 Petite list used in FoFCou.
 Requested convergence on RMS density matrix=1.00D-08 within 128 cycles.
 Requested convergence on MAX density matrix=1.00D-06.
 Requested convergence on             energy=1.00D-06.
 No special actions if energy rises.
 Integral accuracy reduced to 1.0D-05 until final iterations.
 Initial convergence to 1.0D-05 achieved.  Increase integral accuracy.
 SCF Done:  E(RB3LYP) =  -1251.04652296     A.U. after   21 cycles
            NFock= 21  Conv=0.25D-08     -V/T= 2.0041

 **********************************************************************

            Population analysis using the SCF density.

 **********************************************************************

 Orbital symmetries:
       Occupied  (A) (A) (A) (A) (A) (A) (A) (A) (A) (A) (A) (A)
                 (A) (A) (A) (A) (A) (A) (A) (A) (A) (A) (A) (A)
                 (A) (A) (A) (A) (A) (A) (A) (A) (A) (A) (A) (A)
                 (A) (A) (A) (A) (A) (A) (A) (A) (A) (A) (A) (A)
                 (A) (A) (A) (A)
       Virtual   (A) (A) (A) (A) (A) (A) (A) (A) (A) (A) (A) (A)
                 (A) (A) (A) (A) (A) (A) (A) (A) (A) (A) (A) (A)
                 (A) (A) (A) (A) (A) (A) (A) (A) (A) (A) (A) (A)
                 (A) (A) (A) (A) (A) (A) (A) (A) (A) (A) (A) (A)
                 (A) (A) (A) (A) (A) (A) (A) (A) (A) (A) (A) (A)
                 (A) (A) (A) (A) (A) (A) (A) (A) (A) (A) (A) (A)
                 (A) (A) (A) (A) (A) (A) (A) (A) (A) (A) (A) (A)
                 (A) (A) (A) (A) (A) (A) (A) (A) (A) (A) (A) (A)
                 (A) (A) (A) (A) (A) (A) (A) (A) (A) (A) (A) (A)
                 (A) (A) (A) (A) (A) (A) (A) (A) (A) (A) (A) (A)
                 (A) (A) (A) (A) (A) (A) (A) (A) (A) (A) (A) (A)
                 (A) (A) (A) (A) (A) (A) (A) (A) (A) (A) (A) (A)
                 (A) (A) (A) (A) (A) (A) (A) (A) (A) (A) (A) (A)
                 (A) (A) (A) (A) (A) (A) (A) (A) (A) (A) (A) (A)
                 (A) (A) (A) (A) (A) (A) (A) (A) (A) (A) (A) (A)
                 (A) (A) (A) (A) (A) (A) (A) (A) (A) (A) (A) (A)
                 (A) (A) (A) (A) (A) (A) (A) (A) (A) (A) (A) (A)
                 (A) (A) (A) (A) (A) (A) (A) (A) (A) (A) (A) (A)
                 (A) (A) (A) (A) (A) (A) (A) (A) (A) (A) (A) (A)
                 (A) (A) (A) (A) (A) (A) (A) (A) (A) (A) (A) (A)
                 (A) (A) (A) (A) (A) (A) (A) (A) (A) (A) (A) (A)
                 (A) (A) (A) (A) (A) (A) (A) (A) (A) (A) (A) (A)
                 (A) (A) (A) (A) (A) (A) (A) (A) (A) (A) (A) (A)
                 (A) (A) (A) (A) (A) (A) (A) (A) (A) (A) (A) (A)
                 (A) (A) (A) (A) (A) (A) (A) (A) (A) (A) (A) (A)
                 (A) (A) (A) (A) (A) (A) (A) (A) (A) (A) (A) (A)
                 (A) (A) (A) (A) (A) (A) (A) (A) (A) (A) (A) (A)
                 (A) (A) (A) (A) (A) (A) (A) (A) (A) (A) (A) (A)
                 (A) (A) (A) (A)
 The electronic state is 1-A.
 Alpha  occ. eigenvalues --  -88.91023 -88.90989 -14.35551 -14.33235 -10.26812
 Alpha  occ. eigenvalues --  -10.26089 -10.24674 -10.24408 -10.23528 -10.23282
 Alpha  occ. eigenvalues --  -10.22223 -10.21093 -10.20194  -7.97372  -7.97321
 Alpha  occ. eigenvalues --   -5.93763  -5.93727  -5.93672  -5.93387  -5.93016
 Alpha  occ. eigenvalues --   -5.92800  -0.99578  -0.94277  -0.91312  -0.86393
 Alpha  occ. eigenvalues --   -0.79933  -0.75940  -0.72674  -0.67749  -0.64500
 Alpha  occ. eigenvalues --   -0.60678  -0.57058  -0.55210  -0.52237  -0.51188
 Alpha  occ. eigenvalues --   -0.48353  -0.45356  -0.45218  -0.43550  -0.40994
 Alpha  occ. eigenvalues --   -0.39866  -0.39075  -0.37960  -0.37229  -0.35622
 Alpha  occ. eigenvalues --   -0.32853  -0.29857  -0.28884  -0.28221  -0.24945
 Alpha  occ. eigenvalues --   -0.23533  -0.19720
 Alpha virt. eigenvalues --   -0.13658  -0.06576  -0.01432   0.00957   0.02220
 Alpha virt. eigenvalues --    0.04870   0.08350   0.08881   0.10149   0.10624
 Alpha virt. eigenvalues --    0.11796   0.13927   0.14928   0.16420   0.17273
 Alpha virt. eigenvalues --    0.20005   0.21458   0.23227   0.24125   0.25862
 Alpha virt. eigenvalues --    0.26995   0.28379   0.29636   0.30205   0.32184
 Alpha virt. eigenvalues --    0.32797   0.34466   0.34869   0.35861   0.36108
 Alpha virt. eigenvalues --    0.37562   0.38494   0.39679   0.41099   0.42066
 Alpha virt. eigenvalues --    0.43004   0.43825   0.45802   0.46889   0.47450
 Alpha virt. eigenvalues --    0.48308   0.50027   0.51414   0.52026   0.52421
 Alpha virt. eigenvalues --    0.53315   0.54931   0.55517   0.56762   0.58802
 Alpha virt. eigenvalues --    0.59589   0.60544   0.60588   0.63019   0.63460
 Alpha virt. eigenvalues --    0.64505   0.65422   0.67370   0.67676   0.69203
 Alpha virt. eigenvalues --    0.69722   0.71099   0.72068   0.72935   0.74566
 Alpha virt. eigenvalues --    0.75188   0.76489   0.77993   0.78827   0.79842
 Alpha virt. eigenvalues --    0.80309   0.81773   0.82810   0.84607   0.85161
 Alpha virt. eigenvalues --    0.85706   0.87223   0.88294   0.89383   0.90677
 Alpha virt. eigenvalues --    0.90803   0.93886   0.94200   0.96708   0.99576
 Alpha virt. eigenvalues --    1.00496   1.01888   1.02993   1.04833   1.07011
 Alpha virt. eigenvalues --    1.08264   1.08792   1.11616   1.12727   1.17760
 Alpha virt. eigenvalues --    1.19432   1.20234   1.21088   1.23544   1.25164
 Alpha virt. eigenvalues --    1.26306   1.28494   1.30172   1.31073   1.32208
 Alpha virt. eigenvalues --    1.33530   1.34137   1.35406   1.37274   1.38189
 Alpha virt. eigenvalues --    1.40922   1.41789   1.43341   1.43619   1.46500
 Alpha virt. eigenvalues --    1.47761   1.48449   1.50570   1.51237   1.54406
 Alpha virt. eigenvalues --    1.56056   1.56805   1.58700   1.60856   1.62563
 Alpha virt. eigenvalues --    1.63305   1.63493   1.65297   1.69109   1.70336
 Alpha virt. eigenvalues --    1.70916   1.74412   1.75467   1.77495   1.78292
 Alpha virt. eigenvalues --    1.79349   1.80750   1.81450   1.84359   1.84474
 Alpha virt. eigenvalues --    1.87260   1.88529   1.89679   1.91081   1.92764
 Alpha virt. eigenvalues --    1.93944   1.95279   1.97076   1.98304   2.00260
 Alpha virt. eigenvalues --    2.02042   2.03179   2.06141   2.07559   2.12160
 Alpha virt. eigenvalues --    2.13825   2.16873   2.19326   2.23024   2.23651
 Alpha virt. eigenvalues --    2.24411   2.26360   2.26645   2.28755   2.32279
 Alpha virt. eigenvalues --    2.33646   2.34276   2.35128   2.37043   2.41047
 Alpha virt. eigenvalues --    2.43287   2.43901   2.46969   2.49530   2.50915
 Alpha virt. eigenvalues --    2.52667   2.54460   2.56912   2.59554   2.67204
 Alpha virt. eigenvalues --    2.67782   2.74196   2.76303   2.79019   2.83924
 Alpha virt. eigenvalues --    2.84429   2.85403   2.90221   2.91117   2.92282
 Alpha virt. eigenvalues --    2.92875   2.97252   2.97724   2.98767   2.99720
 Alpha virt. eigenvalues --    3.02509   3.04386   3.05067   3.06943   3.08991
 Alpha virt. eigenvalues --    3.09956   3.10795   3.13698   3.14608   3.16638
 Alpha virt. eigenvalues --    3.17836   3.19484   3.21415   3.22644   3.23519
 Alpha virt. eigenvalues --    3.24359   3.26019   3.27849   3.28405   3.30583
 Alpha virt. eigenvalues --    3.32233   3.33363   3.36116   3.39662   3.41161
 Alpha virt. eigenvalues --    3.43801   3.44568   3.46257   3.47852   3.51363
 Alpha virt. eigenvalues --    3.51519   3.53742   3.56447   3.59093   3.60264
 Alpha virt. eigenvalues --    3.65259   3.67851   3.70407   3.71521   3.73325
 Alpha virt. eigenvalues --    3.75563   3.78348   3.80534   3.82663   3.85662
 Alpha virt. eigenvalues --    3.86338   3.87798   3.89996   3.91725   3.93351
 Alpha virt. eigenvalues --    3.93548   3.95886   3.98292   4.01854   4.02848
 Alpha virt. eigenvalues --    4.04425   4.06648   4.09674   4.14276   4.18191
 Alpha virt. eigenvalues --    4.19649   4.21176   4.25643   4.26738   4.29524
 Alpha virt. eigenvalues --    4.31718   4.33536   4.34448   4.37262   4.39417
 Alpha virt. eigenvalues --    4.41801   4.43663   4.45506   4.47253   4.47615
 Alpha virt. eigenvalues --    4.48811   4.50934   4.52974   4.53383   4.54781
 Alpha virt. eigenvalues --    4.55988   4.56491   4.57394   4.58169   4.60990
 Alpha virt. eigenvalues --    4.61949   4.62696   4.65533   4.65922   4.68471
 Alpha virt. eigenvalues --    4.71439   4.73755   4.74940   4.75820   4.81807
 Alpha virt. eigenvalues --    4.82493   4.83840   4.85312   4.90410   4.91677
 Alpha virt. eigenvalues --    4.94000   5.00114   5.01704   5.03279   5.05617
 Alpha virt. eigenvalues --    5.07153   5.12923   5.13341   5.14020   5.16882
 Alpha virt. eigenvalues --    5.17528   5.22855   5.24621   5.30583   5.34049
 Alpha virt. eigenvalues --    5.37969   5.40258   5.43376   5.44786   5.50923
 Alpha virt. eigenvalues --    5.57318   5.63542   5.67218   5.73744   5.76167
 Alpha virt. eigenvalues --    5.82304   5.88433   5.98165   6.08420   6.16332
 Alpha virt. eigenvalues --    6.30712   6.80990  10.26774  10.33115  10.64940
 Alpha virt. eigenvalues --   11.06844  11.10283  11.37393  11.38700  11.59698
 Alpha virt. eigenvalues --   11.76434  12.06571  12.43106  18.61042  22.56735
          Condensed to atoms (all electrons):
               1          2          3          4          5          6
     1  C    4.719468   0.644003  -0.102470  -0.005740   0.000976  -0.000003
     2  N    0.644003   6.281986   0.476632  -0.034563   0.005030   0.000219
     3  C   -0.102470   0.476632   4.618309   0.530300  -0.044619   0.000423
     4  C   -0.005740  -0.034563   0.530300   4.808650   0.347310  -0.037577
     5  S    0.000976   0.005030  -0.044619   0.347310  15.547628   0.328594
     6  C   -0.000003   0.000219   0.000423  -0.037577   0.328594   4.835584
     7  C    0.000012  -0.000025   0.006950  -0.058938  -0.031582   0.634680
     8  C   -0.000283   0.003009  -0.005713   0.429452  -0.081842   0.011365
     9  N    0.000568   0.004097  -0.060036  -0.098096   0.006674   0.001291
    10  C   -0.011689  -0.039966   0.432683  -0.055784   0.010493   0.000194
    11  S   -0.004759   0.010510  -0.016708   0.004472  -0.000349   0.000015
    12  C   -0.013994  -0.046360  -0.010191  -0.002402  -0.000255   0.000009
    13  C    0.466533  -0.019477  -0.018041   0.001589   0.000178   0.000000
    14  H    0.361851  -0.030059   0.003812  -0.000448  -0.000127  -0.000000
    15  H   -0.000000  -0.000004  -0.000131   0.002304  -0.052265   0.369225
    16  H   -0.000000   0.000000  -0.000192   0.004797   0.006630  -0.049458
    17  H   -0.034951   0.003504   0.000440   0.000010  -0.000005  -0.000000
               7          8          9         10         11         12
     1  C    0.000012  -0.000283   0.000568  -0.011689  -0.004759  -0.013994
     2  N   -0.000025   0.003009   0.004097  -0.039966   0.010510  -0.046360
     3  C    0.006950  -0.005713  -0.060036   0.432683  -0.016708  -0.010191
     4  C   -0.058938   0.429452  -0.098096  -0.055784   0.004472  -0.002402
     5  S   -0.031582  -0.081842   0.006674   0.010493  -0.000349  -0.000255
     6  C    0.634680   0.011365   0.001291   0.000194   0.000015   0.000009
     7  C    4.978852   0.372332  -0.030074   0.002326  -0.000244  -0.000144
     8  C    0.372332   4.594345   0.602749  -0.110720   0.001117   0.001163
     9  N   -0.030074   0.602749   6.686437   0.377571  -0.016924  -0.017429
    10  C    0.002326  -0.110720   0.377571   4.680177   0.166595   0.286570
    11  S   -0.000244   0.001117  -0.016924   0.166595  15.796147   0.223273
    12  C   -0.000144   0.001163  -0.017429   0.286570   0.223273   5.142880
    13  C    0.000003   0.000211   0.000354  -0.013093  -0.067897   0.538155
    14  H   -0.000000   0.000012   0.000007   0.000624  -0.000846   0.004453
    15  H   -0.030196   0.003603  -0.000037   0.000008  -0.000000  -0.000000
    16  H    0.369133  -0.032118  -0.001688  -0.000053   0.000008   0.000000
    17  H   -0.000000   0.000000  -0.000015   0.001642   0.001961  -0.032570
              13         14         15         16         17
     1  C    0.466533   0.361851  -0.000000  -0.000000  -0.034951
     2  N   -0.019477  -0.030059  -0.000004   0.000000   0.003504
     3  C   -0.018041   0.003812  -0.000131  -0.000192   0.000440
     4  C    0.001589  -0.000448   0.002304   0.004797   0.000010
     5  S    0.000178  -0.000127  -0.052265   0.006630  -0.000005
     6  C    0.000000  -0.000000   0.369225  -0.049458  -0.000000
     7  C    0.000003  -0.000000  -0.030196   0.369133  -0.000000
     8  C    0.000211   0.000012   0.003603  -0.032118   0.000000
     9  N    0.000354   0.000007  -0.000037  -0.001688  -0.000015
    10  C   -0.013093   0.000624   0.000008  -0.000053   0.001642
    11  S   -0.067897  -0.000846  -0.000000   0.000008   0.001961
    12  C    0.538155   0.004453  -0.000000   0.000000  -0.032570
    13  C    4.928061  -0.063911  -0.000000   0.000000   0.358043
    14  H   -0.063911   0.609765   0.000000   0.000000  -0.002544
    15  H   -0.000000   0.000000   0.575514  -0.003367  -0.000000
    16  H    0.000000   0.000000  -0.003367   0.577226  -0.000000
    17  H    0.358043  -0.002544  -0.000000  -0.000000   0.559420
 Mulliken charges:
               1
     1  C   -0.019522
     2  N   -0.258538
     3  C    0.188551
     4  C    0.164664
     5  S   -0.042469
     6  C   -0.094561
     7  C   -0.213085
     8  C    0.211317
     9  N   -0.455448
    10  C    0.272421
    11  S   -0.096371
    12  C   -0.073159
    13  C   -0.110708
    14  H    0.117412
    15  H    0.135346
    16  H    0.129083
    17  H    0.145065
 Sum of Mulliken charges =  -0.00000
 Mulliken charges with hydrogens summed into heavy atoms:
               1
     1  C    0.097891
     2  N   -0.258538
     3  C    0.188551
     4  C    0.164664
     5  S   -0.042469
     6  C    0.040785
     7  C   -0.084002
     8  C    0.211317
     9  N   -0.455448
    10  C    0.272421
    11  S   -0.096371
    12  C   -0.073159
    13  C    0.034357
 Electronic spatial extent (au):  <R**2>=           2474.6348
 Charge=             -0.0000 electrons
 Dipole moment (field-independent basis, Debye):
    X=              0.1793    Y=              1.9222    Z=             -0.2554  Tot=              1.9474
 Quadrupole moment (field-independent basis, Debye-Ang):
   XX=            -69.5956   YY=            -89.9734   ZZ=            -87.4853
   XY=             -8.0226   XZ=              1.4866   YZ=             -4.1421
 Traceless Quadrupole moment (field-independent basis, Debye-Ang):
   XX=             12.7558   YY=             -7.6220   ZZ=             -5.1339
   XY=             -8.0226   XZ=              1.4866   YZ=             -4.1421
 Octapole moment (field-independent basis, Debye-Ang**2):
  XXX=             26.7822  YYY=             19.4883  ZZZ=              3.8563  XYY=             -2.3726
  XXY=              9.3635  XXZ=             -7.7652  XZZ=             -4.7123  YZZ=              1.0206
  YYZ=              0.6379  XYZ=              7.8820
 Hexadecapole moment (field-independent basis, Debye-Ang**3):
 XXXX=          -2034.4924 YYYY=           -887.3511 ZZZZ=           -205.1824 XXXY=            -50.3851
 XXXZ=             19.5046 YYYX=            -51.1868 YYYZ=            -19.6174 ZZZX=             -3.4678
 ZZZY=             -9.2728 XXYY=           -488.5434 XXZZ=           -430.4668 YYZZ=           -182.6607
 XXYZ=            -14.1062 YYXZ=              0.0281 ZZXY=              0.2686
 N-N= 9.276316525318D+02 E-N=-4.803911350708D+03  KE= 1.245909786964D+03
 PrsmSu:  requested number of processors reduced to:  13 ShMem   1 Linda.
 Calling FoFJK, ICntrl=      2127 FMM=F ISym2X=0 I1Cent= 0 IOpClX= 0 NMat=1 NMatS=1 NMatT=0.
 ***** Axes restored to original set *****
 -------------------------------------------------------------------
 Center     Atomic                   Forces (Hartrees/Bohr)
 Number     Number              X              Y              Z
 -------------------------------------------------------------------
      1        6           0.016304882   -0.029998654    0.046994392
      2        7          -0.014481797    0.000760742   -0.020662610
      3        6           0.047239815   -0.049056179   -0.003410486
      4        6          -0.023280784    0.030815144    0.008404332
      5       16           0.018400727    0.010974085   -0.014111248
      6        6          -0.008573566    0.018539419    0.000163359
      7        6          -0.004985850   -0.020446575    0.007140282
      8        6           0.009991826    0.021988696   -0.012389851
      9        7           0.002941554    0.000578786    0.000081702
     10        6           0.010850963    0.065264653    0.003062666
     11       16          -0.061631331   -0.058051909   -0.009484567
     12        6          -0.019128855   -0.005388554   -0.014075082
     13        6           0.061196855    0.039693594    0.011570051
     14        1          -0.007867178   -0.005816758   -0.002555912
     15        1          -0.007990626    0.004717840    0.003581893
     16        1          -0.004630537   -0.004774233    0.005628495
     17        1          -0.014356099   -0.019800099   -0.009937415
 -------------------------------------------------------------------
 Cartesian Forces:  Max     0.065264653 RMS     0.024735910

 GradGradGradGradGradGradGradGradGradGradGradGradGradGradGradGradGradGrad
 Berny optimization.
 FormGI is forming the generalized inverse of G from B-inverse, IUseBI=4.
 Internal  Forces:  Max     0.081295604 RMS     0.017172728
 Search for a local minimum.
 Step number   1 out of a maximum of  102
 All quantities printed in internal units (Hartrees-Bohrs-Radians)
 Mixed Optimization -- RFO/linear search
 Second derivative matrix not updated -- first step.
 ITU=  0
     Eigenvalues ---    0.01005   0.01355   0.01596   0.01710   0.01804
     Eigenvalues ---    0.01927   0.02110   0.02231   0.02372   0.02518
     Eigenvalues ---    0.02645   0.03469   0.04323   0.14578   0.15520
     Eigenvalues ---    0.15982   0.15989   0.15998   0.18925   0.20250
     Eigenvalues ---    0.21842   0.22461   0.22966   0.23981   0.24697
     Eigenvalues ---    0.25709   0.28900   0.29477   0.30260   0.31959
     Eigenvalues ---    0.32826   0.33273   0.33605   0.34307   0.35680
     Eigenvalues ---    0.35941   0.35972   0.36070   0.38178   0.49268
     Eigenvalues ---    0.51530   0.52211   0.58186   0.66401   0.72021
 RFO step:  Lambda=-7.73066401D-02 EMin= 1.00475850D-02
 Linear search not attempted -- first point.
 Maximum step size (   0.300) exceeded in Quadratic search.
    -- Step size scaled by   0.738
 Iteration  1 RMS(Cart)=  0.08500825 RMS(Int)=  0.00326234
 Iteration  2 RMS(Cart)=  0.00422933 RMS(Int)=  0.00080489
 Iteration  3 RMS(Cart)=  0.00001064 RMS(Int)=  0.00080484
 Iteration  4 RMS(Cart)=  0.00000001 RMS(Int)=  0.00080484
 Variable       Old X    -DE/DX   Delta X   Delta X   Delta X     New X
                                 (Linear)    (Quad)   (Total)
    R1        2.40911   0.03584   0.00000   0.03318   0.03326   2.44236
    R2        2.80513  -0.02337   0.00000  -0.04237  -0.04207   2.76306
    R3        2.08001  -0.00595   0.00000  -0.01063  -0.01063   2.06938
    R4        2.57585   0.01107   0.00000   0.01606   0.01576   2.59161
    R5        2.44358   0.08130   0.00000   0.08328   0.08331   2.52688
    R6        2.75016   0.02726   0.00000   0.04901   0.04904   2.79920
    R7        3.16226   0.03027   0.00000   0.04983   0.05003   3.21229
    R8        2.75343   0.00305   0.00000   0.00884   0.00885   2.76228
    R9        3.24052   0.02730   0.00000   0.04872   0.04841   3.28893
   R10        2.56246  -0.00092   0.00000  -0.00261  -0.00290   2.55956
   R11        2.04173   0.00181   0.00000   0.00306   0.00306   2.04479
   R12        2.86425  -0.02639   0.00000  -0.05338  -0.05329   2.81096
   R13        2.03972   0.00151   0.00000   0.00254   0.00254   2.04226
   R14        2.49419  -0.01476   0.00000  -0.01992  -0.02014   2.47405
   R15        2.87007  -0.01441   0.00000  -0.03676  -0.03664   2.83344
   R16        3.22795   0.05469   0.00000   0.11726   0.11708   3.34502
   R17        2.83132   0.00848   0.00000   0.00715   0.00706   2.83838
   R18        3.29140   0.02155   0.00000   0.02170   0.02194   3.31334
   R19        2.57818   0.02938   0.00000   0.03378   0.03407   2.61225
   R20        2.04585   0.00108   0.00000   0.00184   0.00184   2.04769
    A1        2.20541  -0.00668   0.00000  -0.01797  -0.01825   2.18717
    A2        2.01440   0.00841   0.00000   0.02664   0.02570   2.04009
    A3        2.06142  -0.00138   0.00000  -0.00456  -0.00550   2.05592
    A4        2.02932   0.00438   0.00000   0.01808   0.01792   2.04724
    A5        2.07849   0.03357   0.00000   0.06886   0.06823   2.14672
    A6        2.22355  -0.00595   0.00000  -0.01897  -0.01946   2.20409
    A7        1.94086  -0.02857   0.00000  -0.05256  -0.05158   1.88928
    A8        2.30511   0.03041   0.00000   0.06175   0.06141   2.36652
    A9        1.86388  -0.00554   0.00000   0.00054   0.00036   1.86424
   A10        2.08940  -0.02456   0.00000  -0.05974  -0.05941   2.02999
   A11        1.51794   0.00444   0.00000   0.02037   0.02012   1.53806
   A12        2.07113  -0.00816   0.00000  -0.02040  -0.02095   2.05018
   A13        1.97579   0.01400   0.00000   0.04103   0.04130   2.01709
   A14        2.23609  -0.00581   0.00000  -0.02055  -0.02028   2.21580
   A15        1.92756   0.00420   0.00000   0.00562   0.00542   1.93299
   A16        2.08611   0.00628   0.00000   0.02335   0.02343   2.10953
   A17        2.26909  -0.01047   0.00000  -0.02874  -0.02866   2.24043
   A18        1.80142   0.02495   0.00000   0.05873   0.05917   1.86060
   A19        1.97691   0.00770   0.00000   0.01289   0.01231   1.98922
   A20        2.50432  -0.03271   0.00000  -0.07205  -0.07200   2.43232
   A21        1.81640   0.01614   0.00000   0.00895   0.00880   1.82520
   A22        1.82418   0.00976   0.00000   0.02807   0.02755   1.85173
   A23        2.09868   0.02838   0.00000   0.08298   0.08263   2.18131
   A24        1.94789   0.00127   0.00000   0.00019   0.00027   1.94816
   A25        2.01865  -0.02155   0.00000  -0.04946  -0.05194   1.96670
   A26        2.37665  -0.01079   0.00000  -0.03627  -0.03592   2.34073
   A27        2.12449  -0.00602   0.00000  -0.00907  -0.00923   2.11526
   A28        2.08654   0.02559   0.00000   0.08937   0.09088   2.17742
   A29        2.02920   0.01344   0.00000   0.02809   0.02758   2.05678
   A30        1.94920   0.00301   0.00000   0.02867   0.02737   1.97657
   A31        2.24900  -0.01242   0.00000  -0.02787  -0.02990   2.21909
    D1        0.08544   0.00561   0.00000   0.04491   0.04455   0.12999
    D2       -2.98736  -0.00057   0.00000  -0.02758  -0.02866  -3.01602
    D3       -0.10339   0.00319   0.00000  -0.00539  -0.00454  -0.10793
    D4       -2.92445  -0.00524   0.00000  -0.07916  -0.08029  -3.00474
    D5        2.96775   0.00985   0.00000   0.06991   0.07036   3.03811
    D6        0.14669   0.00143   0.00000  -0.00386  -0.00539   0.14130
    D7        2.74019  -0.01515   0.00000  -0.06040  -0.06132   2.67888
    D8       -0.07228  -0.00695   0.00000  -0.04195  -0.04198  -0.11426
    D9        0.07116   0.00322   0.00000   0.02726   0.02790   0.09906
   D10       -2.82454   0.00666   0.00000   0.02591   0.02697  -2.79757
   D11        2.93374  -0.00179   0.00000   0.01348   0.01289   2.94663
   D12        0.03804   0.00166   0.00000   0.01212   0.01196   0.05000
   D13        2.76979  -0.00324   0.00000  -0.02312  -0.02310   2.74670
   D14       -1.21002   0.00022   0.00000   0.00615   0.00828  -1.20174
   D15        0.06975  -0.00004   0.00000   0.00051   0.00062   0.07037
   D16       -0.06401  -0.00506   0.00000  -0.02461  -0.02459  -0.08860
   D17        2.23936  -0.00161   0.00000   0.00466   0.00679   2.24615
   D18       -2.76405  -0.00186   0.00000  -0.00098  -0.00087  -2.76492
   D19       -3.03486   0.00674   0.00000   0.01681   0.01768  -3.01717
   D20       -0.16492   0.00635   0.00000   0.02786   0.02737  -0.13755
   D21        3.12208   0.00027   0.00000  -0.00669  -0.00769   3.11440
   D22        0.00718   0.00251   0.00000   0.00557   0.00520   0.01238
   D23        0.19007  -0.00563   0.00000  -0.02695  -0.02680   0.16327
   D24       -2.92484  -0.00339   0.00000  -0.01469  -0.01390  -2.93874
   D25        0.08421  -0.00078   0.00000  -0.01039  -0.01103   0.07318
   D26       -3.03851  -0.00199   0.00000  -0.01462  -0.01499  -3.05350
   D27        0.00799  -0.00145   0.00000  -0.00043  -0.00028   0.00771
   D28       -3.10515  -0.00153   0.00000  -0.00758  -0.00713  -3.11228
   D29        3.12754   0.00020   0.00000   0.00526   0.00494   3.13248
   D30        0.01440   0.00012   0.00000  -0.00190  -0.00191   0.01249
   D31       -0.11185   0.00157   0.00000   0.00979   0.01047  -0.10138
   D32        2.98853   0.00007   0.00000  -0.00491  -0.00386   2.98467
   D33        2.99741   0.00206   0.00000   0.01913   0.01915   3.01656
   D34       -0.18539   0.00056   0.00000   0.00443   0.00482  -0.18057
   D35       -0.04543  -0.00638   0.00000  -0.02125  -0.02124  -0.06667
   D36        3.13983  -0.00490   0.00000  -0.00603  -0.00666   3.13317
   D37        0.06372   0.00781   0.00000   0.02824   0.02871   0.09244
   D38       -2.28478  -0.02267   0.00000  -0.07176  -0.06823  -2.35301
   D39        2.59425   0.01129   0.00000   0.01974   0.01989   2.61413
   D40       -0.08422   0.01005   0.00000   0.04212   0.04114  -0.04308
   D41       -2.58555   0.00484   0.00000   0.04580   0.04491  -2.54064
   D42        0.09861  -0.01056   0.00000  -0.03928  -0.03921   0.05940
   D43        2.85474   0.00429   0.00000   0.06463   0.06314   2.91788
   D44        1.40556   0.01768   0.00000   0.04932   0.05041   1.45597
   D45       -2.12150   0.03252   0.00000   0.15322   0.15276  -1.96873
         Item               Value     Threshold  Converged?
 Maximum Force            0.081296     0.000450     NO 
 RMS     Force            0.017173     0.000300     NO 
 Maximum Displacement     0.276546     0.001800     NO 
 RMS     Displacement     0.085680     0.001200     NO 
 Predicted change in Energy=-4.200786D-02
 GradGradGradGradGradGradGradGradGradGradGradGradGradGradGradGradGradGrad

                          Input orientation:                          
 ---------------------------------------------------------------------
 Center     Atomic      Atomic             Coordinates (Angstroms)
 Number     Number       Type             X           Y           Z
 ---------------------------------------------------------------------
      1          6           0        1.660746   -0.177692   -0.032846
      2          7           0        1.441760    0.877236   -0.746696
      3          6           0        0.197782    1.448070   -0.660271
      4          6           0       -0.025833    2.745630   -0.893411
      5         16           0        0.903985    4.058745   -1.441790
      6          6           0       -0.448481    5.093184   -1.081440
      7          6           0       -1.528491    4.526880   -0.491994
      8          6           0       -1.302906    3.074551   -0.262887
      9          7           0       -1.867398    2.066485    0.352892
     10          6           0       -0.969625    0.899800    0.068241
     11         16           0       -1.866041   -0.553413   -0.398553
     12          6           0       -0.616580   -0.354494    0.815321
     13          6           0        0.650877   -0.900874    0.738549
     14          1           0        2.687750   -0.557181   -0.012030
     15          1           0       -0.334252    6.129367   -1.371482
     16          1           0       -2.408937    5.112410   -0.268569
     17          1           0        1.069064   -1.675044    1.370966
 ---------------------------------------------------------------------
                    Distance matrix (angstroms):
                    1          2          3          4          5
     1  C    0.000000
     2  N    1.292443   0.000000
     3  C    2.275309   1.371424   0.000000
     4  C    3.482950   2.380389   1.337168   0.000000
     5  S    4.528268   3.300660   2.815158   1.699868   0.000000
     6  C    5.773260   4.632417   3.725841   2.392696   1.740426
     7  C    5.702197   4.712448   3.533752   2.364734   2.652961
     8  C    4.406047   3.549009   2.248426   1.461734   2.688647
     9  N    4.199158   3.684282   2.381996   2.325053   3.856235
    10  C    2.844303   2.545468   1.481273   2.285302   3.971088
    11  S    3.565549   3.620706   2.886832   3.809847   5.480273
    12  C    2.436568   2.862485   2.467751   3.588805   5.184915
    13  C    1.462148   2.448085   2.771197   4.051941   5.423630
    14  H    1.095071   2.037100   3.262083   4.364508   5.151000
    15  H    6.749145   5.579378   4.764811   3.431231   2.413638
    16  H    6.678553   5.743969   4.513957   3.416323   3.669075
    17  H    2.136080   3.337293   3.826081   5.086115   6.388676
                    6          7          8          9         10
     6  C    0.000000
     7  C    1.354463   0.000000
     8  C    2.339861   1.487493   0.000000
     9  N    3.637519   2.623401   1.309211   0.000000
    10  C    4.379249   3.712398   2.224919   1.499392   0.000000
    11  S    5.861729   5.092352   3.673915   2.725534   1.770109
    12  C    5.770889   5.135023   3.659498   2.763969   1.502006
    13  C    6.360006   5.976988   4.541382   3.910966   2.513517
    14  H    6.550283   6.622291   5.401643   5.269361   3.937719
    15  H    1.082057   2.183500   3.391043   4.672367   5.461215
    16  H    2.122385   1.080717   2.318665   3.155494   4.464431
    17  H    7.357047   6.977232   5.554671   4.863981   3.533152
                   11         12         13         14         15
    11  S    0.000000
    12  C    1.753343   0.000000
    13  C    2.783632   1.382343   0.000000
    14  H    4.570167   3.412358   2.197805   0.000000
    15  H    6.924776   6.848523   7.405876   7.462609   0.000000
    16  H    5.693258   5.854435   6.821754   7.627994   2.560261
    17  H    3.606119   2.212236   1.083592   2.404670   8.390420
                   16         17
    16  H    0.000000
    17  H    7.800904   0.000000
 Stoichiometry    C9H4N2S2
 Framework group  C1[X(C9H4N2S2)]
 Deg. of freedom    45
 Full point group                 C1      NOp   1
 Largest Abelian subgroup         C1      NOp   1
 Largest concise Abelian subgroup C1      NOp   1
                         Standard orientation:                         
 ---------------------------------------------------------------------
 Center     Atomic      Atomic             Coordinates (Angstroms)
 Number     Number       Type             X           Y           Z
 ---------------------------------------------------------------------
      1          6           0       -1.892827    2.040461   -0.215765
      2          7           0       -0.709859    1.837788    0.263733
      3          6           0       -0.230602    0.553181    0.233720
      4          6           0        1.074249    0.263424    0.195981
      5         16           0        2.519125    1.154112    0.288494
      6          6           0        3.379029   -0.309729   -0.094670
      7          6           0        2.642858   -1.411703   -0.374445
      8          6           0        1.188801   -1.107564   -0.297920
      9          7           0        0.040150   -1.669661   -0.578420
     10          6           0       -0.985917   -0.655014   -0.171168
     11         16           0       -2.325740   -1.367073    0.740497
     12          6           0       -2.364393   -0.308956   -0.657040
     13          6           0       -2.821159    0.995689   -0.645333
     14          1           0       -2.221147    3.081708   -0.300579
     15          1           0        4.458374   -0.237991   -0.067894
     16          1           0        3.119971   -2.356413   -0.593155
     17          1           0       -3.703633    1.384434   -1.139588
 ---------------------------------------------------------------------
 Rotational constants (GHZ):           1.4030244           0.5351350           0.4144727
 Standard basis: 6-31G(2df,p) (6D, 7F)
 There are   431 symmetry adapted cartesian basis functions of A   symmetry.
 There are   392 symmetry adapted basis functions of A   symmetry.
   392 basis functions,   648 primitive gaussians,   431 cartesian basis functions
    52 alpha electrons       52 beta electrons
       nuclear repulsion energy       915.1582745244 Hartrees.
 NAtoms=   17 NActive=   17 NUniq=   17 SFac= 1.00D+00 NAtFMM=   60 NAOKFM=F Big=F
 Integral buffers will be    131072 words long.
 Raffenetti 2 integral format.
 Two-electron integral symmetry is turned on.
 One-electron integrals computed using PRISM.
 PrsmSu:  requested number of processors reduced to:  13 ShMem   1 Linda.
 NBasis=   392 RedAO= T EigKep=  1.51D-04  NBF=   392
 NBsUse=   392 1.00D-06 EigRej= -1.00D+00 NBFU=   392
 Initial guess from the checkpoint file:  "C1dNC2dc3sccc3dNC23SC3dC1.chk"
 B after Tr=     0.000000    0.000000   -0.000000
         Rot=    0.999963   -0.008418   -0.000685    0.001298 Ang=  -0.98 deg.
 ExpMin= 1.17D-01 ExpMax= 2.19D+04 ExpMxC= 3.30D+03 IAcc=2 IRadAn=         4 AccDes= 0.00D+00
 Harris functional with IExCor=  402 and IRadAn=       4 diagonalized for initial guess.
 HarFok:  IExCor=  402 AccDes= 0.00D+00 IRadAn=         4 IDoV= 1 UseB2=F ITyADJ=14
 ICtDFT=  3500011 ScaDFX=  1.000000  1.000000  1.000000  1.000000
 FoFCou: FMM=F IPFlag=           0 FMFlag=      100000 FMFlg1=           0
         NFxFlg=           0 DoJE=T BraDBF=F KetDBF=T FulRan=T
         wScrn=  0.000000 ICntrl=       500 IOpCl=  0 I1Cent=   200000004 NGrid=           0
         NMat0=    1 NMatS0=      1 NMatT0=    0 NMatD0=    1 NMtDS0=    0 NMtDT0=    0
 Petite list used in FoFCou.
 Requested convergence on RMS density matrix=1.00D-08 within 128 cycles.
 Requested convergence on MAX density matrix=1.00D-06.
 Requested convergence on             energy=1.00D-06.
 No special actions if energy rises.
 Integral accuracy reduced to 1.0D-05 until final iterations.
 Initial convergence to 1.0D-05 achieved.  Increase integral accuracy.
 SCF Done:  E(RB3LYP) =  -1251.09037055     A.U. after   15 cycles
            NFock= 15  Conv=0.86D-08     -V/T= 2.0045
 PrsmSu:  requested number of processors reduced to:  13 ShMem   1 Linda.
 Calling FoFJK, ICntrl=      2127 FMM=F ISym2X=0 I1Cent= 0 IOpClX= 0 NMat=1 NMatS=1 NMatT=0.
 ***** Axes restored to original set *****
 -------------------------------------------------------------------
 Center     Atomic                   Forces (Hartrees/Bohr)
 Number     Number              X              Y              Z
 -------------------------------------------------------------------
      1        6          -0.000626750   -0.009464529    0.029127245
      2        7          -0.013538689    0.002488081   -0.012683263
      3        6           0.031644061   -0.018626351   -0.006531333
      4        6          -0.007841030    0.002532102    0.009060826
      5       16           0.007352147    0.006397933   -0.008234299
      6        6          -0.005020478    0.009375082    0.000879679
      7        6          -0.001017703   -0.014142579    0.003410196
      8        6           0.009637941    0.014795126   -0.009980989
      9        7           0.000894039   -0.009010203    0.001288546
     10        6           0.008635065    0.042211850    0.003259682
     11       16          -0.033672231   -0.034066019    0.004657715
     12        6          -0.003803601   -0.001043210   -0.023201869
     13        6           0.031132732    0.029565258    0.014838380
     14        1          -0.004672280   -0.002101996   -0.002539192
     15        1          -0.003588903    0.001109474    0.002194211
     16        1          -0.002227075   -0.004277436    0.004061377
     17        1          -0.013287244   -0.015742585   -0.009606913
 -------------------------------------------------------------------
 Cartesian Forces:  Max     0.042211850 RMS     0.014834075

 GradGradGradGradGradGradGradGradGradGradGradGradGradGradGradGradGradGrad
 Berny optimization.
 Using GEDIIS/GDIIS optimizer.
 FormGI is forming the generalized inverse of G from B-inverse, IUseBI=4.
 Internal  Forces:  Max     0.031600581 RMS     0.008905169
 Search for a local minimum.
 Step number   2 out of a maximum of  102
 All quantities printed in internal units (Hartrees-Bohrs-Radians)
 Mixed Optimization -- RFO/linear search
 Update second derivatives using D2CorX and points    1    2
 DE= -4.38D-02 DEPred=-4.20D-02 R= 1.04D+00
 TightC=F SS=  1.41D+00  RLast= 3.96D-01 DXNew= 5.0454D-01 1.1879D+00
 Trust test= 1.04D+00 RLast= 3.96D-01 DXMaxT set to 5.05D-01
 ITU=  1  0
 Use linear search instead of GDIIS.
     Eigenvalues ---    0.01027   0.01384   0.01592   0.01707   0.01757
     Eigenvalues ---    0.01956   0.02091   0.02183   0.02360   0.02538
     Eigenvalues ---    0.02707   0.03497   0.04240   0.12175   0.15258
     Eigenvalues ---    0.15910   0.15999   0.16108   0.17953   0.20237
     Eigenvalues ---    0.21323   0.22476   0.22692   0.23536   0.24911
     Eigenvalues ---    0.25944   0.28284   0.29230   0.29679   0.31300
     Eigenvalues ---    0.32812   0.33569   0.33626   0.34377   0.35680
     Eigenvalues ---    0.35940   0.36069   0.36282   0.38070   0.49128
     Eigenvalues ---    0.51562   0.54013   0.58905   0.69731   0.72071
 RFO step:  Lambda=-2.79668198D-02 EMin= 1.02706834D-02
 Quartic linear search produced a step of  1.48707.
 Iteration  1 RMS(Cart)=  0.13364558 RMS(Int)=  0.03597605
 Iteration  2 RMS(Cart)=  0.02832891 RMS(Int)=  0.00739402
 Iteration  3 RMS(Cart)=  0.00172745 RMS(Int)=  0.00711440
 Iteration  4 RMS(Cart)=  0.00001104 RMS(Int)=  0.00711439
 Iteration  5 RMS(Cart)=  0.00000028 RMS(Int)=  0.00711439
 Variable       Old X    -DE/DX   Delta X   Delta X   Delta X     New X
                                 (Linear)    (Quad)   (Total)
    R1        2.44236   0.01508   0.04946  -0.01393   0.03726   2.47962
    R2        2.76306  -0.01495  -0.06256  -0.01813  -0.07555   2.68751
    R3        2.06938  -0.00370  -0.01580  -0.00341  -0.01921   2.05017
    R4        2.59161  -0.00652   0.02344  -0.05197  -0.03301   2.55860
    R5        2.52688   0.02622   0.12388  -0.06244   0.06117   2.58805
    R6        2.79920   0.01493   0.07293   0.00033   0.06946   2.86866
    R7        3.21229   0.01508   0.07440  -0.00721   0.06761   3.27990
    R8        2.76228  -0.00089   0.01316  -0.01454  -0.00198   2.76030
    R9        3.28893   0.01289   0.07198  -0.00936   0.06158   3.35051
   R10        2.55956  -0.00120  -0.00431  -0.00218  -0.00729   2.55228
   R11        2.04479   0.00010   0.00455  -0.00531  -0.00076   2.04403
   R12        2.81096  -0.01894  -0.07925  -0.03524  -0.11404   2.69691
   R13        2.04226   0.00034   0.00377  -0.00284   0.00093   2.04319
   R14        2.47405  -0.00640  -0.02996   0.00927  -0.02157   2.45248
   R15        2.83344  -0.01747  -0.05448  -0.06752  -0.12109   2.71235
   R16        3.34502   0.03160   0.17410   0.03631   0.20445   3.54947
   R17        2.83838  -0.00221   0.01049  -0.04871  -0.03758   2.80080
   R18        3.31334   0.00625   0.03263  -0.05687  -0.01897   3.29437
   R19        2.61225   0.00281   0.05066  -0.05802  -0.00305   2.60920
   R20        2.04769   0.00051   0.00274  -0.00041   0.00233   2.05002
    A1        2.18717   0.00043  -0.02714   0.02804  -0.00147   2.18569
    A2        2.04009   0.00118   0.03821  -0.02797  -0.00665   2.03344
    A3        2.05592  -0.00163  -0.00819  -0.00065  -0.02295   2.03297
    A4        2.04724  -0.00212   0.02665  -0.04000  -0.01104   2.03620
    A5        2.14672   0.01497   0.10146  -0.01803   0.08257   2.22929
    A6        2.20409  -0.00238  -0.02893   0.01146  -0.02383   2.18026
    A7        1.88928  -0.01329  -0.07671  -0.00231  -0.07323   1.81605
    A8        2.36652   0.01620   0.09132   0.00897   0.09993   2.46645
    A9        1.86424  -0.00341   0.00053  -0.01017  -0.01116   1.85308
   A10        2.02999  -0.01261  -0.08835   0.00467  -0.08292   1.94706
   A11        1.53806   0.00140   0.02992  -0.00508   0.02275   1.56081
   A12        2.05018  -0.00478  -0.03115  -0.00108  -0.03449   2.01569
   A13        2.01709   0.00677   0.06142  -0.00797   0.05456   2.07166
   A14        2.21580  -0.00199  -0.03016   0.00906  -0.02001   2.19579
   A15        1.93299   0.00243   0.00807   0.00355   0.01060   1.94358
   A16        2.10953   0.00488   0.03483   0.02138   0.05645   2.16598
   A17        2.24043  -0.00731  -0.04262  -0.02446  -0.06685   2.17358
   A18        1.86060   0.01409   0.08799   0.00428   0.09350   1.95409
   A19        1.98922   0.00565   0.01831   0.02007   0.03596   2.02518
   A20        2.43232  -0.01979  -0.10707  -0.02478  -0.13119   2.30112
   A21        1.82520   0.00352   0.01309  -0.03173  -0.01864   1.80656
   A22        1.85173   0.00717   0.04097   0.02610   0.06426   1.91599
   A23        2.18131   0.01574   0.12287   0.00984   0.12876   2.31007
   A24        1.94816   0.00167   0.00040   0.00443   0.00635   1.95451
   A25        1.96670  -0.01361  -0.07724  -0.01208  -0.10031   1.86640
   A26        2.34073  -0.00808  -0.05341  -0.02450  -0.07703   2.26370
   A27        2.11526  -0.00401  -0.01373   0.00010  -0.01384   2.10143
   A28        2.17742   0.01489   0.13515   0.04144   0.17874   2.35616
   A29        2.05678   0.00631   0.04101  -0.00904   0.02327   2.08005
   A30        1.97657   0.00644   0.04070   0.08746   0.09966   2.07623
   A31        2.21909  -0.01041  -0.04447  -0.02637  -0.09576   2.12333
    D1        0.12999   0.00421   0.06624   0.07985   0.14111   0.27110
    D2       -3.01602  -0.00114  -0.04263  -0.07940  -0.13015   3.13702
    D3       -0.10793   0.00158  -0.00675  -0.04650  -0.04711  -0.15504
    D4       -3.00474  -0.00591  -0.11940  -0.24565  -0.38112   2.89733
    D5        3.03811   0.00697   0.10463   0.11413   0.22405  -3.02102
    D6        0.14130  -0.00052  -0.00801  -0.08503  -0.10996   0.03134
    D7        2.67888  -0.00912  -0.09118  -0.07614  -0.16876   2.51012
    D8       -0.11426  -0.00408  -0.06243  -0.04057  -0.10074  -0.21500
    D9        0.09906   0.00232   0.04150   0.04339   0.08816   0.18722
   D10       -2.79757   0.00404   0.04011   0.02492   0.07000  -2.72757
   D11        2.94663  -0.00109   0.01917   0.01653   0.03321   2.97983
   D12        0.05000   0.00064   0.01779  -0.00194   0.01505   0.06505
   D13        2.74670  -0.00253  -0.03435  -0.02348  -0.05572   2.69097
   D14       -1.20174   0.00114   0.01232  -0.00006   0.02355  -1.17819
   D15        0.07037  -0.00091   0.00092  -0.02400  -0.02025   0.05012
   D16       -0.08860  -0.00260  -0.03656   0.01094  -0.02590  -0.11450
   D17        2.24615   0.00107   0.01010   0.03436   0.05338   2.29952
   D18       -2.76492  -0.00098  -0.00129   0.01042   0.00957  -2.75535
   D19       -3.01717   0.00429   0.02630   0.01850   0.04673  -2.97044
   D20       -0.13755   0.00384   0.04070   0.03687   0.07435  -0.06320
   D21        3.11440  -0.00044  -0.01143  -0.02194  -0.03787   3.07653
   D22        0.01238   0.00107   0.00774  -0.01318  -0.00685   0.00553
   D23        0.16327  -0.00351  -0.03985  -0.03750  -0.07664   0.08663
   D24       -2.93874  -0.00200  -0.02068  -0.02875  -0.04562  -2.98436
   D25        0.07318  -0.00106  -0.01641  -0.02628  -0.04573   0.02745
   D26       -3.05350  -0.00152  -0.02230  -0.02695  -0.05066  -3.10417
   D27        0.00771  -0.00062  -0.00041   0.00890   0.01018   0.01789
   D28       -3.11228  -0.00065  -0.01060  -0.01192  -0.02093  -3.13321
   D29        3.13248  -0.00002   0.00735   0.00948   0.01622  -3.13449
   D30        0.01249  -0.00005  -0.00284  -0.01134  -0.01489  -0.00240
   D31       -0.10138   0.00137   0.01558   0.01704   0.03539  -0.06599
   D32        2.98467   0.00067  -0.00573   0.00685   0.00574   2.99042
   D33        3.01656   0.00161   0.02848   0.04060   0.06860   3.08515
   D34       -0.18057   0.00091   0.00717   0.03041   0.03895  -0.14162
   D35       -0.06667  -0.00312  -0.03158   0.02055  -0.01024  -0.07691
   D36        3.13317  -0.00248  -0.00990   0.03169   0.01945  -3.13057
   D37        0.09244   0.00382   0.04270  -0.02061   0.02282   0.11526
   D38       -2.35301  -0.01308  -0.10146  -0.04933  -0.13380  -2.48681
   D39        2.61413   0.00758   0.02958  -0.00166   0.02571   2.63984
   D40       -0.04308   0.00723   0.06118   0.06009   0.11563   0.07256
   D41       -2.54064   0.00222   0.06679   0.03583   0.09916  -2.44148
   D42        0.05940  -0.00742  -0.05831  -0.03219  -0.09011  -0.03072
   D43        2.91788   0.00440   0.09390   0.21650   0.28472  -3.08058
   D44        1.45597   0.01221   0.07496   0.03646   0.12898   1.58495
   D45       -1.96873   0.02403   0.22717   0.28514   0.50381  -1.46492
         Item               Value     Threshold  Converged?
 Maximum Force            0.031601     0.000450     NO 
 RMS     Force            0.008905     0.000300     NO 
 Maximum Displacement     0.425991     0.001800     NO 
 RMS     Displacement     0.139103     0.001200     NO 
 Predicted change in Energy=-3.150884D-02
 GradGradGradGradGradGradGradGradGradGradGradGradGradGradGradGradGradGrad

                          Input orientation:                          
 ---------------------------------------------------------------------
 Center     Atomic      Atomic             Coordinates (Angstroms)
 Number     Number       Type             X           Y           Z
 ---------------------------------------------------------------------
      1          6           0        1.692109   -0.166080    0.093185
      2          7           0        1.529982    0.790653   -0.790071
      3          6           0        0.335983    1.429007   -0.782147
      4          6           0        0.093400    2.755741   -1.019974
      5         16           0        0.873394    4.192416   -1.603113
      6          6           0       -0.522444    5.145929   -1.068300
      7          6           0       -1.503758    4.447490   -0.457280
      8          6           0       -1.172218    3.062905   -0.358556
      9          7           0       -1.740551    2.079159    0.268750
     10          6           0       -0.896318    0.957825   -0.031253
     11         16           0       -2.021025   -0.530181   -0.252337
     12          6           0       -0.628635   -0.264847    0.762531
     13          6           0        0.646468   -0.790492    0.827564
     14          1           0        2.648142   -0.678803    0.081669
     15          1           0       -0.527967    6.210615   -1.259056
     16          1           0       -2.418211    4.886986   -0.083607
     17          1           0        0.855071   -1.714660    1.355996
 ---------------------------------------------------------------------
                    Distance matrix (angstroms):
                    1          2          3          4          5
     1  C    0.000000
     2  N    1.312161   0.000000
     3  C    2.269270   1.353954   0.000000
     4  C    3.511700   2.445035   1.369537   0.000000
     5  S    4.748074   3.558670   2.932443   1.735648   0.000000
     6  C    5.871178   4.822685   3.825479   2.468723   1.773013
     7  C    5.639291   4.763064   3.549849   2.393648   2.651197
     8  C    4.339906   3.556855   2.263564   1.460689   2.647498
     9  N    4.105493   3.671203   2.416418   2.341356   3.847392
    10  C    2.824642   2.547682   1.518032   2.278073   4.008142
    11  S    3.746907   3.826671   3.110402   3.982128   5.701331
    12  C    2.417360   2.860818   2.487098   3.580867   5.264936
    13  C    1.422170   2.428448   2.759301   4.036713   5.548788
    14  H    1.084904   2.041939   3.245785   4.420002   5.451330
    15  H    6.886184   5.816450   4.882379   3.518438   2.480991
    16  H    6.516093   5.732998   4.475619   3.424497   3.691340
    17  H    2.166431   3.367151   3.837154   5.119557   6.606831
                    6          7          8          9         10
     6  C    0.000000
     7  C    1.350607   0.000000
     8  C    2.294544   1.427145   0.000000
     9  N    3.560416   2.488409   1.297794   0.000000
    10  C    4.330758   3.567666   2.148164   1.435312   0.000000
    11  S    5.927036   5.008670   3.693510   2.675603   1.878298
    12  C    5.713117   4.945694   3.553343   2.640935   1.482118
    13  C    6.340485   5.806096   4.423026   3.774258   2.484827
    14  H    6.730717   6.618732   5.365568   5.186711   3.905701
    15  H    1.081654   2.168784   3.336771   4.568750   5.406939
    16  H    2.151884   1.081209   2.226066   2.909858   4.213930
    17  H    7.405568   6.842817   5.465777   4.723602   3.483389
                   11         12         13         14         15
    11  S    0.000000
    12  C    1.743304   0.000000
    13  C    2.889544   1.380731   0.000000
    14  H    4.683457   3.372269   2.139050   0.000000
    15  H    6.977179   6.784434   7.399242   7.703849   0.000000
    16  H    5.434328   5.519050   6.515846   7.528164   2.589729
    17  H    3.501664   2.157671   1.084824   2.431463   8.459390
                   16         17
    16  H    0.000000
    17  H    7.507900   0.000000
 Stoichiometry    C9H4N2S2
 Framework group  C1[X(C9H4N2S2)]
 Deg. of freedom    45
 Full point group                 C1      NOp   1
 Largest Abelian subgroup         C1      NOp   1
 Largest concise Abelian subgroup C1      NOp   1
                         Standard orientation:                         
 ---------------------------------------------------------------------
 Center     Atomic      Atomic             Coordinates (Angstroms)
 Number     Number       Type             X           Y           Z
 ---------------------------------------------------------------------
      1          6           0       -1.896622    2.095988   -0.323113
      2          7           0       -0.753381    1.954043    0.305073
      3          6           0       -0.220458    0.709513    0.323220
      4          6           0        1.102839    0.363423    0.254370
      5         16           0        2.690998    1.059695    0.328077
      6          6           0        3.374496   -0.487045   -0.204841
      7          6           0        2.475911   -1.462656   -0.459534
      8          6           0        1.139621   -1.004279   -0.257146
      9          7           0       -0.010391   -1.545223   -0.520054
     10          6           0       -0.954003   -0.555890   -0.083089
     11         16           0       -2.401828   -1.479162    0.678077
     12          6           0       -2.322467   -0.270159   -0.575367
     13          6           0       -2.760854    1.032773   -0.704220
     14          1           0       -2.323500    3.093339   -0.332303
     15          1           0        4.448940   -0.578383   -0.289706
     16          1           0        2.739362   -2.459711   -0.784320
     17          1           0       -3.775891    1.264478   -1.008945
 ---------------------------------------------------------------------
 Rotational constants (GHZ):           1.3650823           0.5235003           0.4038921
 Standard basis: 6-31G(2df,p) (6D, 7F)
 There are   431 symmetry adapted cartesian basis functions of A   symmetry.
 There are   392 symmetry adapted basis functions of A   symmetry.
   392 basis functions,   648 primitive gaussians,   431 cartesian basis functions
    52 alpha electrons       52 beta electrons
       nuclear repulsion energy       908.3024889972 Hartrees.
 NAtoms=   17 NActive=   17 NUniq=   17 SFac= 1.00D+00 NAtFMM=   60 NAOKFM=F Big=F
 Integral buffers will be    131072 words long.
 Raffenetti 2 integral format.
 Two-electron integral symmetry is turned on.
 One-electron integrals computed using PRISM.
 PrsmSu:  requested number of processors reduced to:  13 ShMem   1 Linda.
 NBasis=   392 RedAO= T EigKep=  1.58D-04  NBF=   392
 NBsUse=   392 1.00D-06 EigRej= -1.00D+00 NBFU=   392
 Initial guess from the checkpoint file:  "C1dNC2dc3sccc3dNC23SC3dC1.chk"
 B after Tr=     0.000000   -0.000000   -0.000000
         Rot=    0.999898   -0.008751   -0.001219    0.011190 Ang=  -1.63 deg.
 ExpMin= 1.17D-01 ExpMax= 2.19D+04 ExpMxC= 3.30D+03 IAcc=2 IRadAn=         4 AccDes= 0.00D+00
 Harris functional with IExCor=  402 and IRadAn=       4 diagonalized for initial guess.
 HarFok:  IExCor=  402 AccDes= 0.00D+00 IRadAn=         4 IDoV= 1 UseB2=F ITyADJ=14
 ICtDFT=  3500011 ScaDFX=  1.000000  1.000000  1.000000  1.000000
 FoFCou: FMM=F IPFlag=           0 FMFlag=      100000 FMFlg1=           0
         NFxFlg=           0 DoJE=T BraDBF=F KetDBF=T FulRan=T
         wScrn=  0.000000 ICntrl=       500 IOpCl=  0 I1Cent=   200000004 NGrid=           0
         NMat0=    1 NMatS0=      1 NMatT0=    0 NMatD0=    1 NMtDS0=    0 NMtDT0=    0
 Petite list used in FoFCou.
 Requested convergence on RMS density matrix=1.00D-08 within 128 cycles.
 Requested convergence on MAX density matrix=1.00D-06.
 Requested convergence on             energy=1.00D-06.
 No special actions if energy rises.
 Integral accuracy reduced to 1.0D-05 until final iterations.
 Initial convergence to 1.0D-05 achieved.  Increase integral accuracy.
 SCF Done:  E(RB3LYP) =  -1251.12469966     A.U. after   16 cycles
            NFock= 16  Conv=0.19D-08     -V/T= 2.0046
 PrsmSu:  requested number of processors reduced to:  13 ShMem   1 Linda.
 Calling FoFJK, ICntrl=      2127 FMM=F ISym2X=0 I1Cent= 0 IOpClX= 0 NMat=1 NMatS=1 NMatT=0.
 ***** Axes restored to original set *****
 -------------------------------------------------------------------
 Center     Atomic                   Forces (Hartrees/Bohr)
 Number     Number              X              Y              Z
 -------------------------------------------------------------------
      1        6           0.002661816    0.000210903   -0.011757535
      2        7           0.001472065   -0.004074755    0.003964184
      3        6           0.001353030    0.006624344   -0.005171980
      4        6          -0.003514824   -0.002745108    0.003358535
      5       16           0.000152671    0.001561721    0.000307989
      6        6          -0.000319217    0.001207966   -0.000742611
      7        6          -0.001021751    0.010143055   -0.001578454
      8        6           0.002645880    0.003062974   -0.003465709
      9        7           0.000459224   -0.010848621    0.000423558
     10        6           0.004013372    0.006670891    0.015577490
     11       16          -0.005025694   -0.018767575    0.006932993
     12        6           0.011928382    0.006860140   -0.024433402
     13        6          -0.019393062    0.002446637    0.020984716
     14        1           0.004080721    0.001756147    0.002301342
     15        1           0.001953328   -0.000234831   -0.001071384
     16        1           0.000221233   -0.000287369    0.000842104
     17        1          -0.001667175   -0.003586521   -0.006471837
 -------------------------------------------------------------------
 Cartesian Forces:  Max     0.024433402 RMS     0.007627420

 GradGradGradGradGradGradGradGradGradGradGradGradGradGradGradGradGradGrad
 Berny optimization.
 Using GEDIIS/GDIIS optimizer.
 FormGI is forming the generalized inverse of G from B-inverse, IUseBI=4.
 Internal  Forces:  Max     0.013359643 RMS     0.003676900
 Search for a local minimum.
 Step number   3 out of a maximum of  102
 All quantities printed in internal units (Hartrees-Bohrs-Radians)
 Mixed Optimization -- RFO/linear search
 Update second derivatives using D2CorX and points    2    3
 DE= -3.43D-02 DEPred=-3.15D-02 R= 1.09D+00
 TightC=F SS=  1.41D+00  RLast= 9.98D-01 DXNew= 8.4853D-01 2.9945D+00
 Trust test= 1.09D+00 RLast= 9.98D-01 DXMaxT set to 8.49D-01
 ITU=  1  1  0
 Use linear search instead of GDIIS.
     Eigenvalues ---    0.01075   0.01434   0.01554   0.01652   0.01716
     Eigenvalues ---    0.01999   0.02125   0.02298   0.02345   0.02645
     Eigenvalues ---    0.02830   0.03555   0.03799   0.08081   0.15049
     Eigenvalues ---    0.15693   0.15993   0.16114   0.17703   0.19676
     Eigenvalues ---    0.21339   0.22509   0.22860   0.23503   0.24878
     Eigenvalues ---    0.26288   0.28447   0.29499   0.30278   0.31262
     Eigenvalues ---    0.32825   0.33535   0.33751   0.34559   0.35681
     Eigenvalues ---    0.35942   0.36070   0.36241   0.38037   0.49358
     Eigenvalues ---    0.51618   0.53997   0.59555   0.69332   0.71948
 RFO step:  Lambda=-8.20595372D-03 EMin= 1.07536692D-02
 Quartic linear search produced a step of  0.08383.
 Iteration  1 RMS(Cart)=  0.02829488 RMS(Int)=  0.00353335
 Iteration  2 RMS(Cart)=  0.00240085 RMS(Int)=  0.00162706
 Iteration  3 RMS(Cart)=  0.00001450 RMS(Int)=  0.00162698
 Iteration  4 RMS(Cart)=  0.00000004 RMS(Int)=  0.00162698
 Variable       Old X    -DE/DX   Delta X   Delta X   Delta X     New X
                                 (Linear)    (Quad)   (Total)
    R1        2.47962  -0.00258   0.00312  -0.00040   0.00260   2.48222
    R2        2.68751   0.00896  -0.00633   0.02405   0.01874   2.70625
    R3        2.05017   0.00274  -0.00161   0.00792   0.00630   2.05648
    R4        2.55860   0.00305  -0.00277   0.00841   0.00437   2.56297
    R5        2.58805  -0.00011   0.00513   0.00164   0.00672   2.59477
    R6        2.86866   0.00357   0.00582   0.01155   0.01641   2.88507
    R7        3.27990   0.00153   0.00567   0.00574   0.01143   3.29132
    R8        2.76030  -0.00136  -0.00017  -0.00201  -0.00232   2.75798
    R9        3.35051  -0.00115   0.00516  -0.00190   0.00323   3.35374
   R10        2.55228   0.00177  -0.00061   0.00345   0.00281   2.55509
   R11        2.04403  -0.00005  -0.00006  -0.00014  -0.00020   2.04383
   R12        2.69691   0.01106  -0.00956   0.03480   0.02525   2.72216
   R13        2.04319  -0.00001   0.00008   0.00001   0.00009   2.04328
   R14        2.45248   0.01216  -0.00181   0.02098   0.01910   2.47158
   R15        2.71235  -0.00030  -0.01015  -0.00487  -0.01491   2.69744
   R16        3.54947   0.01336   0.01714   0.07247   0.08633   3.63580
   R17        2.80080  -0.00582  -0.00315  -0.03275  -0.03395   2.76685
   R18        3.29437  -0.00392  -0.00159  -0.03663  -0.03596   3.25840
[...]
   zx        -0.355781D+02     -0.527214D+01     -0.586604D+01
   zy        -0.257536D+02     -0.381629D+01     -0.424620D+01
   zz         0.265566D+03      0.393528D+02      0.437859D+02

 ----------------------------------------------------------------------
 1\1\GINC-LEWIS4-R630-HPC4RC-NODE351\Freq\RB3LYP\6-31G(2df,p)\C9H4N2S2\
 KS29C\17-May-2023\0\\#N Geom=AllCheck Guess=TCheck SCRF=Check GenChk R
 B3LYP/6-31G(2df,p) Freq\\Title Card Required\\0,1\C,1.645638783,-0.331
 4787102,-0.0173759518\N,1.71914769,1.0011780593,-0.4303875349\C,0.6154
 403533,1.6620989051,-0.3716135961\C,0.2846774255,3.0315096882,-0.70251
 17779\S,0.9637525461,4.4861979891,-1.2878703464\C,-0.5700979104,5.2868
 3577,-1.1706150017\C,-1.5702196607,4.46848438,-0.6987838097\C,-1.06696
 94471,3.1758299328,-0.4334770965\N,-1.6614015313,1.9888726512,0.055720
 6943\C,-0.7022605352,1.109080399,0.0963578929\S,-2.1127716224,-1.05241
 32364,1.0604851022\C,-0.7520985172,-0.2870090235,0.5215341426\C,0.5293
 5656,-0.9633162782,0.4271373395\H,2.5891633956,-0.8642507733,-0.076307
 4562\H,-0.642621177,6.3244360057,-1.4603892837\H,-2.5952786079,4.78092
 37984,-0.5544926628\H,0.5699622556,-2.0033195572,0.7265893462\\Version
 =ES64L-G16RevA.03\State=1-A\HF=-1251.2034134\RMSD=6.431e-09\RMSF=5.788
 e-05\ZeroPoint=0.1087684\Thermal=0.1183169\Dipole=0.6130453,0.8610114,
 -0.3942872\DipoleDeriv=0.3309792,-0.4329288,0.0561559,-0.1323142,0.441
 3957,-0.0953084,-0.0325916,-0.0262832,0.0326339,-0.547824,0.4383849,-0
 .0657998,0.2867766,-0.3447149,-0.0436957,-0.0214791,-0.0782133,-0.2408
 912,0.2518022,-0.0554192,0.0081744,-0.5387099,0.5259024,0.0326169,0.15
 17874,-0.0797072,0.205296,-0.0686175,0.2211744,-0.0806973,0.5702142,-0
 .1197556,-0.1363332,-0.1832401,-0.0552285,-0.0773628,-0.1040826,-0.334
 9885,0.1527925,-0.1307871,-0.0015561,0.0691134,0.0921881,0.1157543,0.0
 734482,0.1502141,0.434898,-0.2069625,-0.0689479,-0.0601267,-0.0223643,
 -0.057982,-0.1390635,-0.1352539,0.0387158,-0.3414525,0.0750667,-0.0272
 426,-0.3855663,0.0985827,-0.0179077,0.170963,-0.1203589,-0.1169942,-0.
 1404644,0.0893131,-0.0851747,0.3609057,-0.0602208,0.0721157,-0.0477373
 ,0.0883953,-0.1745046,0.1042362,-0.050046,0.2502224,-0.060286,-0.11672
 93,-0.0932933,-0.0828292,-0.2122694,0.3623199,0.1079936,-0.072667,-0.1
 283177,-0.5982938,0.262465,-0.0021121,0.2088376,0.1252725,-0.4230083,-
 0.4143345,0.1847393,-0.1727231,-0.3949151,0.1112826,0.1132515,0.166857
 1,-0.2289888,0.6034773,0.2641185,-0.212173,0.0309531,0.4767835,-0.1425
 477,-0.1435643,-0.1962507,0.1112672,-0.4266713,0.0039154,0.0786239,0.0
 358585,0.0385098,-0.0432481,0.0691172,-0.0360184,-0.0844969,-0.0273771
 ,0.0985742,-0.000316,0.0632091,-0.004225,0.0159005,0.0104073,0.0079109
 ,0.0936694,0.074321,0.0396502,0.0052642,0.0114237,0.0333055,0.0311966,
 0.0134985,0.0250871,0.1373496,0.0067645,0.0416752,0.0194147,0.0052776,
 0.0899834,0.014836,0.0301656,0.0063987,0.1354935,0.0704857,-0.0350325,
 0.019117,0.030282,0.0026536,0.0244534,-0.0003612,0.0395226,0.0967964\P
 olar=158.229324,17.0213409,258.3221952,-27.5544816,-62.5166054,85.2840
 376\Quadrupole=-4.9532505,7.3659903,-2.4127397,-6.8604691,2.6765043,-1
 .2402534\PG=C01 [X(C9H4N2S2)]\NImag=0\\0.75774150,-0.03477271,0.548262
 94,-0.13020314,-0.11109286,0.21022585,-0.10279046,-0.01057778,0.013804
 46,0.53746638,-0.00113019,-0.20992977,0.04585945,-0.19146197,0.4853351
 2,0.01099422,0.04801069,-0.07338277,-0.05183248,-0.08003304,0.10280581
 ,0.00369308,0.04779255,-0.01556646,-0.40514580,0.17723540,0.03010410,0
 .68198294,0.04295334,-0.07804291,0.01256749,0.14303671,-0.18276232,0.0
 0720725,-0.22867321,0.59736457,-0.01413914,0.01148852,-0.00239103,0.04
 024544,-0.00068507,-0.05632910,-0.05387258,-0.07877913,0.19017769,-0.0
 0240521,-0.00072224,0.00392343,-0.01104206,0.04290129,-0.01206292,-0.0
 8236705,0.02477774,0.00007907,0.55197219,0.00383637,0.01689782,-0.0018
 3730,0.03397554,-0.04109359,0.00198342,0.00993929,-0.19447640,0.040727
 79,-0.03082952,0.57995785,0.00257818,-0.00078283,0.01329390,-0.0094175
 8,-0.00009831,-0.00583559,0.00453377,0.03726134,-0.06197694,-0.0949008
 5,-0.13493361,0.16225903,0.00007795,0.00156911,-0.00033282,-0.00126404
 ,0.00080720,-0.00021434,0.00963697,-0.00481669,-0.00226722,-0.05958238
 ,-0.03067241,0.01623883,0.28912013,0.00032467,-0.00518333,0.00166448,-
 0.00539416,0.00916564,-0.00183290,-0.01293915,-0.02554400,0.00862032,-
 0.07127274,-0.14601941,0.05120169,0.01601780,0.25781672,0.00004201,0.0
 0136891,0.00025813,0.00161209,-0.00324967,-0.00058941,0.00013536,0.006
 76483,-0.00850637,0.02819490,0.04178977,-0.04705317,-0.06195436,-0.067
 77949,0.07488797,0.00016664,-0.00828126,0.00245041,-0.00705360,0.00818
 405,-0.00081793,-0.00549722,-0.01734486,0.00623821,-0.02126115,0.02762
 925,-0.00095394,-0.12795441,0.06453766,0.00288388,0.42939234,-0.001631
 53,-0.00302103,0.00130739,-0.00103566,0.00239532,-0.00047256,-0.002535
 18,0.00262020,-0.00043113,0.00676608,-0.04655606,0.01509750,0.04334245
 ,-0.07131546,0.00139414,0.05574440,0.69405900,0.00046595,0.00282933,-0
 .00084037,0.00193350,-0.00258966,0.00033342,0.00184072,0.00300813,-0.0
 0208074,0.00518247,0.01027928,0.00570460,0.00913484,-0.00346808,-0.033
 82924,-0.09521620,-0.19191791,0.16607553,-0.00060019,0.00223533,-0.000
 60414,0.00259845,-0.00010149,-0.00053838,-0.00530479,0.00498437,0.0003
 3091,-0.02179587,0.01756770,0.00218715,-0.05814602,0.01385484,0.011524
 20,-0.24432183,-0.13673951,0.08389102,0.76770501,0.00022784,0.00950619
 ,-0.00297768,0.00815164,-0.00867751,0.00074800,0.00262080,0.01816145,-
 0.00526458,0.05412620,-0.02434938,-0.00225322,-0.02808123,0.00182522,0
 .00877372,-0.08659181,-0.18949038,0.05953684,-0.06508537,0.54957070,-0
 .00000805,-0.00342509,0.00068901,-0.00298222,0.00262215,0.00002212,0.0
 0103831,-0.00575745,0.00398235,-0.00858330,0.00615859,0.01042932,0.023
 90031,-0.00090865,0.00435068,0.06908106,0.07108152,-0.09223547,-0.1288
 2362,-0.11003192,0.18789557,0.00150623,0.00096118,-0.00124044,0.009024
 59,-0.01101713,0.00316984,-0.03901084,0.04417380,-0.00498630,-0.304761
 04,0.04090417,0.04071074,-0.04756143,-0.03773410,0.02423107,0.02707392
 ,0.00222870,-0.00502286,-0.14017093,0.06349349,-0.00080635,0.60715037,
 0.00163388,-0.00862427,0.00139800,-0.00424129,-0.00570804,0.00523107,0
 .02252145,-0.02047841,-0.00025888,0.02959200,-0.08025445,-0.00544199,0
 .00191155,-0.02244172,0.00889590,-0.05541845,-0.05548741,0.03153941,0.
 09482259,-0.23921414,0.03022774,-0.09270493,0.66429242,-0.00144217,0.0
 0154296,-0.00280187,0.00119707,0.00681308,0.00639184,0.00135457,-0.005
 31539,-0.00268009,0.04413911,-0.00801781,-0.08342297,0.01251899,0.0179
 9554,0.00103503,0.01195646,0.01826346,-0.00003657,-0.01005213,0.037521
 98,-0.07127783,-0.07677133,-0.12913202,0.21145650,0.00333543,0.0010607
 4,0.00037328,-0.00673957,-0.01498002,0.00309734,-0.05959728,0.03050752
 ,0.01235031,-0.03137241,-0.03176614,0.01912876,-0.00241143,0.00506489,
 -0.00050869,0.00114302,0.00396582,-0.00049265,0.01348463,0.00554895,-0
 .00535361,-0.12163969,-0.03180269,0.02472588,0.49831327,-0.00353197,0.
 00425559,0.00144504,-0.00446297,0.00784643,-0.00506805,0.04702157,0.02
 111308,-0.00717307,-0.04616202,-0.03067525,0.02295724,0.00033370,0.013
 58624,-0.00355780,0.01774193,-0.00373270,-0.00178873,-0.01757519,-0.03
 831485,0.01464885,-0.05090136,-0.13719163,0.03603087,-0.13343752,0.434
 35914,0.00176321,0.00040144,0.00587930,-0.00010796,-0.00269300,-0.0119
 8452,0.00753147,-0.00327889,0.03282482,0.02340259,0.01962357,-0.000432
 90,0.00088298,-0.00463829,0.00298761,-0.00456279,0.00138388,0.00472002
 ,0.00148536,0.00928940,-0.00564912,0.03041897,0.03165454,-0.07171121,-
 0.05917491,-0.07781122,0.10561153,-0.01098168,-0.00403312,-0.00004956,
 -0.03588165,0.02105134,0.01093527,-0.09178752,-0.02134414,0.00475792,-
 0.00649217,-0.04005137,0.01690767,-0.00019353,0.00832865,-0.00176182,0
 .00930990,-0.00188971,-0.00187586,-0.00453014,-0.01366667,0.00578329,0
 .01730960,0.02781211,-0.01157472,-0.30557827,0.16862891,0.00911294,0.5
 3080866,-0.00384947,-0.01019919,-0.00096735,0.01765804,0.02445153,0.00
 010672,-0.04235656,-0.14312150,0.02298766,-0.00863683,-0.01977848,0.01
 242565,0.00539832,-0.01553918,0.00421844,-0.01787920,-0.00519295,0.005
 28773,-0.00064422,0.02049874,-0.00499989,0.00142327,-0.11444893,0.0344
 2003,0.15475061,-0.19973724,0.00944974,-0.11164233,0.68814449,-0.00013
 645,-0.00093857,-0.01614101,0.01201436,-0.00061856,0.03607503,0.010923
 60,0.01808566,-0.10661513,0.00761043,0.01964323,0.00766844,-0.00089578
 ,0.00355962,0.00207349,0.00289258,0.00162489,-0.00236631,0.00193477,-0
 .00205658,0.00319515,-0.00380452,0.02835607,-0.00490419,0.01325623,0.0
 0624582,-0.05295481,-0.05655337,-0.13667541,0.19459326,0.00337140,0.01
 513199,-0.00496070,0.00394717,-0.00640684,0.00131212,-0.00201158,-0.00
 238571,0.00116696,0.00045267,0.00171594,-0.00045053,-0.00088406,-0.000
 96768,0.00044925,0.00047894,0.00038603,-0.00024900,-0.00041345,0.00016
 264,0.00004560,-0.00167319,-0.00288070,0.00090839,-0.00369319,0.011676
 96,-0.00182012,0.00015155,-0.02625371,0.00916985,0.25731134,0.00648561
 ,0.00404016,-0.00229710,-0.00013208,-0.00265630,0.00123188,-0.00097765
 ,-0.00818893,0.00264619,-0.00013872,0.00140875,-0.00016750,-0.00021531
 ,-0.00307930,0.00090592,-0.00275172,-0.00005659,0.00061851,0.00039782,
 0.00297780,-0.00097217,-0.00385068,-0.00379270,0.00157681,-0.00536650,
 0.01080853,-0.00094699,-0.01570698,-0.02608758,0.01317980,0.11783716,0
 .10360544,-0.00238669,-0.00427599,0.00316139,-0.00054374,0.00267244,0.
 00071865,0.00074201,0.00295965,-0.00107508,0.00010001,-0.00059960,0.00
 086670,0.00022465,0.00108067,-0.00055224,0.00068094,-0.00010361,-0.000
 23637,-0.00002436,-0.00092266,0.00027260,0.00119514,0.00135936,-0.0021
 1600,0.00322972,-0.00485751,0.00415661,0.00605043,0.01561169,0.0002344
 0,-0.09160479,-0.05468655,0.04751622,-0.04893609,-0.02393219,0.0205242
 0,-0.01262431,0.02488896,-0.00733438,0.01375104,-0.03158836,0.00859703
 ,-0.00423388,0.00074166,0.00042694,0.00215580,-0.00347144,0.00078184,-
 0.00558573,-0.00086527,0.00157698,0.00275193,0.00468376,-0.00170707,-0
 .00454375,0.00347295,0.00259146,0.01088697,0.02345015,-0.01185635,-0.0
 9369190,0.00511644,0.00552722,-0.20409591,-0.09080189,0.06629448,0.512
 12706,-0.00612176,0.03051569,-0.00486113,0.01078033,-0.00993575,-0.003
 20865,-0.00565886,0.00571525,0.00268495,-0.00815606,-0.00397297,0.0025
 8761,-0.00226819,0.01050656,-0.00224688,0.01500947,0.00171086,-0.00391
 747,-0.00265937,-0.01654983,0.00590893,0.02130838,0.02706521,-0.009587
 29,0.01968757,-0.07985089,0.01604961,-0.05241636,-0.18109600,0.0470445
 0,-0.09064415,-0.08994464,0.03784720,0.01700718,0.45876885,0.01522887,
 -0.00076375,0.00610048,-0.00315976,-0.00645594,-0.00974291,0.00093958,
 0.00867230,0.00765564,0.00305829,0.00057088,-0.00234640,0.00043253,-0.
 00199713,0.00158223,-0.00314656,-0.00026659,0.00095095,0.00047454,0.00
 424682,-0.00001606,-0.00270451,-0.00550129,0.01349797,-0.01073118,0.01
 521686,-0.01245412,0.02256548,0.03373422,-0.07840822,0.06625851,0.0378
 8791,-0.05882506,-0.08932169,-0.09674514,0.19460989,-0.33467429,-0.077
 49080,0.08691413,0.02642710,-0.04760812,0.01019010,-0.02021751,0.01573
 419,0.00000401,-0.00192339,-0.00564323,0.00199274,-0.00191687,0.003929
 44,-0.00075124,0.00702993,0.00249056,-0.00232161,-0.00149788,-0.007795
 88,0.00266977,0.00405939,0.00824809,-0.00349848,0.00211116,-0.01328404
 ,0.00333892,-0.00269052,0.02634110,-0.00334533,-0.05380775,-0.00477024
 ,0.01704956,-0.16645696,0.05858720,0.00449668,0.61414443,-0.12389954,-
 0.17675098,0.06405597,-0.02207265,-0.04441122,0.02103292,-0.01480394,0
 .00983556,0.00050692,0.00400628,-0.00619447,0.00077583,0.00170011,0.00
 174341,-0.00095568,-0.00029315,-0.00126106,0.00047721,-0.00046208,0.00
 019564,0.00007045,-0.00225415,-0.00336545,0.00137053,-0.00253633,-0.00
 363127,0.00152023,0.03324471,-0.01838848,0.00275240,-0.01578931,0.0095
 3636,0.00502279,0.07442413,-0.14073311,0.00338959,0.04328275,0.6834726
 8,0.10068765,0.05336228,-0.09605893,0.00260540,0.02690807,0.00069250,0
 .00906668,-0.00651105,-0.00010139,-0.00085678,0.00298384,-0.00117568,-
 0.00009637,-0.00146363,0.00029945,-0.00149886,-0.00016305,0.00052734,0
 .00049832,0.00175946,-0.00055705,-0.00038300,-0.00105574,-0.00011713,0
 .00015896,0.00398763,-0.00169930,-0.00539199,0.00434868,0.01669934,0.0
 2031317,0.00249317,0.00884598,-0.00023291,0.00704299,-0.07359806,-0.12
 756333,-0.17847774,0.19810092,-0.27450301,0.11732653,0.01812477,0.0061
 2884,-0.00004653,-0.00052923,0.00195661,-0.00174095,0.00075040,0.00015
 702,0.00003189,0.00006180,0.00007112,-0.00006704,0.00001619,-0.0002161
 1,-0.00001168,0.00005235,0.00008124,0.00022741,-0.00010627,-0.00007303
 ,-0.00029086,0.00003216,-0.00006407,0.00042672,0.00008244,0.00044057,-
 0.00079494,-0.00043280,-0.00094764,0.00002692,-0.00028500,-0.00113418,
 -0.00209228,0.00347909,-0.01776763,0.01473464,0.00185141,0.28543186,0.
 11542271,-0.11204384,-0.00646242,0.02743857,-0.02478146,0.00215605,-0.
 00010821,-0.00413237,0.00214339,0.00109159,-0.00014560,-0.00007190,0.0
 0012745,0.00033860,-0.00011262,0.00034515,-0.00016554,-0.00003205,0.00
 000521,-0.00032147,0.00006748,0.00002724,-0.00008127,-0.00007273,0.000
 35785,-0.00031411,0.00026093,-0.00125363,-0.00022303,-0.00037603,-0.00
 071290,0.00008165,-0.00049836,-0.00138923,-0.00065730,0.00386622,-0.01
 408024,0.01062925,0.00283735,-0.12719528,0.13167023,0.01869937,-0.0069
 0129,-0.04661529,-0.00869247,0.00849206,0.00322843,0.00026088,0.002511
 14,0.00217566,-0.00025104,0.00017428,0.00047620,-0.00004203,-0.0000697
 3,0.00008606,-0.00005401,0.00005164,-0.00000671,-0.00004050,0.00001713
 ,-0.00008422,-0.00006379,-0.00000102,-0.00029250,0.00009850,0.00024921
 ,0.00074506,-0.00028924,-0.00047960,-0.00225016,-0.00005880,-0.0006671
 5,-0.00193561,0.00326949,0.00402910,0.00933754,0.01039751,-0.00380619,
 0.00799522,-0.02210850,-0.00232915,0.03105239,-0.00004509,-0.00007160,
 -0.00011185,-0.00008847,0.00004507,0.00016779,0.00162285,0.00045253,0.
 00029715,-0.00565788,0.00258959,0.00056853,-0.00052352,0.01991633,-0.0
 0652583,-0.05018153,0.02152598,-0.00007331,0.00853123,-0.02098957,0.00
 462930,-0.00367543,-0.00143341,0.00234501,0.00129250,-0.00119407,0.000
 38196,-0.00089655,0.00020467,0.00002215,0.00004608,0.00005973,-0.00002
 674,0.00026040,-0.00003737,-0.00015923,0.00001952,-0.00007859,0.000014
 47,-0.00000413,0.00002092,-0.00000991,0.04874000,0.00003210,-0.0000385
 2,-0.00017848,0.00011538,0.00004224,0.00016532,-0.00010930,0.00013136,
 0.00100554,0.00075145,0.00052347,-0.00027620,-0.00121041,-0.00526028,0
 .00085332,0.01782229,-0.33297146,0.08745718,0.00645685,-0.00684079,0.0
 0104688,-0.00252971,-0.00075670,0.00218890,0.00057157,0.00036280,0.000
 17724,0.00022432,-0.00047794,-0.00006696,-0.00001308,-0.00005744,0.000
 02174,-0.00006127,0.00007003,-0.00014696,-0.00002487,0.00002809,-0.000
 00790,-0.00000047,-0.00000114,-0.00000548,-0.02164177,0.34520321,-0.00
 014042,-0.00015489,-0.00054122,0.00014775,0.00018530,0.00060503,0.0004
 4430,0.00087302,0.00310262,0.00113802,-0.00069610,0.00010180,-0.000286
 04,-0.00402502,-0.00206766,0.00102594,0.08663428,-0.04875335,-0.003478
 81,0.00733954,0.00036318,0.00264719,0.00194170,0.00348047,-0.00013654,
 0.00059004,0.00128160,0.00002521,-0.00006619,-0.00051789,-0.00000531,0
 .00000449,0.00000608,-0.00015374,-0.00015680,-0.00039768,-0.00000327,0
 .00000622,-0.00001916,-0.00000351,-0.00001025,-0.00001614,-0.00040249,
 -0.09128252,0.04631071,0.00003872,0.00009671,-0.00012746,0.00002990,0.
 00004702,-0.00003220,-0.00007092,-0.00010390,0.00023917,0.00011402,0.0
 0027909,0.00071640,-0.00055270,-0.00037932,0.00171090,-0.01285373,0.00
 818422,0.00128804,-0.31842453,0.08332838,0.04121001,-0.00292994,-0.001
 89102,0.00158623,0.00006760,0.00016357,-0.00044937,-0.00002750,0.00031
 747,-0.00015063,0.00000162,0.00003035,-0.00001854,0.00004105,-0.000164
 32,0.00006037,-0.00011570,0.00005187,0.00001984,0.00000048,0.00000903,
 0.00000253,0.00053146,-0.00040252,-0.00084403,0.33414914,-0.00003565,-
 0.00013124,-0.00006714,0.00000608,-0.00049050,0.00012987,0.00140110,0.
 00091354,-0.00035185,0.00194935,-0.00520207,0.00214673,-0.00392532,-0.
 00043748,0.00291355,-0.01824298,0.00847421,0.00265012,0.08297354,-0.07
 913349,-0.00559461,0.02639814,0.00071683,-0.00584995,-0.00136792,0.001
 28446,-0.00055764,-0.00023992,-0.00008055,-0.00000032,-0.00003354,0.00
 001146,-0.00000733,0.00001284,-0.00004448,0.00003705,0.00006232,-0.000
 08371,0.00002120,0.00000003,-0.00004213,0.00001939,0.00062103,0.000044
 39,-0.00122961,-0.08957500,0.07419050,-0.00008856,-0.00010067,-0.00033
 778,-0.00002180,0.00012003,-0.00008227,-0.00020333,-0.00000453,0.00087
 619,0.00021774,0.00253115,0.00278759,0.00275676,0.00209885,0.00512237,
 0.00907030,-0.00344922,0.00212760,0.04131991,-0.00565817,-0.04106831,-
 0.00674426,0.00066634,0.00289215,-0.00000121,-0.00091268,-0.00140388,0
 .00001680,-0.00013172,-0.00023412,0.00000046,-0.00002272,-0.00003299,0
 .00000667,0.00008081,0.00006554,0.00001834,0.00002369,0.00002586,0.000
 00522,0.00001732,0.00001690,-0.00114545,-0.00099616,-0.00308393,-0.045
 22407,0.00572277,0.03227016,0.00500507,-0.02629245,0.00708189,-0.00299
 247,-0.00240803,0.00339106,-0.00163298,0.00137764,0.00020867,0.0001985
 9,-0.00024781,-0.00032862,-0.00007157,0.00025135,-0.00007973,0.0003306
 3,0.00007432,-0.00011438,0.00005313,-0.00036057,0.00001286,-0.00008486
 ,0.00064873,-0.00001648,0.00046134,0.00110563,-0.00042936,-0.00526885,
 0.00084733,0.00196769,0.00176600,-0.00012582,-0.00067708,-0.00067154,0
 .02783860,-0.00777100,-0.05272302,0.01074526,0.00080734,0.00044209,-0.
 00010623,-0.00111798,0.00002856,0.00001943,0.00002575,0.00000103,-0.00
 000410,0.00001648,0.05515885,0.00405630,-0.00951329,0.00244364,-0.0017
 8373,0.00121017,0.00261200,-0.00037010,0.00089183,0.00013242,-0.000043
 85,-0.00006978,-0.00042803,-0.00001813,-0.00016224,0.00002363,-0.00021
 077,-0.00000895,0.00003016,-0.00003103,0.00015610,-0.00014281,0.000073
 69,-0.00022934,0.00025102,-0.00025840,-0.00016835,0.00011544,0.0029542
 0,0.00127631,0.00024045,-0.00082307,0.00139333,-0.00062393,-0.00168842
 ,-0.01156749,0.00425496,0.01202178,-0.32062123,0.08193444,-0.00053410,
 0.00018953,-0.00128436,0.00001054,-0.00000133,0.00004678,0.00000837,0.
 00001027,0.00001490,-0.01336328,0.33721444,-0.00191484,0.00943180,-0.0
 0049778,0.00319793,0.00275069,0.00707376,0.00072700,-0.00026436,0.0009
 6092,-0.00039116,-0.00038138,-0.00134393,-0.00000093,-0.00003826,-0.00
 008494,-0.00002949,-0.00003465,-0.00005435,-0.00008423,-0.00006809,-0.
 00031191,0.00015440,0.00012079,0.00060640,-0.00002018,-0.00020249,0.00
 008330,0.00134154,0.00072961,0.00385274,-0.00047502,-0.00078451,-0.001
 00529,0.00100982,-0.00255234,0.00198828,0.00041153,0.08223484,-0.05985
 990,-0.00099053,-0.00138325,-0.00391284,0.00002846,0.00004455,0.000145
 54,0.00001282,0.00001777,0.00005894,-0.00297710,-0.08962073,0.05230105
 \\0.00002613,-0.00008680,0.00002803,-0.00008315,0.00004950,-0.00003598
 ,0.00011808,0.00001295,0.00003922,-0.00012789,-0.00007984,-0.00001739,
 -0.00000606,0.00002565,0.00001172,0.00006096,-0.00002677,0.00001395,-0
 .00001196,0.00000033,0.00001852,0.00010112,0.00014542,-0.00012940,-0.0
 0016814,-0.00009852,0.00005988,0.00005477,-0.00001871,0.00003919,0.000
 03055,0.00003591,-0.00004487,0.00003337,-0.00000065,0.00004655,-0.0000
 1079,0.00002608,-0.00004803,-0.00000238,0.00002377,0.00000174,-0.00001
 239,0.00000456,-0.00000122,0.00001209,-0.00000524,0.00000543,-0.000014
 31,-0.00000762,0.00001267\\\@


       THE DEATH-KNELL OF THE ATOM

 SO THE ATOMS IN TURN, WE NOW CLEARLY DISCERN,
 FLY TO BITS WITH THE UTMOST FACILITY;
 THEY WEND ON THEIR WAY, AND, IN SPLITTING, DISPLAY
 AN ABSOLUTE LACK OF STABILITY.

          SIR WM. RAMSAY, 1905
 Job cpu time:       0 days  3 hours 16 minutes 28.5 seconds.
 Elapsed time:       0 days  0 hours 49 minutes 28.8 seconds.
 File lengths (MBytes):  RWF=    234 Int=      0 D2E=      0 Chk=     13 Scr=      1
 Normal termination of Gaussian 16 at Wed May 17 17:13:38 2023.
### All Done ###
