### Starting Gaussian ###
 Entering Gaussian System, Link 0=g16
 Initial command:
 /cluster/software/gaussian/gaussian-16-A.03/avx2/g16/l1.exe "/local/scratch/cz9n3/Gau-20609.inp" -scrdir="/local/scratch/cz9n3/"
 Entering Link 1 = /cluster/software/gaussian/gaussian-16-A.03/avx2/g16/l1.exe PID=     20610.
  
 Copyright (c) 1988,1990,1992,1993,1995,1998,2003,2009,2016,
            Gaussian, Inc.  All Rights Reserved.
  
 This is part of the Gaussian(R) 16 program.  It is based on
 the Gaussian(R) 09 system (copyright 2009, Gaussian, Inc.),
 the Gaussian(R) 03 system (copyright 2003, Gaussian, Inc.),
 the Gaussian(R) 98 system (copyright 1998, Gaussian, Inc.),
 the Gaussian(R) 94 system (copyright 1995, Gaussian, Inc.),
 the Gaussian 92(TM) system (copyright 1992, Gaussian, Inc.),
 the Gaussian 90(TM) system (copyright 1990, Gaussian, Inc.),
 the Gaussian 88(TM) system (copyright 1988, Gaussian, Inc.),
 the Gaussian 86(TM) system (copyright 1986, Carnegie Mellon
 University), and the Gaussian 82(TM) system (copyright 1983,
 Carnegie Mellon University). Gaussian is a federally registered
 trademark of Gaussian, Inc.
  
 This software contains proprietary and confidential information,
 including trade secrets, belonging to Gaussian, Inc.
  
 This software is provided under written license and may be
 used, copied, transmitted, or stored only in accord with that
 written license.
  
 The following legend is applicable only to US Government
 contracts under FAR:
  
                    RESTRICTED RIGHTS LEGEND
  
 Use, reproduction and disclosure by the US Government is
 subject to restrictions as set forth in subparagraphs (a)
 and (c) of the Commercial Computer Software - Restricted
 Rights clause in FAR 52.227-19.
  
 Gaussian, Inc.
 340 Quinnipiac St., Bldg. 40, Wallingford CT 06492
  
  
 ---------------------------------------------------------------
 Warning -- This program may not be used in any manner that
 competes with the business of Gaussian, Inc. or will provide
 assistance to any competitor of Gaussian, Inc.  The licensee
 of this program is prohibited from giving any competitor of
 Gaussian, Inc. access to this program.  By using this program,
 the user acknowledges that Gaussian, Inc. is engaged in the
 business of creating and licensing software in the field of
 computational chemistry and represents and warrants to the
 licensee that it is not a competitor of Gaussian, Inc. and that
 it will not use this program in any manner prohibited above.
 ---------------------------------------------------------------
  

 Cite this work as:
 Gaussian 16, Revision A.03,
 M. J. Frisch, G. W. Trucks, H. B. Schlegel, G. E. Scuseria, 
 M. A. Robb, J. R. Cheeseman, G. Scalmani, V. Barone, 
 G. A. Petersson, H. Nakatsuji, X. Li, M. Caricato, A. V. Marenich, 
 J. Bloino, B. G. Janesko, R. Gomperts, B. Mennucci, H. P. Hratchian, 
 J. V. Ortiz, A. F. Izmaylov, J. L. Sonnenberg, D. Williams-Young, 
 F. Ding, F. Lipparini, F. Egidi, J. Goings, B. Peng, A. Petrone, 
 T. Henderson, D. Ranasinghe, V. G. Zakrzewski, J. Gao, N. Rega, 
 G. Zheng, W. Liang, M. Hada, M. Ehara, K. Toyota, R. Fukuda, 
 J. Hasegawa, M. Ishida, T. Nakajima, Y. Honda, O. Kitao, H. Nakai, 
 T. Vreven, K. Throssell, J. A. Montgomery, Jr., J. E. Peralta, 
 F. Ogliaro, M. J. Bearpark, J. J. Heyd, E. N. Brothers, K. N. Kudin, 
 V. N. Staroverov, T. A. Keith, R. Kobayashi, J. Normand, 
 K. Raghavachari, A. P. Rendell, J. C. Burant, S. S. Iyengar, 
 J. Tomasi, M. Cossi, J. M. Millam, M. Klene, C. Adamo, R. Cammi, 
 J. W. Ochterski, R. L. Martin, K. Morokuma, O. Farkas, 
 J. B. Foresman, and D. J. Fox, Gaussian, Inc., Wallingford CT, 2016.
 
 ******************************************
 Gaussian 16:  ES64L-G16RevA.03 25-Dec-2016
                16-May-2023 
 ******************************************
 %chk=CC12CqdSrNdCNdCC1dCSC2dS.chk
 %NProcShared=20
 Will use up to   20 processors via shared memory.
 -----------------------------
 # opt freq b3lyp/6-31g(2df,p)
 -----------------------------
 1/18=20,19=15,26=3,38=1/1,3;
 2/9=110,12=2,17=6,18=5,40=1/2;
 3/5=1,6=6,7=104,11=2,25=1,30=1,71=1,74=-5/1,2,3;
 4//1;
 5/5=2,38=5/2;
 6/7=2,8=2,9=2,10=2,28=1/1;
 7//1,2,3,16;
 1/18=20,19=15,26=3/3(2);
 2/9=110/2;
 99//99;
 2/9=110/2;
 3/5=1,6=6,7=104,11=2,25=1,30=1,71=1,74=-5/1,2,3;
 4/5=5,16=3,69=1/1;
 5/5=2,38=5/2;
 7//1,2,3,16;
 1/18=20,19=15,26=3/3(-5);
 2/9=110/2;
 6/7=2,8=2,9=2,10=2,19=2,28=1/1;
 99/9=1/99;
 -------------------
 Title Card Required
 -------------------
 Symbolic Z-matrix:
 Charge =  0 Multiplicity = 1
 C                     0.89303  -0.41085  -0.45593 
 C                     2.42634  -0.43268   0.04168 
 C                     3.28054  -1.29835  -0.94452 
 S                     2.56878  -2.49119  -1.9225 
 N                     4.62757  -1.29242  -0.81237 
 C                     5.28423  -0.16299  -0.86274 
 N                     4.75093   1.05096  -1.15489 
 C                     3.63984   1.5804   -0.71488 
 C                     2.54396   1.05219   0.18682 
 C                     1.77818   1.51674   1.25841 
 S                     1.82036   0.19515   2.60477 
 C                     2.98888  -0.56773   1.54146 
 S                     4.59436  -0.45457   2.14968 
 H                     0.78572  -0.50498  -1.54746 
 H                     0.33747   0.54559  -0.37593 
 H                     0.28935  -1.13803   0.07975 
 H                     6.37661  -0.24616  -0.69648 
 H                     3.42041   2.53771  -1.20682 
 H                     0.67543   1.36558   1.28783 
 

 GradGradGradGradGradGradGradGradGradGradGradGradGradGradGradGradGradGrad
 Berny optimization.
 Initialization pass.
                           ----------------------------
                           !    Initial Parameters    !
                           ! (Angstroms and Degrees)  !
 --------------------------                            --------------------------
 ! Name  Definition              Value          Derivative Info.                !
 --------------------------------------------------------------------------------
 ! R1    R(1,2)                  1.6122         estimate D2E/DX2                !
 ! R2    R(1,14)                 1.1008         estimate D2E/DX2                !
 ! R3    R(1,15)                 1.109          estimate D2E/DX2                !
 ! R4    R(1,16)                 1.0864         estimate D2E/DX2                !
 ! R5    R(2,3)                  1.5658         estimate D2E/DX2                !
 ! R6    R(2,9)                  1.4966         estimate D2E/DX2                !
 ! R7    R(2,12)                 1.6075         estimate D2E/DX2                !
 ! R8    R(3,4)                  1.6988         estimate D2E/DX2                !
 ! R9    R(3,5)                  1.3535         estimate D2E/DX2                !
 ! R10   R(5,6)                  1.3074         estimate D2E/DX2                !
 ! R11   R(6,7)                  1.3577         estimate D2E/DX2                !
 ! R12   R(6,17)                 1.1081         estimate D2E/DX2                !
 ! R13   R(7,8)                  1.3071         estimate D2E/DX2                !
 ! R14   R(8,9)                  1.5143         estimate D2E/DX2                !
 ! R15   R(8,18)                 1.0985         estimate D2E/DX2                !
 ! R16   R(9,10)                 1.3966         estimate D2E/DX2                !
 ! R17   R(10,11)                1.8871         estimate D2E/DX2                !
 ! R18   R(10,19)                1.1135         estimate D2E/DX2                !
 ! R19   R(11,12)                1.7544         estimate D2E/DX2                !
 ! R20   R(12,13)                1.7206         estimate D2E/DX2                !
 ! A1    A(2,1,14)             113.4285         estimate D2E/DX2                !
 ! A2    A(2,1,15)             117.7666         estimate D2E/DX2                !
 ! A3    A(2,1,16)             111.5458         estimate D2E/DX2                !
 ! A4    A(14,1,15)             95.5343         estimate D2E/DX2                !
 ! A5    A(14,1,16)            112.1806         estimate D2E/DX2                !
 ! A6    A(15,1,16)            105.2689         estimate D2E/DX2                !
 ! A7    A(1,2,3)              109.3863         estimate D2E/DX2                !
 ! A8    A(1,2,9)               95.2353         estimate D2E/DX2                !
 ! A9    A(1,2,12)             128.458          estimate D2E/DX2                !
 ! A10   A(3,2,9)              124.5243         estimate D2E/DX2                !
 ! A11   A(3,2,12)             110.5047         estimate D2E/DX2                !
 ! A12   A(9,2,12)              88.0154         estimate D2E/DX2                !
 ! A13   A(2,3,4)              121.4822         estimate D2E/DX2                !
 ! A14   A(2,3,5)              118.6212         estimate D2E/DX2                !
 ! A15   A(4,3,5)              118.4412         estimate D2E/DX2                !
 ! A16   A(3,5,6)              119.9917         estimate D2E/DX2                !
 ! A17   A(5,6,7)              125.6893         estimate D2E/DX2                !
 ! A18   A(5,6,17)             115.1201         estimate D2E/DX2                !
 ! A19   A(7,6,17)             119.1183         estimate D2E/DX2                !
 ! A20   A(6,7,8)              128.581          estimate D2E/DX2                !
 ! A21   A(7,8,9)              132.404          estimate D2E/DX2                !
 ! A22   A(7,8,18)             111.8427         estimate D2E/DX2                !
 ! A23   A(9,8,18)             115.221          estimate D2E/DX2                !
 ! A24   A(2,9,8)              110.1953         estimate D2E/DX2                !
 ! A25   A(2,9,10)             111.1827         estimate D2E/DX2                !
 ! A26   A(8,9,10)             137.5338         estimate D2E/DX2                !
 ! A27   A(9,10,11)            107.5908         estimate D2E/DX2                !
 ! A28   A(9,10,19)            121.2088         estimate D2E/DX2                !
 ! A29   A(11,10,19)            84.7334         estimate D2E/DX2                !
 ! A30   A(10,11,12)            83.5121         estimate D2E/DX2                !
 ! A31   A(2,12,11)            107.2084         estimate D2E/DX2                !
 ! A32   A(2,12,13)            130.6045         estimate D2E/DX2                !
 ! A33   A(11,12,13)           112.2498         estimate D2E/DX2                !
 ! D1    D(14,1,2,3)           -29.863          estimate D2E/DX2                !
 ! D2    D(14,1,2,9)            99.6001         estimate D2E/DX2                !
 ! D3    D(14,1,2,12)         -168.7744         estimate D2E/DX2                !
 ! D4    D(15,1,2,3)          -140.1627         estimate D2E/DX2                !
 ! D5    D(15,1,2,9)           -10.6996         estimate D2E/DX2                !
 ! D6    D(15,1,2,12)           80.9258         estimate D2E/DX2                !
 ! D7    D(16,1,2,3)            97.9765         estimate D2E/DX2                !
 ! D8    D(16,1,2,9)          -132.5604         estimate D2E/DX2                !
 ! D9    D(16,1,2,12)          -40.9349         estimate D2E/DX2                !
 ! D10   D(1,2,3,4)            -23.0888         estimate D2E/DX2                !
 ! D11   D(1,2,3,5)            170.8928         estimate D2E/DX2                !
 ! D12   D(9,2,3,4)           -134.1567         estimate D2E/DX2                !
 ! D13   D(9,2,3,5)             59.8249         estimate D2E/DX2                !
 ! D14   D(12,2,3,4)           123.5811         estimate D2E/DX2                !
 ! D15   D(12,2,3,5)           -42.4372         estimate D2E/DX2                !
 ! D16   D(1,2,9,8)           -120.069          estimate D2E/DX2                !
 ! D17   D(1,2,9,10)            69.7005         estimate D2E/DX2                !
 ! D18   D(3,2,9,8)             -2.1896         estimate D2E/DX2                !
 ! D19   D(3,2,9,10)          -172.4202         estimate D2E/DX2                !
 ! D20   D(12,2,9,8)           111.4873         estimate D2E/DX2                !
 ! D21   D(12,2,9,10)          -58.7432         estimate D2E/DX2                !
 ! D22   D(1,2,12,11)          -31.7207         estimate D2E/DX2                !
 ! D23   D(1,2,12,13)         -173.6826         estimate D2E/DX2                !
 ! D24   D(3,2,12,11)         -170.2761         estimate D2E/DX2                !
 ! D25   D(3,2,12,13)           47.7621         estimate D2E/DX2                !
 ! D26   D(9,2,12,11)           63.3896         estimate D2E/DX2                !
 ! D27   D(9,2,12,13)          -78.5722         estimate D2E/DX2                !
 ! D28   D(2,3,5,6)            -56.5755         estimate D2E/DX2                !
 ! D29   D(4,3,5,6)            136.9766         estimate D2E/DX2                !
 ! D30   D(3,5,6,7)             -5.9727         estimate D2E/DX2                !
 ! D31   D(3,5,6,17)           177.1645         estimate D2E/DX2                !
 ! D32   D(5,6,7,8)             44.3757         estimate D2E/DX2                !
 ! D33   D(17,6,7,8)          -138.8758         estimate D2E/DX2                !
 ! D34   D(6,7,8,9)             -3.2763         estimate D2E/DX2                !
 ! D35   D(6,7,8,18)          -174.3037         estimate D2E/DX2                !
 ! D36   D(7,8,9,2)            -29.9398         estimate D2E/DX2                !
 ! D37   D(7,8,9,10)           136.5072         estimate D2E/DX2                !
 ! D38   D(18,8,9,2)           140.8521         estimate D2E/DX2                !
 ! D39   D(18,8,9,10)          -52.7009         estimate D2E/DX2                !
 ! D40   D(2,9,10,11)           34.4312         estimate D2E/DX2                !
 ! D41   D(2,9,10,19)          -60.128          estimate D2E/DX2                !
 ! D42   D(8,9,10,11)         -131.9256         estimate D2E/DX2                !
 ! D43   D(8,9,10,19)          133.5152         estimate D2E/DX2                !
 ! D44   D(9,10,11,12)           6.6797         estimate D2E/DX2                !
 ! D45   D(19,10,11,12)        127.7879         estimate D2E/DX2                !
 ! D46   D(10,11,12,2)         -42.5782         estimate D2E/DX2                !
 ! D47   D(10,11,12,13)        107.0601         estimate D2E/DX2                !
 --------------------------------------------------------------------------------
 Trust Radius=3.00D-01 FncErr=1.00D-07 GrdErr=1.00D-06 EigMax=2.50D+02 EigMin=1.00D-04
 Number of steps in this run=    110 maximum allowed number of steps=    114.
 GradGradGradGradGradGradGradGradGradGradGradGradGradGradGradGradGradGrad

                          Input orientation:                          
 ---------------------------------------------------------------------
 Center     Atomic      Atomic             Coordinates (Angstroms)
 Number     Number       Type             X           Y           Z
 ---------------------------------------------------------------------
      1          6           0        0.893030   -0.410850   -0.455930
      2          6           0        2.426340   -0.432680    0.041680
      3          6           0        3.280540   -1.298350   -0.944520
      4         16           0        2.568780   -2.491190   -1.922500
      5          7           0        4.627570   -1.292420   -0.812370
      6          6           0        5.284230   -0.162990   -0.862740
      7          7           0        4.750930    1.050960   -1.154890
      8          6           0        3.639840    1.580400   -0.714880
      9          6           0        2.543960    1.052190    0.186820
     10          6           0        1.778180    1.516740    1.258410
     11         16           0        1.820360    0.195150    2.604770
     12          6           0        2.988880   -0.567730    1.541460
     13         16           0        4.594360   -0.454570    2.149680
     14          1           0        0.785720   -0.504980   -1.547460
     15          1           0        0.337470    0.545590   -0.375930
     16          1           0        0.289350   -1.138030    0.079750
     17          1           0        6.376610   -0.246160   -0.696480
     18          1           0        3.420410    2.537710   -1.206820
     19          1           0        0.675430    1.365580    1.287830
 ---------------------------------------------------------------------
                    Distance matrix (angstroms):
                    1          2          3          4          5
     1  C    0.000000
     2  C    1.612182   0.000000
     3  C    2.593565   1.565769   0.000000
     4  S    3.047422   2.848817   1.698798   0.000000
     5  N    3.853700   2.512761   1.353510   2.628318   0.000000
     6  C    4.416963   3.009692   2.304453   3.730586   1.307422
     7  N    4.184355   3.006108   2.779489   4.230583   2.371491
     8  C    3.402513   2.469303   2.910160   4.379881   3.039442
     9  C    2.297647   1.496576   2.710631   4.123759   3.291961
    10  C    2.727280   2.387631   3.877463   5.177523   4.505389
    11  S    3.255006   2.707547   4.118268   5.317211   4.665848
    12  C    2.899442   1.607492   2.607483   3.984370   2.958208
    13  S    4.526694   3.023980   3.465857   4.983317   3.078447
    14  H    1.100824   2.285219   2.686466   2.695364   3.990016
    15  H    1.108974   2.344096   3.519243   4.073408   4.687613
    16  H    1.086358   2.250710   3.165762   3.322025   4.431689
    17  H    5.491324   4.022972   3.279371   4.587249   2.041380
    18  H    3.955438   3.371964   3.847560   5.150467   4.035185
    19  H    2.498750   2.802198   4.343559   5.363363   5.205306
                    6          7          8          9         10
     6  C    0.000000
     7  N    1.357732   0.000000
     8  C    2.401102   1.307072   0.000000
     9  C    3.176054   2.582809   1.514273   0.000000
    10  C    4.428674   3.857228   2.713615   1.396614   0.000000
    11  S    4.914294   4.843108   4.031067   2.665445   1.887078
    12  C    3.348526   3.604897   3.182653   2.158042   2.427123
    13  S    3.104129   3.634738   3.641142   3.213609   3.551239
    14  H    4.563156   4.277610   3.631529   2.919574   3.597949
    15  H    5.020907   4.510078   3.477264   2.332794   2.385340
    16  H    5.175695   5.120714   4.387150   3.145122   3.263994
    17  H    1.108086   2.129670   3.290375   4.141876   5.298582
    18  H    3.299393   1.995847   1.098452   2.217469   3.133155
    19  H    5.310604   4.761887   3.583953   2.191310   1.113451
                   11         12         13         14         15
    11  S    0.000000
    12  C    1.754438   0.000000
    13  S    2.885190   1.720553   0.000000
    14  H    4.336090   3.794638   5.308213   0.000000
    15  H    3.347588   3.456276   5.049766   1.636187   0.000000
    16  H    3.239921   3.122387   4.825437   1.815199   1.744860
    17  H    5.643795   4.072898   3.364592   5.661202   6.099249
    18  H    4.751417   4.169295   4.647364   4.039256   3.763435
    19  H    2.101214   3.025569   4.406103   3.398533   1.885391
                   16         17         18         19
    16  H    0.000000
    17  H    6.201024   0.000000
    18  H    4.996985   4.092615   0.000000
    19  H    2.806524   6.248091   3.889998   0.000000
 Stoichiometry    C8H6N2S3
 Framework group  C1[X(C8H6N2S3)]
 Deg. of freedom    51
 Full point group                 C1      NOp   1
 Largest Abelian subgroup         C1      NOp   1
 Largest concise Abelian subgroup C1      NOp   1
                         Standard orientation:                         
 ---------------------------------------------------------------------
 Center     Atomic      Atomic             Coordinates (Angstroms)
 Number     Number       Type             X           Y           Z
 ---------------------------------------------------------------------
      1          6           0       -0.212084   -2.238773    0.526865
      2          6           0       -0.104046   -0.695023    0.074875
      3          6           0       -1.524056   -0.169710   -0.324187
      4         16           0       -2.758283   -1.230979   -0.810298
      5          7           0       -1.684229    1.154273   -0.555279
      6          6           0       -1.364166    2.022353    0.368490
      7          7           0       -0.972028    1.724326    1.633734
      8          6           0       -0.124396    0.812042    2.030840
      9          6           0        0.655179   -0.251021    1.285734
     10          6           0        1.954019   -0.764382    1.283321
     11         16           0        2.535731   -0.835718   -0.510442
     12          6           0        1.028993    0.006580   -0.824017
     13         16           0        1.278379    1.662297   -1.219884
     14          1           0       -1.184197   -2.496825    0.974324
     15          1           0        0.395532   -2.566761    1.394651
     16          1           0        0.058404   -2.911264   -0.282310
     17          1           0       -1.481404    3.084816    0.076461
     18          1           0       -0.084958    0.739939    3.126213
     19          1           0        2.140521   -1.862097    1.279937
 ---------------------------------------------------------------------
 Rotational constants (GHZ):           0.8129106           0.5531805           0.4755303
 Standard basis: 6-31G(2df,p) (6D, 7F)
 There are   445 symmetry adapted cartesian basis functions of A   symmetry.
 There are   406 symmetry adapted basis functions of A   symmetry.
   406 basis functions,   686 primitive gaussians,   445 cartesian basis functions
    58 alpha electrons       58 beta electrons
       nuclear repulsion energy      1093.5928421222 Hartrees.
 NAtoms=   19 NActive=   19 NUniq=   19 SFac= 1.00D+00 NAtFMM=   60 NAOKFM=F Big=F
 Integral buffers will be    131072 words long.
 Raffenetti 2 integral format.
 Two-electron integral symmetry is turned on.
 One-electron integrals computed using PRISM.
 PrsmSu:  requested number of processors reduced to:  13 ShMem   1 Linda.
 NBasis=   406 RedAO= T EigKep=  2.26D-04  NBF=   406
 NBsUse=   406 1.00D-06 EigRej= -1.00D+00 NBFU=   406
 ExpMin= 1.17D-01 ExpMax= 2.19D+04 ExpMxC= 3.30D+03 IAcc=3 IRadAn=         5 AccDes= 0.00D+00
 Harris functional with IExCor=  402 and IRadAn=       5 diagonalized for initial guess.
 HarFok:  IExCor=  402 AccDes= 0.00D+00 IRadAn=         5 IDoV= 1 UseB2=F ITyADJ=14
 ICtDFT=  3500011 ScaDFX=  1.000000  1.000000  1.000000  1.000000
 FoFCou: FMM=F IPFlag=           0 FMFlag=      100000 FMFlg1=           0
         NFxFlg=           0 DoJE=T BraDBF=F KetDBF=T FulRan=T
         wScrn=  0.000000 ICntrl=       500 IOpCl=  0 I1Cent=   200000004 NGrid=           0
         NMat0=    1 NMatS0=      1 NMatT0=    0 NMatD0=    1 NMtDS0=    0 NMtDT0=    0
 Petite list used in FoFCou.
 Requested convergence on RMS density matrix=1.00D-08 within 128 cycles.
 Requested convergence on MAX density matrix=1.00D-06.
 Requested convergence on             energy=1.00D-06.
 No special actions if energy rises.
 Integral accuracy reduced to 1.0D-05 until final iterations.
 EnCoef did     1 forward-backward iterations
 EnCoef did     2 forward-backward iterations
 EnCoef did     5 forward-backward iterations
 EnCoef did     2 forward-backward iterations
 EnCoef did     4 forward-backward iterations
 Initial convergence to 1.0D-05 achieved.  Increase integral accuracy.
 SCF Done:  E(RB3LYP) =  -1612.24222825     A.U. after   24 cycles
            NFock= 24  Conv=0.75D-08     -V/T= 2.0044

 **********************************************************************

            Population analysis using the SCF density.

 **********************************************************************

 Orbital symmetries:
       Occupied  (A) (A) (A) (A) (A) (A) (A) (A) (A) (A) (A) (A)
                 (A) (A) (A) (A) (A) (A) (A) (A) (A) (A) (A) (A)
                 (A) (A) (A) (A) (A) (A) (A) (A) (A) (A) (A) (A)
                 (A) (A) (A) (A) (A) (A) (A) (A) (A) (A) (A) (A)
                 (A) (A) (A) (A) (A) (A) (A) (A) (A) (A)
       Virtual   (A) (A) (A) (A) (A) (A) (A) (A) (A) (A) (A) (A)
                 (A) (A) (A) (A) (A) (A) (A) (A) (A) (A) (A) (A)
                 (A) (A) (A) (A) (A) (A) (A) (A) (A) (A) (A) (A)
                 (A) (A) (A) (A) (A) (A) (A) (A) (A) (A) (A) (A)
                 (A) (A) (A) (A) (A) (A) (A) (A) (A) (A) (A) (A)
                 (A) (A) (A) (A) (A) (A) (A) (A) (A) (A) (A) (A)
                 (A) (A) (A) (A) (A) (A) (A) (A) (A) (A) (A) (A)
                 (A) (A) (A) (A) (A) (A) (A) (A) (A) (A) (A) (A)
                 (A) (A) (A) (A) (A) (A) (A) (A) (A) (A) (A) (A)
                 (A) (A) (A) (A) (A) (A) (A) (A) (A) (A) (A) (A)
                 (A) (A) (A) (A) (A) (A) (A) (A) (A) (A) (A) (A)
                 (A) (A) (A) (A) (A) (A) (A) (A) (A) (A) (A) (A)
                 (A) (A) (A) (A) (A) (A) (A) (A) (A) (A) (A) (A)
                 (A) (A) (A) (A) (A) (A) (A) (A) (A) (A) (A) (A)
                 (A) (A) (A) (A) (A) (A) (A) (A) (A) (A) (A) (A)
                 (A) (A) (A) (A) (A) (A) (A) (A) (A) (A) (A) (A)
                 (A) (A) (A) (A) (A) (A) (A) (A) (A) (A) (A) (A)
                 (A) (A) (A) (A) (A) (A) (A) (A) (A) (A) (A) (A)
                 (A) (A) (A) (A) (A) (A) (A) (A) (A) (A) (A) (A)
                 (A) (A) (A) (A) (A) (A) (A) (A) (A) (A) (A) (A)
                 (A) (A) (A) (A) (A) (A) (A) (A) (A) (A) (A) (A)
                 (A) (A) (A) (A) (A) (A) (A) (A) (A) (A) (A) (A)
                 (A) (A) (A) (A) (A) (A) (A) (A) (A) (A) (A) (A)
                 (A) (A) (A) (A) (A) (A) (A) (A) (A) (A) (A) (A)
                 (A) (A) (A) (A) (A) (A) (A) (A) (A) (A) (A) (A)
                 (A) (A) (A) (A) (A) (A) (A) (A) (A) (A) (A) (A)
                 (A) (A) (A) (A) (A) (A) (A) (A) (A) (A) (A) (A)
                 (A) (A) (A) (A) (A) (A) (A) (A) (A) (A) (A) (A)
                 (A) (A) (A) (A) (A) (A) (A) (A) (A) (A) (A) (A)
 The electronic state is 1-A.
 Alpha  occ. eigenvalues --  -88.92671 -88.90131 -88.85970 -14.36856 -14.35216
 Alpha  occ. eigenvalues --  -10.33044 -10.29535 -10.29163 -10.28998 -10.27765
 Alpha  occ. eigenvalues --  -10.25980 -10.25614 -10.21567  -7.98976  -7.96410
 Alpha  occ. eigenvalues --   -7.92373  -5.95337  -5.95074  -5.94653  -5.92793
 Alpha  occ. eigenvalues --   -5.92649  -5.91923  -5.88719  -5.88575  -5.87945
 Alpha  occ. eigenvalues --   -1.00098  -0.92649  -0.92269  -0.82112  -0.78475
 Alpha  occ. eigenvalues --   -0.75251  -0.74461  -0.69233  -0.68952  -0.63886
 Alpha  occ. eigenvalues --   -0.58547  -0.57829  -0.54005  -0.50638  -0.49794
 Alpha  occ. eigenvalues --   -0.48666  -0.46489  -0.44643  -0.42886  -0.40968
 Alpha  occ. eigenvalues --   -0.40523  -0.39606  -0.38301  -0.35851  -0.34569
 Alpha  occ. eigenvalues --   -0.33894  -0.31211  -0.29489  -0.27539  -0.25971
 Alpha  occ. eigenvalues --   -0.23983  -0.22507  -0.22125
 Alpha virt. eigenvalues --   -0.16421  -0.11727  -0.09185  -0.05654  -0.01265
 Alpha virt. eigenvalues --    0.01298   0.02841   0.05554   0.08026   0.09050
 Alpha virt. eigenvalues --    0.10876   0.11508   0.11871   0.13329   0.14484
 Alpha virt. eigenvalues --    0.16840   0.18260   0.19382   0.20196   0.20567
 Alpha virt. eigenvalues --    0.22287   0.22817   0.24950   0.25954   0.27245
 Alpha virt. eigenvalues --    0.28002   0.29368   0.29994   0.30681   0.32378
 Alpha virt. eigenvalues --    0.33599   0.33751   0.35149   0.35494   0.36163
 Alpha virt. eigenvalues --    0.36688   0.37661   0.38573   0.38903   0.40554
 Alpha virt. eigenvalues --    0.41080   0.42531   0.42631   0.43130   0.43788
 Alpha virt. eigenvalues --    0.44128   0.44688   0.46346   0.49143   0.49790
 Alpha virt. eigenvalues --    0.50355   0.50414   0.52169   0.52286   0.54469
 Alpha virt. eigenvalues --    0.57831   0.58329   0.58874   0.59224   0.60741
 Alpha virt. eigenvalues --    0.61428   0.62735   0.65368   0.65903   0.67069
 Alpha virt. eigenvalues --    0.68125   0.69475   0.70112   0.70562   0.71713
 Alpha virt. eigenvalues --    0.73198   0.73845   0.74901   0.75204   0.76195
 Alpha virt. eigenvalues --    0.76554   0.77124   0.79171   0.81128   0.81590
 Alpha virt. eigenvalues --    0.81843   0.83098   0.85468   0.86700   0.86897
 Alpha virt. eigenvalues --    0.89136   0.90699   0.91481   0.91889   0.93380
 Alpha virt. eigenvalues --    0.94032   0.96602   0.98174   0.99816   1.01036
 Alpha virt. eigenvalues --    1.03619   1.05161   1.07891   1.10987   1.12847
 Alpha virt. eigenvalues --    1.13343   1.15047   1.17038   1.18627   1.19727
 Alpha virt. eigenvalues --    1.21751   1.23802   1.25425   1.27166   1.27322
 Alpha virt. eigenvalues --    1.30281   1.31769   1.33785   1.33855   1.35541
 Alpha virt. eigenvalues --    1.36686   1.37844   1.39354   1.41706   1.42833
 Alpha virt. eigenvalues --    1.43890   1.45158   1.47121   1.48787   1.49973
 Alpha virt. eigenvalues --    1.51286   1.51610   1.52073   1.55060   1.56552
 Alpha virt. eigenvalues --    1.57987   1.59204   1.60802   1.62611   1.63949
 Alpha virt. eigenvalues --    1.64826   1.65559   1.66537   1.68216   1.68606
 Alpha virt. eigenvalues --    1.68823   1.70103   1.71365   1.72217   1.74099
 Alpha virt. eigenvalues --    1.74740   1.76623   1.78491   1.79230   1.79638
 Alpha virt. eigenvalues --    1.82710   1.83326   1.86213   1.87380   1.88226
 Alpha virt. eigenvalues --    1.89263   1.90089   1.90856   1.92639   1.94707
 Alpha virt. eigenvalues --    1.96966   1.97950   1.98754   2.02246   2.02941
 Alpha virt. eigenvalues --    2.06217   2.08305   2.08774   2.09590   2.13881
 Alpha virt. eigenvalues --    2.14734   2.16289   2.16763   2.18968   2.20179
 Alpha virt. eigenvalues --    2.22801   2.24778   2.26494   2.27495   2.29418
 Alpha virt. eigenvalues --    2.32757   2.32869   2.34095   2.34846   2.36197
 Alpha virt. eigenvalues --    2.37134   2.37915   2.40014   2.43772   2.45625
 Alpha virt. eigenvalues --    2.45995   2.49469   2.50749   2.51561   2.53710
 Alpha virt. eigenvalues --    2.56411   2.58889   2.64938   2.66979   2.71344
 Alpha virt. eigenvalues --    2.73616   2.77388   2.80282   2.82725   2.86068
 Alpha virt. eigenvalues --    2.86582   2.87367   2.88893   2.90606   2.91692
 Alpha virt. eigenvalues --    2.92026   2.93564   2.99152   2.99467   3.01121
 Alpha virt. eigenvalues --    3.02962   3.05515   3.06954   3.10344   3.11321
 Alpha virt. eigenvalues --    3.12742   3.15110   3.16316   3.17364   3.19871
 Alpha virt. eigenvalues --    3.20871   3.21872   3.23885   3.25266   3.25567
 Alpha virt. eigenvalues --    3.27935   3.29001   3.32662   3.33173   3.36326
 Alpha virt. eigenvalues --    3.38508   3.40964   3.42369   3.43171   3.45456
 Alpha virt. eigenvalues --    3.48435   3.49766   3.51788   3.52377   3.55998
 Alpha virt. eigenvalues --    3.59360   3.62215   3.63998   3.67403   3.70598
 Alpha virt. eigenvalues --    3.72815   3.75200   3.77460   3.79765   3.82922
 Alpha virt. eigenvalues --    3.83292   3.87746   3.88662   3.90678   3.92625
 Alpha virt. eigenvalues --    3.93936   3.95029   3.97052   4.00028   4.00766
 Alpha virt. eigenvalues --    4.08200   4.10004   4.10882   4.13758   4.15400
 Alpha virt. eigenvalues --    4.16249   4.18285   4.21329   4.23653   4.27032
 Alpha virt. eigenvalues --    4.28156   4.30640   4.32336   4.34082   4.35301
 Alpha virt. eigenvalues --    4.36172   4.39740   4.41910   4.43941   4.44680
 Alpha virt. eigenvalues --    4.45906   4.48590   4.51830   4.52215   4.53642
 Alpha virt. eigenvalues --    4.55055   4.56970   4.57536   4.58830   4.62121
 Alpha virt. eigenvalues --    4.63851   4.67159   4.68407   4.69568   4.71431
 Alpha virt. eigenvalues --    4.74526   4.77709   4.79135   4.80468   4.81953
 Alpha virt. eigenvalues --    4.82468   4.84623   4.87429   4.89121   4.92666
 Alpha virt. eigenvalues --    4.94685   4.98404   5.00228   5.02695   5.04051
 Alpha virt. eigenvalues --    5.10527   5.12479   5.13865   5.16653   5.22429
 Alpha virt. eigenvalues --    5.25806   5.31955   5.35634   5.38075   5.39739
 Alpha virt. eigenvalues --    5.43769   5.46902   5.53152   5.57335   5.66602
 Alpha virt. eigenvalues --    5.71058   5.74347   5.77706   5.96201   6.33093
 Alpha virt. eigenvalues --    6.72722  10.43624  10.67861  11.04076  11.18587
 Alpha virt. eigenvalues --   11.34214  11.41372  11.55724  11.75414  12.33790
 Alpha virt. eigenvalues --   12.78939  15.35780  18.62804
          Condensed to atoms (all electrons):
               1          2          3          4          5          6
     1  C    5.145878   0.346206  -0.039949  -0.019251   0.002560  -0.000130
     2  C    0.346206   4.843186   0.412623  -0.040236  -0.043716   0.002830
     3  C   -0.039949   0.412623   4.654267   0.431267   0.477100  -0.084166
     4  S   -0.019251  -0.040236   0.431267  15.953965  -0.030194   0.001058
     5  N    0.002560  -0.043716   0.477100  -0.030194   6.312782   0.585533
     6  C   -0.000130   0.002830  -0.084166   0.001058   0.585533   4.642640
     7  N    0.000383  -0.012045  -0.012816   0.001466  -0.056063   0.486863
     8  C    0.002020  -0.043359   0.002126   0.001229  -0.005539  -0.075109
     9  C   -0.052606   0.322834  -0.026898   0.001775   0.004398  -0.007773
    10  C   -0.042223  -0.078638   0.004895  -0.000133  -0.000116  -0.000522
    11  S    0.011066  -0.043667   0.003108  -0.000713   0.000166   0.000243
    12  C   -0.011587   0.339677  -0.035386  -0.000988  -0.008324   0.000265
    13  S    0.003164  -0.029446  -0.006545   0.000552  -0.018128   0.004430
    14  H    0.370657  -0.016777  -0.004759   0.006043   0.000189  -0.000026
    15  H    0.371437  -0.024616   0.001450   0.001834  -0.000047  -0.000008
    16  H    0.363108  -0.011020   0.000360  -0.001506  -0.000086   0.000009
    17  H    0.000005  -0.000085   0.005249  -0.000602  -0.038177   0.368845
    18  H   -0.000394   0.005989  -0.000036   0.000004  -0.000397   0.004764
    19  H   -0.002456  -0.000087  -0.000212   0.000091  -0.000002   0.000003
               7          8          9         10         11         12
     1  C    0.000383   0.002020  -0.052606  -0.042223   0.011066  -0.011587
     2  C   -0.012045  -0.043359   0.322834  -0.078638  -0.043667   0.339677
     3  C   -0.012816   0.002126  -0.026898   0.004895   0.003108  -0.035386
     4  S    0.001466   0.001229   0.001775  -0.000133  -0.000713  -0.000988
     5  N   -0.056063  -0.005539   0.004398  -0.000116   0.000166  -0.008324
     6  C    0.486863  -0.075109  -0.007773  -0.000522   0.000243   0.000265
     7  N    6.272141   0.626351  -0.031911   0.001625  -0.000002  -0.000427
     8  C    0.626351   4.785079   0.419209  -0.024253   0.002294  -0.000351
     9  C   -0.031911   0.419209   4.856647   0.527244  -0.096297  -0.033733
    10  C    0.001625  -0.024253   0.527244   5.386044   0.240833  -0.040540
    11  S   -0.000002   0.002294  -0.096297   0.240833  15.777774   0.277015
    12  C   -0.000427  -0.000351  -0.033733  -0.040540   0.277015   4.895947
    13  S   -0.004319   0.001978  -0.002400  -0.002703  -0.102343   0.469132
    14  H   -0.000032   0.000384   0.002352   0.001676  -0.000222   0.001582
    15  H    0.000042   0.001271  -0.010205  -0.006946  -0.003137   0.001399
    16  H   -0.000010  -0.000039   0.002985   0.003993  -0.003627  -0.003215
    17  H   -0.040967   0.003290   0.000103  -0.000002  -0.000002   0.000041
    18  H   -0.032443   0.358317  -0.070577   0.000530  -0.000490   0.000117
    19  H   -0.000029   0.001625  -0.012763   0.334379  -0.057453   0.004488
              13         14         15         16         17         18
     1  C    0.003164   0.370657   0.371437   0.363108   0.000005  -0.000394
     2  C   -0.029446  -0.016777  -0.024616  -0.011020  -0.000085   0.005989
     3  C   -0.006545  -0.004759   0.001450   0.000360   0.005249  -0.000036
     4  S    0.000552   0.006043   0.001834  -0.001506  -0.000602   0.000004
     5  N   -0.018128   0.000189  -0.000047  -0.000086  -0.038177  -0.000397
     6  C    0.004430  -0.000026  -0.000008   0.000009   0.368845   0.004764
     7  N   -0.004319  -0.000032   0.000042  -0.000010  -0.040967  -0.032443
     8  C    0.001978   0.000384   0.001271  -0.000039   0.003290   0.358317
     9  C   -0.002400   0.002352  -0.010205   0.002985   0.000103  -0.070577
    10  C   -0.002703   0.001676  -0.006946   0.003993  -0.000002   0.000530
    11  S   -0.102343  -0.000222  -0.003137  -0.003627  -0.000002  -0.000490
    12  C    0.469132   0.001582   0.001399  -0.003215   0.000041   0.000117
    13  S   15.857127  -0.000062  -0.000051  -0.000140   0.000362  -0.000096
    14  H   -0.000062   0.520318  -0.038598  -0.019150   0.000000  -0.000022
    15  H   -0.000051  -0.038598   0.601220  -0.037185  -0.000000  -0.000049
    16  H   -0.000140  -0.019150  -0.037185   0.547190  -0.000000   0.000004
    17  H    0.000362   0.000000  -0.000000  -0.000000   0.546380  -0.000167
    18  H   -0.000096  -0.000022  -0.000049   0.000004  -0.000167   0.599419
    19  H    0.000924  -0.000137   0.005516   0.000650  -0.000000   0.000202
              19
     1  C   -0.002456
     2  C   -0.000087
     3  C   -0.000212
     4  S    0.000091
     5  N   -0.000002
     6  C    0.000003
     7  N   -0.000029
     8  C    0.001625
     9  C   -0.012763
    10  C    0.334379
    11  S   -0.057453
    12  C    0.004488
    13  S    0.000924
    14  H   -0.000137
    15  H    0.005516
    16  H    0.000650
    17  H   -0.000000
    18  H    0.000202
    19  H    0.527731
 Mulliken charges:
               1
     1  C   -0.447889
     2  C    0.070346
     3  C    0.218323
     4  S   -0.305659
     5  N   -0.181939
     6  C    0.070250
     7  N   -0.197807
     8  C   -0.056522
     9  C    0.207615
    10  C   -0.305142
    11  S   -0.004546
    12  C    0.144887
    13  S   -0.171435
    14  H    0.176583
    15  H    0.136673
    16  H    0.157681
    17  H    0.155726
    18  H    0.135327
    19  H    0.197529
 Sum of Mulliken charges =  -0.00000
 Mulliken charges with hydrogens summed into heavy atoms:
               1
     1  C    0.023047
     2  C    0.070346
     3  C    0.218323
     4  S   -0.305659
     5  N   -0.181939
     6  C    0.225976
     7  N   -0.197807
     8  C    0.078805
     9  C    0.207615
    10  C   -0.107613
    11  S   -0.004546
    12  C    0.144887
    13  S   -0.171435
 Electronic spatial extent (au):  <R**2>=           2641.9110
 Charge=             -0.0000 electrons
 Dipole moment (field-independent basis, Debye):
    X=              2.3800    Y=             -1.1703    Z=              2.3207  Tot=              3.5241
 Quadrupole moment (field-independent basis, Debye-Ang):
   XX=           -107.4352   YY=            -90.4879   ZZ=            -96.3432
   XY=             -4.7246   XZ=             -2.8166   YZ=             -2.7024
 Traceless Quadrupole moment (field-independent basis, Debye-Ang):
   XX=             -9.3465   YY=              7.6008   ZZ=              1.7456
   XY=             -4.7246   XZ=             -2.8166   YZ=             -2.7024
 Octapole moment (field-independent basis, Debye-Ang**2):
  XXX=             17.1657  YYY=             10.1515  ZZZ=              4.0365  XYY=              2.8577
  XXY=             -0.7366  XXZ=              6.9828  XZZ=              3.5891  YZZ=             -7.6637
  YYZ=              0.9835  XYZ=              1.6510
 Hexadecapole moment (field-independent basis, Debye-Ang**3):
 XXXX=          -1879.0621 YYYY=          -1038.4370 ZZZZ=           -698.0466 XXXY=            -30.7131
 XXXZ=            -34.8880 YYYX=            -32.4020 YYYZ=            -32.2196 ZZZX=            -12.6728
 ZZZY=             -4.4789 XXYY=           -473.4875 XXZZ=           -445.9634 YYZZ=           -317.1328
 XXYZ=             -2.6360 YYXZ=              6.8701 ZZXY=             10.9485
 N-N= 1.093592842122D+03 E-N=-5.994797076048D+03  KE= 1.605237025735D+03
 PrsmSu:  requested number of processors reduced to:  13 ShMem   1 Linda.
 Calling FoFJK, ICntrl=      2127 FMM=F ISym2X=0 I1Cent= 0 IOpClX= 0 NMat=1 NMatS=1 NMatT=0.
 ***** Axes restored to original set *****
 -------------------------------------------------------------------
 Center     Atomic                   Forces (Hartrees/Bohr)
 Number     Number              X              Y              Z
 -------------------------------------------------------------------
      1        6          -0.018825587   -0.008831463    0.001750439
      2        6           0.012267438   -0.032442105   -0.000855942
      3        6          -0.019587466   -0.021462149    0.004439221
      4       16           0.011626390    0.023261129    0.014945859
      5        7           0.013421626    0.019915345   -0.015597052
      6        6          -0.009937801   -0.032252953    0.014503881
      7        7          -0.012329591    0.016972813    0.013377011
      8        6          -0.027055269    0.018838383   -0.016802330
      9        6           0.062385694    0.018596789   -0.027399163
     10        6          -0.015209113   -0.013103086    0.013435236
     11       16          -0.010920136    0.001950226   -0.003602527
     12        6           0.038459763    0.000268813    0.003811719
     13       16          -0.046377390   -0.019897588   -0.017652480
     14        1           0.012831699   -0.017856475    0.006908849
     15        1           0.015499379   -0.006405695    0.013757856
     16        1          -0.001570695   -0.009209326   -0.006717647
     17        1          -0.012517909    0.008271753   -0.004835681
     18        1           0.002895661    0.002741052    0.009844738
     19        1           0.004943307    0.050644535   -0.003311987
 -------------------------------------------------------------------
 Cartesian Forces:  Max     0.062385694 RMS     0.019518968

 GradGradGradGradGradGradGradGradGradGradGradGradGradGradGradGradGradGrad
 Berny optimization.
 FormGI is forming the generalized inverse of G from B-inverse, IUseBI=4.
 Internal  Forces:  Max     0.058594909 RMS     0.015489908
 Search for a local minimum.
 Step number   1 out of a maximum of  110
 All quantities printed in internal units (Hartrees-Bohrs-Radians)
 Mixed Optimization -- RFO/linear search
 Second derivative matrix not updated -- first step.
 ITU=  0
     Eigenvalues ---    0.00230   0.00659   0.00756   0.01202   0.01285
     Eigenvalues ---    0.01582   0.02094   0.02514   0.02621   0.02780
     Eigenvalues ---    0.03169   0.04261   0.04651   0.04868   0.04967
     Eigenvalues ---    0.06937   0.09434   0.11351   0.12624   0.15857
     Eigenvalues ---    0.15991   0.16000   0.16000   0.16000   0.16087
     Eigenvalues ---    0.19650   0.20480   0.20933   0.21875   0.22526
     Eigenvalues ---    0.22974   0.23084   0.23633   0.24559   0.25672
     Eigenvalues ---    0.29186   0.30197   0.30481   0.32237   0.32709
     Eigenvalues ---    0.32804   0.33526   0.33591   0.33854   0.35237
     Eigenvalues ---    0.36035   0.44069   0.50107   0.52868   0.63147
     Eigenvalues ---    0.63294
 RFO step:  Lambda=-1.00156680D-01 EMin= 2.30000000D-03
 Linear search not attempted -- first point.
 Maximum step size (   0.300) exceeded in Quadratic search.
    -- Step size scaled by   0.739
 Iteration  1 RMS(Cart)=  0.10957990 RMS(Int)=  0.00598967
 Iteration  2 RMS(Cart)=  0.00690869 RMS(Int)=  0.00087987
 Iteration  3 RMS(Cart)=  0.00002268 RMS(Int)=  0.00087968
 Iteration  4 RMS(Cart)=  0.00000002 RMS(Int)=  0.00087968
 Variable       Old X    -DE/DX   Delta X   Delta X   Delta X     New X
                                 (Linear)    (Quad)   (Total)
    R1        3.04658  -0.01297   0.00000  -0.02906  -0.02906   3.01753
    R2        2.08026  -0.00657   0.00000  -0.01115  -0.01115   2.06911
    R3        2.09566  -0.01230   0.00000  -0.02128  -0.02128   2.07438
    R4        2.05292   0.00373   0.00000   0.00609   0.00609   2.05900
    R5        2.95887  -0.01945   0.00000  -0.03196  -0.03162   2.92726
    R6        2.82812   0.05859   0.00000   0.11757   0.11693   2.94505
    R7        3.03772  -0.01604   0.00000  -0.04075  -0.04174   2.99598
    R8        3.21026  -0.02981   0.00000  -0.04786  -0.04786   3.16241
    R9        2.55776   0.00079   0.00000   0.00057   0.00063   2.55839
   R10        2.47067  -0.01305   0.00000  -0.01586  -0.01588   2.45479
   R11        2.56574   0.01059   0.00000   0.00919   0.00917   2.57491
   R12        2.09398  -0.01369   0.00000  -0.02363  -0.02363   2.07035
   R13        2.47001  -0.02431   0.00000  -0.02622  -0.02646   2.44355
   R14        2.86156  -0.03034   0.00000  -0.05536  -0.05563   2.80593
   R15        2.07577  -0.00260   0.00000  -0.00438  -0.00438   2.07139
   R16        2.63922   0.01918   0.00000   0.02236   0.02174   2.66096
   R17        3.56606   0.00865   0.00000   0.01344   0.01440   3.58046
   R18        2.10412  -0.01186   0.00000  -0.02075  -0.02075   2.08337
   R19        3.31541   0.01294   0.00000   0.02861   0.02962   3.34503
   R20        3.25137  -0.05082   0.00000  -0.08630  -0.08630   3.16508
    A1        1.97970  -0.01600   0.00000  -0.04741  -0.04780   1.93191
    A2        2.05541  -0.01646   0.00000  -0.04017  -0.04014   2.01528
    A3        1.94684   0.00753   0.00000   0.01681   0.01671   1.96355
    A4        1.66739   0.02243   0.00000   0.07256   0.07232   1.73971
    A5        1.95792  -0.00206   0.00000  -0.01706  -0.01750   1.94042
    A6        1.83729   0.00676   0.00000   0.02299   0.02324   1.86053
    A7        1.90915  -0.00335   0.00000  -0.01871  -0.01996   1.88920
    A8        1.66217   0.01892   0.00000   0.07380   0.07657   1.73874
    A9        2.24201  -0.01128   0.00000  -0.05461  -0.05650   2.18551
   A10        2.17336  -0.01255   0.00000  -0.03837  -0.03849   2.13487
   A11        1.92867   0.00886   0.00000   0.02746   0.02779   1.95646
   A12        1.53616  -0.00280   0.00000   0.01216   0.01307   1.54923
   A13        2.12027   0.00581   0.00000   0.00361   0.00310   2.12337
   A14        2.07033  -0.01046   0.00000  -0.00013  -0.00014   2.07019
   A15        2.06719   0.00622   0.00000   0.00634   0.00590   2.07309
   A16        2.09425   0.00613   0.00000   0.01746   0.01755   2.11180
   A17        2.19369   0.01802   0.00000   0.03928   0.03922   2.23291
   A18        2.00922  -0.00104   0.00000   0.00277   0.00272   2.01194
   A19        2.07901  -0.01714   0.00000  -0.04313  -0.04322   2.03579
   A20        2.24416   0.00166   0.00000  -0.00102  -0.00156   2.24260
   A21        2.31089  -0.01607   0.00000  -0.03240  -0.03318   2.27770
   A22        1.95202   0.01011   0.00000   0.02484   0.02501   1.97703
   A23        2.01099   0.00627   0.00000   0.01209   0.01220   2.02318
   A24        1.92327   0.02287   0.00000   0.05923   0.06015   1.98342
   A25        1.94050   0.00773   0.00000   0.03699   0.03518   1.97569
   A26        2.40042  -0.03116   0.00000  -0.09868  -0.09783   2.30259
   A27        1.87781  -0.01230   0.00000  -0.02443  -0.02666   1.85115
   A28        2.11549   0.01946   0.00000   0.08233   0.08260   2.19809
   A29        1.47888   0.01127   0.00000   0.05650   0.05669   1.53556
   A30        1.45756   0.01231   0.00000   0.03271   0.03402   1.49159
   A31        1.87114   0.00384   0.00000  -0.00198  -0.00445   1.86669
   A32        2.27948   0.00738   0.00000   0.01962   0.02013   2.29961
   A33        1.95913  -0.00999   0.00000  -0.00204  -0.00085   1.95828
    D1       -0.52121   0.00544   0.00000   0.00967   0.01028  -0.51092
    D2        1.73835  -0.00013   0.00000  -0.00236  -0.00099   1.73736
    D3       -2.94567   0.01007   0.00000   0.06583   0.06369  -2.88198
    D4       -2.44630  -0.00152   0.00000  -0.02458  -0.02404  -2.47034
    D5       -0.18674  -0.00710   0.00000  -0.03660  -0.03531  -0.22205
    D6        1.41242   0.00311   0.00000   0.03158   0.02937   1.44179
    D7        1.71001  -0.00433   0.00000  -0.03904  -0.03820   1.67181
    D8       -2.31361  -0.00991   0.00000  -0.05107  -0.04947  -2.36309
    D9       -0.71445   0.00029   0.00000   0.01712   0.01521  -0.69924
   D10       -0.40298   0.01275   0.00000   0.06766   0.06882  -0.33415
   D11        2.98264   0.00453   0.00000   0.02042   0.02164   3.00428
   D12       -2.34148  -0.00224   0.00000   0.00729   0.00662  -2.33486
   D13        1.04414  -0.01047   0.00000  -0.03995  -0.04057   1.00357
   D14        2.15690   0.00119   0.00000  -0.00997  -0.01074   2.14616
   D15       -0.74067  -0.00704   0.00000  -0.05721  -0.05792  -0.79859
   D16       -2.09560  -0.00927   0.00000  -0.02106  -0.01959  -2.11519
   D17        1.21650  -0.00285   0.00000   0.00234   0.00410   1.22060
   D18       -0.03822  -0.00386   0.00000  -0.00233  -0.00213  -0.04035
   D19       -3.00930   0.00256   0.00000   0.02107   0.02156  -2.98774
   D20        1.94582   0.00178   0.00000   0.03061   0.03088   1.97671
   D21       -1.02526   0.00820   0.00000   0.05401   0.05458  -0.97068
   D22       -0.55363  -0.02910   0.00000  -0.13542  -0.13528  -0.68891
   D23       -3.03133  -0.02708   0.00000  -0.15901  -0.15851   3.09334
   D24       -2.97188  -0.02044   0.00000  -0.06367  -0.06350  -3.03537
   D25        0.83361  -0.01842   0.00000  -0.08726  -0.08673   0.74688
   D26        1.10636  -0.00756   0.00000  -0.03346  -0.03389   1.07247
   D27       -1.37134  -0.00554   0.00000  -0.05705  -0.05712  -1.42847
   D28       -0.98743   0.01220   0.00000   0.04916   0.04880  -0.93863
   D29        2.39069   0.00419   0.00000   0.00372   0.00336   2.39405
   D30       -0.10424  -0.00502   0.00000  -0.03614  -0.03668  -0.14092
   D31        3.09210  -0.00107   0.00000  -0.01129  -0.01168   3.08042
   D32        0.77450  -0.00029   0.00000  -0.00478  -0.00555   0.76896
   D33       -2.42384  -0.00386   0.00000  -0.02910  -0.02948  -2.45332
   D34       -0.05718   0.00485   0.00000   0.01899   0.01842  -0.03876
   D35       -3.04217   0.00115   0.00000  -0.02114  -0.02173  -3.06390
   D36       -0.52255   0.00553   0.00000   0.01014   0.01041  -0.51214
   D37        2.38250   0.00547   0.00000   0.00682   0.00621   2.38871
   D38        2.45833   0.00951   0.00000   0.05202   0.05217   2.51050
   D39       -0.91980   0.00945   0.00000   0.04871   0.04797  -0.87184
   D40        0.60094  -0.01848   0.00000  -0.09734  -0.09672   0.50422
   D41       -1.04943  -0.03162   0.00000  -0.18126  -0.18136  -1.23079
   D42       -2.30254  -0.01973   0.00000  -0.09581  -0.09491  -2.39745
   D43        2.33028  -0.03287   0.00000  -0.17973  -0.17955   2.15073
   D44        0.11658   0.00576   0.00000   0.05284   0.05315   0.16974
   D45        2.23032   0.02875   0.00000   0.15522   0.15501   2.38533
   D46       -0.74313  -0.01377   0.00000  -0.04030  -0.03912  -0.78225
   D47        1.86855  -0.00919   0.00000  -0.01231  -0.01167   1.85688
         Item               Value     Threshold  Converged?
 Maximum Force            0.058595     0.000450     NO 
 RMS     Force            0.015490     0.000300     NO 
 Maximum Displacement     0.662493     0.001800     NO 
 RMS     Displacement     0.111218     0.001200     NO 
 Predicted change in Energy=-6.143249D-02
 GradGradGradGradGradGradGradGradGradGradGradGradGradGradGradGradGradGrad

                          Input orientation:                          
 ---------------------------------------------------------------------
 Center     Atomic      Atomic             Coordinates (Angstroms)
 Number     Number       Type             X           Y           Z
 ---------------------------------------------------------------------
      1          6           0        0.893332   -0.531880   -0.437077
      2          6           0        2.419440   -0.465926    0.028148
      3          6           0        3.264258   -1.309084   -0.959217
      4         16           0        2.566026   -2.464947   -1.947634
      5          7           0        4.613605   -1.267992   -0.856934
      6          6           0        5.251635   -0.136582   -0.873617
      7          7           0        4.751568    1.103342   -1.136600
      8          6           0        3.655614    1.637211   -0.705441
      9          6           0        2.585450    1.078142    0.158808
     10          6           0        1.870462    1.623155    1.242573
     11         16           0        1.771331    0.252940    2.547397
     12          6           0        2.926770   -0.612461    1.523023
     13         16           0        4.466615   -0.630635    2.181650
     14          1           0        0.824974   -0.667034   -1.521476
     15          1           0        0.326894    0.402451   -0.331492
     16          1           0        0.329004   -1.299476    0.091610
     17          1           0        6.334673   -0.208048   -0.724561
     18          1           0        3.456135    2.625039   -1.136620
     19          1           0        0.774204    1.716156    1.313340
 ---------------------------------------------------------------------
                    Distance matrix (angstroms):
                    1          2          3          4          5
     1  C    0.000000
     2  C    1.596806   0.000000
     3  C    2.549111   1.549039   0.000000
     4  S    2.969248   2.814478   1.673474   0.000000
     5  N    3.815570   2.498207   1.353842   2.610538   0.000000
     6  C    4.397912   2.990481   2.309060   3.713125   1.299019
     7  N    4.248443   3.042705   2.839605   4.262282   2.391751
     8  C    3.522382   2.547443   2.982988   4.422437   3.062826
     9  C    2.410501   1.558453   2.722060   4.122009   3.263356
    10  C    2.901756   2.477996   3.922827   5.231998   4.504608
    11  S    3.208413   2.698783   4.118870   5.312603   4.688414
    12  C    2.825483   1.585404   2.600134   3.950608   2.989871
    13  S    4.431234   2.975840   3.430889   4.901829   3.108186
    14  H    1.094925   2.232510   2.584273   2.538771   3.893134
    15  H    1.097714   2.293943   3.457094   3.980904   4.630590
    16  H    1.089578   2.251391   3.117699   3.243626   4.388455
    17  H    5.458544   3.995262   3.270289   4.559846   2.025606
    18  H    4.125950   3.462006   3.942793   5.230487   4.071075
    19  H    2.851635   3.019934   4.529565   5.596981   5.325057
                    6          7          8          9         10
     6  C    0.000000
     7  N    1.362585   0.000000
     8  C    2.392051   1.293070   0.000000
     9  C    3.106445   2.524041   1.484835   0.000000
    10  C    4.359732   3.772458   2.642295   1.408117   0.000000
    11  S    4.895670   4.814232   4.005956   2.655015   1.894698
    12  C    3.372735   3.653418   3.249352   2.199027   2.488456
    13  S    3.192961   3.754817   3.759806   3.248167   3.563908
    14  H    4.505156   4.324407   3.740051   2.994707   3.738714
    15  H    4.983727   4.551614   3.569993   2.407910   2.520001
    16  H    5.149397   5.180841   4.508410   3.278587   3.498940
    17  H    1.095580   2.096602   3.253107   4.060948   5.210767
    18  H    3.304473   1.998427   1.096135   2.197525   3.029636
    19  H    5.316278   4.711387   3.519124   2.240674   1.102470
                   11         12         13         14         15
    11  S    0.000000
    12  C    1.770113   0.000000
    13  S    2.859901   1.674886   0.000000
    14  H    4.277578   3.699932   5.193844   0.000000
    15  H    3.224400   3.350915   4.951812   1.675693   0.000000
    16  H    3.243639   3.044556   4.683529   1.802226   1.753733
    17  H    5.634032   4.102315   3.480558   5.585921   6.051498
    18  H    4.694401   4.223191   4.757247   4.231887   3.921770
    19  H    2.158277   3.178044   4.460414   3.703830   2.152064
                   16         17         18         19
    16  H    0.000000
    17  H    6.158361   0.000000
    18  H    5.166171   4.059822   0.000000
    19  H    3.284032   6.226911   3.744480   0.000000
 Stoichiometry    C8H6N2S3
 Framework group  C1[X(C8H6N2S3)]
 Deg. of freedom    51
 Full point group                 C1      NOp   1
 Largest Abelian subgroup         C1      NOp   1
 Largest concise Abelian subgroup C1      NOp   1
                         Standard orientation:                         
 ---------------------------------------------------------------------
 Center     Atomic      Atomic             Coordinates (Angstroms)
 Number     Number       Type             X           Y           Z
 ---------------------------------------------------------------------
      1          6           0       -0.208397   -2.213203    0.537017
      2          6           0       -0.111373   -0.683058    0.090886
      3          6           0       -1.530059   -0.202004   -0.303373
      4         16           0       -2.749526   -1.282661   -0.684943
      5          7           0       -1.720038    1.113178   -0.562395
      6          6           0       -1.370062    2.021749    0.297528
      7          7           0       -0.934770    1.841667    1.576093
      8          6           0       -0.081279    0.978492    2.021640
      9          6           0        0.654468   -0.102111    1.317574
     10          6           0        1.995143   -0.527113    1.386545
     11         16           0        2.537312   -0.843904   -0.401073
     12          6           0        1.008220   -0.074969   -0.852643
     13         16           0        1.232435    1.466891   -1.467166
     14          1           0       -1.194279   -2.430858    0.960720
     15          1           0        0.424832   -2.498034    1.387234
     16          1           0        0.031874   -2.900068   -0.273950
     17          1           0       -1.511076    3.056969   -0.032215
     18          1           0        0.029449    1.001884    3.111916
     19          1           0        2.339353   -1.545714    1.630290
 ---------------------------------------------------------------------
 Rotational constants (GHZ):           0.8125195           0.5455380           0.4825688
 Standard basis: 6-31G(2df,p) (6D, 7F)
 There are   445 symmetry adapted cartesian basis functions of A   symmetry.
 There are   406 symmetry adapted basis functions of A   symmetry.
   406 basis functions,   686 primitive gaussians,   445 cartesian basis functions
    58 alpha electrons       58 beta electrons
       nuclear repulsion energy      1093.8345687430 Hartrees.
 NAtoms=   19 NActive=   19 NUniq=   19 SFac= 1.00D+00 NAtFMM=   60 NAOKFM=F Big=F
 Integral buffers will be    131072 words long.
 Raffenetti 2 integral format.
 Two-electron integral symmetry is turned on.
 One-electron integrals computed using PRISM.
 PrsmSu:  requested number of processors reduced to:  13 ShMem   1 Linda.
 NBasis=   406 RedAO= T EigKep=  2.28D-04  NBF=   406
 NBsUse=   406 1.00D-06 EigRej= -1.00D+00 NBFU=   406
 Initial guess from the checkpoint file:  "CC12CqdSrNdCNdCC1dCSC2dS.chk"
 B after Tr=     0.000000   -0.000000    0.000000
         Rot=    0.999169    0.040146   -0.006525   -0.002692 Ang=   4.67 deg.
 ExpMin= 1.17D-01 ExpMax= 2.19D+04 ExpMxC= 3.30D+03 IAcc=2 IRadAn=         4 AccDes= 0.00D+00
 Harris functional with IExCor=  402 and IRadAn=       4 diagonalized for initial guess.
 HarFok:  IExCor=  402 AccDes= 0.00D+00 IRadAn=         4 IDoV= 1 UseB2=F ITyADJ=14
 ICtDFT=  3500011 ScaDFX=  1.000000  1.000000  1.000000  1.000000
 FoFCou: FMM=F IPFlag=           0 FMFlag=      100000 FMFlg1=           0
         NFxFlg=           0 DoJE=T BraDBF=F KetDBF=T FulRan=T
         wScrn=  0.000000 ICntrl=       500 IOpCl=  0 I1Cent=   200000004 NGrid=           0
         NMat0=    1 NMatS0=      1 NMatT0=    0 NMatD0=    1 NMtDS0=    0 NMtDT0=    0
 Petite list used in FoFCou.
 Requested convergence on RMS density matrix=1.00D-08 within 128 cycles.
 Requested convergence on MAX density matrix=1.00D-06.
 Requested convergence on             energy=1.00D-06.
 No special actions if energy rises.
 Integral accuracy reduced to 1.0D-05 until final iterations.
 Initial convergence to 1.0D-05 achieved.  Increase integral accuracy.
 SCF Done:  E(RB3LYP) =  -1612.30385397     A.U. after   16 cycles
            NFock= 16  Conv=0.71D-08     -V/T= 2.0043
 PrsmSu:  requested number of processors reduced to:  13 ShMem   1 Linda.
 Calling FoFJK, ICntrl=      2127 FMM=F ISym2X=0 I1Cent= 0 IOpClX= 0 NMat=1 NMatS=1 NMatT=0.
 ***** Axes restored to original set *****
 -------------------------------------------------------------------
 Center     Atomic                   Forces (Hartrees/Bohr)
 Number     Number              X              Y              Z
 -------------------------------------------------------------------
      1        6          -0.008330955   -0.001217215    0.008601393
      2        6           0.007443166   -0.007465869    0.007121350
      3        6          -0.010403992   -0.013026246    0.003783600
      4       16           0.009174081    0.010249182    0.006208112
      5        7           0.010284978    0.017775838   -0.010129311
      6        6          -0.007011926   -0.023266054    0.008932273
      7        7          -0.002385233    0.009309873    0.005079772
      8        6          -0.027635446    0.013524869   -0.013341763
      9        6           0.032940463    0.005649488   -0.013913434
     10        6          -0.014335852   -0.043672943    0.003446353
     11       16          -0.012997025    0.011667713   -0.008548036
     12        6           0.024667487    0.002763823    0.001842231
     13       16          -0.027476560   -0.019040539   -0.013881482
     14        1           0.007820414   -0.010789310    0.006138041
     15        1           0.009223367   -0.000848710    0.012565577
     16        1           0.000917278   -0.005293030   -0.005154096
     17        1          -0.004378771    0.005573108   -0.002030736
     18        1           0.002112755    0.003115882    0.008298619
     19        1           0.010371770    0.044990137   -0.005018464
 -------------------------------------------------------------------
 Cartesian Forces:  Max     0.044990137 RMS     0.014397799

 GradGradGradGradGradGradGradGradGradGradGradGradGradGradGradGradGradGrad
 Berny optimization.
 Using GEDIIS/GDIIS optimizer.
 FormGI is forming the generalized inverse of G from B-inverse, IUseBI=4.
 Internal  Forces:  Max     0.032248570 RMS     0.010361696
 Search for a local minimum.
 Step number   2 out of a maximum of  110
 All quantities printed in internal units (Hartrees-Bohrs-Radians)
 Mixed Optimization -- RFO/linear search
 Update second derivatives using D2CorX and points    1    2
 DE= -6.16D-02 DEPred=-6.14D-02 R= 1.00D+00
 TightC=F SS=  1.41D+00  RLast= 5.45D-01 DXNew= 5.0454D-01 1.6354D+00
 Trust test= 1.00D+00 RLast= 5.45D-01 DXMaxT set to 5.05D-01
 ITU=  1  0
 Use linear search instead of GDIIS.
 Linear search step of   0.580 exceeds DXMaxT=   0.505 but not scaled.
 Quartic linear search produced a step of  1.92209.
 Iteration  1 RMS(Cart)=  0.18244925 RMS(Int)=  0.02625754
 Iteration  2 RMS(Cart)=  0.03642529 RMS(Int)=  0.00520640
 Iteration  3 RMS(Cart)=  0.00177723 RMS(Int)=  0.00489470
 Iteration  4 RMS(Cart)=  0.00001027 RMS(Int)=  0.00489470
 Iteration  5 RMS(Cart)=  0.00000008 RMS(Int)=  0.00489470
 Variable       Old X    -DE/DX   Delta X   Delta X   Delta X     New X
                                 (Linear)    (Quad)   (Total)
    R1        3.01753  -0.01491  -0.05585   0.00000  -0.05585   2.96168
    R2        2.06911  -0.00523  -0.02143   0.00000  -0.02143   2.04768
    R3        2.07438  -0.00427  -0.04090   0.00000  -0.04090   2.03348
    R4        2.05900   0.00075   0.01170   0.00000   0.01170   2.07070
    R5        2.92726  -0.00439  -0.06077   0.00000  -0.05903   2.86823
    R6        2.94505   0.01811   0.22475   0.00000   0.22124   3.16629
    R7        2.99598  -0.01642  -0.08023   0.00000  -0.08523   2.91075
    R8        3.16241  -0.01457  -0.09198   0.00000  -0.09198   3.07042
    R9        2.55839   0.00463   0.00121   0.00000   0.00140   2.55979
   R10        2.45479  -0.00975  -0.03052   0.00000  -0.03078   2.42401
   R11        2.57491   0.00715   0.01763   0.00000   0.01750   2.59241
   R12        2.07035  -0.00497  -0.04542   0.00000  -0.04542   2.02492
   R13        2.44355  -0.00951  -0.05086   0.00000  -0.05197   2.39158
   R14        2.80593  -0.01987  -0.10692   0.00000  -0.10814   2.69779
   R15        2.07139  -0.00084  -0.00842   0.00000  -0.00842   2.06298
   R16        2.66096  -0.00345   0.04178   0.00000   0.03854   2.69949
   R17        3.58046  -0.00303   0.02768   0.00000   0.03205   3.61252
   R18        2.08337  -0.00684  -0.03988   0.00000  -0.03988   2.04348
   R19        3.34503   0.01239   0.05693   0.00000   0.06282   3.40785
   R20        3.16508  -0.03051  -0.16587   0.00000  -0.16587   2.99920
    A1        1.93191  -0.00814  -0.09187   0.00000  -0.09397   1.83793
    A2        2.01528  -0.01365  -0.07715   0.00000  -0.07726   1.93802
    A3        1.96355   0.00367   0.03211   0.00000   0.03181   1.99535
    A4        1.73971   0.01558   0.13901   0.00000   0.13703   1.87674
    A5        1.94042  -0.00170  -0.03364   0.00000  -0.03577   1.90465
    A6        1.86053   0.00559   0.04468   0.00000   0.04586   1.90639
    A7        1.88920   0.01214  -0.03836   0.00000  -0.04500   1.84420
    A8        1.73874   0.00278   0.14717   0.00000   0.16132   1.90006
    A9        2.18551  -0.01760  -0.10861   0.00000  -0.11647   2.06904
   A10        2.13487  -0.01083  -0.07398   0.00000  -0.07386   2.06101
   A11        1.95646   0.00150   0.05342   0.00000   0.05373   2.01019
   A12        1.54923   0.00754   0.02512   0.00000   0.02948   1.57871
   A13        2.12337   0.01028   0.00596   0.00000   0.00319   2.12655
   A14        2.07019  -0.00828  -0.00027   0.00000  -0.00023   2.06997
   A15        2.07309  -0.00105   0.01134   0.00000   0.00874   2.08183
   A16        2.11180   0.00615   0.03374   0.00000   0.03398   2.14578
   A17        2.23291   0.00830   0.07539   0.00000   0.07522   2.30814
   A18        2.01194   0.00144   0.00523   0.00000   0.00496   2.01690
   A19        2.03579  -0.00990  -0.08307   0.00000  -0.08355   1.95224
   A20        2.24260  -0.00271  -0.00299   0.00000  -0.00618   2.23642
   A21        2.27770  -0.01009  -0.06378   0.00000  -0.06804   2.20966
   A22        1.97703   0.00742   0.04807   0.00000   0.04874   2.02577
   A23        2.02318   0.00311   0.02344   0.00000   0.02396   2.04714
   A24        1.98342   0.01960   0.11562   0.00000   0.12048   2.10390
   A25        1.97569   0.00098   0.06762   0.00000   0.05784   2.03352
   A26        2.30259  -0.02050  -0.18803   0.00000  -0.18336   2.11923
   A27        1.85115  -0.00208  -0.05125   0.00000  -0.06320   1.78795
   A28        2.19809   0.01395   0.15876   0.00000   0.15979   2.35788
   A29        1.53556   0.00881   0.10896   0.00000   0.10858   1.64415
   A30        1.49159   0.00689   0.06540   0.00000   0.07193   1.56352
   A31        1.86669  -0.00617  -0.00856   0.00000  -0.02212   1.84457
   A32        2.29961   0.00339   0.03869   0.00000   0.04200   2.34161
   A33        1.95828   0.00379  -0.00164   0.00000   0.00537   1.96365
    D1       -0.51092   0.00388   0.01977   0.00000   0.02435  -0.48657
    D2        1.73736  -0.00125  -0.00189   0.00000   0.00614   1.74350
    D3       -2.88198   0.00600   0.12242   0.00000   0.10976  -2.77221
    D4       -2.47034  -0.00208  -0.04621   0.00000  -0.04246  -2.51280
    D5       -0.22205  -0.00721  -0.06787   0.00000  -0.06067  -0.28272
    D6        1.44179   0.00004   0.05645   0.00000   0.04295   1.48475
    D7        1.67181  -0.00188  -0.07343   0.00000  -0.06797   1.60384
    D8       -2.36309  -0.00701  -0.09509   0.00000  -0.08618  -2.44926
    D9       -0.69924   0.00024   0.02923   0.00000   0.01745  -0.68180
   D10       -0.33415   0.00720   0.13228   0.00000   0.13787  -0.19628
   D11        3.00428   0.00178   0.04159   0.00000   0.04737   3.05165
   D12       -2.33486   0.00022   0.01271   0.00000   0.00883  -2.32603
   D13        1.00357  -0.00519  -0.07798   0.00000  -0.08166   0.92191
   D14        2.14616  -0.00465  -0.02064   0.00000  -0.02359   2.12257
   D15       -0.79859  -0.01006  -0.11133   0.00000  -0.11409  -0.91268
   D16       -2.11519  -0.01423  -0.03766   0.00000  -0.02894  -2.14414
   D17        1.22060  -0.01187   0.00788   0.00000   0.01882   1.23942
   D18       -0.04035  -0.00203  -0.00410   0.00000  -0.00271  -0.04306
   D19       -2.98774   0.00033   0.04145   0.00000   0.04505  -2.94269
   D20        1.97671   0.00198   0.05936   0.00000   0.05900   2.03571
   D21       -0.97068   0.00434   0.10491   0.00000   0.10676  -0.86392
   D22       -0.68891  -0.01418  -0.26002   0.00000  -0.25789  -0.94681
   D23        3.09334  -0.01646  -0.30468   0.00000  -0.30162   2.79172
   D24       -3.03537  -0.01541  -0.12204   0.00000  -0.11993   3.12789
   D25        0.74688  -0.01768  -0.16670   0.00000  -0.16365   0.58322
   D26        1.07247  -0.00738  -0.06514   0.00000  -0.06687   1.00560
   D27       -1.42847  -0.00966  -0.10979   0.00000  -0.11060  -1.53907
   D28       -0.93863   0.00537   0.09380   0.00000   0.09245  -0.84618
   D29        2.39405  -0.00122   0.00646   0.00000   0.00492   2.39898
   D30       -0.14092  -0.00445  -0.07050   0.00000  -0.07269  -0.21362
   D31        3.08042  -0.00149  -0.02245   0.00000  -0.02434   3.05608
   D32        0.76896  -0.00006  -0.01066   0.00000  -0.01475   0.75421
   D33       -2.45332  -0.00260  -0.05667   0.00000  -0.05857  -2.51189
   D34       -0.03876   0.00335   0.03540   0.00000   0.03191  -0.00685
   D35       -3.06390  -0.00199  -0.04177   0.00000  -0.04558  -3.10948
   D36       -0.51214   0.00046   0.02001   0.00000   0.02139  -0.49075
   D37        2.38871   0.00214   0.01193   0.00000   0.00815   2.39686
   D38        2.51050   0.00611   0.10027   0.00000   0.10096   2.61146
   D39       -0.87184   0.00780   0.09220   0.00000   0.08772  -0.78412
   D40        0.50422  -0.01298  -0.18590   0.00000  -0.17966   0.32456
   D41       -1.23079  -0.02857  -0.34858   0.00000  -0.34930  -1.58009
   D42       -2.39745  -0.01666  -0.18243   0.00000  -0.17533  -2.57279
   D43        2.15073  -0.03225  -0.34511   0.00000  -0.34498   1.80575
   D44        0.16974   0.00429   0.10217   0.00000   0.10317   0.27291
   D45        2.38533   0.02158   0.29793   0.00000   0.29667   2.68199
   D46       -0.78225  -0.00182  -0.07520   0.00000  -0.06949  -0.85174
   D47        1.85688   0.00067  -0.02244   0.00000  -0.01870   1.83818
         Item               Value     Threshold  Converged?
 Maximum Force            0.032249     0.000450     NO 
 RMS     Force            0.010362     0.000300     NO 
 Maximum Displacement     1.117022     0.001800     NO 
 RMS     Displacement     0.213459     0.001200     NO 
 Predicted change in Energy=-4.866803D-02
 GradGradGradGradGradGradGradGradGradGradGradGradGradGradGradGradGradGrad

                          Input orientation:                          
 ---------------------------------------------------------------------
 Center     Atomic      Atomic             Coordinates (Angstroms)
 Number     Number       Type             X           Y           Z
 ---------------------------------------------------------------------
      1          6           0        0.898098   -0.768328   -0.402266
      2          6           0        2.391534   -0.520885    0.003571
      3          6           0        3.222243   -1.321884   -0.982353
      4         16           0        2.549884   -2.409265   -1.985103
      5          7           0        4.571367   -1.210175   -0.934623
      6          6           0        5.176693   -0.080043   -0.892382
      7          7           0        4.744866    1.205786   -1.097625
      8          6           0        3.679187    1.747940   -0.682815
      9          6           0        2.659636    1.130087    0.102580
     10          6           0        2.051615    1.810054    1.201942
     11         16           0        1.670015    0.379314    2.410995
     12          6           0        2.789610   -0.686571    1.482290
     13         16           0        4.164932   -0.927384    2.236889
     14          1           0        0.921118   -0.974640   -1.465782
     15          1           0        0.306226    0.118512   -0.256896
     16          1           0        0.422712   -1.608470    0.116267
     17          1           0        6.240611   -0.129548   -0.774776
     18          1           0        3.516117    2.782611   -0.990438
     19          1           0        1.105524    2.307258    1.366407
 ---------------------------------------------------------------------
                    Distance matrix (angstroms):
                    1          2          3          4          5
     1  C    0.000000
     2  C    1.567252   0.000000
     3  C    2.458571   1.517802   0.000000
     4  S    2.815394   2.746976   1.624799   0.000000
     5  N    3.737852   2.471236   1.354583   2.574435   0.000000
     6  C    4.361229   2.958747   2.317356   3.676878   1.282732
     7  N    4.379300   3.119647   2.953098   4.321360   2.427661
     8  C    3.760953   2.697545   3.118068   4.500404   3.099974
     9  C    2.638535   1.675527   2.739666   4.110655   3.194892
    10  C    3.248405   2.642899   3.993814   5.311138   4.476142
    11  S    3.134864   2.669576   4.101011   5.279774   4.705048
    12  C    2.671340   1.540301   2.581717   3.879171   3.047998
    13  S    4.202695   2.880606   3.377545   4.757054   3.209930
    14  H    1.083587   2.127679   2.376859   2.231753   3.696205
    15  H    1.076071   2.196629   3.332293   3.796098   4.518423
    16  H    1.095768   2.252066   3.021005   3.095463   4.298180
    17  H    5.393445   3.946437   3.251969   4.503717   1.994914
    18  H    4.450745   3.628474   4.115010   5.373875   4.130255
    19  H    3.553936   3.392571   4.813299   5.963589   5.447857
                    6          7          8          9         10
     6  C    0.000000
     7  N    1.371844   0.000000
     8  C    2.372334   1.265571   0.000000
     9  C    2.964784   2.407157   1.427611   0.000000
    10  C    4.210080   3.592597   2.491016   1.428510   0.000000
    11  S    4.839431   4.737951   3.934663   2.621410   1.911661
    12  C    3.421273   3.749667   3.377258   2.284894   2.618467
    13  S    3.396172   4.000715   3.989734   3.324813   3.609820
    14  H    4.386230   4.417109   3.953787   3.148346   4.018619
    15  H    4.915761   4.646559   3.770054   2.586705   2.834767
    16  H    5.094487   5.298546   4.744329   3.536059   3.939330
    17  H    1.071543   2.030911   3.177154   3.896128   5.021669
    18  H    3.310878   2.001921   1.091680   2.158490   2.810189
    19  H    5.232185   4.530950   3.337048   2.323415   1.081364
                   11         12         13         14         15
    11  S    0.000000
    12  C    1.803356   0.000000
    13  S    2.821770   1.587111   0.000000
    14  H    4.174139   3.502197   4.922839   0.000000
    15  H    3.007587   3.136897   4.711950   1.741976   0.000000
    16  H    3.282198   2.884116   4.354897   1.775677   1.770674
    17  H    5.594499   4.161013   3.743676   5.430348   5.962101
    18  H    4.555620   4.321738   4.959905   4.590960   4.235435
    19  H    2.264241   3.436945   4.536588   4.338912   2.839824
                   16         17         18         19
    16  H    0.000000
    17  H    6.068700   0.000000
    18  H    5.484117   3.993750   0.000000
    19  H    4.166775   6.073863   3.404649   0.000000
 Stoichiometry    C8H6N2S3
 Framework group  C1[X(C8H6N2S3)]
 Deg. of freedom    51
 Full point group                 C1      NOp   1
 Largest Abelian subgroup         C1      NOp   1
 Largest concise Abelian subgroup C1      NOp   1
                         Standard orientation:                         
 ---------------------------------------------------------------------
 Center     Atomic      Atomic             Coordinates (Angstroms)
 Number     Number       Type             X           Y           Z
 ---------------------------------------------------------------------
      1          6           0       -0.245063   -2.021409    0.948199
      2          6           0       -0.132867   -0.626003    0.243547
      3          6           0       -1.541113   -0.278033   -0.203090
      4         16           0       -2.744902   -1.368810   -0.170445
      5          7           0       -1.764127    0.938389   -0.755790
      6          6           0       -1.345694    2.030915   -0.229766
      7          7           0       -0.823965    2.319077    1.005838
      8          6           0        0.031167    1.660024    1.666192
      9          6           0        0.654429    0.437989    1.270913
     10          6           0        2.051416    0.215937    1.470316
     11         16           0        2.510647   -0.885591   -0.023066
     12          6           0        0.960923   -0.425423   -0.822248
     13         16           0        1.172443    0.607015   -2.008946
     14          1           0       -1.254982   -2.064342    1.338560
     15          1           0        0.428767   -2.087135    1.784598
     16          1           0       -0.080211   -2.877092    0.283866
     17          1           0       -1.517013    2.917276   -0.807017
     18          1           0        0.286095    2.056291    2.650952
     19          1           0        2.643788   -0.353084    2.173636
 ---------------------------------------------------------------------
 Rotational constants (GHZ):           0.8081152           0.5392455           0.4927587
 Standard basis: 6-31G(2df,p) (6D, 7F)
 There are   445 symmetry adapted cartesian basis functions of A   symmetry.
 There are   406 symmetry adapted basis functions of A   symmetry.
   406 basis functions,   686 primitive gaussians,   445 cartesian basis functions
    58 alpha electrons       58 beta electrons
       nuclear repulsion energy      1096.6027528204 Hartrees.
 NAtoms=   19 NActive=   19 NUniq=   19 SFac= 1.00D+00 NAtFMM=   60 NAOKFM=F Big=F
 Integral buffers will be    131072 words long.
 Raffenetti 2 integral format.
 Two-electron integral symmetry is turned on.
 One-electron integrals computed using PRISM.
 PrsmSu:  requested number of processors reduced to:  13 ShMem   1 Linda.
 NBasis=   406 RedAO= T EigKep=  2.25D-04  NBF=   406
 NBsUse=   406 1.00D-06 EigRej= -1.00D+00 NBFU=   406
 Initial guess from the checkpoint file:  "CC12CqdSrNdCNdCC1dCSC2dS.chk"
 B after Tr=     0.000000   -0.000000    0.000000
         Rot=    0.984697    0.173721   -0.012793    0.005413 Ang=  20.07 deg.
 ExpMin= 1.17D-01 ExpMax= 2.19D+04 ExpMxC= 3.30D+03 IAcc=2 IRadAn=         4 AccDes= 0.00D+00
 Harris functional with IExCor=  402 and IRadAn=       4 diagonalized for initial guess.
 HarFok:  IExCor=  402 AccDes= 0.00D+00 IRadAn=         4 IDoV= 1 UseB2=F ITyADJ=14
 ICtDFT=  3500011 ScaDFX=  1.000000  1.000000  1.000000  1.000000
 FoFCou: FMM=F IPFlag=           0 FMFlag=      100000 FMFlg1=           0
         NFxFlg=           0 DoJE=T BraDBF=F KetDBF=T FulRan=T
         wScrn=  0.000000 ICntrl=       500 IOpCl=  0 I1Cent=   200000004 NGrid=           0
         NMat0=    1 NMatS0=      1 NMatT0=    0 NMatD0=    1 NMtDS0=    0 NMtDT0=    0
 Petite list used in FoFCou.
 Requested convergence on RMS density matrix=1.00D-08 within 128 cycles.
 Requested convergence on MAX density matrix=1.00D-06.
 Requested convergence on             energy=1.00D-06.
 No special actions if energy rises.
 Integral accuracy reduced to 1.0D-05 until final iterations.
 Initial convergence to 1.0D-05 achieved.  Increase integral accuracy.
 SCF Done:  E(RB3LYP) =  -1612.35120085     A.U. after   16 cycles
            NFock= 16  Conv=0.55D-08     -V/T= 2.0040
 PrsmSu:  requested number of processors reduced to:  13 ShMem   1 Linda.
[...]
 2762352,0.06214743,-0.00160959,-0.00155470,-0.00214968,0.00304766,-0.0
 1487755,-0.01966553,-0.02658509,-0.22738691,-0.11958804,0.05382220,0.2
 6851480,0.00018468,-0.00103775,-0.00162098,-0.00076301,-0.02066389,-0.
 00048434,-0.01079090,-0.12141670,-0.11545516,0.02965759,0.16394435,0.1
 1882247,-0.00077126,0.00165433,0.00156853,-0.03800227,-0.00479148,0.01
 589957,-0.22696863,-0.04419168,0.01590036,-0.01406566,-0.03745334,-0.0
 2813290,0.40133047,0.00072541,0.00120466,0.00032777,0.00231724,0.00873
 347,-0.01261639,-0.09288819,-0.09221515,-0.00425649,-0.03535536,-0.027
 87850,-0.01867543,0.26790556,0.63724798,0.00145454,-0.00252216,-0.0030
 2825,0.02010331,0.00470409,0.00998623,0.01262515,-0.00642782,-0.063984
 29,-0.01809264,-0.02306860,-0.00110391,-0.06147988,-0.16529375,0.15994
 694,-0.00064019,0.00122824,0.00122740,-0.00300554,-0.00261448,-0.00390
 594,-0.03279034,-0.04597132,0.00064203,-0.00304460,0.00225485,0.004814
 77,-0.13860721,-0.14037579,0.04692428,0.67502832,0.00159995,-0.0013679
 9,-0.00192117,0.00646787,0.00398618,0.00342841,-0.03035316,-0.03893947
 ,0.00337636,0.00259683,0.01014820,0.00343647,-0.15545245,-0.45816325,0
 .15025301,0.16756339,0.69687766,-0.00042913,0.00037578,0.00101343,-0.0
 0125032,-0.00413400,0.00166873,-0.00234867,0.00313634,-0.00082037,-0.0
 0395509,-0.00434683,0.00005946,0.05305252,0.15830857,-0.11229012,0.032
 56430,-0.19364806,0.26670410,0.00044412,-0.00100303,-0.00096811,0.0015
 8191,0.00718569,-0.00145416,-0.01318339,-0.00556113,0.00310992,0.00381
 622,0.00421537,0.00114303,0.03034018,0.02017905,-0.01335619,-0.1489838
 5,0.04008197,-0.04845132,0.64654900,-0.00048693,0.00062937,0.00023136,
 0.00235545,-0.00349263,-0.00263242,0.01862073,0.00519533,-0.00098384,-
 0.00341551,-0.00374575,-0.00220920,0.00725808,-0.05215917,0.03972111,0
 .03332695,-0.13293194,0.05259460,-0.21087435,0.26839219,0.00040872,0.0
 0004987,-0.00101150,0.00267997,0.00064835,0.00028465,0.00070122,-0.007
 69507,-0.00901255,0.00070290,0.00007091,0.00176094,-0.01141900,0.04282
 709,0.01262088,-0.03804517,0.02894463,-0.10697754,-0.14788396,-0.04714
 458,0.25336014,0.00012153,0.00110229,0.00058261,-0.00054007,-0.0080161
 4,0.00451810,0.01010156,0.00404035,0.00120911,-0.00192886,-0.00121506,
 -0.00049580,-0.00472828,-0.02081745,0.00708913,-0.04794109,0.03747370,
 -0.00222080,-0.45175490,0.13067792,0.16511509,0.68974013,0.00008633,-0
 .00026203,0.00021267,-0.00785105,-0.01033702,0.02456856,0.00235304,-0.
 00033445,0.00093904,-0.00040582,-0.00055236,-0.00015546,-0.00208060,0.
 00353807,0.00305700,0.04114424,-0.01767580,-0.00706650,0.11953112,-0.1
 1068238,-0.02948494,-0.23537853,0.43150847,0.00070406,-0.00178600,0.00
 033889,-0.00000286,0.01196306,0.00012951,-0.00826151,-0.00123857,0.002
 59332,0.00229602,0.00103831,-0.00029148,0.00508883,0.00568497,-0.00770
 496,-0.01447904,0.00285932,0.00930566,0.17998094,-0.03629610,-0.149275
 67,-0.14141354,-0.13079473,0.46275149,-0.01014811,-0.02884908,-0.00013
 381,-0.06932176,-0.01388173,0.00862710,0.00265711,0.01854935,-0.003116
 53,-0.00071613,0.00234185,0.00396774,0.00046795,0.00356481,0.00218252,
 -0.00259401,-0.00838343,0.00338740,-0.01895377,0.00134190,0.03958245,-
 0.08156034,-0.01381881,0.03127330,0.21918845,-0.01344498,-0.01059953,-
 0.00473763,-0.01219017,-0.14996363,0.01407180,0.00168794,-0.02643518,-
 0.00753752,0.00153177,0.00132590,0.00017431,-0.00137583,0.00307191,0.0
 0220830,-0.00295720,-0.00748373,-0.00568107,0.00660543,0.02903112,-0.0
 0168937,-0.01196638,-0.12316660,0.05463936,0.02366883,0.49688004,-0.00
 504266,-0.01388776,0.00189051,0.00688409,-0.00406691,-0.06678960,0.004
 55311,-0.01732495,-0.00086329,0.00009551,-0.00181855,-0.00315725,-0.00
 322684,-0.00281807,0.00369573,-0.00534959,0.00025939,-0.00726996,0.041
 04804,0.00540685,-0.02026013,0.02926456,0.05414466,-0.16542728,-0.1333
 5201,0.10332358,0.72303001,-0.00086902,-0.00146108,0.00003538,0.006835
 55,-0.00333335,-0.00130506,-0.00087107,-0.00095490,0.00087579,0.000205
 98,0.00002292,-0.00029374,-0.00053306,-0.00016628,0.00111854,-0.000635
 70,0.00220145,-0.00142344,0.00383623,-0.00345670,-0.00152829,-0.001041
 01,0.00149314,0.01779037,-0.05655944,0.01750077,0.03323172,0.11543573,
 0.00224299,-0.00504087,0.00185509,-0.00033460,-0.02799527,-0.02569020,
 -0.00342716,-0.00425572,0.00326641,0.00081046,-0.00075146,-0.00174247,
 0.00058949,0.00135458,-0.00071074,0.00138026,-0.00057732,0.00146613,-0
 .00561299,-0.00143132,0.00290426,-0.00129248,0.01096689,0.00923520,0.0
 2035268,-0.18811133,-0.18052430,0.04852609,0.67093964,0.00359068,0.001
 00473,-0.00076439,-0.00787417,-0.02149590,-0.00927080,-0.00396329,0.00
 117522,-0.00020289,0.00061629,0.00042033,0.00070353,0.00102705,0.00169
 772,-0.00021803,0.00178796,-0.00338306,0.00176078,-0.00717116,0.008365
 82,0.00488627,0.01353614,-0.01151520,-0.03723027,0.04781554,-0.1784041
 2,-0.38805621,-0.06428048,0.19325675,0.59507200,-0.00115699,-0.0015072
 8,0.00200570,0.00581561,-0.00058700,-0.00086375,-0.00102166,0.00154276
 ,0.00012876,0.00030807,-0.00028770,-0.00018184,0.00014155,0.00030027,-
 0.00042603,0.00076073,0.00003359,0.00042912,-0.00074887,0.00033168,-0.
 00138248,0.00888458,-0.00149292,0.00115902,0.00708782,-0.00015149,0.01
 634760,-0.03056066,-0.01328441,0.01944672,0.03615851,0.00221717,0.0012
 9231,-0.00183946,-0.00031167,-0.01072245,-0.01714022,-0.00452955,0.001
 11920,-0.00129980,0.00061886,0.00031523,0.00079888,0.00199114,0.001041
 38,-0.00023446,0.00201068,-0.00305276,0.00191025,-0.00402465,0.0021399
 0,0.00289960,0.00196317,0.00220682,-0.00747300,-0.00276472,0.00089657,
 0.02192382,-0.01592897,-0.07867122,0.05717313,0.01661352,0.20649171,-0
 .00006692,0.00259346,-0.00228160,0.01197574,-0.01339278,-0.02249065,-0
 .00300782,0.00388988,-0.00329634,0.00034137,-0.00090825,0.00047965,0.0
 0101252,-0.00142950,0.00107585,-0.00118565,0.00029264,-0.00098004,0.00
 269730,0.00062149,-0.00193474,-0.00103949,-0.00516837,0.00198769,0.009
 85699,0.01193625,-0.05591788,0.01870457,0.04045212,-0.12281200,-0.0438
 4073,-0.01182420,0.27900462,-0.00327390,0.00568693,-0.02765389,-0.0577
 3114,0.00012959,0.00979090,-0.00085510,-0.00556230,0.01785687,-0.00099
 078,0.00042111,-0.00033846,-0.00234955,0.00224803,-0.00114584,0.000596
 90,-0.00039665,-0.00018538,0.00020037,0.00024777,0.00101720,-0.0010167
 8,-0.00098614,-0.00073296,0.00045703,-0.00767552,0.00643471,0.00083784
 ,-0.00569200,0.00041214,-0.03316988,0.00922083,0.00859588,0.13740883,0
 .00305085,-0.00003333,0.00118287,0.00519435,-0.06678339,-0.00427750,-0
 .00590391,0.01383404,-0.00807844,0.00077135,-0.00710397,-0.00127110,0.
 00167562,-0.00142456,0.00072527,-0.00167363,0.00017665,-0.00094961,0.0
 0233856,0.00015481,-0.00254872,0.00057406,-0.00680863,0.00222162,-0.00
 395116,-0.01931163,0.02031431,-0.00589791,-0.03840114,0.01169451,-0.00
 062522,-0.06784386,-0.02202043,0.02397781,0.47719233,-0.01825430,-0.00
 019933,-0.02312350,0.00575761,0.02461166,-0.10475229,0.01591361,-0.014
 32096,-0.02568900,0.00042492,0.00450134,0.00091070,-0.00555323,-0.0005
 7955,0.00174650,-0.00067216,0.00276372,-0.00170947,0.00231983,-0.00193
 939,-0.00140343,-0.00260017,-0.00052303,0.00211731,0.00228457,0.016784
 24,-0.01409885,-0.00205702,0.00865668,0.01663511,0.00694716,-0.0656556
 2,-0.09255291,-0.02141801,-0.09328339,0.33027168,-0.00017313,0.0000880
 7,-0.00023359,0.00709998,-0.00125127,0.00102411,0.00037433,-0.00053294
 ,-0.00051730,-0.00012510,-0.00015529,0.00057989,0.00049405,-0.00003722
 ,0.00028644,-0.00001219,0.00001243,0.00016930,-0.00034905,0.00000268,-
 0.00019373,0.00075828,0.00001665,-0.00007842,-0.00006616,-0.00067348,-
 0.00014127,0.00207084,0.00067647,0.00132394,0.00811044,-0.00218170,-0.
 00277824,-0.03615328,-0.01752012,0.01089706,0.01661099,-0.00411831,-0.
 00097634,-0.00121572,0.00012914,-0.00879312,0.01806367,0.00291990,-0.0
 0658071,-0.00344976,0.00036331,0.00358815,0.00043379,-0.00039995,0.001
 55133,-0.00015763,0.00148790,-0.00205428,0.00087318,-0.00241313,0.0013
 2351,0.00159942,0.00083713,0.00075271,-0.00347821,-0.00138455,-0.00155
 842,0.00290406,0.00076776,-0.00186524,-0.00547407,0.00064667,-0.046727
 80,-0.00318128,-0.02049164,-0.28471710,0.11429659,0.02089068,0.3456045
 9,0.00248119,0.00305539,-0.00178054,0.00085548,0.02085340,-0.01059913,
 -0.00186794,0.00459338,0.00003984,0.00067277,0.00000270,-0.00097462,0.
 00051212,-0.00106834,-0.00022016,-0.00031967,0.00096363,-0.00003451,0.
 00065224,-0.00018319,0.00018847,-0.00045348,0.00091604,0.00105014,0.00
 043634,0.00075434,-0.00412690,0.00107131,-0.00362321,-0.00282745,-0.00
 161717,0.00272929,0.01436306,0.00898609,0.09533061,-0.08400781,-0.0106
 7514,-0.12363427,0.08818504,-0.04438805,0.00062334,-0.00149326,-0.0062
 7389,0.00779161,-0.02936222,0.00138313,-0.00068604,-0.00139306,-0.0000
 6474,0.00037059,0.00032566,-0.00010489,-0.00006703,0.00006717,-0.00005
 399,0.00002384,-0.00003411,-0.00026167,0.00018787,0.00027538,0.0001703
 5,-0.00038648,-0.00054784,0.00100261,0.00089142,0.00076638,0.00004551,
 0.00022787,-0.00076537,0.00074614,-0.00093180,-0.00039495,-0.00435692,
 -0.00092271,0.00087313,0.00054406,0.00096798,-0.00099456,0.05089952,0.
 00124259,-0.06753840,0.07242080,-0.00205870,0.00002461,-0.00730876,0.0
 0076593,0.00103472,0.00094418,-0.00015752,-0.00030397,-0.00050869,-0.0
 0042391,-0.00060331,-0.00016549,-0.00008876,0.00042024,-0.00009760,0.0
 0021483,-0.00019312,0.00017125,-0.00020960,0.00007850,0.00004039,0.000
 62768,0.00065063,-0.00050227,0.00006278,0.00029364,-0.00042027,0.00015
 471,-0.00041102,-0.00024559,-0.00079797,-0.00070978,0.00159865,0.00053
 021,0.00095202,-0.00006208,0.00034890,0.06819916,-0.00320748,0.0734301
 0,-0.29498661,-0.00176938,0.00273765,-0.01027578,0.00099720,-0.0013689
 5,-0.00022392,0.00067209,0.00002342,0.00061405,0.00005561,0.00014498,0
 .00032027,-0.00015100,-0.00001338,-0.00012473,-0.00001065,0.00007540,0
 .00021943,-0.00026832,-0.00012242,-0.00034068,0.00036923,0.00039809,0.
 00089044,0.00022797,0.00000942,-0.00087891,0.00007430,-0.00037583,0.00
 029804,-0.00187084,0.00028835,-0.00031181,-0.00018300,-0.00041298,-0.0
 0002431,0.00537119,-0.07894332,0.31925260,-0.16388897,0.09409959,0.092
 13690,-0.02087060,0.01404586,0.01183796,-0.00341681,-0.00183226,-0.002
 93135,0.00004192,0.00007758,0.00027783,-0.00100085,-0.00030681,0.00112
 409,-0.00050614,0.00127503,-0.00046020,0.00074117,-0.00043206,0.000057
 37,-0.00046309,-0.00004343,0.00057808,0.00039775,0.00146591,0.00066130
 ,0.00039461,-0.00044827,0.00029930,0.00013757,0.00009610,-0.00098916,-
 0.00067014,0.00045804,0.00173704,0.00031112,-0.00004220,-0.00028961,0.
 00108810,-0.00098619,-0.00068070,0.18221937,0.09631737,-0.12238776,-0.
 07273452,-0.00577246,0.00150568,0.00285862,-0.00133580,-0.00114774,-0.
 00173778,0.00153791,0.00029488,-0.00006689,-0.00002717,0.00001497,0.00
 043929,-0.00012467,-0.00001439,0.00025838,-0.00016772,0.00024934,-0.00
 007373,0.00005434,0.00014593,-0.00011839,-0.00070238,0.00039315,0.0008
 1312,-0.00002819,0.00030776,-0.00019118,-0.00005393,0.00006661,-0.0000
 1863,0.00012718,0.00057666,-0.00025619,-0.00011064,-0.00044118,0.00031
 753,-0.00737366,0.00461342,0.00506052,-0.10367161,0.12867296,0.0938900
 2,-0.07375352,-0.11981589,-0.00959486,0.00774982,0.00484348,-0.0027851
 2,-0.00187288,-0.00188418,0.00103125,-0.00010303,0.00057466,-0.0000390
 4,0.00015016,0.00105576,-0.00036707,0.00023866,-0.00012623,0.00005415,
 0.00005026,0.00008372,0.00010840,-0.00014641,-0.00006805,0.00007794,0.
 00016143,0.00000464,-0.00023386,0.00002300,0.00044166,-0.00009413,0.00
 012313,-0.00005054,-0.00104312,0.00079722,0.00063752,0.00009158,-0.000
 19722,0.00014521,0.02025760,-0.01673360,-0.01336251,-0.09911669,0.0815
 4041,0.12708709,-0.05508824,-0.05495927,0.00412476,-0.01064438,-0.0286
 4074,-0.00127741,0.00055491,-0.00150749,-0.00014060,-0.00044235,0.0013
 9410,0.00053843,0.00075053,0.00059723,0.00030799,0.00039073,-0.0005471
 8,0.00020824,-0.00047354,0.00041972,0.00015033,0.00051082,0.00000879,-
 0.00075829,-0.00476876,0.00084093,-0.00246022,-0.00002994,-0.00183043,
 0.00021006,-0.00041951,0.00064202,0.00072067,0.00015499,-0.00252000,0.
 00136535,0.00050118,0.00101090,0.00063478,-0.00024139,0.00096976,0.000
 42333,0.00552143,0.02137369,-0.00233498,0.06311487,-0.05814604,-0.3094
 9487,0.01904614,-0.00256462,-0.00454715,0.00033585,0.00047147,-0.00074
 825,-0.00095334,0.00282525,-0.00048433,-0.00066185,-0.00037117,-0.0002
 6153,-0.00008243,-0.00005965,0.00002715,-0.00000297,-0.00007723,0.0001
 7668,0.00004123,0.00029256,0.00000840,-0.00025148,-0.00111758,-0.00072
 455,-0.00140592,-0.00060817,0.00024081,0.00129509,0.00029931,0.0000109
 7,-0.00031743,0.00036245,0.00032593,0.00107595,0.00018016,0.00081578,-
 0.00017845,-0.00093207,-0.00624607,-0.00072792,-0.00352499,-0.01273136
 ,0.00197213,0.06285829,0.33369131,0.00430364,0.01994543,-0.04630924,-0
 .00469683,-0.01182412,-0.00224762,0.00076653,0.00105824,0.00085856,0.0
 0050505,-0.00052742,-0.00049472,-0.00038920,-0.00047686,-0.00023638,-0
 .00004652,0.00021179,-0.00010552,0.00001324,-0.00006472,0.00018841,-0.
 00000145,-0.00006082,-0.00025983,-0.00155607,0.00034069,-0.00049686,-0
 .00016425,-0.00074830,-0.00056662,-0.00059293,0.00031882,0.00111217,-0
 .00020866,-0.00347983,0.00070685,0.00053606,0.00090027,-0.00005428,0.0
 0692880,0.02975946,-0.00129241,-0.00408125,-0.01606768,0.00059724,-0.0
 0157522,-0.01914704,0.04856754,0.00006094,-0.00008352,-0.00012086,0.00
 019447,0.00040321,0.00050908,0.00368305,0.00016488,-0.00229870,-0.0004
 2160,-0.00070738,-0.00027172,-0.00725776,-0.00927384,0.00409678,-0.300
 39123,-0.06864021,-0.03499675,-0.01942287,0.00071077,-0.00320761,0.000
 77262,0.00088228,-0.00441543,-0.00002290,-0.00064217,-0.00008260,0.000
 14748,0.00002916,-0.00018133,-0.00003758,-0.00007670,0.00010743,-0.000
 06100,-0.00003484,-0.00007414,-0.00000573,-0.00005844,0.00007237,0.000
 00462,0.00000124,0.00001079,0.00004304,0.00002094,0.00003858,0.0000135
 6,-0.00000655,-0.00001280,0.32304773,-0.00024019,0.00026675,0.00035324
 ,-0.00136899,-0.00107255,-0.00032660,-0.00280441,0.00236443,0.00596256
 ,0.00057225,0.00042864,-0.00038004,-0.03390726,-0.02454869,0.00035387,
 -0.06330921,-0.06089679,-0.00811658,0.02417618,0.00617127,0.00709757,0
 .00069867,-0.00181380,0.00322076,0.00014766,0.00048003,0.00009974,-0.0
 0014195,0.00008637,0.00017682,0.00006189,0.00018708,0.00000920,-0.0000
 7975,0.00020311,-0.00028376,0.00000185,0.00001240,-0.00003824,-0.00000
 328,-0.00003850,-0.00001311,-0.00016863,-0.00002417,-0.00007611,0.0000
 3248,-0.00000712,-0.00001739,0.07648974,0.07963311,-0.00021443,0.00009
 249,0.00036740,-0.00175858,-0.00077981,-0.00061897,-0.00424848,0.00677
 394,0.01128368,0.00230579,0.00246876,0.00008928,0.01672686,-0.00128512
 ,0.00045071,-0.03112408,-0.00444342,-0.05518555,-0.01764602,0.00119409
 ,0.00374008,-0.00344278,0.00260599,-0.00052336,0.00027930,0.00052240,-
 0.00025058,-0.00012950,-0.00027896,0.00004999,-0.00002236,-0.00020696,
 -0.00000543,-0.00012834,0.00022270,0.00020039,0.00004241,-0.00019464,-
 0.00008017,0.00003377,0.00005559,0.00000853,-0.00009448,-0.00005795,-0
 .00010378,-0.00012758,0.00000931,0.00006919,0.04000260,-0.00680088,0.0
 4005687,-0.00005061,-0.00013612,-0.00005270,-0.00022627,-0.00069084,-0
 .00031197,-0.00197197,0.00002715,0.00074826,0.00038278,0.00038591,0.00
 017866,0.00069449,0.00141385,-0.00277490,0.00249189,0.00524014,0.00552
 282,-0.03234805,0.02284316,-0.00829911,-0.11515321,0.09479757,-0.06532
 125,0.00880079,-0.00461857,0.00945560,0.00016854,-0.00072153,-0.001114
 53,-0.00076692,-0.00081521,0.00022111,0.00006533,0.00045849,0.00118655
 ,-0.00011710,-0.00036267,-0.00016371,-0.00002904,-0.00013454,-0.000010
 21,0.00001384,-0.00004515,0.00006620,-0.00010718,0.00001178,-0.0000150
 5,-0.00029762,-0.00020936,-0.00048222,0.13801372,0.00005030,0.00003395
 ,0.00029485,-0.00042990,-0.00053954,-0.00015749,-0.00107432,0.00071797
 ,0.00074538,0.00006971,0.00001431,-0.00005419,-0.00065764,-0.00044864,
 -0.00278250,0.00666000,0.01145574,0.00507341,0.00482989,-0.00878244,0.
 00167253,0.10092480,-0.17786914,0.08997883,0.00659631,0.00053441,0.011
 04274,0.00043527,-0.00140754,-0.00155783,-0.00101758,-0.00101240,0.000
 97139,-0.00010254,0.00083905,0.00098841,-0.00004188,-0.00036888,-0.000
 17599,-0.00011250,-0.00020681,-0.00016207,-0.00001788,-0.00006818,0.00
 005257,-0.00007466,0.00000033,-0.00013348,0.00079141,-0.00142024,0.000
 14384,-0.11744813,0.17873271,-0.00032316,0.00000805,-0.00013881,-0.001
 02180,-0.00092473,-0.00363190,0.00030673,0.00019717,0.00033423,-0.0001
 5185,0.00001181,0.00007546,-0.00069162,-0.00080108,-0.00202971,0.00770
 644,0.00679808,0.00497686,0.00595143,-0.01706914,0.01251285,-0.0679873
 1,0.09865719,-0.12078159,-0.00763756,0.01989885,-0.00446945,0.00149038
 ,-0.00056026,0.00118784,0.00044011,0.00035595,-0.00023757,0.00011974,0
 .00096707,0.00006063,0.00008156,0.00032258,-0.00044269,0.00006834,-0.0
 0000301,0.00018761,0.00001214,-0.00001494,-0.00002069,0.00010297,-0.00
 002512,0.00004856,0.00082579,-0.00125444,0.00048075,0.06118452,-0.1062
 2708,0.11230359,0.00019950,0.00263821,-0.00034095,0.01018554,-0.001818
 32,0.00243194,-0.00065694,-0.00124833,0.00058694,0.00008320,-0.0003406
 9,-0.00039989,0.00017021,0.00003650,-0.00010445,-0.00006250,-0.0007971
 1,0.00042152,-0.00102926,0.00034087,0.00126872,-0.00493225,0.00213062,
 -0.00285947,0.00465187,0.00150279,0.00091256,-0.03887843,-0.04219159,-
 0.00471547,-0.00026896,-0.00380850,-0.00093061,0.00090717,0.00055037,0
 .00092220,0.00012647,-0.00075050,0.00000657,-0.00010946,-0.00006145,-0
 .00005013,-0.00009332,-0.00001806,-0.00000684,0.00070226,0.00010681,0.
 00028692,-0.00004922,0.00005233,0.00002811,0.00043661,0.00061935,-0.00
 047684,0.02861750,0.00007993,-0.00025010,-0.00005249,-0.00074838,0.000
 96877,-0.00149792,-0.00029558,-0.00003740,-0.00023620,0.00007277,0.000
 00941,0.00005585,0.00005826,-0.00005556,-0.00001638,0.00011822,0.00006
 592,0.00004657,0.00037612,-0.00004477,-0.00029030,0.00025665,0.0002964
 2,0.00055466,-0.00233762,-0.00590916,0.00211646,-0.03903267,-0.3356812
 4,-0.05381849,-0.00097687,-0.00732625,-0.00225996,-0.00063717,-0.00016
 518,0.00176399,0.00010533,-0.00051742,-0.00055255,-0.00001786,-0.00001
 598,-0.00002795,-0.00004378,-0.00002658,0.00002396,-0.00006814,-0.0000
 5210,0.00001297,0.00003002,-0.00001131,-0.00004139,0.00000405,-0.00020
 466,-0.00033694,0.04305671,0.34895720,0.00011179,-0.00017188,0.0002102
 3,0.00328735,-0.00077108,-0.00329902,-0.00081966,-0.00116923,0.0006656
 7,0.00020780,-0.00030601,-0.00050774,0.00008775,0.00015931,-0.00008305
 ,-0.00002128,-0.00041701,0.00013501,-0.00002854,0.00026157,0.00002973,
 -0.00149998,-0.00006326,0.00162915,-0.00434445,-0.02716393,0.00167293,
 -0.00313037,-0.04724662,-0.05790961,0.00204292,0.01781666,0.00423864,0
 .00151197,0.00216447,-0.00563763,-0.00023169,0.00200221,0.00120082,0.0
 0001795,0.00000036,0.00003068,-0.00007857,0.00005002,-0.00003912,-0.00
 011261,-0.00002175,-0.00008505,-0.00000147,0.00003338,-0.00002901,-0.0
 0001808,0.00028668,-0.00041597,0.00301916,0.05455611,0.05819333\\0.000
 02683,0.00000261,0.00001943,-0.00003208,0.00005673,-0.00012301,0.00005
 808,0.00001140,0.00003683,-0.00000849,-0.00000220,-0.00000434,-0.00004
 699,0.00000292,-0.00000030,0.00002149,0.00000731,-0.00001401,0.0000020
 5,-0.00001472,0.00002452,-0.00000013,-0.00003344,-0.00001810,0.0000182
 9,0.00003716,0.00002228,-0.00002866,-0.00001940,-0.00001864,0.00000609
 ,0.00005616,-0.00000234,0.00000685,-0.00012448,0.00004315,-0.00000025,
 0.00002944,-0.00000180,-0.00000353,-0.00000724,0.00000157,-0.00000336,
 -0.00000197,0.00001227,-0.00001577,0.00000547,-0.00000637,-0.00000346,
 -0.00000194,-0.00000422,-0.00000242,0.00000135,-0.00000459,0.00000546,
 -0.00000515,0.00003765\\\@


 NATURE REVEALS EVERY SECRET ONCE.
                    - RALPH WALDO EMERSON
 Job cpu time:       0 days  5 hours  8 minutes 13.9 seconds.
 Elapsed time:       0 days  1 hours 17 minutes 44.5 seconds.
 File lengths (MBytes):  RWF=    283 Int=      0 D2E=      0 Chk=     14 Scr=      1
 Normal termination of Gaussian 16 at Wed May 17 04:41:03 2023.
### All Done ###
