### Starting Gaussian ###
 Entering Gaussian System, Link 0=g16
 Initial command:
 /cluster/software/gaussian/gaussian-16-A.03/avx2/g16/l1.exe "/local/scratch/cz9n3/Gau-20245.inp" -scrdir="/local/scratch/cz9n3/"
 Entering Link 1 = /cluster/software/gaussian/gaussian-16-A.03/avx2/g16/l1.exe PID=     20246.
  
 Copyright (c) 1988,1990,1992,1993,1995,1998,2003,2009,2016,
            Gaussian, Inc.  All Rights Reserved.
  
 This is part of the Gaussian(R) 16 program.  It is based on
 the Gaussian(R) 09 system (copyright 2009, Gaussian, Inc.),
 the Gaussian(R) 03 system (copyright 2003, Gaussian, Inc.),
 the Gaussian(R) 98 system (copyright 1998, Gaussian, Inc.),
 the Gaussian(R) 94 system (copyright 1995, Gaussian, Inc.),
 the Gaussian 92(TM) system (copyright 1992, Gaussian, Inc.),
 the Gaussian 90(TM) system (copyright 1990, Gaussian, Inc.),
 the Gaussian 88(TM) system (copyright 1988, Gaussian, Inc.),
 the Gaussian 86(TM) system (copyright 1986, Carnegie Mellon
 University), and the Gaussian 82(TM) system (copyright 1983,
 Carnegie Mellon University). Gaussian is a federally registered
 trademark of Gaussian, Inc.
  
 This software contains proprietary and confidential information,
 including trade secrets, belonging to Gaussian, Inc.
  
 This software is provided under written license and may be
 used, copied, transmitted, or stored only in accord with that
 written license.
  
 The following legend is applicable only to US Government
 contracts under FAR:
  
                    RESTRICTED RIGHTS LEGEND
  
 Use, reproduction and disclosure by the US Government is
 subject to restrictions as set forth in subparagraphs (a)
 and (c) of the Commercial Computer Software - Restricted
 Rights clause in FAR 52.227-19.
  
 Gaussian, Inc.
 340 Quinnipiac St., Bldg. 40, Wallingford CT 06492
  
  
 ---------------------------------------------------------------
 Warning -- This program may not be used in any manner that
 competes with the business of Gaussian, Inc. or will provide
 assistance to any competitor of Gaussian, Inc.  The licensee
 of this program is prohibited from giving any competitor of
 Gaussian, Inc. access to this program.  By using this program,
 the user acknowledges that Gaussian, Inc. is engaged in the
 business of creating and licensing software in the field of
 computational chemistry and represents and warrants to the
 licensee that it is not a competitor of Gaussian, Inc. and that
 it will not use this program in any manner prohibited above.
 ---------------------------------------------------------------
  

 Cite this work as:
 Gaussian 16, Revision A.03,
 M. J. Frisch, G. W. Trucks, H. B. Schlegel, G. E. Scuseria, 
 M. A. Robb, J. R. Cheeseman, G. Scalmani, V. Barone, 
 G. A. Petersson, H. Nakatsuji, X. Li, M. Caricato, A. V. Marenich, 
 J. Bloino, B. G. Janesko, R. Gomperts, B. Mennucci, H. P. Hratchian, 
 J. V. Ortiz, A. F. Izmaylov, J. L. Sonnenberg, D. Williams-Young, 
 F. Ding, F. Lipparini, F. Egidi, J. Goings, B. Peng, A. Petrone, 
 T. Henderson, D. Ranasinghe, V. G. Zakrzewski, J. Gao, N. Rega, 
 G. Zheng, W. Liang, M. Hada, M. Ehara, K. Toyota, R. Fukuda, 
 J. Hasegawa, M. Ishida, T. Nakajima, Y. Honda, O. Kitao, H. Nakai, 
 T. Vreven, K. Throssell, J. A. Montgomery, Jr., J. E. Peralta, 
 F. Ogliaro, M. J. Bearpark, J. J. Heyd, E. N. Brothers, K. N. Kudin, 
 V. N. Staroverov, T. A. Keith, R. Kobayashi, J. Normand, 
 K. Raghavachari, A. P. Rendell, J. C. Burant, S. S. Iyengar, 
 J. Tomasi, M. Cossi, J. M. Millam, M. Klene, C. Adamo, R. Cammi, 
 J. W. Ochterski, R. L. Martin, K. Morokuma, O. Farkas, 
 J. B. Foresman, and D. J. Fox, Gaussian, Inc., Wallingford CT, 2016.
 
 ******************************************
 Gaussian 16:  ES64L-G16RevA.03 25-Dec-2016
                19-May-2023 
 ******************************************
 %chk=CC12CdCCdC3NdC3NdC1CdCCC2.chk
 %NProcShared=20
 Will use up to   20 processors via shared memory.
 -----------------------------
 # opt freq b3lyp/6-31g(2df,p)
 -----------------------------
 1/18=20,19=15,26=3,38=1/1,3;
 2/9=110,12=2,17=6,18=5,40=1/2;
 3/5=1,6=6,7=104,11=2,25=1,30=1,71=1,74=-5/1,2,3;
 4//1;
 5/5=2,38=5/2;
 6/7=2,8=2,9=2,10=2,28=1/1;
 7//1,2,3,16;
 1/18=20,19=15,26=3/3(2);
 2/9=110/2;
 99//99;
 2/9=110/2;
 3/5=1,6=6,7=104,11=2,25=1,30=1,71=1,74=-5/1,2,3;
 4/5=5,16=3,69=1/1;
 5/5=2,38=5/2;
 7//1,2,3,16;
 1/18=20,19=15,26=3/3(-5);
 2/9=110/2;
 6/7=2,8=2,9=2,10=2,19=2,28=1/1;
 99/9=1/99;
 -------------------
 Title Card Required
 -------------------
 Symbolic Z-matrix:
 Charge =  0 Multiplicity = 1
 C                     1.29616  -0.23361   0.12354 
 C                     2.83265   0.03316   0.28479 
 C                     3.17629   0.37378   1.7115 
 C                     4.39819   0.92681   1.84158 
 C                     5.34124   0.4606    2.8353 
 C                     6.29468  -0.2327    2.18175 
 N                     6.62314  -1.58221   2.30329 
 C                     5.73457  -1.30852   1.47582 
 N                     4.99535  -1.65998   0.39488 
 C                     3.92053  -1.10506  -0.14643 
 C                     3.96249  -1.35548  -1.60782 
 C                     4.14729  -0.21687  -2.29481 
 C                     3.90706   1.17845  -1.79571 
 C                     3.0201    1.32897  -0.57219 
 H                     0.91382  -1.17713   0.51877 
 H                     0.96488  -0.16686  -0.92726 
 H                     0.73446   0.57235   0.63144 
 H                     2.63074  -0.10562   2.5205 
 H                     4.92407   1.15922   0.89861 
 H                     4.83769  -0.02373   3.66699 
 H                     4.26106  -2.32688  -1.98714 
 H                     4.55954  -0.27729  -3.29766 
 H                     3.43168   1.74609  -2.60162 
 H                     4.86474   1.67162  -1.58968 
 H                     2.05407   1.75802  -0.87501 
 H                     3.41145   2.16182   0.0255 
 

 GradGradGradGradGradGradGradGradGradGradGradGradGradGradGradGradGradGrad
 Berny optimization.
 Initialization pass.
                           ----------------------------
                           !    Initial Parameters    !
                           ! (Angstroms and Degrees)  !
 --------------------------                            --------------------------
 ! Name  Definition              Value          Derivative Info.                !
 --------------------------------------------------------------------------------
 ! R1    R(1,2)                  1.5678         estimate D2E/DX2                !
 ! R2    R(1,15)                 1.0921         estimate D2E/DX2                !
 ! R3    R(1,16)                 1.1038         estimate D2E/DX2                !
 ! R4    R(1,17)                 1.1059         estimate D2E/DX2                !
 ! R5    R(2,3)                  1.5065         estimate D2E/DX2                !
 ! R6    R(2,10)                 1.6325         estimate D2E/DX2                !
 ! R7    R(2,14)                 1.5648         estimate D2E/DX2                !
 ! R8    R(3,4)                  1.3475         estimate D2E/DX2                !
 ! R9    R(3,18)                 1.0872         estimate D2E/DX2                !
 ! R10   R(4,5)                  1.4471         estimate D2E/DX2                !
 ! R11   R(4,19)                 1.1044         estimate D2E/DX2                !
 ! R12   R(5,6)                  1.3479         estimate D2E/DX2                !
 ! R13   R(5,20)                 1.0862         estimate D2E/DX2                !
 ! R14   R(6,7)                  1.3942         estimate D2E/DX2                !
 ! R15   R(6,8)                  1.4034         estimate D2E/DX2                !
 ! R16   R(7,8)                  1.2447         estimate D2E/DX2                !
 ! R17   R(8,9)                  1.3559         estimate D2E/DX2                !
 ! R18   R(9,10)                 1.3252         estimate D2E/DX2                !
 ! R19   R(10,11)                1.4833         estimate D2E/DX2                !
 ! R20   R(11,12)                1.3426         estimate D2E/DX2                !
 ! R21   R(11,21)                1.0847         estimate D2E/DX2                !
 ! R22   R(12,13)                1.5012         estimate D2E/DX2                !
 ! R23   R(12,22)                1.086          estimate D2E/DX2                !
 ! R24   R(13,14)                1.5187         estimate D2E/DX2                !
 ! R25   R(13,23)                1.0944         estimate D2E/DX2                !
 ! R26   R(13,24)                1.0967         estimate D2E/DX2                !
 ! R27   R(14,25)                1.0995         estimate D2E/DX2                !
 ! R28   R(14,26)                1.0973         estimate D2E/DX2                !
 ! A1    A(2,1,15)             116.9301         estimate D2E/DX2                !
 ! A2    A(2,1,16)             112.4425         estimate D2E/DX2                !
 ! A3    A(2,1,17)             109.058          estimate D2E/DX2                !
 ! A4    A(15,1,16)            106.9598         estimate D2E/DX2                !
 ! A5    A(15,1,17)            106.5953         estimate D2E/DX2                !
 ! A6    A(16,1,17)            103.9278         estimate D2E/DX2                !
 ! A7    A(1,2,3)              111.0647         estimate D2E/DX2                !
 ! A8    A(1,2,10)             120.4832         estimate D2E/DX2                !
 ! A9    A(1,2,14)             101.6525         estimate D2E/DX2                !
 ! A10   A(3,2,10)             104.8206         estimate D2E/DX2                !
 ! A11   A(3,2,14)             107.7032         estimate D2E/DX2                !
 ! A12   A(10,2,14)            110.6636         estimate D2E/DX2                !
 ! A13   A(2,3,4)              113.0197         estimate D2E/DX2                !
 ! A14   A(2,3,18)             119.3767         estimate D2E/DX2                !
 ! A15   A(4,3,18)             124.3447         estimate D2E/DX2                !
 ! A16   A(3,4,5)              121.6677         estimate D2E/DX2                !
 ! A17   A(3,4,19)             115.8306         estimate D2E/DX2                !
 ! A18   A(5,4,19)             110.1083         estimate D2E/DX2                !
 ! A19   A(4,5,6)              107.0806         estimate D2E/DX2                !
 ! A20   A(4,5,20)             111.5509         estimate D2E/DX2                !
 ! A21   A(6,5,20)             118.0229         estimate D2E/DX2                !
 ! A22   A(5,6,7)              128.4797         estimate D2E/DX2                !
 ! A23   A(5,6,8)              110.8477         estimate D2E/DX2                !
 ! A24   A(6,8,9)              144.8188         estimate D2E/DX2                !
 ! A25   A(7,8,9)              149.5681         estimate D2E/DX2                !
 ! A26   A(8,9,10)             131.2453         estimate D2E/DX2                !
 ! A27   A(2,10,9)             136.4313         estimate D2E/DX2                !
 ! A28   A(2,10,11)            113.3793         estimate D2E/DX2                !
 ! A29   A(9,10,11)            107.9871         estimate D2E/DX2                !
 ! A30   A(10,11,12)           111.3986         estimate D2E/DX2                !
 ! A31   A(10,11,21)           120.2321         estimate D2E/DX2                !
 ! A32   A(12,11,21)           122.8639         estimate D2E/DX2                !
 ! A33   A(11,12,13)           126.5906         estimate D2E/DX2                !
 ! A34   A(11,12,22)           118.5287         estimate D2E/DX2                !
 ! A35   A(13,12,22)           114.8013         estimate D2E/DX2                !
 ! A36   A(12,13,14)           116.9636         estimate D2E/DX2                !
 ! A37   A(12,13,23)           107.8648         estimate D2E/DX2                !
 ! A38   A(12,13,24)           109.9176         estimate D2E/DX2                !
 ! A39   A(14,13,23)           106.7491         estimate D2E/DX2                !
 ! A40   A(14,13,24)           108.3049         estimate D2E/DX2                !
 ! A41   A(23,13,24)           106.5234         estimate D2E/DX2                !
 ! A42   A(2,14,13)            115.4108         estimate D2E/DX2                !
 ! A43   A(2,14,25)            111.6359         estimate D2E/DX2                !
 ! A44   A(2,14,26)            111.8973         estimate D2E/DX2                !
 ! A45   A(13,14,25)           109.2635         estimate D2E/DX2                !
 ! A46   A(13,14,26)           107.8044         estimate D2E/DX2                !
 ! A47   A(25,14,26)            99.6244         estimate D2E/DX2                !
 ! D1    D(15,1,2,3)           -73.9289         estimate D2E/DX2                !
 ! D2    D(15,1,2,10)           49.0821         estimate D2E/DX2                !
 ! D3    D(15,1,2,14)          171.7312         estimate D2E/DX2                !
 ! D4    D(16,1,2,3)           161.7514         estimate D2E/DX2                !
 ! D5    D(16,1,2,10)          -75.2376         estimate D2E/DX2                !
 ! D6    D(16,1,2,14)           47.4114         estimate D2E/DX2                !
 ! D7    D(17,1,2,3)            47.0296         estimate D2E/DX2                !
 ! D8    D(17,1,2,10)          170.0406         estimate D2E/DX2                !
 ! D9    D(17,1,2,14)          -67.3104         estimate D2E/DX2                !
 ! D10   D(1,2,3,4)           -164.5639         estimate D2E/DX2                !
 ! D11   D(1,2,3,18)            34.9406         estimate D2E/DX2                !
 ! D12   D(10,2,3,4)            63.8126         estimate D2E/DX2                !
 ! D13   D(10,2,3,18)          -96.6828         estimate D2E/DX2                !
 ! D14   D(14,2,3,4)           -54.0679         estimate D2E/DX2                !
 ! D15   D(14,2,3,18)          145.4367         estimate D2E/DX2                !
 ! D16   D(1,2,10,9)          -132.0822         estimate D2E/DX2                !
 ! D17   D(1,2,10,11)           67.4275         estimate D2E/DX2                !
 ! D18   D(3,2,10,9)            -6.1252         estimate D2E/DX2                !
 ! D19   D(3,2,10,11)         -166.6155         estimate D2E/DX2                !
 ! D20   D(14,2,10,9)          109.7217         estimate D2E/DX2                !
 ! D21   D(14,2,10,11)         -50.7686         estimate D2E/DX2                !
 ! D22   D(1,2,14,13)         -115.869          estimate D2E/DX2                !
 ! D23   D(1,2,14,25)            9.678          estimate D2E/DX2                !
 ! D24   D(1,2,14,26)          120.3659         estimate D2E/DX2                !
 ! D25   D(3,2,14,13)          127.3196         estimate D2E/DX2                !
 ! D26   D(3,2,14,25)         -107.1335         estimate D2E/DX2                !
 ! D27   D(3,2,14,26)            3.5544         estimate D2E/DX2                !
 ! D28   D(10,2,14,13)          13.2808         estimate D2E/DX2                !
 ! D29   D(10,2,14,25)         138.8278         estimate D2E/DX2                !
 ! D30   D(10,2,14,26)        -110.4843         estimate D2E/DX2                !
 ! D31   D(2,3,4,5)           -131.6724         estimate D2E/DX2                !
 ! D32   D(2,3,4,19)             6.691          estimate D2E/DX2                !
 ! D33   D(18,3,4,5)            27.6944         estimate D2E/DX2                !
 ! D34   D(18,3,4,19)          166.0578         estimate D2E/DX2                !
 ! D35   D(3,4,5,6)            106.3712         estimate D2E/DX2                !
 ! D36   D(3,4,5,20)           -24.1551         estimate D2E/DX2                !
 ! D37   D(19,4,5,6)           -34.0722         estimate D2E/DX2                !
 ! D38   D(19,4,5,20)         -164.5985         estimate D2E/DX2                !
 ! D39   D(4,5,6,7)           -117.2355         estimate D2E/DX2                !
 ! D40   D(4,5,6,8)            -58.7764         estimate D2E/DX2                !
 ! D41   D(20,5,6,7)             9.552          estimate D2E/DX2                !
 ! D42   D(20,5,6,8)            68.011          estimate D2E/DX2                !
 ! D43   D(5,6,8,9)             73.0864         estimate D2E/DX2                !
 ! D44   D(6,8,9,10)           -40.2417         estimate D2E/DX2                !
 ! D45   D(7,8,9,10)           169.2798         estimate D2E/DX2                !
 ! D46   D(8,9,10,2)           -12.6293         estimate D2E/DX2                !
 ! D47   D(8,9,10,11)          148.5687         estimate D2E/DX2                !
 ! D48   D(2,10,11,12)          53.4294         estimate D2E/DX2                !
 ! D49   D(2,10,11,21)        -152.0241         estimate D2E/DX2                !
 ! D50   D(9,10,11,12)        -112.5657         estimate D2E/DX2                !
 ! D51   D(9,10,11,21)          41.9808         estimate D2E/DX2                !
 ! D52   D(10,11,12,13)        -19.0839         estimate D2E/DX2                !
 ! D53   D(10,11,12,22)        157.4946         estimate D2E/DX2                !
 ! D54   D(21,11,12,13)       -172.8476         estimate D2E/DX2                !
 ! D55   D(21,11,12,22)          3.7309         estimate D2E/DX2                !
 ! D56   D(11,12,13,14)        -18.447          estimate D2E/DX2                !
 ! D57   D(11,12,13,23)       -138.6906         estimate D2E/DX2                !
 ! D58   D(11,12,13,24)        105.5487         estimate D2E/DX2                !
 ! D59   D(22,12,13,14)        164.8643         estimate D2E/DX2                !
 ! D60   D(22,12,13,23)         44.6207         estimate D2E/DX2                !
 ! D61   D(22,12,13,24)        -71.14           estimate D2E/DX2                !
 ! D62   D(12,13,14,2)          18.6068         estimate D2E/DX2                !
 ! D63   D(12,13,14,25)       -108.1511         estimate D2E/DX2                !
 ! D64   D(12,13,14,26)        144.4965         estimate D2E/DX2                !
 ! D65   D(23,13,14,2)         139.4397         estimate D2E/DX2                !
 ! D66   D(23,13,14,25)         12.6818         estimate D2E/DX2                !
 ! D67   D(23,13,14,26)        -94.6706         estimate D2E/DX2                !
 ! D68   D(24,13,14,2)        -106.2049         estimate D2E/DX2                !
 ! D69   D(24,13,14,25)        127.0372         estimate D2E/DX2                !
 ! D70   D(24,13,14,26)         19.6848         estimate D2E/DX2                !
 --------------------------------------------------------------------------------
 Trust Radius=3.00D-01 FncErr=1.00D-07 GrdErr=1.00D-06 EigMax=2.50D+02 EigMin=1.00D-04
 Number of steps in this run=    155 maximum allowed number of steps=    156.
 GradGradGradGradGradGradGradGradGradGradGradGradGradGradGradGradGradGrad

                          Input orientation:                          
 ---------------------------------------------------------------------
 Center     Atomic      Atomic             Coordinates (Angstroms)
 Number     Number       Type             X           Y           Z
 ---------------------------------------------------------------------
      1          6           0        1.296160   -0.233610    0.123540
      2          6           0        2.832650    0.033160    0.284790
      3          6           0        3.176290    0.373780    1.711500
      4          6           0        4.398190    0.926810    1.841580
      5          6           0        5.341240    0.460600    2.835300
      6          6           0        6.294680   -0.232700    2.181750
      7          7           0        6.623140   -1.582210    2.303290
      8          6           0        5.734570   -1.308520    1.475820
      9          7           0        4.995350   -1.659980    0.394880
     10          6           0        3.920530   -1.105060   -0.146430
     11          6           0        3.962490   -1.355480   -1.607820
     12          6           0        4.147290   -0.216870   -2.294810
     13          6           0        3.907060    1.178450   -1.795710
     14          6           0        3.020100    1.328970   -0.572190
     15          1           0        0.913820   -1.177130    0.518770
     16          1           0        0.964880   -0.166860   -0.927260
     17          1           0        0.734460    0.572350    0.631440
     18          1           0        2.630740   -0.105620    2.520500
     19          1           0        4.924070    1.159220    0.898610
     20          1           0        4.837690   -0.023730    3.666990
     21          1           0        4.261060   -2.326880   -1.987140
     22          1           0        4.559540   -0.277290   -3.297660
     23          1           0        3.431680    1.746090   -2.601620
     24          1           0        4.864740    1.671620   -1.589680
     25          1           0        2.054070    1.758020   -0.875010
     26          1           0        3.411450    2.161820    0.025500
 ---------------------------------------------------------------------
                    Distance matrix (angstroms):
                    1          2          3          4          5
     1  C    0.000000
     2  C    1.567791   0.000000
     3  C    2.534843   1.506523   0.000000
     4  C    3.731062   2.381831   1.347517   0.000000
     5  C    4.919171   3.602892   2.440793   1.447126   0.000000
     6  C    5.405685   3.956614   3.211434   2.248745   1.347902
     7  N    5.911577   4.588200   4.007105   3.385079   2.469691
     8  C    4.762728   3.411715   3.070908   2.629903   2.265542
     9  N    3.973936   2.748839   3.029628   3.023413   3.251484
    10  C    2.778422   1.632476   2.488527   2.882506   3.655191
    11  C    3.371278   2.605155   3.824439   4.158971   4.994038
    12  C    3.738668   2.906050   4.164400   4.298916   5.310604
    13  C    3.534718   2.606631   3.671790   3.678914   4.900861
    14  C    2.428511   1.564825   2.480327   2.808407   4.213401
    15  H    1.092072   2.280670   2.991103   4.279863   5.258376
    16  H    1.103804   2.235540   3.485065   4.544250   5.805436
    17  H    1.105912   2.193922   2.677404   3.874661   5.108024
    18  H    2.746434   2.249095   1.087166   2.156554   2.786847
    19  H    3.962630   2.453329   2.081452   1.104426   2.100683
    20  H    5.014232   3.932264   2.596576   2.104473   1.086207
    21  H    4.198498   3.573767   4.706403   5.026370   5.673867
    22  H    4.728231   3.989045   5.237266   5.280879   6.226454
    23  H    3.988252   3.409447   4.533372   4.620323   5.904151
    24  H    4.393152   3.213655   3.928491   3.542027   4.612382
    25  H    2.353321   2.219564   3.140944   3.683160   5.123981
    26  H    3.197209   2.221134   2.468802   2.407707   3.809621
                    6          7          8          9         10
     6  C    0.000000
     7  N    1.394215   0.000000
     8  C    1.403371   1.244656   0.000000
     9  N    2.630264   2.509537   1.355877   0.000000
    10  C    3.437735   3.678709   2.442096   1.325213   0.000000
    11  C    4.589181   4.735741   3.556868   2.273835   1.483284
    12  C    4.964990   5.397825   4.234242   3.167997   2.335774
    13  C    4.848944   5.639161   4.497524   3.746965   2.816864
    14  C    4.554764   5.452087   4.303376   3.710884   2.629933
    15  H    5.710613   5.995410   4.916588   4.111858   3.080258
    16  H    6.170660   6.667501   5.461513   4.496904   3.197778
    17  H    5.828174   6.489512   5.408489   4.816061   3.683725
    18  H    3.681760   4.262248   3.488852   3.539163   3.126492
    19  H    2.337191   3.517869   2.660794   2.864736   2.688153
    20  H    2.091035   2.734295   2.693753   3.661813   4.068492
    21  H    5.089287   4.953963   3.898767   2.580302   2.235401
    22  H    5.747750   6.109984   5.022971   3.966940   3.320209
    23  H    5.915489   6.732098   5.591016   4.798478   3.794205
    24  H    4.460364   5.369785   4.362927   3.880090   3.268708
    25  H    5.593704   6.491158   5.336305   4.684706   3.494528
    26  H    4.323905   5.433327   4.420812   4.153473   3.310774
                   11         12         13         14         15
    11  C    0.000000
    12  C    1.342587   0.000000
    13  C    2.541491   1.501243   0.000000
    14  C    3.027689   2.574412   1.518669   0.000000
    15  H    3.721368   4.392455   4.457024   3.450673   0.000000
    16  H    3.295701   3.464163   3.349700   2.566615   1.764725
    17  H    4.376185   4.564342   4.040273   2.691719   1.762256
    18  H    4.514281   5.049704   4.680545   3.431382   2.846554
    19  H    3.678389   3.562996   2.879937   2.411881   4.656706
    20  H    5.510277   6.004749   5.670309   4.806670   5.161238
    21  H    1.084733   2.135356   3.528357   4.111849   4.336534
    22  H    2.091536   1.085960   2.191064   3.518257   5.354075
    23  H    3.299869   2.111739   1.094391   2.112338   4.962023
    24  H    3.158753   2.139705   1.096730   2.134336   5.307608
    25  H    3.724642   3.208986   2.148758   1.099544   3.443530
    26  H    3.916986   3.403449   2.128251   1.097282   4.198816
                   16         17         18         19         20
    16  H    0.000000
    17  H    1.740423   0.000000
    18  H    3.829607   2.761172   0.000000
    19  H    4.557135   4.238942   3.080537   0.000000
    20  H    6.010514   5.138713   2.488327   3.011770   0.000000
    21  H    4.080911   5.263022   5.283063   4.573842   6.132388
    22  H    4.307270   5.548960   6.131943   4.450295   6.974813
    23  H    3.542310   4.370965   5.505129   3.850098   6.663678
    24  H    4.362077   4.816740   5.004290   2.541193   5.523362
    25  H    2.212290   2.327354   3.916017   3.426542   5.617200
    26  H    3.509445   3.171727   3.460609   2.013839   4.480094
                   21         22         23         24         25
    21  H    0.000000
    22  H    2.450994   0.000000
    23  H    4.201731   2.418803   0.000000
    24  H    4.063300   2.609328   1.755913   0.000000
    25  H    4.774311   4.035976   2.208876   2.901393   0.000000
    26  H    4.992092   4.279107   2.659887   2.227365   1.678229
                   26
    26  H    0.000000
 Stoichiometry    C12H12N2
 Framework group  C1[X(C12H12N2)]
 Deg. of freedom    72
 Full point group                 C1      NOp   1
 Largest Abelian subgroup         C1      NOp   1
 Largest concise Abelian subgroup C1      NOp   1
                         Standard orientation:                         
 ---------------------------------------------------------------------
 Center     Atomic      Atomic             Coordinates (Angstroms)
 Number     Number       Type             X           Y           Z
 ---------------------------------------------------------------------
      1          6           0       -1.994417   -1.502841   -1.419599
      2          6           0       -0.965288   -0.821320   -0.452959
      3          6           0        0.256633   -1.682933   -0.268177
      4          6           0        1.007897   -1.312492    0.787369
      5          6           0        2.440666   -1.141416    0.677460
      6          6           0        2.683911    0.184181    0.699042
      7          7           0        3.252376    0.978200   -0.296054
      8          6           0        2.017719    0.831397   -0.352979
      9          7           0        0.811141    1.245344   -0.812564
     10          6           0       -0.380882    0.667154   -0.781433
     11          6           0       -1.405851    1.735389   -0.689550
     12          6           0       -2.037040    1.708040    0.495098
     13          6           0       -2.091691    0.553844    1.453521
     14          6           0       -1.754566   -0.818873    0.898229
     15          1           0       -1.745962   -1.507505   -2.483022
     16          1           0       -3.007165   -1.073620   -1.327442
     17          1           0       -2.125033   -2.559669   -1.121112
     18          1           0        0.621550   -2.276826   -1.102478
     19          1           0        0.579355   -0.522715    1.429523
     20          1           0        2.849954   -1.722055   -0.144239
     21          1           0       -1.309658    2.637239   -1.284579
     22          1           0       -2.522922    2.614044    0.844934
     23          1           0       -3.110714    0.492944    1.847950
     24          1           0       -1.436435    0.748948    2.311070
     25          1           0       -2.673449   -1.419103    0.832072
     26          1           0       -1.226682   -1.377276    1.681524
 ---------------------------------------------------------------------
 Rotational constants (GHZ):           1.2293553           0.6397321           0.5441030
 Standard basis: 6-31G(2df,p) (6D, 7F)
 There are   494 symmetry adapted cartesian basis functions of A   symmetry.
 There are   452 symmetry adapted basis functions of A   symmetry.
   452 basis functions,   700 primitive gaussians,   494 cartesian basis functions
    49 alpha electrons       49 beta electrons
       nuclear repulsion energy       860.6476426230 Hartrees.
 NAtoms=   26 NActive=   26 NUniq=   26 SFac= 1.00D+00 NAtFMM=   60 NAOKFM=F Big=F
 Integral buffers will be    131072 words long.
 Raffenetti 2 integral format.
 Two-electron integral symmetry is turned on.
 One-electron integrals computed using PRISM.
 PrsmSu:  requested number of processors reduced to:  12 ShMem   1 Linda.
 NBasis=   452 RedAO= T EigKep=  1.50D-04  NBF=   452
 NBsUse=   452 1.00D-06 EigRej= -1.00D+00 NBFU=   452
 ExpMin= 1.61D-01 ExpMax= 4.17D+03 ExpMxC= 6.27D+02 IAcc=3 IRadAn=         5 AccDes= 0.00D+00
 Harris functional with IExCor=  402 and IRadAn=       5 diagonalized for initial guess.
 HarFok:  IExCor=  402 AccDes= 0.00D+00 IRadAn=         5 IDoV= 1 UseB2=F ITyADJ=14
 ICtDFT=  3500011 ScaDFX=  1.000000  1.000000  1.000000  1.000000
 FoFCou: FMM=F IPFlag=           0 FMFlag=      100000 FMFlg1=           0
         NFxFlg=           0 DoJE=T BraDBF=F KetDBF=T FulRan=T
         wScrn=  0.000000 ICntrl=       500 IOpCl=  0 I1Cent=   200000004 NGrid=           0
         NMat0=    1 NMatS0=      1 NMatT0=    0 NMatD0=    1 NMtDS0=    0 NMtDT0=    0
 Petite list used in FoFCou.
 Requested convergence on RMS density matrix=1.00D-08 within 128 cycles.
 Requested convergence on MAX density matrix=1.00D-06.
 Requested convergence on             energy=1.00D-06.
 No special actions if energy rises.
 Integral accuracy reduced to 1.0D-05 until final iterations.
 Initial convergence to 1.0D-05 achieved.  Increase integral accuracy.
 SCF Done:  E(RB3LYP) =  -573.685376846     A.U. after   17 cycles
            NFock= 17  Conv=0.81D-08     -V/T= 2.0074

 **********************************************************************

            Population analysis using the SCF density.

 **********************************************************************

 Orbital symmetries:
       Occupied  (A) (A) (A) (A) (A) (A) (A) (A) (A) (A) (A) (A)
                 (A) (A) (A) (A) (A) (A) (A) (A) (A) (A) (A) (A)
                 (A) (A) (A) (A) (A) (A) (A) (A) (A) (A) (A) (A)
                 (A) (A) (A) (A) (A) (A) (A) (A) (A) (A) (A) (A)
                 (A)
       Virtual   (A) (A) (A) (A) (A) (A) (A) (A) (A) (A) (A) (A)
                 (A) (A) (A) (A) (A) (A) (A) (A) (A) (A) (A) (A)
                 (A) (A) (A) (A) (A) (A) (A) (A) (A) (A) (A) (A)
                 (A) (A) (A) (A) (A) (A) (A) (A) (A) (A) (A) (A)
                 (A) (A) (A) (A) (A) (A) (A) (A) (A) (A) (A) (A)
                 (A) (A) (A) (A) (A) (A) (A) (A) (A) (A) (A) (A)
                 (A) (A) (A) (A) (A) (A) (A) (A) (A) (A) (A) (A)
                 (A) (A) (A) (A) (A) (A) (A) (A) (A) (A) (A) (A)
                 (A) (A) (A) (A) (A) (A) (A) (A) (A) (A) (A) (A)
                 (A) (A) (A) (A) (A) (A) (A) (A) (A) (A) (A) (A)
                 (A) (A) (A) (A) (A) (A) (A) (A) (A) (A) (A) (A)
                 (A) (A) (A) (A) (A) (A) (A) (A) (A) (A) (A) (A)
                 (A) (A) (A) (A) (A) (A) (A) (A) (A) (A) (A) (A)
                 (A) (A) (A) (A) (A) (A) (A) (A) (A) (A) (A) (A)
                 (A) (A) (A) (A) (A) (A) (A) (A) (A) (A) (A) (A)
                 (A) (A) (A) (A) (A) (A) (A) (A) (A) (A) (A) (A)
                 (A) (A) (A) (A) (A) (A) (A) (A) (A) (A) (A) (A)
                 (A) (A) (A) (A) (A) (A) (A) (A) (A) (A) (A) (A)
                 (A) (A) (A) (A) (A) (A) (A) (A) (A) (A) (A) (A)
                 (A) (A) (A) (A) (A) (A) (A) (A) (A) (A) (A) (A)
                 (A) (A) (A) (A) (A) (A) (A) (A) (A) (A) (A) (A)
                 (A) (A) (A) (A) (A) (A) (A) (A) (A) (A) (A) (A)
                 (A) (A) (A) (A) (A) (A) (A) (A) (A) (A) (A) (A)
                 (A) (A) (A) (A) (A) (A) (A) (A) (A) (A) (A) (A)
                 (A) (A) (A) (A) (A) (A) (A) (A) (A) (A) (A) (A)
                 (A) (A) (A) (A) (A) (A) (A) (A) (A) (A) (A) (A)
                 (A) (A) (A) (A) (A) (A) (A) (A) (A) (A) (A) (A)
                 (A) (A) (A) (A) (A) (A) (A) (A) (A) (A) (A) (A)
                 (A) (A) (A) (A) (A) (A) (A) (A) (A) (A) (A) (A)
                 (A) (A) (A) (A) (A) (A) (A) (A) (A) (A) (A) (A)
                 (A) (A) (A) (A) (A) (A) (A) (A) (A) (A) (A) (A)
                 (A) (A) (A) (A) (A) (A) (A) (A) (A) (A) (A) (A)
                 (A) (A) (A) (A) (A) (A) (A) (A) (A) (A) (A) (A)
                 (A) (A) (A) (A) (A) (A) (A)
 The electronic state is 1-A.
 Alpha  occ. eigenvalues --  -14.36001 -14.32192 -10.28729 -10.26475 -10.24058
 Alpha  occ. eigenvalues --  -10.21449 -10.20691 -10.20609 -10.20381 -10.19974
 Alpha  occ. eigenvalues --  -10.19894 -10.19264 -10.19059 -10.18422  -1.03044
 Alpha  occ. eigenvalues --   -0.93953  -0.85988  -0.82468  -0.78653  -0.76033
 Alpha  occ. eigenvalues --   -0.71035  -0.69276  -0.64264  -0.61802  -0.57450
 Alpha  occ. eigenvalues --   -0.55840  -0.54194  -0.50813  -0.48790  -0.47727
 Alpha  occ. eigenvalues --   -0.46147  -0.45718  -0.44372  -0.43768  -0.42746
 Alpha  occ. eigenvalues --   -0.41501  -0.40323  -0.39212  -0.37770  -0.37039
 Alpha  occ. eigenvalues --   -0.36479  -0.35479  -0.33345  -0.32701  -0.29591
 Alpha  occ. eigenvalues --   -0.29264  -0.26166  -0.22034  -0.16602
 Alpha virt. eigenvalues --   -0.08342  -0.05031  -0.01174   0.00660   0.04988
 Alpha virt. eigenvalues --    0.07002   0.09273   0.10145   0.11045   0.12298
 Alpha virt. eigenvalues --    0.12915   0.14378   0.14993   0.15882   0.15987
 Alpha virt. eigenvalues --    0.17207   0.18387   0.18870   0.20518   0.21045
 Alpha virt. eigenvalues --    0.22689   0.23156   0.24674   0.25985   0.27325
 Alpha virt. eigenvalues --    0.30752   0.31485   0.32351   0.32808   0.35605
 Alpha virt. eigenvalues --    0.37569   0.38719   0.40595   0.40942   0.43229
 Alpha virt. eigenvalues --    0.43716   0.45188   0.45754   0.46914   0.48623
 Alpha virt. eigenvalues --    0.48740   0.49994   0.50993   0.51927   0.52545
 Alpha virt. eigenvalues --    0.53688   0.54206   0.54934   0.55054   0.56040
 Alpha virt. eigenvalues --    0.57848   0.59003   0.60364   0.60904   0.61117
 Alpha virt. eigenvalues --    0.62104   0.62580   0.63107   0.63819   0.65247
 Alpha virt. eigenvalues --    0.65755   0.67037   0.68240   0.69274   0.70823
 Alpha virt. eigenvalues --    0.71768   0.72421   0.73176   0.74008   0.74496
 Alpha virt. eigenvalues --    0.74662   0.75918   0.76720   0.77220   0.77977
 Alpha virt. eigenvalues --    0.78449   0.79860   0.80115   0.80655   0.82644
 Alpha virt. eigenvalues --    0.82839   0.83839   0.85356   0.86174   0.86690
 Alpha virt. eigenvalues --    0.86973   0.89004   0.89718   0.91040   0.92864
 Alpha virt. eigenvalues --    0.93846   0.95540   0.97480   0.99718   1.00648
 Alpha virt. eigenvalues --    1.01915   1.03951   1.07048   1.07749   1.08875
 Alpha virt. eigenvalues --    1.11893   1.13667   1.15453   1.16472   1.18508
 Alpha virt. eigenvalues --    1.20515   1.23150   1.24794   1.25893   1.27011
 Alpha virt. eigenvalues --    1.27458   1.28522   1.30360   1.31494   1.32033
 Alpha virt. eigenvalues --    1.33187   1.35949   1.36350   1.37694   1.39997
 Alpha virt. eigenvalues --    1.41364   1.42042   1.42711   1.44686   1.45809
 Alpha virt. eigenvalues --    1.46773   1.49470   1.50542   1.51600   1.53427
 Alpha virt. eigenvalues --    1.53712   1.55078   1.55448   1.58462   1.59186
 Alpha virt. eigenvalues --    1.60107   1.62331   1.62768   1.63993   1.65609
 Alpha virt. eigenvalues --    1.67949   1.68493   1.68806   1.70395   1.71112
 Alpha virt. eigenvalues --    1.72640   1.73693   1.75133   1.76774   1.78246
 Alpha virt. eigenvalues --    1.79176   1.80736   1.82944   1.84050   1.85004
 Alpha virt. eigenvalues --    1.87098   1.89338   1.91531   1.94436   1.94637
 Alpha virt. eigenvalues --    1.96438   1.99490   1.99983   2.01131   2.05747
 Alpha virt. eigenvalues --    2.07185   2.10189   2.12697   2.15156   2.16004
 Alpha virt. eigenvalues --    2.17896   2.20404   2.23670   2.28242   2.28839
 Alpha virt. eigenvalues --    2.31508   2.32895   2.35969   2.38338   2.39387
 Alpha virt. eigenvalues --    2.41729   2.45172   2.45456   2.48214   2.48766
 Alpha virt. eigenvalues --    2.51365   2.53003   2.55742   2.57314   2.59158
 Alpha virt. eigenvalues --    2.60179   2.62907   2.66577   2.68172   2.69920
 Alpha virt. eigenvalues --    2.70371   2.73317   2.75658   2.76945   2.78091
 Alpha virt. eigenvalues --    2.79368   2.81315   2.83251   2.84372   2.85932
 Alpha virt. eigenvalues --    2.86397   2.87280   2.89269   2.89707   2.92260
 Alpha virt. eigenvalues --    2.92842   2.93355   2.95576   2.96048   2.99964
 Alpha virt. eigenvalues --    3.00322   3.02737   3.03193   3.03920   3.05399
 Alpha virt. eigenvalues --    3.06726   3.08760   3.09538   3.10312   3.12140
 Alpha virt. eigenvalues --    3.13276   3.16047   3.17096   3.17676   3.19535
 Alpha virt. eigenvalues --    3.20807   3.21306   3.23780   3.24522   3.25610
 Alpha virt. eigenvalues --    3.26981   3.27579   3.28552   3.30377   3.32137
 Alpha virt. eigenvalues --    3.32576   3.35630   3.35718   3.37487   3.39053
 Alpha virt. eigenvalues --    3.40687   3.41132   3.43574   3.44771   3.46030
 Alpha virt. eigenvalues --    3.47771   3.50384   3.51348   3.51791   3.52837
 Alpha virt. eigenvalues --    3.54052   3.56469   3.58168   3.59809   3.60843
 Alpha virt. eigenvalues --    3.62288   3.63378   3.66418   3.68292   3.68717
 Alpha virt. eigenvalues --    3.70436   3.71287   3.73843   3.74826   3.76322
 Alpha virt. eigenvalues --    3.77216   3.77930   3.81297   3.84609   3.86400
 Alpha virt. eigenvalues --    3.87891   3.89679   3.91026   3.94235   3.94865
 Alpha virt. eigenvalues --    3.98442   3.98852   4.00547   4.01319   4.03414
 Alpha virt. eigenvalues --    4.05248   4.10385   4.12162   4.12759   4.13174
 Alpha virt. eigenvalues --    4.15936   4.17015   4.18670   4.20770   4.23233
 Alpha virt. eigenvalues --    4.25823   4.28465   4.28830   4.30350   4.32987
 Alpha virt. eigenvalues --    4.34596   4.37561   4.39199   4.40190   4.40848
 Alpha virt. eigenvalues --    4.42039   4.43301   4.45458   4.45679   4.48445
 Alpha virt. eigenvalues --    4.49855   4.50831   4.51511   4.53510   4.54273
 Alpha virt. eigenvalues --    4.55470   4.56439   4.57251   4.58797   4.60400
 Alpha virt. eigenvalues --    4.61577   4.62033   4.63838   4.64548   4.66549
 Alpha virt. eigenvalues --    4.66978   4.68605   4.70537   4.72052   4.73097
 Alpha virt. eigenvalues --    4.75222   4.77825   4.78300   4.78643   4.78889
 Alpha virt. eigenvalues --    4.79725   4.81085   4.83533   4.84377   4.85849
 Alpha virt. eigenvalues --    4.88439   4.89729   4.90359   4.90736   4.92956
 Alpha virt. eigenvalues --    4.94458   4.95641   4.96958   4.99107   5.00640
 Alpha virt. eigenvalues --    5.04006   5.05728   5.07297   5.08003   5.13059
 Alpha virt. eigenvalues --    5.15526   5.17361   5.18092   5.18536   5.21207
 Alpha virt. eigenvalues --    5.22630   5.28052   5.29676   5.31567   5.35107
 Alpha virt. eigenvalues --    5.38528   5.40421   5.42867   5.44862   5.48371
 Alpha virt. eigenvalues --    5.49690   5.50892   5.52580   5.56606   5.59505
 Alpha virt. eigenvalues --    5.61571   5.68041   5.69954   5.73858   5.81026
 Alpha virt. eigenvalues --    5.90573   5.99613   6.01735   6.09648   6.19943
 Alpha virt. eigenvalues --    6.35300   7.22923  10.27733  10.50274  11.00248
 Alpha virt. eigenvalues --   11.23640  11.29189  11.41415  11.45095  11.60503
 Alpha virt. eigenvalues --   11.80620  11.96423  12.00248  12.09620  12.55317
 Alpha virt. eigenvalues --   13.12729  16.44352  22.73131
          Condensed to atoms (all electrons):
               1          2          3          4          5          6
     1  C    5.146795   0.369009  -0.049542   0.002885  -0.000168  -0.000070
     2  C    0.369009   4.596328   0.376258  -0.013222   0.002308   0.003062
     3  C   -0.049542   0.376258   5.040126   0.587834  -0.059798  -0.019241
     4  C    0.002885  -0.013222   0.587834   4.821868   0.493282  -0.050827
     5  C   -0.000168   0.002308  -0.059798   0.493282   5.112849   0.564585
     6  C   -0.000070   0.003062  -0.019241  -0.050827   0.564585   5.132271
     7  N    0.000003   0.000309   0.001083   0.004078  -0.024232   0.283060
     8  C    0.000057  -0.003199   0.031242  -0.014597  -0.202155   0.272890
     9  N    0.001287  -0.024562  -0.018030   0.001184   0.009811  -0.048432
    10  C   -0.032477   0.355677  -0.040238  -0.002481   0.000190  -0.004773
    11  C   -0.000353  -0.041083   0.001163   0.000512   0.000045   0.000220
    12  C   -0.000066  -0.011849   0.001265  -0.000026   0.000025   0.000133
    13  C    0.001188  -0.023259   0.000442   0.000163   0.000102   0.000008
    14  C   -0.041773   0.383736  -0.030839  -0.015837   0.000764  -0.000211
    15  H    0.360556  -0.016467  -0.000013   0.000039   0.000005   0.000001
    16  H    0.361765  -0.015798   0.003994  -0.000149   0.000002   0.000001
    17  H    0.369130  -0.018127  -0.003412   0.000344  -0.000000   0.000003
    18  H   -0.003943  -0.041671   0.359043  -0.041766  -0.008722  -0.000673
    19  H    0.000884  -0.021261  -0.036466   0.345677  -0.060485   0.000672
    20  H    0.000003  -0.000369  -0.000200  -0.043632   0.326309  -0.042202
    21  H    0.000008   0.002695  -0.000185  -0.000025  -0.000000   0.000017
    22  H    0.000003  -0.000292  -0.000002   0.000006  -0.000000  -0.000004
    23  H   -0.000166   0.003362  -0.000166   0.000081   0.000001   0.000000
    24  H   -0.000058  -0.000271   0.000856  -0.000903  -0.000127   0.000052
    25  H   -0.017116  -0.033193   0.005109  -0.000291  -0.000047   0.000004
    26  H    0.005057  -0.022488  -0.013265   0.005397   0.000301   0.000033
               7          8          9         10         11         12
     1  C    0.000003   0.000057   0.001287  -0.032477  -0.000353  -0.000066
     2  C    0.000309  -0.003199  -0.024562   0.355677  -0.041083  -0.011849
     3  C    0.001083   0.031242  -0.018030  -0.040238   0.001163   0.001265
     4  C    0.004078  -0.014597   0.001184  -0.002481   0.000512  -0.000026
     5  C   -0.024232  -0.202155   0.009811   0.000190   0.000045   0.000025
     6  C    0.283060   0.272890  -0.048432  -0.004773   0.000220   0.000133
     7  N    6.526825   0.405054   0.060781   0.000860  -0.000180  -0.000012
     8  C    0.405054   4.851237   0.285683  -0.077669   0.007663   0.000974
     9  N    0.060781   0.285683   6.562426   0.600243  -0.039167  -0.008175
    10  C    0.000860  -0.077669   0.600243   4.730483   0.364057  -0.015294
    11  C   -0.000180   0.007663  -0.039167   0.364057   4.870869   0.675236
    12  C   -0.000012   0.000974  -0.008175  -0.015294   0.675236   4.694246
    13  C    0.000002  -0.000061   0.000402  -0.028678  -0.011244   0.416102
    14  C   -0.000004   0.000284  -0.000635  -0.016455  -0.012050  -0.024707
    15  H   -0.000000  -0.000022   0.000005  -0.001811   0.000525   0.000023
    16  H   -0.000000  -0.000009  -0.000023   0.000434   0.001289   0.001671
    17  H   -0.000000  -0.000003  -0.000034   0.002111   0.000024  -0.000016
    18  H    0.000000   0.001313  -0.000671   0.000679  -0.000047  -0.000017
    19  H   -0.002006   0.013326  -0.006190   0.000742   0.000029  -0.000206
    20  H   -0.007713   0.024504  -0.002577   0.000135   0.000007   0.000001
    21  H   -0.000000   0.000229   0.000312  -0.035425   0.364310  -0.034995
    22  H    0.000000   0.000002   0.000161   0.005583  -0.047667   0.375904
    23  H   -0.000000   0.000001  -0.000022   0.000664   0.002947  -0.029338
    24  H   -0.000002   0.000038   0.000204   0.001690  -0.005294  -0.023599
    25  H    0.000000  -0.000004  -0.000068   0.001036   0.000273  -0.000937
    26  H   -0.000001   0.000002   0.000130   0.001277   0.000912   0.002358
              13         14         15         16         17         18
     1  C    0.001188  -0.041773   0.360556   0.361765   0.369130  -0.003943
     2  C   -0.023259   0.383736  -0.016467  -0.015798  -0.018127  -0.041671
     3  C    0.000442  -0.030839  -0.000013   0.003994  -0.003412   0.359043
     4  C    0.000163  -0.015837   0.000039  -0.000149   0.000344  -0.041766
     5  C    0.000102   0.000764   0.000005   0.000002  -0.000000  -0.008722
     6  C    0.000008  -0.000211   0.000001   0.000001   0.000003  -0.000673
     7  N    0.000002  -0.000004  -0.000000  -0.000000  -0.000000   0.000000
     8  C   -0.000061   0.000284  -0.000022  -0.000009  -0.000003   0.001313
     9  N    0.000402  -0.000635   0.000005  -0.000023  -0.000034  -0.000671
    10  C   -0.028678  -0.016455  -0.001811   0.000434   0.002111   0.000679
    11  C   -0.011244  -0.012050   0.000525   0.001289   0.000024  -0.000047
    12  C    0.416102  -0.024707   0.000023   0.001671  -0.000016  -0.000017
    13  C    4.921808   0.359625  -0.000198   0.000536   0.000312  -0.000181
    14  C    0.359625   4.959075   0.004431  -0.008658  -0.003692   0.003869
    15  H   -0.000198   0.004431   0.593155  -0.031632  -0.031278   0.002244
    16  H    0.000536  -0.008658  -0.031632   0.590498  -0.033859  -0.000126
    17  H    0.000312  -0.003692  -0.031278  -0.033859   0.574969   0.001059
    18  H   -0.000181   0.003869   0.002244  -0.000126   0.001059   0.613772
    19  H   -0.003181   0.003658  -0.000003  -0.000029  -0.000003   0.006948
    20  H   -0.000004   0.000023   0.000000  -0.000000   0.000001   0.007376
    21  H    0.005818   0.000043  -0.000025  -0.000074   0.000005   0.000003
    22  H   -0.054268   0.004476   0.000000   0.000010  -0.000000  -0.000000
    23  H    0.363651  -0.028791   0.000004  -0.000265  -0.000013   0.000003
    24  H    0.355667  -0.027443   0.000006  -0.000000   0.000001   0.000008
    25  H   -0.028036   0.370253   0.000706   0.003626   0.003733  -0.000084
    26  H   -0.020590   0.352600  -0.000276   0.000160   0.000491   0.000177
              19         20         21         22         23         24
     1  C    0.000884   0.000003   0.000008   0.000003  -0.000166  -0.000058
     2  C   -0.021261  -0.000369   0.002695  -0.000292   0.003362  -0.000271
     3  C   -0.036466  -0.000200  -0.000185  -0.000002  -0.000166   0.000856
     4  C    0.345677  -0.043632  -0.000025   0.000006   0.000081  -0.000903
     5  C   -0.060485   0.326309  -0.000000  -0.000000   0.000001  -0.000127
     6  C    0.000672  -0.042202   0.000017  -0.000004   0.000000   0.000052
     7  N   -0.002006  -0.007713  -0.000000   0.000000  -0.000000  -0.000002
     8  C    0.013326   0.024504   0.000229   0.000002   0.000001   0.000038
     9  N   -0.006190  -0.002577   0.000312   0.000161  -0.000022   0.000204
    10  C    0.000742   0.000135  -0.035425   0.005583   0.000664   0.001690
    11  C    0.000029   0.000007   0.364310  -0.047667   0.002947  -0.005294
    12  C   -0.000206   0.000001  -0.034995   0.375904  -0.029338  -0.023599
    13  C   -0.003181  -0.000004   0.005818  -0.054268   0.363651   0.355667
    14  C    0.003658   0.000023   0.000043   0.004476  -0.028791  -0.027443
    15  H   -0.000003   0.000000  -0.000025   0.000000   0.000004   0.000006
    16  H   -0.000029  -0.000000  -0.000074   0.000010  -0.000265  -0.000000
    17  H   -0.000003   0.000001   0.000005  -0.000000  -0.000013   0.000001
    18  H    0.006948   0.007376   0.000003  -0.000000   0.000003   0.000008
    19  H    0.650336   0.008462   0.000003   0.000014  -0.000055   0.003762
    20  H    0.008462   0.629979   0.000000  -0.000000   0.000000   0.000001
    21  H    0.000003   0.000000   0.576761  -0.009901  -0.000059  -0.000226
    22  H    0.000014  -0.000000  -0.009901   0.622229  -0.005028   0.001760
    23  H   -0.000055   0.000000  -0.000059  -0.005028   0.621918  -0.036991
    24  H    0.003762   0.000001  -0.000226   0.001760  -0.036991   0.609001
    25  H    0.000273   0.000001   0.000014  -0.000149  -0.013413   0.005964
    26  H   -0.001462  -0.000009   0.000016  -0.000188   0.004212  -0.015075
              25         26
     1  C   -0.017116   0.005057
     2  C   -0.033193  -0.022488
     3  C    0.005109  -0.013265
     4  C   -0.000291   0.005397
     5  C   -0.000047   0.000301
     6  C    0.000004   0.000033
     7  N    0.000000  -0.000001
     8  C   -0.000004   0.000002
     9  N   -0.000068   0.000130
    10  C    0.001036   0.001277
    11  C    0.000273   0.000912
    12  C   -0.000937   0.002358
    13  C   -0.028036  -0.020590
    14  C    0.370253   0.352600
    15  H    0.000706  -0.000276
    16  H    0.003626   0.000160
    17  H    0.003733   0.000491
    18  H   -0.000084   0.000177
    19  H    0.000273  -0.001462
    20  H    0.000001  -0.000009
    21  H    0.000014   0.000016
    22  H   -0.000149  -0.000188
    23  H   -0.013413   0.004212
    24  H    0.005964  -0.015075
    25  H    0.634113  -0.041892
    26  H   -0.041892   0.612093
 Mulliken charges:
               1
     1  C   -0.472898
     2  C    0.194365
     3  C   -0.137020
     4  C   -0.079596
     5  C   -0.154845
     6  C   -0.090577
     7  N   -0.247905
     8  C    0.403220
     9  N   -0.374045
    10  C    0.189440
    11  C   -0.132996
    12  C   -0.018701
    13  C   -0.256125
    14  C   -0.231742
    15  H    0.120027
    16  H    0.126634
    17  H    0.138253
    18  H    0.101409
    19  H    0.096563
    20  H    0.099906
    21  H    0.130683
    22  H    0.107350
    23  H    0.117459
    24  H    0.130981
    25  H    0.110127
    26  H    0.130032
 Sum of Mulliken charges =  -0.00000
 Mulliken charges with hydrogens summed into heavy atoms:
               1
     1  C   -0.087984
     2  C    0.194365
     3  C   -0.035611
     4  C    0.016967
     5  C   -0.054939
     6  C   -0.090577
     7  N   -0.247905
     8  C    0.403220
     9  N   -0.374045
    10  C    0.189440
    11  C   -0.002313
    12  C    0.088649
    13  C   -0.007685
    14  C    0.008417
 Electronic spatial extent (au):  <R**2>=           2300.7078
 Charge=             -0.0000 electrons
 Dipole moment (field-independent basis, Debye):
    X=             -5.6549    Y=             -1.2880    Z=              0.1438  Tot=              5.8015
 Quadrupole moment (field-independent basis, Debye-Ang):
   XX=            -91.4861   YY=            -81.1735   ZZ=            -79.9545
   XY=             -5.5801   XZ=             -1.7531   YZ=              3.4353
 Traceless Quadrupole moment (field-independent basis, Debye-Ang):
   XX=             -7.2814   YY=              3.0312   ZZ=              4.2502
   XY=             -5.5801   XZ=             -1.7531   YZ=              3.4353
 Octapole moment (field-independent basis, Debye-Ang**2):
  XXX=            -65.6500  YYY=              8.5010  ZZZ=             -2.8803  XYY=            -15.9721
  XXY=            -15.6071  XXZ=              7.9001  XZZ=             -9.1467  YZZ=              1.0404
  YYZ=             -4.9371  XYZ=              5.1460
 Hexadecapole moment (field-independent basis, Debye-Ang**3):
 XXXX=          -2024.0390 YYYY=           -831.1409 ZZZZ=           -475.3215 XXXY=            -54.5103
 XXXZ=             -9.3413 YYYX=            -16.9722 YYYZ=             10.7292 ZZZX=            -16.0422
 ZZZY=              4.9069 XXYY=           -449.4505 XXZZ=           -394.4152 YYZZ=           -216.2385
 XXYZ=             23.6642 YYXZ=             -5.2960 ZZXY=             -1.1064
 N-N= 8.606476426230D+02 E-N=-3.051426254435D+03  KE= 5.694616119859D+02
 PrsmSu:  requested number of processors reduced to:  13 ShMem   1 Linda.
 Calling FoFJK, ICntrl=      2127 FMM=F ISym2X=0 I1Cent= 0 IOpClX= 0 NMat=1 NMatS=1 NMatT=0.
 ***** Axes restored to original set *****
 -------------------------------------------------------------------
 Center     Atomic                   Forces (Hartrees/Bohr)
 Number     Number              X              Y              Z
 -------------------------------------------------------------------
      1        6          -0.003334245   -0.011541303   -0.007624029
      2        6          -0.012260835    0.004198134    0.020674319
      3        6           0.003080159    0.006376509   -0.002286242
      4        6           0.013708861   -0.013278510   -0.000944791
      5        6          -0.022748784    0.025614723    0.020984678
      6        6          -0.026436212    0.036704693   -0.003407950
      7        7           0.038109873   -0.079354699    0.059716654
      8        6          -0.015163521    0.008208198   -0.104739125
      9        7          -0.028115081    0.007987266    0.010017423
     10        6           0.012916393   -0.008317371   -0.010341056
     11        6           0.005375274    0.018095697    0.007525393
     12        6          -0.006003442   -0.003971282   -0.013189457
     13        6           0.000079785    0.000729588   -0.009092721
     14        6           0.005977088    0.015491652   -0.002865319
     15        1           0.004465640   -0.003346082    0.002951104
     16        1           0.006085349   -0.005075554    0.003907362
     17        1           0.009165411   -0.003703444    0.000590068
     18        1           0.000792563    0.003006266    0.001727681
     19        1          -0.007873188    0.009095243    0.011659610
     20        1           0.016206507    0.014424200    0.025065230
     21        1          -0.001269785    0.001245031    0.001042018
     22        1          -0.002826465   -0.000596266   -0.003579360
     23        1           0.005558315    0.001614406   -0.004450516
     24        1           0.003589181   -0.001906115   -0.004804529
     25        1          -0.000960361   -0.013397776   -0.000004844
     26        1           0.001881520   -0.008303204    0.001468399
 -------------------------------------------------------------------
 Cartesian Forces:  Max     0.104739125 RMS     0.020178157

 GradGradGradGradGradGradGradGradGradGradGradGradGradGradGradGradGradGrad
 Berny optimization.
 FormGI is forming the generalized inverse of G from B-inverse, IUseBI=4.
 Internal  Forces:  Max     0.058430001 RMS     0.012791482
 Search for a local minimum.
 Step number   1 out of a maximum of  155
 All quantities printed in internal units (Hartrees-Bohrs-Radians)
 Mixed Optimization -- RFO/linear search
 Second derivative matrix not updated -- first step.
 ITU=  0
     Eigenvalues ---    0.00230   0.00440   0.00778   0.01063   0.01499
     Eigenvalues ---    0.01560   0.01985   0.02263   0.02274   0.02457
     Eigenvalues ---    0.02837   0.02910   0.03018   0.03458   0.04065
     Eigenvalues ---    0.04600   0.04629   0.04745   0.05114   0.05543
     Eigenvalues ---    0.05718   0.06236   0.08641   0.09086   0.09120
     Eigenvalues ---    0.10036   0.10105   0.10926   0.11900   0.12814
     Eigenvalues ---    0.13673   0.13937   0.14959   0.15822   0.15983
     Eigenvalues ---    0.16000   0.16000   0.16000   0.16974   0.17979
     Eigenvalues ---    0.20595   0.21300   0.22204   0.23166   0.24369
     Eigenvalues ---    0.25859   0.26192   0.29383   0.30958   0.31145
     Eigenvalues ---    0.33037   0.33070   0.33197   0.33265   0.33733
     Eigenvalues ---    0.33985   0.34046   0.34310   0.34574   0.35142
     Eigenvalues ---    0.35255   0.35284   0.35428   0.37788   0.38418
     Eigenvalues ---    0.42301   0.51854   0.53784   0.54143   0.54829
     Eigenvalues ---    0.59507   0.72269
 RFO step:  Lambda=-8.61008160D-02 EMin= 2.30000000D-03
 Linear search not attempted -- first point.
 Maximum step size (   0.300) exceeded in Quadratic search.
    -- Step size scaled by   0.760
 Iteration  1 RMS(Cart)=  0.10554627 RMS(Int)=  0.00329948
 Iteration  2 RMS(Cart)=  0.00466186 RMS(Int)=  0.00093842
 Iteration  3 RMS(Cart)=  0.00001568 RMS(Int)=  0.00093829
 Iteration  4 RMS(Cart)=  0.00000005 RMS(Int)=  0.00093829
 Variable       Old X    -DE/DX   Delta X   Delta X   Delta X     New X
                                 (Linear)    (Quad)   (Total)
    R1        2.96270  -0.01201   0.00000  -0.02623  -0.02623   2.93647
    R2        2.06372   0.00240   0.00000   0.00422   0.00422   2.06793
    R3        2.08589  -0.00585   0.00000  -0.01062  -0.01062   2.07526
    R4        2.08987  -0.00708   0.00000  -0.01293  -0.01293   2.07694
    R5        2.84692   0.02527   0.00000   0.04757   0.04764   2.89455
    R6        3.08493  -0.00999   0.00000  -0.03075  -0.03094   3.05400
    R7        2.95709   0.01308   0.00000   0.03201   0.03213   2.98922
    R8        2.54644  -0.00290   0.00000  -0.00132  -0.00133   2.54511
    R9        2.05445  -0.00044   0.00000  -0.00076  -0.00076   2.05369
   R10        2.73467   0.00180   0.00000   0.00414   0.00433   2.73900
   R11        2.08706  -0.01179   0.00000  -0.02143  -0.02143   2.06563
   R12        2.54717   0.03064   0.00000   0.03810   0.03821   2.58538
   R13        2.05263   0.00525   0.00000   0.00909   0.00909   2.06173
   R14        2.63468   0.05843   0.00000   0.08001   0.07743   2.71212
   R15        2.65199   0.03418   0.00000   0.03645   0.03685   2.68884
   R16        2.35206   0.04989   0.00000   0.04777   0.05032   2.40238
   R17        2.56224  -0.01246   0.00000  -0.01598  -0.01605   2.54618
   R18        2.50429  -0.02904   0.00000  -0.03319  -0.03339   2.47090
   R19        2.80300   0.00164   0.00000   0.00538   0.00540   2.80840
   R20        2.53712  -0.00138   0.00000  -0.00375  -0.00387   2.53325
   R21        2.04985  -0.00183   0.00000  -0.00316  -0.00316   2.04669
   R22        2.83694  -0.00366   0.00000  -0.01001  -0.01010   2.82684
   R23        2.05217   0.00227   0.00000   0.00392   0.00392   2.05609
   R24        2.86987   0.01865   0.00000   0.03886   0.03894   2.90881
   R25        2.06810   0.00170   0.00000   0.00301   0.00301   2.07111
   R26        2.07252   0.00137   0.00000   0.00245   0.00245   2.07497
   R27        2.07784  -0.00438   0.00000  -0.00787  -0.00787   2.06997
   R28        2.07356  -0.00483   0.00000  -0.00862  -0.00862   2.06494
    A1        2.04082  -0.00661   0.00000  -0.02315  -0.02336   2.01745
    A2        1.96249  -0.00166   0.00000  -0.00382  -0.00387   1.95862
    A3        1.90342  -0.00640   0.00000  -0.01846  -0.01862   1.88480
    A4        1.86680   0.00379   0.00000   0.00952   0.00941   1.87621
    A5        1.86044   0.00587   0.00000   0.01548   0.01518   1.87562
    A6        1.81388   0.00706   0.00000   0.02762   0.02766   1.84154
    A7        1.93844  -0.00692   0.00000  -0.01685  -0.01704   1.92140
    A8        2.10283  -0.01497   0.00000  -0.07175  -0.07120   2.03163
    A9        1.77417   0.01359   0.00000   0.04296   0.04230   1.81647
   A10        1.82946   0.01575   0.00000   0.05232   0.05180   1.88127
   A11        1.87978   0.00319   0.00000   0.02751   0.02739   1.90716
   A12        1.93144  -0.01007   0.00000  -0.02774  -0.02846   1.90299
   A13        1.97257   0.01505   0.00000   0.04663   0.04526   2.01783
   A14        2.08352  -0.00261   0.00000  -0.01201  -0.01123   2.07229
   A15        2.17022  -0.01250   0.00000  -0.03795  -0.03733   2.13290
   A16        2.12350   0.00431   0.00000   0.00842   0.00990   2.13340
   A17        2.02163  -0.00889   0.00000  -0.02048  -0.02129   2.00034
   A18        1.92175   0.00470   0.00000   0.01230   0.01190   1.93365
   A19        1.86891  -0.04279   0.00000  -0.09673  -0.09597   1.77294
   A20        1.94693   0.03187   0.00000   0.09072   0.09142   2.03835
   A21        2.05989   0.00479   0.00000   0.01509   0.01631   2.07620
   A22        2.24239   0.00248   0.00000  -0.00732  -0.00922   2.23318
   A23        1.93466   0.03590   0.00000   0.13509   0.13765   2.07231
   A24        2.52756   0.00707   0.00000   0.02009   0.01774   2.54531
   A25        2.61046  -0.00779   0.00000  -0.00012  -0.00431   2.60614
   A26        2.29066  -0.00105   0.00000  -0.01697  -0.01774   2.27292
   A27        2.38117  -0.00863   0.00000  -0.02998  -0.03163   2.34955
   A28        1.97884  -0.00040   0.00000   0.00579   0.00600   1.98484
   A29        1.88473   0.01021   0.00000   0.03819   0.03847   1.92320
   A30        1.94427   0.01788   0.00000   0.05241   0.05233   1.99660
   A31        2.09845  -0.00697   0.00000  -0.01910  -0.01969   2.07875
   A32        2.14438  -0.00867   0.00000  -0.01473  -0.01494   2.12944
   A33        2.20942  -0.00767   0.00000  -0.02495  -0.02513   2.18429
   A34        2.06872   0.00361   0.00000   0.01169   0.01178   2.08049
   A35        2.00366   0.00403   0.00000   0.01332   0.01342   2.01708
   A36        2.04140  -0.01000   0.00000  -0.02141  -0.02158   2.01982
   A37        1.88260  -0.00124   0.00000  -0.00827  -0.00824   1.87436
   A38        1.91842   0.00080   0.00000  -0.00504  -0.00464   1.91378
   A39        1.86312   0.00653   0.00000   0.02017   0.02012   1.88325
   A40        1.89028   0.00802   0.00000   0.02728   0.02718   1.91746
   A41        1.85918  -0.00374   0.00000  -0.01221  -0.01262   1.84656
   A42        2.01430   0.01306   0.00000   0.03751   0.03748   2.05178
   A43        1.94841  -0.00763   0.00000  -0.03611  -0.03587   1.91255
   A44        1.95298  -0.00861   0.00000  -0.02257  -0.02332   1.92966
   A45        1.90701  -0.00788   0.00000  -0.02124  -0.02086   1.88615
   A46        1.88154   0.00339   0.00000   0.01452   0.01467   1.89621
   A47        1.73877   0.00673   0.00000   0.02672   0.02650   1.76527
    D1       -1.29030   0.00231   0.00000   0.02270   0.02203  -1.26827
    D2        0.85664   0.00570   0.00000   0.02125   0.02198   0.87863
    D3        2.99727  -0.00558   0.00000  -0.02419  -0.02442   2.97285
    D4        2.82309   0.00407   0.00000   0.03235   0.03171   2.85480
    D5       -1.31314   0.00746   0.00000   0.03091   0.03165  -1.28149
    D6        0.82749  -0.00382   0.00000  -0.01454  -0.01475   0.81274
    D7        0.82082   0.00031   0.00000   0.01208   0.01156   0.83238
    D8        2.96777   0.00369   0.00000   0.01064   0.01151   2.97928
    D9       -1.17479  -0.00759   0.00000  -0.03481  -0.03489  -1.20968
   D10       -2.87218  -0.01562   0.00000  -0.08288  -0.08281  -2.95499
   D11        0.60983  -0.01304   0.00000  -0.06604  -0.06600   0.54382
   D12        1.11374  -0.00349   0.00000  -0.01871  -0.01824   1.09550
   D13       -1.68743  -0.00091   0.00000  -0.00187  -0.00144  -1.68887
   D14       -0.94366  -0.00130   0.00000  -0.02592  -0.02660  -0.97027
   D15        2.53835   0.00128   0.00000  -0.00908  -0.00980   2.52855
   D16       -2.30527   0.01421   0.00000   0.08282   0.08381  -2.22146
   D17        1.17683   0.00678   0.00000   0.01335   0.01501   1.19184
   D18       -0.10691   0.00783   0.00000   0.05349   0.05307  -0.05384
   D19       -2.90799   0.00040   0.00000  -0.01597  -0.01573  -2.92372
   D20        1.91500   0.01538   0.00000   0.10109   0.09960   2.01461
   D21       -0.88608   0.00795   0.00000   0.03163   0.03080  -0.85528
   D22       -2.02230   0.01449   0.00000   0.07351   0.07396  -1.94833
   D23        0.16891   0.00780   0.00000   0.04385   0.04426   0.21317
   D24        2.10078   0.00664   0.00000   0.04258   0.04343   2.14421
   D25        2.22215   0.01472   0.00000   0.06175   0.06077   2.28291
   D26       -1.86983   0.00802   0.00000   0.03210   0.03107  -1.83876
   D27        0.06204   0.00686   0.00000   0.03083   0.03024   0.09227
   D28        0.23179  -0.00054   0.00000  -0.00129  -0.00103   0.23076
   D29        2.42300  -0.00724   0.00000  -0.03095  -0.03073   2.39227
   D30       -1.92831  -0.00840   0.00000  -0.03221  -0.03157  -1.95988
   D31       -2.29812  -0.00365   0.00000   0.00013  -0.00014  -2.29826
   D32        0.11678  -0.00195   0.00000   0.00461   0.00442   0.12120
   D33        0.48336  -0.00373   0.00000  -0.01056  -0.01083   0.47253
   D34        2.89825  -0.00203   0.00000  -0.00607  -0.00627   2.89199
   D35        1.85653  -0.02020   0.00000  -0.09872  -0.09995   1.75658
   D36       -0.42159  -0.01663   0.00000  -0.11007  -0.10963  -0.53121
   D37       -0.59467  -0.01680   0.00000  -0.09098  -0.09220  -0.68687
   D38       -2.87279  -0.01324   0.00000  -0.10233  -0.10188  -2.97466
   D39       -2.04614  -0.01477   0.00000  -0.02424  -0.02306  -2.06921
   D40       -1.02584   0.01498   0.00000   0.06844   0.06467  -0.96117
   D41        0.16671  -0.00542   0.00000   0.02591   0.02835   0.19507
   D42        1.18702   0.02433   0.00000   0.11859   0.11609   1.30311
   D43        1.27560   0.00129   0.00000  -0.02181  -0.02523   1.25037
   D44       -0.70235   0.01024   0.00000   0.02491   0.02386  -0.67849
   D45        2.95449  -0.03270   0.00000  -0.20287  -0.20203   2.75246
   D46       -0.22042   0.00425   0.00000   0.00077   0.00150  -0.21892
   D47        2.59301   0.01020   0.00000   0.06415   0.06479   2.65780
   D48        0.93252   0.00177   0.00000  -0.01217  -0.01205   0.92047
   D49       -2.65332   0.00480   0.00000   0.02547   0.02589  -2.62743
   D50       -1.96464  -0.00037   0.00000  -0.05012  -0.05151  -2.01615
   D51        0.73270   0.00266   0.00000  -0.01248  -0.01357   0.71913
   D52       -0.33308   0.00557   0.00000   0.03063   0.03040  -0.30268
   D53        2.74880   0.00484   0.00000   0.03220   0.03227   2.78107
   D54       -3.01676   0.00167   0.00000  -0.00755  -0.00810  -3.02486
   D55        0.06512   0.00094   0.00000  -0.00597  -0.00622   0.05889
   D56       -0.32196  -0.00212   0.00000  -0.01058  -0.01035  -0.33231
   D57       -2.42061  -0.00299   0.00000  -0.01616  -0.01594  -2.43655
   D58        1.84217   0.00172   0.00000   0.00566   0.00591   1.84808
   D59        2.87743  -0.00142   0.00000  -0.01212  -0.01218   2.86525
   D60        0.77878  -0.00229   0.00000  -0.01770  -0.01777   0.76101
   D61       -1.24163   0.00242   0.00000   0.00413   0.00408  -1.23755
   D62        0.32475   0.00067   0.00000  -0.00097  -0.00083   0.32392
   D63       -1.88759   0.00744   0.00000   0.03664   0.03677  -1.85082
   D64        2.52194   0.00164   0.00000   0.00862   0.00903   2.53097
   D65        2.43368  -0.00244   0.00000  -0.01015  -0.01034   2.42334
   D66        0.22134   0.00433   0.00000   0.02745   0.02726   0.24860
   D67       -1.65231  -0.00147   0.00000  -0.00057  -0.00048  -1.65280
   D68       -1.85363   0.00033   0.00000  -0.00112  -0.00095  -1.85458
   D69        2.21722   0.00711   0.00000   0.03648   0.03665   2.25387
   D70        0.34356   0.00131   0.00000   0.00847   0.00890   0.35247
         Item               Value     Threshold  Converged?
 Maximum Force            0.058430     0.000450     NO 
 RMS     Force            0.012791     0.000300     NO 
 Maximum Displacement     0.407426     0.001800     NO 
 RMS     Displacement     0.105808     0.001200     NO 
 Predicted change in Energy=-5.167587D-02
 GradGradGradGradGradGradGradGradGradGradGradGradGradGradGradGradGradGrad

                          Input orientation:                          
 ---------------------------------------------------------------------
 Center     Atomic      Atomic             Coordinates (Angstroms)
 Number     Number       Type             X           Y           Z
 ---------------------------------------------------------------------
      1          6           0        1.382195   -0.299546    0.149189
      2          6           0        2.887879    0.060005    0.284382
      3          6           0        3.215944    0.413186    1.738286
      4          6           0        4.430540    0.956994    1.945499
      5          6           0        5.322077    0.484034    2.985827
      6          6           0        6.188436   -0.297085    2.270957
      7          7           0        6.428013   -1.705217    2.410733
      8          6           0        5.659853   -1.343463    1.464571
      9          7           0        4.975337   -1.651343    0.345605
     10          6           0        3.941795   -1.065248   -0.200244
     11          6           0        3.937720   -1.295450   -1.668442
     12          6           0        4.089551   -0.184732   -2.403494
     13          6           0        3.888887    1.211562   -1.905692
     14          6           0        3.058142    1.348608   -0.617108
     15          1           0        1.087236   -1.265548    0.570304
     16          1           0        1.041831   -0.276605   -0.894664
     17          1           0        0.800111    0.476840    0.665291
     18          1           0        2.655146   -0.071574    2.532998
     19          1           0        4.986912    1.189175    1.033702
     20          1           0        4.856655    0.072308    3.882590
     21          1           0        4.198123   -2.275552   -2.048726
     22          1           0        4.433725   -0.271708   -3.431989
     23          1           0        3.377665    1.771278   -2.697242
     24          1           0        4.863260    1.700668   -1.775176
     25          1           0        2.071619    1.739486   -0.888854
     26          1           0        3.459289    2.177878   -0.029374
 ---------------------------------------------------------------------
                    Distance matrix (angstroms):
                    1          2          3          4          5
     1  C    0.000000
     2  C    1.553912   0.000000
     3  C    2.529003   1.531731   0.000000
     4  C    3.754735   2.437970   1.346813   0.000000
     5  C    4.917640   3.661000   2.448912   1.449417   0.000000
     6  C    5.253747   3.868807   3.102246   2.183767   1.368125
     7  N    5.705329   4.491094   3.906047   3.360612   2.519256
     8  C    4.595471   3.323613   3.022155   2.652282   2.401677
     9  N    3.844035   2.699989   3.049148   3.108036   3.413332
    10  C    2.694430   1.616105   2.543722   2.988737   3.802171
    11  C    3.290337   2.598644   3.878942   4.286834   5.171579
    12  C    3.722788   2.954419   4.274931   4.509275   5.568766
    13  C    3.576240   2.669180   3.790624   3.897418   5.148814
    14  C    2.472332   1.581825   2.539251   2.933222   4.342122
    15  H    1.094303   2.254143   2.951903   4.243646   5.179736
    16  H    1.098182   2.216157   3.483534   4.590386   5.827288
    17  H    1.099071   2.162780   2.644167   3.879367   5.082628
    18  H    2.711996   2.264454   1.086764   2.134275   2.761571
    19  H    3.999080   2.498488   2.057893   1.093084   2.102462
    20  H    5.113554   4.101625   2.721428   2.171766   1.091019
    21  H    4.082264   3.551754   4.747151   5.143657   5.850240
    22  H    4.705045   4.038699   5.355727   5.516076   6.522934
    23  H    4.046280   3.472525   4.641602   4.829767   6.142882
    24  H    4.452174   3.291760   4.088481   3.818864   4.935368
    25  H    2.389663   2.205316   3.157596   3.769663   5.211026
    26  H    3.237875   2.215928   2.509577   2.516746   3.928171
                    6          7          8          9         10
     6  C    0.000000
     7  N    1.435190   0.000000
     8  C    1.422871   1.271282   0.000000
     9  N    2.648132   2.525455   1.347382   0.000000
    10  C    3.426996   3.661700   2.408472   1.307543   0.000000
    11  C    4.645570   4.796784   3.575447   2.293403   1.486141
    12  C    5.125274   5.563908   4.332486   3.239308   2.377279
    13  C    5.000833   5.795368   4.585100   3.800650   2.845209
    14  C    4.565957   5.463488   4.283635   3.688111   2.604097
    15  H    5.463733   5.666073   4.659893   3.913649   2.963506
    16  H    6.042278   6.479008   5.294365   4.347487   3.084472
    17  H    5.675488   6.283408   5.250661   4.697219   3.605185
    18  H    3.550163   4.113182   3.433292   3.558601   3.180167
    19  H    2.276714   3.514327   2.655702   2.922697   2.774404
    20  H    2.123077   2.791975   2.914850   3.936410   4.335959
    21  H    5.151246   5.018413   3.917742   2.593553   2.224281
    22  H    5.966845   6.337944   5.160266   4.057949   3.363908
    23  H    6.071372   6.890722   5.677207   4.850341   3.820880
    24  H    4.703010   5.618749   4.516332   3.968155   3.313578
    25  H    5.574963   6.459987   5.283806   4.631759   3.440679
    26  H    4.343410   5.463138   4.412958   4.135450   3.283272
                   11         12         13         14         15
    11  C    0.000000
    12  C    1.340540   0.000000
    13  C    2.518687   1.495898   0.000000
    14  C    2.978256   2.570236   1.539275   0.000000
    15  H    3.624657   4.361826   4.485073   3.482561   0.000000
    16  H    3.165905   3.402000   3.367870   2.604586   1.768107
    17  H    4.293241   4.547036   4.085377   2.739202   1.768440
    18  H    4.560150   5.141914   4.782314   3.478863   2.781382
    19  H    3.817820   3.808832   3.137865   2.543766   4.631185
    20  H    5.790438   6.337932   5.978184   5.011075   5.193228
    21  H    1.083063   2.123482   3.503719   4.060003   4.190112
    22  H    2.098610   1.088036   2.196935   3.527210   5.310843
    23  H    3.282821   2.102152   1.095985   2.146556   5.014502
    24  H    3.137633   2.132637   1.098026   2.173366   5.343975
    25  H    3.647044   3.173137   2.148285   1.095381   3.482582
    26  H    3.870329   3.408167   2.153808   1.092720   4.224149
                   16         17         18         19         20
    16  H    0.000000
    17  H    1.749163   0.000000
    18  H    3.793902   2.688911   0.000000
    19  H    4.629339   4.262915   3.045408   0.000000
    20  H    6.123462   5.193285   2.586260   3.062764   0.000000
    21  H    3.910221   5.146653   5.313237   4.704029   6.413004
    22  H    4.235917   5.527312   6.227718   4.731024   7.334868
    23  H    3.591550   4.430122   5.592276   4.104688   6.954718
    24  H    4.391837   4.895183   5.155286   2.857746   5.887438
    25  H    2.263873   2.371998   3.915293   3.535251   5.770840
    26  H    3.552086   3.232230   3.503203   2.107439   4.657202
                   21         22         23         24         25
    21  H    0.000000
    22  H    2.446286   0.000000
    23  H    4.179780   2.414314   0.000000
    24  H    4.040738   2.611473   1.749910   0.000000
    25  H    4.689121   4.011482   2.230927   2.929221   0.000000
    26  H    4.945371   4.304391   2.699908   2.290565   1.690124
                   26
    26  H    0.000000
 Stoichiometry    C12H12N2
 Framework group  C1[X(C12H12N2)]
 Deg. of freedom    72
 Full point group                 C1      NOp   1
 Largest Abelian subgroup         C1      NOp   1
 Largest concise Abelian subgroup C1      NOp   1
                         Standard orientation:                         
 ---------------------------------------------------------------------
 Center     Atomic      Atomic             Coordinates (Angstroms)
 Number     Number       Type             X           Y           Z
 ---------------------------------------------------------------------
      1          6           0       -1.719586   -1.504819   -1.569412
      2          6           0       -0.844647   -0.844411   -0.468057
      3          6           0        0.448821   -1.641864   -0.275162
      4          6           0        1.186027   -1.304298    0.800236
      5          6           0        2.612926   -1.064493    0.715020
      6          6           0        2.661192    0.302681    0.698535
      7          7           0        3.174475    1.155343   -0.335525
      8          6           0        1.913344    1.001690   -0.289732
      9          7           0        0.685521    1.367226   -0.707193
     10          6           0       -0.440526    0.702646   -0.702777
     11          6           0       -1.589564    1.640923   -0.613525
     12          6           0       -2.312374    1.525945    0.509584
     13          6           0       -2.284888    0.350926    1.434941
     14          6           0       -1.725977   -0.954478    0.840880
     15          1           0       -1.358041   -1.385142   -2.595307
     16          1           0       -2.758776   -1.150782   -1.542114
     17          1           0       -1.770744   -2.582802   -1.361343
     18          1           0        0.874766   -2.161152   -1.129543
     19          1           0        0.710642   -0.582769    1.469742
     20          1           0        3.160557   -1.621607   -0.046587
     21          1           0       -1.567694    2.557017   -1.190863
     22          1           0       -2.939271    2.357451    0.824891
     23          1           0       -3.315988    0.161324    1.754418
     24          1           0       -1.732480    0.612181    2.347219
     25          1           0       -2.566680   -1.633341    0.661374
     26          1           0       -1.184758   -1.491050    1.623956
 ---------------------------------------------------------------------
 Rotational constants (GHZ):           1.2294180           0.6235734           0.5334096
 Standard basis: 6-31G(2df,p) (6D, 7F)
 There are   494 symmetry adapted cartesian basis functions of A   symmetry.
 There are   452 symmetry adapted basis functions of A   symmetry.
   452 basis functions,   700 primitive gaussians,   494 cartesian basis functions
    49 alpha electrons       49 beta electrons
       nuclear repulsion energy       854.9225139048 Hartrees.
 NAtoms=   26 NActive=   26 NUniq=   26 SFac= 1.00D+00 NAtFMM=   60 NAOKFM=F Big=F
 Integral buffers will be    131072 words long.
 Raffenetti 2 integral format.
 Two-electron integral symmetry is turned on.
 One-electron integrals computed using PRISM.
 PrsmSu:  requested number of processors reduced to:  12 ShMem   1 Linda.
 NBasis=   452 RedAO= T EigKep=  1.56D-04  NBF=   452
 NBsUse=   452 1.00D-06 EigRej= -1.00D+00 NBFU=   452
 Initial guess from the checkpoint file:  "CC12CdCCdC3NdC3NdC1CdCCC2.chk"
 B after Tr=     0.000000    0.000000    0.000000
         Rot=    0.998919   -0.021449    0.010915   -0.039758 Ang=  -5.33 deg.
 ExpMin= 1.61D-01 ExpMax= 4.17D+03 ExpMxC= 6.27D+02 IAcc=2 IRadAn=         4 AccDes= 0.00D+00
 Harris functional with IExCor=  402 and IRadAn=       4 diagonalized for initial guess.
 HarFok:  IExCor=  402 AccDes= 0.00D+00 IRadAn=         4 IDoV= 1 UseB2=F ITyADJ=14
 ICtDFT=  3500011 ScaDFX=  1.000000  1.000000  1.000000  1.000000
 FoFCou: FMM=F IPFlag=           0 FMFlag=      100000 FMFlg1=           0
         NFxFlg=           0 DoJE=T BraDBF=F KetDBF=T FulRan=T
         wScrn=  0.000000 ICntrl=       500 IOpCl=  0 I1Cent=   200000004 NGrid=           0
         NMat0=    1 NMatS0=      1 NMatT0=    0 NMatD0=    1 NMtDS0=    0 NMtDT0=    0
 Petite list used in FoFCou.
 Requested convergence on RMS density matrix=1.00D-08 within 128 cycles.
 Requested convergence on MAX density matrix=1.00D-06.
 Requested convergence on             energy=1.00D-06.
 No special actions if energy rises.
 Integral accuracy reduced to 1.0D-05 until final iterations.
 EnCoef did     1 forward-backward iterations
 Initial convergence to 1.0D-05 achieved.  Increase integral accuracy.
 SCF Done:  E(RB3LYP) =  -573.736363705     A.U. after   15 cycles
            NFock= 15  Conv=0.38D-08     -V/T= 2.0080
 PrsmSu:  requested number of processors reduced to:  13 ShMem   1 Linda.
[...]
 .00424630,0.01735306,-0.00802739,0.00074932,-0.00211036,-0.00451912,-0
 .00192051,0.00035526,0.00172222,0.00045879,0.00171169,-0.00010981,0.00
 027882,0.00028301,-0.00029597,0.00025042,0.00021327,0.00041493,-0.0000
 0910,-0.00026109,-0.00013582,0.00005536,-0.00004867,0.00026863,0.00011
 675,0.00049067,-0.00019319,-0.00007692,-0.00040696,-0.00025417,0.00013
 220,0.00013100,0.00001640,-0.00014739,-0.00006897,-0.00010351,0.000110
 44,-0.00000736,-0.00000916,0.00227706,-0.00700568,-0.00428584,0.084186
 97,-0.00009767,0.00009085,0.00016120,0.00152155,-0.00085502,-0.0000261
 1,-0.00015613,-0.00596153,0.01043317,-0.09931042,-0.24186566,0.0775520
 0,-0.00099949,-0.01260714,0.00671742,-0.00132226,0.00348460,0.00445758
 ,0.00132593,-0.00060006,-0.00191869,-0.00022653,-0.00178322,0.00103952
 ,-0.00037707,0.00003040,-0.00062816,0.00008086,-0.00072923,0.00042100,
 -0.00008870,0.00036313,-0.00017892,0.00020130,-0.00031617,-0.00006233,
 0.00025226,0.00015319,-0.00020435,-0.00057048,0.00011271,0.00047683,0.
 00007901,0.00012387,-0.00006675,0.00004995,0.00010607,-0.00001439,-0.0
 0013588,0.00000769,-0.00000517,-0.00378588,0.00138844,0.00032969,0.102
 76886,0.25889883,-0.00004239,0.00018875,0.00037587,0.00210803,-0.00106
 072,-0.00064016,0.00003230,-0.00722181,0.01357505,0.02296278,0.0891727
 2,-0.09056713,0.00880742,0.01284693,0.00029939,0.00075982,0.00388390,-
 0.00084521,-0.00086813,0.00040667,0.00031854,0.00005199,-0.00130014,-0
 .00033145,0.00018475,0.00006786,0.00084454,-0.00038451,0.00020632,-0.0
 0015798,0.00009665,0.00014504,0.00016273,-0.00006663,0.00006253,-0.000
 10105,0.00002709,-0.00024840,-0.00000713,-0.00014864,0.00006435,-0.000
 31559,0.00006125,0.00009793,-0.00003030,0.00011119,0.00016411,0.000008
 08,-0.00011219,0.00000562,0.00003164,-0.00588987,0.00167791,0.00115010
 ,-0.02710538,-0.09873547,0.07746167,0.00015858,-0.00008272,-0.00033719
 ,-0.00187124,0.00024084,-0.00088088,0.00355498,0.00230956,-0.00360006,
 -0.00872188,-0.00394181,-0.01142113,-0.06388727,-0.03861725,-0.0965551
 1,0.00351563,0.00739292,0.00831610,-0.00525255,-0.00170975,0.00018388,
 0.00767847,0.00259551,-0.00025864,0.00004204,0.00005220,-0.00101124,-0
 .00006243,0.00012443,0.00097400,-0.00004432,0.00013134,-0.00016722,0.0
 0000824,0.00001391,0.00009630,0.00004531,0.00004092,-0.00000289,0.0000
 0685,-0.00005136,0.00001266,-0.00000812,-0.00003187,0.00001343,-0.0001
 3430,-0.00003516,0.00002193,-0.00002933,0.00004870,0.00000229,0.000480
 41,-0.00066173,-0.00029012,-0.00014469,0.00028544,-0.00033384,0.064695
 76,-0.00004130,0.00016009,0.00040688,0.00078423,0.00010311,-0.00042905
 ,0.00159975,-0.00129247,0.00243704,0.00415920,0.01120065,0.01183991,-0
 .02983886,-0.08990735,-0.08933632,-0.00972998,-0.00849046,-0.02639939,
 -0.00120603,-0.00082494,0.00142689,0.00254025,0.00046742,-0.00030879,-
 0.00016870,-0.00054690,-0.00198245,0.00062656,-0.00099358,0.00077322,-
 0.00013054,0.00028748,-0.00025076,0.00009635,-0.00016297,-0.00000883,-
 0.00005888,-0.00002737,-0.00003855,-0.00000388,0.00012553,0.00001098,-
 0.00001302,-0.00001481,-0.00001824,0.00017089,0.00007908,0.00007162,-0
 .00008592,-0.00001464,-0.00001883,-0.00017895,0.00041889,-0.00012989,-
 0.00045468,-0.00044695,-0.00052823,0.03197819,0.08976031,0.00003705,-0
 .00006060,-0.00034382,-0.00062645,-0.00004152,0.00101644,-0.00112523,0
 .00131255,-0.00216243,-0.00195721,-0.00896400,-0.00643522,-0.09817603,
 -0.09013982,-0.26434527,-0.00169078,-0.00568672,-0.00621084,0.00322389
 ,0.00051051,0.00076992,-0.00534326,0.00131512,0.00122612,0.00022927,-0
 .00049393,0.00032228,-0.00030845,0.00024616,-0.00028298,0.00016299,-0.
 00004036,0.00001382,-0.00000774,-0.00001347,-0.00001813,0.00001407,0.0
 0004708,0.00003295,-0.00003244,-0.00017540,-0.00006483,0.00002285,0.00
 001105,0.00001619,-0.00014208,-0.00008392,-0.00007881,0.00005017,0.000
 00690,0.00000797,0.00029635,-0.00042136,0.00007693,0.00017397,0.000298
 94,-0.00023783,0.10520045,0.10240059,0.27676944,0.00047919,-0.00036192
 ,-0.00011712,0.00184047,0.00057348,0.00103549,-0.00017671,0.00032637,0
 .00007551,-0.00014749,0.00002455,0.00004951,0.00007342,-0.00010826,-0.
 00005153,0.00018410,0.00030314,-0.00009822,-0.00021290,-0.00009507,-0.
 00011768,-0.00008705,-0.00062794,0.00054663,-0.00139159,0.00013147,-0.
 00211890,0.00122725,0.00308608,0.00341190,-0.09759457,0.11311788,0.038
 27863,-0.00006545,0.00575803,0.00494560,0.01026064,0.00396695,-0.00126
 455,-0.00014850,0.00019474,-0.00032434,-0.00006663,0.00000575,0.000101
 12,0.00004715,0.00003782,-0.00008079,0.00012214,0.00005465,-0.00002302
 ,-0.00003347,0.00001001,0.00006412,0.00000071,-0.00002049,-0.00000296,
 0.00000150,-0.00002779,0.00000215,0.09149707,0.00018778,-0.00032486,-0
 .00014497,0.00021441,0.00154893,0.00014206,-0.00009344,0.00002877,0.00
 000907,0.00012364,-0.00001243,0.00002311,0.00002955,-0.00005418,0.0000
 5147,-0.00001579,0.00013198,0.00001066,-0.00000482,0.00004534,-0.00020
 776,-0.00019948,0.00027822,0.00041236,-0.00170430,0.00030984,0.0007400
 8,0.00358012,-0.00167758,0.00248870,0.10977567,-0.24897582,-0.07899355
 ,0.01015449,-0.01597861,-0.00788975,0.00432438,0.00237727,0.00288929,-
 0.00020463,0.00061298,0.00017239,-0.00001988,0.00001939,0.00000446,0.0
 0005419,-0.00001944,-0.00000493,0.00014054,0.00005900,0.00005328,-0.00
 001522,0.00000385,-0.00004327,0.00000266,-0.00000295,0.00001640,-0.000
 02089,0.00001564,-0.00000083,-0.12345545,0.26316851,-0.00019680,-0.000
 19352,-0.00003913,-0.00110293,0.00102657,-0.00440169,0.00023725,-0.001
 47609,-0.00042718,0.00083327,-0.00007148,0.00007287,-0.00039193,0.0005
 9676,0.00005202,0.00030320,-0.00089962,0.00007347,-0.00017117,0.000468
 91,0.00043697,-0.00041087,0.00052452,-0.00060435,0.00069756,0.00038114
 ,0.00321478,0.01548904,-0.02710772,-0.01054889,0.03966484,-0.07768962,
 -0.08284763,-0.01030217,0.02059025,0.00921573,0.00055288,0.00213551,-0
 .00254203,-0.00013877,0.00050479,-0.00046584,0.00004399,0.00001118,0.0
 0000691,0.00010594,0.00006756,0.00006595,0.00014511,0.00004928,0.00003
 955,-0.00002242,0.00008203,-0.00002645,-0.00006521,0.00003799,0.000058
 90,0.00007686,0.00006714,-0.00006716,-0.04428924,0.08028118,0.08705243
 ,-0.00022283,0.00011645,0.00008515,-0.00064462,-0.00039718,-0.00054697
 ,-0.00005456,-0.00040614,-0.00011387,0.00002915,0.00001103,-0.00005676
 ,-0.00001324,-0.00002914,0.00008029,0.00027475,0.00025734,-0.00017894,
 0.00014076,0.00003062,0.00015258,-0.00147709,-0.00174661,0.00008912,-0
 .00025109,0.00121085,0.00062582,0.01007901,0.00535156,-0.00000482,0.00
 778829,0.00321101,-0.00983671,-0.04950084,0.01034284,0.03650049,0.0031
 2423,0.00116276,0.01373977,0.00044749,0.00160260,-0.00144099,-0.000019
 20,-0.00001490,0.00002562,0.00002133,0.00006926,0.00003937,-0.00001713
 ,0.00002045,0.00002397,-0.00000273,0.00004032,0.00007834,-0.00000370,-
 0.00005112,-0.00000152,0.00001521,-0.00000558,-0.00001417,-0.00531940,
 -0.00324967,-0.00051303,0.03467833,-0.00012969,0.00019884,-0.00004655,
 -0.00015608,-0.00057163,0.00038475,-0.00015914,0.00013598,0.00001550,0
 .00009503,-0.00004154,0.00007022,-0.00002217,0.00015949,0.00000626,0.0
 0015762,-0.00032845,-0.00010378,0.00015956,0.00020293,0.00030775,-0.00
 055677,-0.00069351,0.00009360,0.00012599,0.00030617,0.00199287,0.00583
 733,-0.00121017,0.00066208,-0.00185071,0.00728334,0.02582674,0.0109834
 3,-0.05981391,-0.04282521,0.00207468,-0.00119432,-0.02598140,0.0039971
 4,-0.00467371,-0.00003306,0.00006225,0.00005303,-0.00001390,0.00001598
 ,-0.00002174,0.00002620,-0.00010127,-0.00001254,0.00004912,0.00000632,
 0.00005577,-0.00008554,0.00002317,0.00005304,0.00002052,-0.00000998,0.
 00002349,-0.00001083,-0.00286902,-0.00041322,-0.00033217,-0.01706980,0
 .05937895,-0.00010089,0.00001080,-0.00003901,-0.00023615,0.00003269,0.
 00041140,-0.00004530,-0.00003914,0.00006368,0.00009068,-0.00003766,-0.
 00001539,-0.00002813,0.00005014,0.00001216,-0.00005214,-0.00003219,-0.
 00009037,0.00000353,0.00003777,-0.00008879,-0.00012813,-0.00009887,-0.
 00007777,-0.00041902,0.00034697,-0.00113992,-0.00018800,0.00288002,0.0
 0097383,0.00424347,-0.00520422,-0.01773271,0.03418374,-0.03783068,-0.3
 2124933,0.00003636,0.00083202,-0.00482597,0.00123627,-0.00122672,0.001
 25919,0.00002474,0.00002635,-0.00000724,-0.00000674,-0.00002078,0.0000
 0393,0.00000867,-0.00001120,0.00002429,-0.00000940,0.00002623,-0.00003
 737,0.00000378,0.00001532,0.00002699,-0.00000258,-0.00000168,-0.000019
 21,-0.00044343,-0.00004521,0.00110115,-0.03814352,0.04118240,0.3415151
 9,-0.00018791,-0.00073433,-0.00009338,-0.00014032,-0.00043195,0.000052
 56,0.00010085,0.00010772,0.00005424,-0.00000548,0.00000198,-0.00002635
 ,0.00004326,-0.00002483,0.00000848,-0.00000647,0.00011882,0.00004385,-
 0.00005167,0.00000338,-0.00005944,0.00006856,-0.00003241,0.00000641,0.
 00009631,-0.00015587,-0.00011112,-0.00063341,-0.00004573,0.00004120,-0
 .00021939,-0.00034318,0.00264793,-0.01360141,0.00553627,-0.00299339,-0
 .27711588,-0.00087091,-0.05856936,-0.00254133,-0.00081038,-0.00114206,
 0.00031556,0.00014386,0.00029776,-0.00003891,-0.00006647,0.00064181,-0
 .00001489,-0.00008324,-0.00009374,0.00000149,0.00005247,-0.00009147,0.
 00003188,0.00002366,0.00002578,-0.00000871,-0.00000775,-0.00000441,0.0
 0068183,0.00053645,-0.00014835,0.00024405,0.00072750,0.00034668,0.3061
 7501,0.00015210,0.00066764,0.00063202,0.00057640,-0.00041041,0.0002856
 7,-0.00038830,0.00003036,0.00008708,0.00015351,-0.00006986,0.00003973,
 -0.00005530,0.00025279,-0.00003338,-0.00001772,-0.00064848,-0.00016373
 ,0.00026463,0.00018721,0.00030657,-0.00026571,0.00012058,-0.00052039,-
 0.00003178,-0.00036604,0.00122733,0.00181175,0.00029752,-0.00187495,-0
 .00008196,-0.00228659,-0.00048241,0.03093893,-0.00356102,0.00813047,0.
 00405932,-0.04107359,0.00060078,-0.00645450,-0.00142969,-0.00265876,0.
 00009409,-0.00003372,-0.00028862,-0.00036673,-0.00097867,0.00031514,-0
 .00006525,-0.00004824,-0.00010106,0.00005033,0.00003788,-0.00005312,-0
 .00000936,0.00011354,0.00000962,-0.00003003,0.00004091,-0.00000971,-0.
 00201303,-0.00138023,0.00014233,-0.00100550,0.00012407,-0.00050694,-0.
 00257542,0.04949617,-0.00001382,-0.00002106,-0.00021639,-0.00074184,-0
 .00014344,0.00076899,0.00007134,-0.00013823,-0.00005159,0.00004978,-0.
 00003757,0.00011876,0.00005973,0.00030068,-0.00005597,-0.00003984,-0.0
 0051904,-0.00015086,0.00017970,0.00010187,0.00023886,-0.00023275,0.000
 07810,-0.00039649,0.00013560,-0.00023659,0.00081682,0.00054550,-0.0001
 2003,-0.00182171,0.00038378,-0.00075828,0.00152481,0.00740667,0.002850
 98,0.00226691,-0.05366948,-0.00173184,-0.05821280,-0.03192123,-0.00213
 073,-0.00839614,0.00019935,-0.00001596,0.00022359,0.00036279,0.0009561
 6,-0.00006614,0.00017590,-0.00001464,-0.00019342,0.00005057,0.00018448
 ,-0.00009468,0.00006815,0.00020332,0.00004126,-0.00002041,0.00001448,0
 .00000119,-0.00053743,-0.00020776,0.00001995,-0.00105285,0.00008572,-0
 .00021108,0.06268838,0.00156412,0.06510103,-0.00005094,-0.00045404,-0.
 00024161,0.00003864,-0.00023954,-0.00142549,0.00018009,0.00028522,-0.0
 0000721,0.00001451,0.00001765,0.00002491,-0.00002370,0.00000494,0.0000
 1356,-0.00000167,-0.00004218,-0.00000819,0.00004834,0.00000279,0.00003
 755,-0.00002790,0.00003747,-0.00012684,0.00001548,-0.00023062,0.000119
 78,0.00048171,0.00010405,-0.00005513,-0.00097417,0.00128508,0.00163075
 ,0.00509168,0.01460749,-0.00857348,-0.08786429,-0.08141306,0.05779765,
 0.00120928,0.00437775,-0.00400702,0.00016017,0.00009840,0.00019401,0.0
 0009958,0.00032515,0.00027793,0.00004712,0.00001347,-0.00006801,0.0000
 4840,0.00003348,-0.00013986,0.00000440,-0.00002088,-0.00000437,-0.0000
 0264,-0.00000086,0.00000707,-0.00099278,0.00000356,-0.00039080,0.00055
 597,-0.00085967,-0.00008658,-0.01552599,-0.02442937,0.01626534,0.09680
 603,-0.00002776,0.00010357,-0.00018658,0.00009626,0.00004422,-0.001484
 22,0.00000648,0.00039273,-0.00006581,0.00003699,-0.00002057,0.00010018
 ,-0.00004115,0.00014158,-0.00003906,0.00003835,-0.00037862,-0.00002753
 ,0.00012114,0.00012183,0.00021496,-0.00020515,0.00003552,-0.00042589,0
 .00005290,-0.00008545,0.00073890,-0.00062961,-0.00016120,-0.00111538,0
 .00110879,-0.00259699,-0.00351158,-0.01087590,-0.02542240,0.01634420,-
 0.08061563,-0.18554672,0.09849804,0.00273972,0.00593913,-0.00379125,0.
 00003489,0.00002640,-0.00000457,0.00012996,-0.00002563,0.00002640,-0.0
 0003925,0.00001065,0.00007089,0.00001234,0.00004092,-0.00016599,-0.000
 01519,0.00002031,-0.00001414,-0.00000198,0.00001716,0.00000630,0.00185
 739,0.00023419,0.00089122,0.00048506,0.00129350,-0.00031612,-0.0008751
 1,-0.00006113,0.00015128,0.08606299,0.20511791,-0.00054375,-0.00035568
 ,0.00005239,-0.00122076,-0.00386464,-0.00513188,0.00049493,0.00233634,
 -0.00026863,0.00039289,-0.00014180,0.00002801,-0.00019684,0.00019673,0
 .00000883,0.00004140,-0.00068740,-0.00007454,0.00015997,0.00039531,0.0
 0029007,-0.00025853,-0.00009660,-0.00071546,-0.00013815,-0.00018334,0.
 00125886,0.00091822,-0.00080733,-0.00218862,0.00137961,-0.00180052,0.0
 0159174,-0.00680855,-0.00542955,0.00530950,0.05765628,0.09657991,-0.11
 713771,0.01203790,0.02456062,-0.01722382,0.00013354,0.00009188,0.00003
 421,0.00009724,-0.00000195,0.00011238,-0.00000218,-0.00000929,0.000022
 38,-0.00017881,-0.00000556,-0.00078646,-0.00011696,0.00003437,0.000062
 26,-0.00003131,0.00004763,-0.00004543,0.00079551,0.00028868,0.00031062
 ,-0.00058552,0.00034139,0.00063893,-0.00270581,-0.00465165,0.00319387,
 -0.06141640,-0.10677511,0.12881685,0.00118169,-0.00062396,-0.00046968,
 0.00323039,-0.00575450,-0.00203065,0.00028065,0.00051576,-0.00005984,0
 .00027248,0.00017427,-0.00020577,-0.00006757,-0.00013465,-0.00008321,0
 .00002917,-0.00002061,0.00006107,0.00000526,-0.00007236,0.00005612,-0.
 00004121,-0.00013727,-0.00014059,0.00074275,0.00000918,0.00012405,-0.0
 0036023,-0.00130171,0.00067958,0.00026549,0.00005938,0.00018109,0.0006
 8237,-0.00019270,-0.00158877,0.00285470,-0.00518055,-0.00298092,-0.145
 16139,0.11725355,0.04802464,0.00007460,0.00012898,-0.00007525,-0.00004
 232,-0.00008369,0.00000128,0.00013012,0.00029648,0.00018952,-0.0000687
 3,-0.00006683,-0.00014908,-0.00036264,-0.00001312,0.00010908,0.0000071
 7,0.00000566,-0.00000750,-0.00007442,-0.00004838,-0.00000177,0.0001573
 0,-0.00032937,-0.00022273,0.00093958,-0.00029281,0.00034176,-0.0001750
 5,0.00018313,0.00039669,0.15374993,0.00125857,0.00116313,-0.00104374,0
 .01625936,-0.02394512,-0.00597409,-0.00054119,0.00122256,-0.00119597,0
 .00052587,-0.00004103,0.00031403,0.00000637,0.00029060,0.00007233,0.00
 026046,-0.00067004,-0.00015973,0.00007770,0.00026294,0.00068387,-0.000
 64634,-0.00019002,-0.00142436,0.00210850,-0.00067537,0.00025324,-0.003
 32964,-0.00188261,0.00454881,0.00016114,0.00085696,-0.00011756,0.00016
 373,0.00051636,-0.00113995,0.00247528,-0.00325909,-0.00159390,0.115685
 24,-0.18616586,-0.05773646,-0.00007241,0.00053657,0.00020247,-0.000114
 04,-0.00004742,0.00004452,-0.00113416,0.00004012,0.00016455,-0.0002040
 9,0.00016230,-0.00003907,0.00007109,0.00004781,0.00007361,-0.00000607,
 0.00003531,-0.00001449,0.00003149,0.00000655,-0.00004855,-0.00012059,-
 0.00032019,-0.00007072,-0.00017263,0.00038899,0.00006173,-0.00012098,0
 .00012476,-0.00035366,-0.12679903,0.20402591,-0.00076712,-0.00073887,0
 .00024607,-0.01055045,0.01584282,0.00415375,0.00011514,0.00027563,0.00
 117219,-0.00029108,-0.00000902,-0.00018352,0.00009872,-0.00030881,-0.0
 0010942,-0.00002203,0.00051428,0.00004807,-0.00006013,-0.00033582,-0.0
 0036248,0.00035442,0.00030808,0.00099991,-0.00176110,0.00015676,-0.000
 02801,0.00236034,0.00191098,-0.00347674,-0.00023957,-0.00006874,0.0008
 2846,-0.00128366,0.00140020,-0.00679560,0.01865419,-0.02510444,-0.0097
 0007,0.04702728,-0.05722986,-0.06867084,-0.00015005,-0.00009947,-0.000
 07109,0.00008704,-0.00002192,0.00000365,0.00017933,-0.00025652,0.00017
 472,0.00000801,-0.00008129,0.00016086,-0.00015539,0.00001451,-0.000005
 18,-0.00003194,-0.00002092,0.00003021,0.00016398,0.00000010,0.00019561
 ,0.00058111,-0.00184085,-0.00049266,-0.00018047,-0.00003704,0.00151073
 ,0.00033151,0.00051263,0.00046523,-0.05130960,0.06126645,0.07843484,0.
 00087845,-0.00152272,0.00106257,-0.00566606,-0.00217297,-0.00010084,0.
 00008872,-0.00002543,-0.00036528,-0.00060788,-0.00048539,-0.00030407,0
 .00036880,0.00026549,0.00001329,0.00008014,-0.00016965,-0.00007521,-0.
 00003339,0.00008862,0.00016112,-0.00008388,0.00004615,-0.00021099,0.00
 045677,-0.00042722,0.00017092,-0.00021492,0.00059986,0.00019738,0.0001
 7518,-0.00043579,-0.00002214,0.00070742,0.00028646,0.00023530,-0.00380
 837,-0.00013627,-0.00129391,-0.27572247,-0.06890654,-0.03862629,-0.000
 36012,-0.00031086,-0.00022926,0.00000449,0.00005666,-0.00001866,0.0004
 8714,0.00015179,-0.00012753,0.00008543,0.00005932,0.00013216,0.0005072
 1,0.00058733,-0.00037769,-0.00004267,-0.00000836,0.00001547,-0.0001044
 9,-0.00009550,-0.00000447,-0.00002945,-0.00015233,-0.00006519,0.001393
 39,-0.00001828,-0.00075469,0.00083773,0.00036035,-0.00030060,-0.018250
 06,-0.00582364,-0.00315849,0.29885287,0.00053322,-0.00434919,0.0035948
 3,-0.02613579,-0.01020072,-0.00393560,0.00036287,0.00083341,-0.0011121
 4,0.00037198,0.00049525,-0.00004442,0.00017939,-0.00012157,0.00005406,
 -0.00008977,0.00019080,0.00011022,-0.00003463,-0.00007674,-0.00015418,
 0.00007897,-0.00001675,0.00033616,0.00009686,-0.00027261,-0.00017892,-
 0.00173968,0.00065220,0.00020330,0.00025540,-0.00015396,-0.00005939,-0
 .00044353,0.00026451,0.00002470,-0.00509921,-0.00165371,-0.00040827,-0
 .06806623,-0.06994909,-0.01347801,-0.00181963,-0.00040580,-0.00018747,
 0.00013194,0.00011209,-0.00011587,-0.00005267,0.00016115,0.00013742,0.
 00006677,-0.00010421,-0.00011253,-0.00001009,0.00017344,-0.00000189,-0
 .00001336,-0.00001263,0.00000179,0.00009917,-0.00000115,-0.00003957,0.
 00018410,0.00002632,0.00000141,-0.00002188,0.00059003,-0.00047777,0.00
 055173,0.00063433,0.00029123,0.02242515,0.00751588,0.00395116,0.078188
 91,0.07566873,0.00015073,0.00334725,-0.00225409,0.01700650,0.00464824,
 0.00305317,-0.00003766,-0.00003844,0.00086446,0.00016155,0.00018190,-0
 .00067390,-0.00021110,-0.00004356,0.00002784,-0.00000816,0.00015969,0.
 00000886,0.00003317,-0.00015878,-0.00000062,-0.00001164,-0.00000054,0.
 00009796,-0.00008600,0.00030450,0.00005259,0.00049949,-0.00088118,-0.0
 0004573,0.00018627,-0.00027684,0.00048589,-0.00114959,0.00184417,0.000
 36153,-0.03131088,-0.00955585,-0.00960120,-0.03867235,-0.01308181,-0.0
 5263730,0.00111040,0.00068481,0.00028267,-0.00000306,0.00012815,0.0000
 5594,-0.00041856,-0.00011427,-0.00005802,-0.00001391,-0.00016892,0.000
 10431,-0.00016174,-0.00035252,-0.00117797,0.00004666,-0.00002445,0.000
 02849,-0.00000094,-0.00004524,0.00005343,0.00046806,0.00020818,-0.0000
 0391,-0.00063573,-0.00195912,-0.00595950,-0.00014909,0.00036821,0.0013
 7640,0.00916048,0.00322666,0.00147132,0.04404708,0.01159974,0.06408739
 \\-0.00000943,-0.00000542,0.00000826,-0.00000198,-0.00002168,-0.000002
 90,-0.00001086,-0.00000476,-0.00000252,0.00004083,-0.00001363,0.000050
 15,-0.00003077,0.00004573,-0.00002237,-0.00000952,-0.00004473,-0.00002
 690,-0.00004426,0.00006712,-0.00002829,0.00006996,-0.00006683,0.000029
 64,-0.00003419,0.00003351,0.00000651,0.00001701,-0.00000444,0.00001466
 ,-0.00000679,0.00001064,-0.00001444,0.00000431,-0.00001638,-0.00000572
 ,-0.00000185,0.00002459,-0.00000099,-0.00000799,0.00000656,-0.00000877
 ,0.00000180,0.00000386,0.00000095,0.00000380,0.00000282,0.00000130,0.0
 0000222,0.00000116,-0.00000230,-0.00000089,0.00000335,0.00000023,-0.00
 000581,-0.00000120,-0.00001080,0.00001437,-0.00000847,0.00000436,-0.00
 000069,-0.00000142,0.00000182,-0.00000017,-0.00000263,0.00000062,0.000
 00086,-0.00000286,0.00000174,0.00000141,-0.00000317,0.00000336,0.00000
 434,0.00000055,0.00000120,0.00000426,-0.00000226,0.00000123\\\@


 WOMEN HOLD UP HALF THE SKY. -- MAO TSE TUNG
 Job cpu time:       0 days  6 hours 55 minutes 27.5 seconds.
 Elapsed time:       0 days  1 hours 43 minutes 52.6 seconds.
 File lengths (MBytes):  RWF=    383 Int=      0 D2E=      0 Chk=     18 Scr=      1
 Normal termination of Gaussian 16 at Fri May 19 10:56:39 2023.
### All Done ###
