### Starting Gaussian ###
 Entering Gaussian System, Link 0=g16
 Initial command:
 /cluster/software/gaussian/gaussian-16-A.03/avx2/g16/l1.exe "/local/scratch/cz9n3/Gau-18840.inp" -scrdir="/local/scratch/cz9n3/"
 Entering Link 1 = /cluster/software/gaussian/gaussian-16-A.03/avx2/g16/l1.exe PID=     18842.
  
 Copyright (c) 1988,1990,1992,1993,1995,1998,2003,2009,2016,
            Gaussian, Inc.  All Rights Reserved.
  
 This is part of the Gaussian(R) 16 program.  It is based on
 the Gaussian(R) 09 system (copyright 2009, Gaussian, Inc.),
 the Gaussian(R) 03 system (copyright 2003, Gaussian, Inc.),
 the Gaussian(R) 98 system (copyright 1998, Gaussian, Inc.),
 the Gaussian(R) 94 system (copyright 1995, Gaussian, Inc.),
 the Gaussian 92(TM) system (copyright 1992, Gaussian, Inc.),
 the Gaussian 90(TM) system (copyright 1990, Gaussian, Inc.),
 the Gaussian 88(TM) system (copyright 1988, Gaussian, Inc.),
 the Gaussian 86(TM) system (copyright 1986, Carnegie Mellon
 University), and the Gaussian 82(TM) system (copyright 1983,
 Carnegie Mellon University). Gaussian is a federally registered
 trademark of Gaussian, Inc.
  
 This software contains proprietary and confidential information,
 including trade secrets, belonging to Gaussian, Inc.
  
 This software is provided under written license and may be
 used, copied, transmitted, or stored only in accord with that
 written license.
  
 The following legend is applicable only to US Government
 contracts under FAR:
  
                    RESTRICTED RIGHTS LEGEND
  
 Use, reproduction and disclosure by the US Government is
 subject to restrictions as set forth in subparagraphs (a)
 and (c) of the Commercial Computer Software - Restricted
 Rights clause in FAR 52.227-19.
  
 Gaussian, Inc.
 340 Quinnipiac St., Bldg. 40, Wallingford CT 06492
  
  
 ---------------------------------------------------------------
 Warning -- This program may not be used in any manner that
 competes with the business of Gaussian, Inc. or will provide
 assistance to any competitor of Gaussian, Inc.  The licensee
 of this program is prohibited from giving any competitor of
 Gaussian, Inc. access to this program.  By using this program,
 the user acknowledges that Gaussian, Inc. is engaged in the
 business of creating and licensing software in the field of
 computational chemistry and represents and warrants to the
 licensee that it is not a competitor of Gaussian, Inc. and that
 it will not use this program in any manner prohibited above.
 ---------------------------------------------------------------
  

 Cite this work as:
 Gaussian 16, Revision A.03,
 M. J. Frisch, G. W. Trucks, H. B. Schlegel, G. E. Scuseria, 
 M. A. Robb, J. R. Cheeseman, G. Scalmani, V. Barone, 
 G. A. Petersson, H. Nakatsuji, X. Li, M. Caricato, A. V. Marenich, 
 J. Bloino, B. G. Janesko, R. Gomperts, B. Mennucci, H. P. Hratchian, 
 J. V. Ortiz, A. F. Izmaylov, J. L. Sonnenberg, D. Williams-Young, 
 F. Ding, F. Lipparini, F. Egidi, J. Goings, B. Peng, A. Petrone, 
 T. Henderson, D. Ranasinghe, V. G. Zakrzewski, J. Gao, N. Rega, 
 G. Zheng, W. Liang, M. Hada, M. Ehara, K. Toyota, R. Fukuda, 
 J. Hasegawa, M. Ishida, T. Nakajima, Y. Honda, O. Kitao, H. Nakai, 
 T. Vreven, K. Throssell, J. A. Montgomery, Jr., J. E. Peralta, 
 F. Ogliaro, M. J. Bearpark, J. J. Heyd, E. N. Brothers, K. N. Kudin, 
 V. N. Staroverov, T. A. Keith, R. Kobayashi, J. Normand, 
 K. Raghavachari, A. P. Rendell, J. C. Burant, S. S. Iyengar, 
 J. Tomasi, M. Cossi, J. M. Millam, M. Klene, C. Adamo, R. Cammi, 
 J. W. Ochterski, R. L. Martin, K. Morokuma, O. Farkas, 
 J. B. Foresman, and D. J. Fox, Gaussian, Inc., Wallingford CT, 2016.
 
 ******************************************
 Gaussian 16:  ES64L-G16RevA.03 25-Dec-2016
                18-May-2023 
 ******************************************
 %chk=Cc1c2c3cqcnc1dNrCqdC2rCdCNdCC3.chk
 %NProcShared=20
 Will use up to   20 processors via shared memory.
 -----------------------------
 # opt freq b3lyp/6-31g(2df,p)
 -----------------------------
 1/18=20,19=15,26=3,38=1/1,3;
 2/9=110,12=2,17=6,18=5,40=1/2;
 3/5=1,6=6,7=104,11=2,25=1,30=1,71=1,74=-5/1,2,3;
 4//1;
 5/5=2,38=5/2;
 6/7=2,8=2,9=2,10=2,28=1/1;
 7//1,2,3,16;
 1/18=20,19=15,26=3/3(2);
 2/9=110/2;
 99//99;
 2/9=110/2;
 3/5=1,6=6,7=104,11=2,25=1,30=1,71=1,74=-5/1,2,3;
 4/5=5,16=3,69=1/1;
 5/5=2,38=5/2;
 7//1,2,3,16;
 1/18=20,19=15,26=3/3(-5);
 2/9=110/2;
 6/7=2,8=2,9=2,10=2,19=2,28=1/1;
 99/9=1/99;
 -------------------
 Title Card Required
 -------------------
 Symbolic Z-matrix:
 Charge =  0 Multiplicity = 1
 C                     0.94573  -0.15944   0.20864 
 C                     2.69798  -0.45224   0.46973 
 C                     4.14026  -0.94227   0.67092 
 C                     5.52974  -0.12531   1.37462 
 C                     5.11209  -0.31765   2.67601 
 C                     3.80736  -0.57683   3.25835 
 N                     2.8232   -0.06385   2.51102 
 C                     3.11874   0.78958   1.04494 
 N                     3.07597   0.78571  -0.32659 
 C                     5.45017  -1.68505   2.51195 
 C                     4.53853  -2.20231   1.43712 
 C                     6.76134  -1.4938    3.43076 
 C                     7.98896  -0.75737   3.44351 
 N                     8.79092  -1.77849   3.49724 
 C                     8.70457  -1.84225   2.13077 
 C                     7.22788  -0.70149   1.13844 
 H                     0.37105  -0.45891   1.08269 
 H                     0.52933  -0.60544  -0.71748 
 H                     0.58747   0.93807   0.05354 
 H                     4.04243  -1.58979   4.1553 
 H                     3.2713    1.18347  -1.29967 
 H                     3.3502   -2.15556   1.47248 
 H                     6.71737  -2.0284    4.35924 
 H                     8.7408   -0.01938   2.65903 
 H                     9.85969  -1.68423   2.3495 
 H                     7.11927  -1.21317   0.23603 
 H                     7.52069   0.32962   0.98881 
 
 Add virtual bond connecting atoms H24        and C13        Dist= 2.48D+00.
 Add virtual bond connecting atoms H20        and C6         Dist= 2.60D+00.

 GradGradGradGradGradGradGradGradGradGradGradGradGradGradGradGradGradGrad
 Berny optimization.
 Initialization pass.
                           ----------------------------
                           !    Initial Parameters    !
                           ! (Angstroms and Degrees)  !
 --------------------------                            --------------------------
 ! Name  Definition              Value          Derivative Info.                !
 --------------------------------------------------------------------------------
 ! R1    R(1,2)                  1.7956         estimate D2E/DX2                !
 ! R2    R(1,17)                 1.0881         estimate D2E/DX2                !
 ! R3    R(1,18)                 1.1091         estimate D2E/DX2                !
 ! R4    R(1,19)                 1.1649         estimate D2E/DX2                !
 ! R5    R(2,3)                  1.5365         estimate D2E/DX2                !
 ! R6    R(2,8)                  1.4318         estimate D2E/DX2                !
 ! R7    R(2,9)                  1.5197         estimate D2E/DX2                !
 ! R8    R(3,4)                  1.7588         estimate D2E/DX2                !
 ! R9    R(3,11)                 1.5275         estimate D2E/DX2                !
 ! R10   R(4,5)                  1.3802         estimate D2E/DX2                !
 ! R11   R(4,16)                 1.8087         estimate D2E/DX2                !
 ! R12   R(5,6)                  1.4521         estimate D2E/DX2                !
 ! R13   R(5,10)                 1.4181         estimate D2E/DX2                !
 ! R14   R(6,7)                  1.338          estimate D2E/DX2                !
 ! R15   R(6,20)                 1.3733         estimate D2E/DX2                !
 ! R16   R(7,8)                  1.7219         estimate D2E/DX2                !
 ! R17   R(8,9)                  1.3722         estimate D2E/DX2                !
 ! R18   R(9,21)                 1.0692         estimate D2E/DX2                !
 ! R19   R(10,11)                1.5013         estimate D2E/DX2                !
 ! R20   R(10,12)                1.6124         estimate D2E/DX2                !
 ! R21   R(11,22)                1.1898         estimate D2E/DX2                !
 ! R22   R(12,13)                1.4316         estimate D2E/DX2                !
 ! R23   R(12,23)                1.0723         estimate D2E/DX2                !
 ! R24   R(13,14)                1.2995         estimate D2E/DX2                !
 ! R25   R(13,24)                1.3135         estimate D2E/DX2                !
 ! R26   R(14,15)                1.3707         estimate D2E/DX2                !
 ! R27   R(15,25)                1.1862         estimate D2E/DX2                !
 ! R28   R(16,26)                1.0431         estimate D2E/DX2                !
 ! R29   R(16,27)                1.0823         estimate D2E/DX2                !
 ! A1    A(2,1,17)             110.7151         estimate D2E/DX2                !
 ! A2    A(2,1,18)             114.9754         estimate D2E/DX2                !
 ! A3    A(2,1,19)             118.2367         estimate D2E/DX2                !
 ! A4    A(17,1,18)            111.2117         estimate D2E/DX2                !
 ! A5    A(17,1,19)            101.7612         estimate D2E/DX2                !
 ! A6    A(18,1,19)             98.7562         estimate D2E/DX2                !
 ! A7    A(1,2,8)              101.7568         estimate D2E/DX2                !
 ! A8    A(1,2,9)               91.931          estimate D2E/DX2                !
 ! A9    A(3,2,8)               87.0283         estimate D2E/DX2                !
 ! A10   A(3,2,9)               95.4476         estimate D2E/DX2                !
 ! A11   A(2,3,4)              130.2286         estimate D2E/DX2                !
 ! A12   A(2,3,11)             124.9946         estimate D2E/DX2                !
 ! A13   A(4,3,11)              88.6529         estimate D2E/DX2                !
 ! A14   A(3,4,5)               94.213          estimate D2E/DX2                !
 ! A15   A(3,4,16)             122.7868         estimate D2E/DX2                !
 ! A16   A(5,4,16)             111.2737         estimate D2E/DX2                !
 ! A17   A(4,5,6)              132.4447         estimate D2E/DX2                !
 ! A18   A(4,5,10)              87.3147         estimate D2E/DX2                !
 ! A19   A(6,5,10)              95.0772         estimate D2E/DX2                !
 ! A20   A(5,6,7)              111.6215         estimate D2E/DX2                !
 ! A21   A(5,6,20)             103.8739         estimate D2E/DX2                !
 ! A22   A(7,6,20)             140.6716         estimate D2E/DX2                !
 ! A23   A(6,7,8)              122.6379         estimate D2E/DX2                !
 ! A24   A(2,8,7)               82.0533         estimate D2E/DX2                !
 ! A25   A(7,8,9)              147.5914         estimate D2E/DX2                !
 ! A26   A(2,9,21)             145.6237         estimate D2E/DX2                !
 ! A27   A(8,9,21)             154.5402         estimate D2E/DX2                !
 ! A28   A(5,10,11)            105.6811         estimate D2E/DX2                !
 ! A29   A(5,10,12)             90.7774         estimate D2E/DX2                !
 ! A30   A(11,10,12)           160.4931         estimate D2E/DX2                !
 ! A31   A(3,11,10)            103.4868         estimate D2E/DX2                !
 ! A32   A(3,11,22)             73.8642         estimate D2E/DX2                !
 ! A33   A(10,11,22)           124.8675         estimate D2E/DX2                !
 ! A34   A(10,12,13)           139.7626         estimate D2E/DX2                !
 ! A35   A(10,12,23)           113.6361         estimate D2E/DX2                !
 ! A36   A(13,12,23)           106.4938         estimate D2E/DX2                !
 ! A37   A(12,13,14)            97.201          estimate D2E/DX2                !
 ! A38   A(12,13,24)           140.7618         estimate D2E/DX2                !
 ! A39   A(14,13,24)            96.4849         estimate D2E/DX2                !
 ! A40   A(13,14,15)            87.5042         estimate D2E/DX2                !
 ! A41   A(14,15,25)            75.4414         estimate D2E/DX2                !
 ! A42   A(4,16,26)             99.874          estimate D2E/DX2                !
 ! A43   A(4,16,27)             88.1987         estimate D2E/DX2                !
 ! A44   A(26,16,27)           112.0817         estimate D2E/DX2                !
 ! A45   L(1,2,3,9,-1)         187.3786         estimate D2E/DX2                !
 ! A46   L(1,2,3,9,-2)         185.5483         estimate D2E/DX2                !
 ! D1    D(17,1,2,8)           -89.9456         estimate D2E/DX2                !
 ! D2    D(17,1,2,9)          -144.8736         estimate D2E/DX2                !
 ! D3    D(18,1,2,8)           142.9785         estimate D2E/DX2                !
 ! D4    D(18,1,2,9)            88.0505         estimate D2E/DX2                !
 ! D5    D(19,1,2,8)            26.8264         estimate D2E/DX2                !
 ! D6    D(19,1,2,9)           -28.1016         estimate D2E/DX2                !
 ! D7    D(17,1,3,4)           -89.1229         estimate D2E/DX2                !
 ! D8    D(17,1,3,11)           34.954          estimate D2E/DX2                !
 ! D9    D(18,1,3,4)           146.7908         estimate D2E/DX2                !
 ! D10   D(18,1,3,11)          -89.1323         estimate D2E/DX2                !
 ! D11   D(19,1,3,4)            29.5075         estimate D2E/DX2                !
 ! D12   D(19,1,3,11)          153.5844         estimate D2E/DX2                !
 ! D13   D(8,2,3,4)              1.1275         estimate D2E/DX2                !
 ! D14   D(8,2,3,11)           124.8115         estimate D2E/DX2                !
 ! D15   D(9,2,3,4)             55.8596         estimate D2E/DX2                !
 ! D16   D(9,2,3,11)           179.5437         estimate D2E/DX2                !
 ! D17   D(1,2,8,7)             93.8615         estimate D2E/DX2                !
 ! D18   D(3,2,8,7)            -83.2873         estimate D2E/DX2                !
 ! D19   D(1,2,9,21)           -85.6778         estimate D2E/DX2                !
 ! D20   D(3,2,9,21)            88.7739         estimate D2E/DX2                !
 ! D21   D(2,3,4,5)             77.5938         estimate D2E/DX2                !
 ! D22   D(2,3,4,16)          -163.708          estimate D2E/DX2                !
 ! D23   D(11,3,4,5)           -59.4173         estimate D2E/DX2                !
 ! D24   D(11,3,4,16)           59.2809         estimate D2E/DX2                !
 ! D25   D(2,3,11,10)         -121.8281         estimate D2E/DX2                !
 ! D26   D(2,3,11,22)            1.0337         estimate D2E/DX2                !
 ! D27   D(4,3,11,10)           18.7172         estimate D2E/DX2                !
 ! D28   D(4,3,11,22)          141.579          estimate D2E/DX2                !
 ! D29   D(3,4,5,6)            -22.0969         estimate D2E/DX2                !
 ! D30   D(3,4,5,10)            72.3288         estimate D2E/DX2                !
 ! D31   D(16,4,5,6)          -149.7854         estimate D2E/DX2                !
 ! D32   D(16,4,5,10)          -55.3597         estimate D2E/DX2                !
 ! D33   D(3,4,16,26)           25.2423         estimate D2E/DX2                !
 ! D34   D(3,4,16,27)          137.3467         estimate D2E/DX2                !
 ! D35   D(5,4,16,26)          135.3979         estimate D2E/DX2                !
 ! D36   D(5,4,16,27)         -112.4977         estimate D2E/DX2                !
 ! D37   D(4,5,6,7)            -27.9178         estimate D2E/DX2                !
 ! D38   D(4,5,6,20)           134.8234         estimate D2E/DX2                !
 ! D39   D(10,5,6,7)          -118.9215         estimate D2E/DX2                !
 ! D40   D(10,5,6,20)           43.8197         estimate D2E/DX2                !
 ! D41   D(4,5,10,11)          -63.4003         estimate D2E/DX2                !
 ! D42   D(4,5,10,12)          106.001          estimate D2E/DX2                !
 ! D43   D(6,5,10,11)           68.9851         estimate D2E/DX2                !
 ! D44   D(6,5,10,12)         -121.6135         estimate D2E/DX2                !
 ! D45   D(5,6,7,8)              0.0635         estimate D2E/DX2                !
 ! D46   D(20,6,7,8)          -152.9051         estimate D2E/DX2                !
 ! D47   D(6,7,8,2)            102.6458         estimate D2E/DX2                !
 ! D48   D(6,7,8,9)            106.0515         estimate D2E/DX2                !
 ! D49   D(7,8,9,21)          -172.3011         estimate D2E/DX2                !
 ! D50   D(5,10,11,3)           22.882          estimate D2E/DX2                !
 ! D51   D(5,10,11,22)         -56.6772         estimate D2E/DX2                !
 ! D52   D(12,10,11,3)        -123.6987         estimate D2E/DX2                !
 ! D53   D(12,10,11,22)        156.7422         estimate D2E/DX2                !
 ! D54   D(5,10,12,13)         -62.0263         estimate D2E/DX2                !
 ! D55   D(5,10,12,23)         113.5055         estimate D2E/DX2                !
 ! D56   D(11,10,12,13)         85.9472         estimate D2E/DX2                !
 ! D57   D(11,10,12,23)        -98.521          estimate D2E/DX2                !
 ! D58   D(10,12,13,14)       -121.6726         estimate D2E/DX2                !
 ! D59   D(10,12,13,24)        -12.1196         estimate D2E/DX2                !
 ! D60   D(23,12,13,14)         62.5961         estimate D2E/DX2                !
 ! D61   D(23,12,13,24)        172.149          estimate D2E/DX2                !
 ! D62   D(12,13,14,15)         85.291          estimate D2E/DX2                !
 ! D63   D(24,13,14,15)        -57.8458         estimate D2E/DX2                !
 ! D64   D(13,14,15,25)        120.6497         estimate D2E/DX2                !
 --------------------------------------------------------------------------------
 Trust Radius=3.00D-01 FncErr=1.00D-07 GrdErr=1.00D-06 EigMax=2.50D+02 EigMin=1.00D-04
 Number of steps in this run=    149 maximum allowed number of steps=    162.
 GradGradGradGradGradGradGradGradGradGradGradGradGradGradGradGradGradGrad

                          Input orientation:                          
 ---------------------------------------------------------------------
 Center     Atomic      Atomic             Coordinates (Angstroms)
 Number     Number       Type             X           Y           Z
 ---------------------------------------------------------------------
      1          6           0        0.945730   -0.159440    0.208640
      2          6           0        2.697980   -0.452240    0.469730
      3          6           0        4.140260   -0.942270    0.670920
      4          6           0        5.529740   -0.125310    1.374620
      5          6           0        5.112090   -0.317650    2.676010
      6          6           0        3.807360   -0.576830    3.258350
      7          7           0        2.823200   -0.063850    2.511020
      8          6           0        3.118740    0.789580    1.044940
      9          7           0        3.075970    0.785710   -0.326590
     10          6           0        5.450170   -1.685050    2.511950
     11          6           0        4.538530   -2.202310    1.437120
     12          6           0        6.761340   -1.493800    3.430760
     13          6           0        7.988960   -0.757370    3.443510
     14          7           0        8.790920   -1.778490    3.497240
     15          6           0        8.704570   -1.842250    2.130770
     16          6           0        7.227880   -0.701490    1.138440
     17          1           0        0.371050   -0.458910    1.082690
     18          1           0        0.529330   -0.605440   -0.717480
     19          1           0        0.587470    0.938070    0.053540
     20          1           0        4.042430   -1.589790    4.155300
     21          1           0        3.271300    1.183470   -1.299670
     22          1           0        3.350200   -2.155560    1.472480
     23          1           0        6.717370   -2.028400    4.359240
     24          1           0        8.740800   -0.019380    2.659030
     25          1           0        9.859690   -1.684230    2.349500
     26          1           0        7.119270   -1.213170    0.236030
     27          1           0        7.520690    0.329620    0.988810
 ---------------------------------------------------------------------
                    Distance matrix (angstroms):
                    1          2          3          4          5
     1  C    0.000000
     2  C    1.795628   0.000000
     3  C    3.321377   1.536482   0.000000
     4  C    4.730097   2.990748   1.758770   0.000000
     5  C    4.844739   3.273181   2.314085   1.380233   0.000000
     6  C    4.202841   3.003772   2.634229   2.592084   1.452107
     7  N    2.972370   2.081680   2.427393   2.936076   2.308821
     8  C    2.514361   1.431790   2.045165   2.599737   2.803532
     9  N    2.391172   1.519711   2.261339   3.121708   3.791938
    10  C    5.284194   3.642119   2.378440   1.932004   1.418096
    11  C    4.311693   2.717759   1.527541   2.302245   2.327179
    12  C    6.781142   5.134534   3.845902   2.759948   2.161713
    13  C    7.773609   6.077083   4.746992   3.275297   3.009783
    14  N    8.659285   6.931715   5.505996   4.227743   4.042556
    15  C    8.168600   6.385163   4.875864   3.687708   3.940508
    16  C    6.373677   4.585771   3.132084   1.808713   2.643487
    17  H    1.088073   2.406318   3.822321   5.177702   5.003607
    18  H    1.109055   2.477091   3.883288   5.441646   5.709666
    19  H    1.164875   2.561333   4.066836   5.225138   5.378324
    20  H    5.216472   4.084727   3.545385   3.476920   2.225042
    21  H    3.080046   2.476897   3.026068   3.737015   4.631188
    22  H    3.370944   2.081393   1.654922   2.980249   2.816142
    23  H    7.350668   5.811030   4.628702   3.733654   2.887361
    24  H    8.172340   6.441745   5.096006   3.460034   3.640987
    25  H    9.293382   7.506093   6.006664   4.704157   4.951147
    26  H    6.262882   4.492375   3.022750   2.237506   3.283935
    27  H    6.639122   4.913174   3.625750   2.078387   3.011139
                    6          7          8          9         10
     6  C    0.000000
     7  N    1.337992   0.000000
     8  C    2.690810   1.721940   0.000000
     9  N    3.904259   2.972823   1.372202   0.000000
    10  C    2.117567   3.086950   3.702901   4.449583   0.000000
    11  C    2.548269   2.944254   3.334819   3.765371   1.501301
    12  C    3.097831   4.289478   4.916757   5.735486   1.612438
    13  C    4.189589   5.294864   5.644930   6.382180   2.858994
    14  N    5.131951   6.286995   6.691964   7.338764   3.484270
    15  C    5.182219   6.156120   6.269534   6.680264   3.280416
    16  C    4.026104   4.657442   4.372306   4.647196   2.452381
    17  H    4.068861   2.865177   3.018270   3.294198   5.416979
    18  H    5.153011   3.997296   3.428885   2.928049   5.984099
    19  H    4.788885   3.470092   2.722545   2.521972   6.047346
    20  H    1.373268   2.553169   4.023549   5.163757   2.165965
    21  H    4.915441   4.034595   2.382356   1.069229   5.244457
    22  H    2.427080   2.394065   2.984998   3.458746   2.389927
    23  H    3.433245   4.737081   5.645860   6.567801   2.266311
    24  H    5.000876   5.919618   5.904851   6.453867   3.691116
    25  H    6.219569   7.222459   7.298083   7.699410   4.412511
    26  H    4.528586   4.995271   4.546381   4.545364   2.861534
    27  H    4.445366   4.953620   4.426271   4.657664   3.265870
                   11         12         13         14         15
    11  C    0.000000
    12  C    3.068790   0.000000
    13  C    4.244870   1.431622   0.000000
    14  N    4.744106   2.050527   1.299505   0.000000
    15  C    4.238712   2.363797   1.847254   1.370679   0.000000
    16  C    3.094232   2.469847   2.428109   3.027699   2.113449
    17  H    4.531330   6.886235   7.980921   8.858078   8.512324
    18  H    4.823482   7.538901   8.543009   9.348464   8.745100
    19  H    5.233274   7.445554   8.315556   9.302438   8.827932
    20  H    2.830159   2.815430   4.095689   4.797584   5.089008
    21  H    4.534247   6.459499   6.965697   7.889852   7.102346
    22  H    1.189775   3.988567   5.230486   5.817497   5.403775
    23  H    3.649161   1.072290   2.017677   2.259449   2.991604
    24  H    4.890534   2.586067   1.313507   1.949250   1.898217
    25  H    5.423614   3.287120   2.357023   1.571134   1.186219
    26  H    3.013509   3.226944   3.354406   3.708031   2.549305
    27  H    3.937630   3.140795   2.725138   3.514233   2.724457
                   16         17         18         19         20
    16  C    0.000000
    17  H    6.861346   0.000000
    18  H    6.951564   1.813046   0.000000
    19  H    6.925331   1.748582   1.726347   0.000000
    20  H    4.476339   4.919233   6.087266   5.928850   0.000000
    21  H    5.015175   4.096889   3.325289   3.015683   6.167845
    22  H    4.154793   3.450492   3.893084   4.383676   2.827862
    23  H    3.520634   7.312650   8.129560   8.056964   2.718322
    24  H    2.250865   8.528232   8.897894   8.612902   5.174910
    25  H    3.059227   9.650933   9.880575   9.905653   6.091826
    26  H    1.043051   6.842822   6.686242   6.879357   4.996946
    27  H    1.082273   7.193604   7.257057   7.022427   5.080264
                   21         22         23         24         25
    21  H    0.000000
    22  H    4.340526   0.000000
    23  H    7.363068   4.437047   0.000000
    24  H    6.858104   5.918592   3.319811   0.000000
    25  H    8.058972   6.585194   3.745889   2.029643   0.000000
    26  H    4.786348   4.077106   4.222201   3.150464   3.492643
    27  H    4.901379   4.878836   4.191107   2.097643   3.373128
                   26         27
    26  H    0.000000
    27  H    1.762957   0.000000
 Stoichiometry    C13H11N3
 Framework group  C1[X(C13H11N3)]
 Deg. of freedom    75
 Full point group                 C1      NOp   1
 Largest Abelian subgroup         C1      NOp   1
 Largest concise Abelian subgroup C1      NOp   1
                         Standard orientation:                         
 ---------------------------------------------------------------------
 Center     Atomic      Atomic             Coordinates (Angstroms)
 Number     Number       Type             X           Y           Z
 ---------------------------------------------------------------------
      1          6           0       -4.375655    0.114495    0.428513
      2          6           0       -2.627196   -0.294362    0.431634
      3          6           0       -1.137288   -0.581623    0.673366
      4          6           0        0.191500   -0.727090   -0.469626
      5          6           0        0.318367    0.635207   -0.651542
      6          6           0       -0.600643    1.740892   -0.447838
      7          7           0       -1.874200    1.355945   -0.589578
      8          6           0       -2.318138   -0.264622   -0.966086
      9          7           0       -2.843961   -1.453558   -0.526906
     10          6           0        0.872266    0.690479    0.652735
     11          6           0       -0.221842    0.241616    1.577589
     12          6           0        2.346275    0.920247    0.040805
     13          6           0        3.300382    0.252091   -0.791535
     14          7           0        4.275375    0.225597    0.067185
     15          6           0        3.725182   -0.926456    0.566008
     16          6           0        1.777268   -1.481898   -0.037135
     17          1           0       -4.519374    1.190729    0.498997
     18          1           0       -4.983348   -0.421917    1.185463
     19          1           0       -5.001109   -0.147040   -0.518767
     20          1           0        0.158016    2.684559    0.200078
     21          1           0       -3.101687   -2.487289   -0.617627
     22          1           0       -1.298125    0.743267    1.651919
     23          1           0        2.756064    1.887028    0.258092
     24          1           0        3.538781   -0.925184   -1.323034
     25          1           0        4.815969   -1.241421    0.222358
     26          1           0        1.472002   -2.106116    0.740760
     27          1           0        1.759442   -1.986367   -0.994479
 ---------------------------------------------------------------------
 Rotational constants (GHZ):           1.7508029           0.3476486           0.3253902
 Standard basis: 6-31G(2df,p) (6D, 7F)
 There are   551 symmetry adapted cartesian basis functions of A   symmetry.
 There are   503 symmetry adapted basis functions of A   symmetry.
   503 basis functions,   781 primitive gaussians,   551 cartesian basis functions
    55 alpha electrons       55 beta electrons
       nuclear repulsion energy      1021.8237362855 Hartrees.
 NAtoms=   27 NActive=   27 NUniq=   27 SFac= 1.00D+00 NAtFMM=   60 NAOKFM=F Big=F
 Integral buffers will be    131072 words long.
 Raffenetti 2 integral format.
 Two-electron integral symmetry is turned on.
 One-electron integrals computed using PRISM.
 PrsmSu:  requested number of processors reduced to:  12 ShMem   1 Linda.
 NBasis=   503 RedAO= T EigKep=  2.82D-04  NBF=   503
 NBsUse=   503 1.00D-06 EigRej= -1.00D+00 NBFU=   503
 ExpMin= 1.61D-01 ExpMax= 4.17D+03 ExpMxC= 6.27D+02 IAcc=3 IRadAn=         5 AccDes= 0.00D+00
 Harris functional with IExCor=  402 and IRadAn=       5 diagonalized for initial guess.
 HarFok:  IExCor=  402 AccDes= 0.00D+00 IRadAn=         5 IDoV= 1 UseB2=F ITyADJ=14
 ICtDFT=  3500011 ScaDFX=  1.000000  1.000000  1.000000  1.000000
 FoFCou: FMM=F IPFlag=           0 FMFlag=      100000 FMFlg1=           0
         NFxFlg=           0 DoJE=T BraDBF=F KetDBF=T FulRan=T
         wScrn=  0.000000 ICntrl=       500 IOpCl=  0 I1Cent=   200000004 NGrid=           0
         NMat0=    1 NMatS0=      1 NMatT0=    0 NMatD0=    1 NMtDS0=    0 NMtDT0=    0
 Petite list used in FoFCou.
 Requested convergence on RMS density matrix=1.00D-08 within 128 cycles.
 Requested convergence on MAX density matrix=1.00D-06.
 Requested convergence on             energy=1.00D-06.
 No special actions if energy rises.
 Integral accuracy reduced to 1.0D-05 until final iterations.
 EnCoef did     4 forward-backward iterations
 EnCoef did     3 forward-backward iterations
 EnCoef did     3 forward-backward iterations
 EnCoef did     4 forward-backward iterations
 Initial convergence to 1.0D-05 achieved.  Increase integral accuracy.
 SCF Done:  E(RB3LYP) =  -664.916787824     A.U. after   25 cycles
            NFock= 25  Conv=0.94D-08     -V/T= 2.0084

 **********************************************************************

            Population analysis using the SCF density.

 **********************************************************************

 Orbital symmetries:
       Occupied  (A) (A) (A) (A) (A) (A) (A) (A) (A) (A) (A) (A)
                 (A) (A) (A) (A) (A) (A) (A) (A) (A) (A) (A) (A)
                 (A) (A) (A) (A) (A) (A) (A) (A) (A) (A) (A) (A)
                 (A) (A) (A) (A) (A) (A) (A) (A) (A) (A) (A) (A)
                 (A) (A) (A) (A) (A) (A) (A)
       Virtual   (A) (A) (A) (A) (A) (A) (A) (A) (A) (A) (A) (A)
                 (A) (A) (A) (A) (A) (A) (A) (A) (A) (A) (A) (A)
                 (A) (A) (A) (A) (A) (A) (A) (A) (A) (A) (A) (A)
                 (A) (A) (A) (A) (A) (A) (A) (A) (A) (A) (A) (A)
                 (A) (A) (A) (A) (A) (A) (A) (A) (A) (A) (A) (A)
                 (A) (A) (A) (A) (A) (A) (A) (A) (A) (A) (A) (A)
                 (A) (A) (A) (A) (A) (A) (A) (A) (A) (A) (A) (A)
                 (A) (A) (A) (A) (A) (A) (A) (A) (A) (A) (A) (A)
                 (A) (A) (A) (A) (A) (A) (A) (A) (A) (A) (A) (A)
                 (A) (A) (A) (A) (A) (A) (A) (A) (A) (A) (A) (A)
                 (A) (A) (A) (A) (A) (A) (A) (A) (A) (A) (A) (A)
                 (A) (A) (A) (A) (A) (A) (A) (A) (A) (A) (A) (A)
                 (A) (A) (A) (A) (A) (A) (A) (A) (A) (A) (A) (A)
                 (A) (A) (A) (A) (A) (A) (A) (A) (A) (A) (A) (A)
                 (A) (A) (A) (A) (A) (A) (A) (A) (A) (A) (A) (A)
                 (A) (A) (A) (A) (A) (A) (A) (A) (A) (A) (A) (A)
                 (A) (A) (A) (A) (A) (A) (A) (A) (A) (A) (A) (A)
                 (A) (A) (A) (A) (A) (A) (A) (A) (A) (A) (A) (A)
                 (A) (A) (A) (A) (A) (A) (A) (A) (A) (A) (A) (A)
                 (A) (A) (A) (A) (A) (A) (A) (A) (A) (A) (A) (A)
                 (A) (A) (A) (A) (A) (A) (A) (A) (A) (A) (A) (A)
                 (A) (A) (A) (A) (A) (A) (A) (A) (A) (A) (A) (A)
                 (A) (A) (A) (A) (A) (A) (A) (A) (A) (A) (A) (A)
                 (A) (A) (A) (A) (A) (A) (A) (A) (A) (A) (A) (A)
                 (A) (A) (A) (A) (A) (A) (A) (A) (A) (A) (A) (A)
                 (A) (A) (A) (A) (A) (A) (A) (A) (A) (A) (A) (A)
                 (A) (A) (A) (A) (A) (A) (A) (A) (A) (A) (A) (A)
                 (A) (A) (A) (A) (A) (A) (A) (A) (A) (A) (A) (A)
                 (A) (A) (A) (A) (A) (A) (A) (A) (A) (A) (A) (A)
                 (A) (A) (A) (A) (A) (A) (A) (A) (A) (A) (A) (A)
                 (A) (A) (A) (A) (A) (A) (A) (A) (A) (A) (A) (A)
                 (A) (A) (A) (A) (A) (A) (A) (A) (A) (A) (A) (A)
                 (A) (A) (A) (A) (A) (A) (A) (A) (A) (A) (A) (A)
                 (A) (A) (A) (A) (A) (A) (A) (A) (A) (A) (A) (A)
                 (A) (A) (A) (A) (A) (A) (A) (A) (A) (A) (A) (A)
                 (A) (A) (A) (A) (A) (A) (A) (A) (A) (A) (A) (A)
                 (A) (A) (A) (A) (A) (A) (A) (A) (A) (A) (A) (A)
                 (A) (A) (A) (A)
 The electronic state is 1-A.
 Alpha  occ. eigenvalues --  -14.39328 -14.37601 -14.36136 -10.29518 -10.29160
 Alpha  occ. eigenvalues --  -10.26334 -10.25726 -10.25538 -10.25515 -10.25000
 Alpha  occ. eigenvalues --  -10.24723 -10.24659 -10.23758 -10.22926 -10.21395
 Alpha  occ. eigenvalues --  -10.20129  -1.02989  -1.01661  -0.94420  -0.87090
 Alpha  occ. eigenvalues --   -0.77579  -0.74086  -0.72056  -0.71380  -0.69082
 Alpha  occ. eigenvalues --   -0.65580  -0.62467  -0.61182  -0.56178  -0.54606
 Alpha  occ. eigenvalues --   -0.53978  -0.51545  -0.49176  -0.47216  -0.45124
 Alpha  occ. eigenvalues --   -0.44497  -0.43232  -0.42655  -0.41506  -0.41185
 Alpha  occ. eigenvalues --   -0.40353  -0.38013  -0.36799  -0.34956  -0.33637
 Alpha  occ. eigenvalues --   -0.33155  -0.31084  -0.29951  -0.28741  -0.27194
 Alpha  occ. eigenvalues --   -0.25500  -0.22521  -0.22180  -0.18645  -0.16458
 Alpha virt. eigenvalues --   -0.11392  -0.09591  -0.08843  -0.05832  -0.03512
 Alpha virt. eigenvalues --   -0.02220  -0.00736   0.00782   0.01867   0.03963
 Alpha virt. eigenvalues --    0.04725   0.06632   0.08503   0.09392   0.11546
 Alpha virt. eigenvalues --    0.11972   0.12410   0.12932   0.13922   0.15125
 Alpha virt. eigenvalues --    0.16142   0.16807   0.18453   0.19800   0.20941
 Alpha virt. eigenvalues --    0.22858   0.25204   0.26212   0.28273   0.29020
 Alpha virt. eigenvalues --    0.29648   0.32724   0.34037   0.35689   0.35871
 Alpha virt. eigenvalues --    0.37495   0.38718   0.41038   0.41750   0.43803
 Alpha virt. eigenvalues --    0.44782   0.46223   0.46927   0.47180   0.47996
 Alpha virt. eigenvalues --    0.48542   0.49027   0.50377   0.50622   0.52063
 Alpha virt. eigenvalues --    0.52525   0.53166   0.53607   0.55073   0.56205
 Alpha virt. eigenvalues --    0.56700   0.58019   0.60122   0.60655   0.60959
 Alpha virt. eigenvalues --    0.61895   0.62013   0.63008   0.64180   0.65049
 Alpha virt. eigenvalues --    0.65705   0.66608   0.66983   0.67148   0.68477
 Alpha virt. eigenvalues --    0.69805   0.70261   0.70966   0.71141   0.71757
 Alpha virt. eigenvalues --    0.72646   0.73364   0.73635   0.74322   0.75016
 Alpha virt. eigenvalues --    0.75610   0.76069   0.76720   0.77196   0.77459
 Alpha virt. eigenvalues --    0.78769   0.80182   0.80689   0.81596   0.82272
 Alpha virt. eigenvalues --    0.84259   0.84982   0.86279   0.86740   0.88051
 Alpha virt. eigenvalues --    0.88804   0.89677   0.90154   0.90729   0.91463
 Alpha virt. eigenvalues --    0.92288   0.94900   0.95931   0.98681   0.99883
 Alpha virt. eigenvalues --    1.00950   1.02554   1.04075   1.04743   1.06163
 Alpha virt. eigenvalues --    1.06655   1.08061   1.09668   1.11550   1.14707
 Alpha virt. eigenvalues --    1.15768   1.16768   1.18823   1.19874   1.22094
 Alpha virt. eigenvalues --    1.22864   1.23862   1.25220   1.26278   1.27394
 Alpha virt. eigenvalues --    1.28811   1.28885   1.32160   1.32837   1.33745
 Alpha virt. eigenvalues --    1.35684   1.36622   1.38241   1.39961   1.40166
 Alpha virt. eigenvalues --    1.41945   1.43067   1.45336   1.45901   1.47498
 Alpha virt. eigenvalues --    1.48543   1.48811   1.49270   1.51145   1.51751
 Alpha virt. eigenvalues --    1.53116   1.53575   1.54137   1.54546   1.55791
 Alpha virt. eigenvalues --    1.57216   1.58502   1.58935   1.60551   1.61649
 Alpha virt. eigenvalues --    1.63203   1.63516   1.64206   1.65428   1.66712
 Alpha virt. eigenvalues --    1.67785   1.69314   1.70257   1.72390   1.72869
 Alpha virt. eigenvalues --    1.73254   1.75238   1.77059   1.78045   1.80080
 Alpha virt. eigenvalues --    1.81432   1.82001   1.82685   1.85518   1.86692
 Alpha virt. eigenvalues --    1.88901   1.91600   1.93000   1.94219   1.96350
 Alpha virt. eigenvalues --    1.97297   1.98201   1.99589   2.02127   2.02936
 Alpha virt. eigenvalues --    2.06117   2.06746   2.09037   2.10810   2.13854
 Alpha virt. eigenvalues --    2.17274   2.18818   2.19969   2.21586   2.24344
 Alpha virt. eigenvalues --    2.27171   2.27596   2.28308   2.32460   2.34145
 Alpha virt. eigenvalues --    2.37435   2.38312   2.39582   2.40426   2.41952
 Alpha virt. eigenvalues --    2.43549   2.45892   2.48760   2.51825   2.53993
 Alpha virt. eigenvalues --    2.56019   2.56738   2.57638   2.58986   2.61146
 Alpha virt. eigenvalues --    2.62893   2.65314   2.67545   2.68758   2.70778
 Alpha virt. eigenvalues --    2.73527   2.74442   2.75779   2.76040   2.78296
 Alpha virt. eigenvalues --    2.79358   2.81470   2.81979   2.83365   2.83697
 Alpha virt. eigenvalues --    2.85503   2.87556   2.87789   2.89118   2.90150
 Alpha virt. eigenvalues --    2.90623   2.92119   2.92582   2.94572   2.96120
 Alpha virt. eigenvalues --    2.96821   2.97880   3.00166   3.01617   3.01980
 Alpha virt. eigenvalues --    3.04570   3.06276   3.06878   3.08926   3.09875
 Alpha virt. eigenvalues --    3.11627   3.12712   3.13237   3.15268   3.16085
 Alpha virt. eigenvalues --    3.17240   3.18006   3.18767   3.21890   3.22310
 Alpha virt. eigenvalues --    3.23220   3.23879   3.25075   3.26054   3.26888
 Alpha virt. eigenvalues --    3.28894   3.29360   3.30184   3.32298   3.33453
 Alpha virt. eigenvalues --    3.33905   3.35600   3.38845   3.40459   3.40982
 Alpha virt. eigenvalues --    3.42020   3.44368   3.46455   3.47556   3.49805
 Alpha virt. eigenvalues --    3.51527   3.51725   3.52486   3.53109   3.54842
 Alpha virt. eigenvalues --    3.57512   3.57984   3.59777   3.62615   3.63264
 Alpha virt. eigenvalues --    3.64259   3.67255   3.68749   3.71400   3.73608
 Alpha virt. eigenvalues --    3.74762   3.77331   3.78927   3.80187   3.82195
 Alpha virt. eigenvalues --    3.83229   3.83560   3.85366   3.85660   3.87689
 Alpha virt. eigenvalues --    3.89579   3.90748   3.93029   3.93974   3.95910
 Alpha virt. eigenvalues --    3.97090   3.98293   3.99723   4.00205   4.01824
 Alpha virt. eigenvalues --    4.02492   4.03868   4.05610   4.09425   4.12735
 Alpha virt. eigenvalues --    4.13083   4.14439   4.17816   4.19031   4.20159
 Alpha virt. eigenvalues --    4.21404   4.23287   4.23973   4.26431   4.27386
 Alpha virt. eigenvalues --    4.27835   4.28368   4.30768   4.31523   4.33710
 Alpha virt. eigenvalues --    4.33892   4.35216   4.36013   4.37993   4.40567
 Alpha virt. eigenvalues --    4.42079   4.42348   4.42984   4.44018   4.45943
 Alpha virt. eigenvalues --    4.47521   4.48022   4.48824   4.49302   4.50342
 Alpha virt. eigenvalues --    4.51711   4.54022   4.55738   4.56782   4.58159
 Alpha virt. eigenvalues --    4.59687   4.60137   4.60783   4.61724   4.62477
 Alpha virt. eigenvalues --    4.63617   4.63848   4.65240   4.67195   4.68082
 Alpha virt. eigenvalues --    4.69640   4.70414   4.72399   4.72954   4.73274
 Alpha virt. eigenvalues --    4.74752   4.77165   4.77693   4.79346   4.80086
 Alpha virt. eigenvalues --    4.81642   4.83580   4.83796   4.83924   4.87192
 Alpha virt. eigenvalues --    4.88019   4.88735   4.90604   4.91141   4.93368
 Alpha virt. eigenvalues --    4.94883   4.96059   4.97487   4.99438   5.02112
 Alpha virt. eigenvalues --    5.02548   5.04115   5.04370   5.07625   5.07953
 Alpha virt. eigenvalues --    5.09720   5.11111   5.14504   5.18254   5.18900
 Alpha virt. eigenvalues --    5.19609   5.21887   5.22419   5.25790   5.27170
 Alpha virt. eigenvalues --    5.29032   5.31127   5.32202   5.33983   5.37027
 Alpha virt. eigenvalues --    5.39728   5.42089   5.43994   5.45718   5.49471
 Alpha virt. eigenvalues --    5.50701   5.55609   5.58419   5.59065   5.67259
 Alpha virt. eigenvalues --    5.69075   5.75601   5.83085   5.86189   5.95340
 Alpha virt. eigenvalues --    6.13321   6.56822   6.70267   6.92995  10.12726
 Alpha virt. eigenvalues --   10.34709  10.97238  11.11137  11.26429  11.30534
 Alpha virt. eigenvalues --   11.34217  11.40602  11.51535  11.53383  11.73435
 Alpha virt. eigenvalues --   11.97484  12.06666  12.26879  12.80455  12.97418
 Alpha virt. eigenvalues --   14.44667  15.08541  16.72802
          Condensed to atoms (all electrons):
               1          2          3          4          5          6
     1  C    5.101960   0.365155  -0.018267   0.000481  -0.000018   0.000274
     2  C    0.365155   4.914874   0.427248  -0.021820  -0.007858  -0.013994
     3  C   -0.018267   0.427248   5.149408   0.295769  -0.079158  -0.044345
     4  C    0.000481  -0.021820   0.295769   5.301898   0.534420  -0.023899
     5  C   -0.000018  -0.007858  -0.079158   0.534420   4.956114   0.446884
     6  C    0.000274  -0.013994  -0.044345  -0.023899   0.446884   5.028796
     7  N   -0.015643  -0.046747  -0.032578  -0.020297  -0.045101   0.560073
     8  C   -0.032539   0.246463  -0.013372  -0.002888  -0.019842  -0.050602
     9  N   -0.072484   0.123924  -0.076076  -0.005017   0.002702   0.002046
    10  C    0.000061   0.004995  -0.037466  -0.042351   0.237761  -0.044957
    11  C    0.000038  -0.038570   0.487055  -0.104733  -0.169611  -0.028100
    12  C    0.000000  -0.000069   0.003628  -0.014833   0.010237  -0.015847
    13  C    0.000000   0.000002   0.000054  -0.005167  -0.002594   0.000365
    14  N   -0.000000   0.000000   0.000002   0.000069   0.001120  -0.000029
    15  C    0.000000  -0.000000   0.000153   0.001647   0.000276   0.000029
    16  C   -0.000001   0.000375  -0.019880   0.270657  -0.053450   0.004979
    17  H    0.354259  -0.021991   0.001071   0.000010  -0.000007  -0.000187
    18  H    0.364237  -0.015985   0.000353  -0.000004   0.000003  -0.000011
    19  H    0.368416  -0.011213   0.000481   0.000002   0.000001   0.000012
    20  H   -0.000005  -0.000726  -0.000486   0.006294  -0.056968   0.306471
    21  H    0.002303  -0.014896   0.001897   0.000674   0.000115  -0.000025
    22  H    0.001059  -0.005276  -0.069648   0.017165   0.015314  -0.011651
    23  H   -0.000000   0.000002  -0.000083   0.002300   0.001040  -0.000032
    24  H   -0.000000   0.000001  -0.000005   0.000195   0.003054  -0.000037
    25  H   -0.000000   0.000000  -0.000001  -0.000002   0.000027   0.000000
    26  H   -0.000000   0.000101   0.003081  -0.028125   0.004914  -0.000074
    27  H    0.000000  -0.000052   0.000632  -0.039847  -0.000196  -0.000232
               7          8          9         10         11         12
     1  C   -0.015643  -0.032539  -0.072484   0.000061   0.000038   0.000000
     2  C   -0.046747   0.246463   0.123924   0.004995  -0.038570  -0.000069
     3  C   -0.032578  -0.013372  -0.076076  -0.037466   0.487055   0.003628
     4  C   -0.020297  -0.002888  -0.005017  -0.042351  -0.104733  -0.014833
     5  C   -0.045101  -0.019842   0.002702   0.237761  -0.169611   0.010237
     6  C    0.560073  -0.050602   0.002046  -0.044957  -0.028100  -0.015847
     7  N    6.666280   0.193298  -0.000471  -0.002224  -0.018802   0.000736
     8  C    0.193298   5.301066   0.369869   0.004542   0.000404   0.000083
     9  N   -0.000471   0.369869   6.605838  -0.000524   0.004362  -0.000002
    10  C   -0.002224   0.004542  -0.000524   5.013006   0.467376   0.411666
    11  C   -0.018802   0.000404   0.004362   0.467376   5.467410  -0.021638
    12  C    0.000736   0.000083  -0.000002   0.411666  -0.021638   4.965344
    13  C   -0.000006  -0.000008  -0.000000  -0.010369  -0.000124   0.521280
    14  N    0.000000   0.000000  -0.000000   0.001066   0.000054  -0.007832
    15  C    0.000000  -0.000001  -0.000000  -0.004693   0.000182  -0.107378
    16  C    0.000201  -0.000852   0.000195  -0.015974  -0.000357  -0.014570
    17  H    0.007166  -0.002175   0.005917  -0.000012  -0.000123  -0.000000
    18  H    0.000271   0.002641   0.000695   0.000000  -0.000004  -0.000000
    19  H    0.001084  -0.003313  -0.000156  -0.000001  -0.000015  -0.000000
    20  H   -0.020880   0.001098   0.000005   0.004796  -0.007733   0.005871
    21  H   -0.000517  -0.026979   0.291139   0.000017  -0.000032  -0.000000
    22  H    0.005698  -0.002339   0.000984  -0.034949   0.281611   0.000292
    23  H    0.000027   0.000003  -0.000000  -0.047185   0.001142   0.355833
    24  H   -0.000001   0.000006  -0.000000   0.000670   0.000001  -0.011320
    25  H   -0.000000   0.000000   0.000000   0.000219  -0.000002   0.012280
    26  H    0.000003   0.000034  -0.000015  -0.002578   0.001874   0.001685
    27  H   -0.000004   0.000168  -0.000025   0.003257  -0.000156  -0.001076
              13         14         15         16         17         18
     1  C    0.000000  -0.000000   0.000000  -0.000001   0.354259   0.364237
     2  C    0.000002   0.000000  -0.000000   0.000375  -0.021991  -0.015985
     3  C    0.000054   0.000002   0.000153  -0.019880   0.001071   0.000353
     4  C   -0.005167   0.000069   0.001647   0.270657   0.000010  -0.000004
     5  C   -0.002594   0.001120   0.000276  -0.053450  -0.000007   0.000003
     6  C    0.000365  -0.000029   0.000029   0.004979  -0.000187  -0.000011
     7  N   -0.000006   0.000000   0.000000   0.000201   0.007166   0.000271
     8  C   -0.000008   0.000000  -0.000001  -0.000852  -0.002175   0.002641
     9  N   -0.000000  -0.000000  -0.000000   0.000195   0.005917   0.000695
    10  C   -0.010369   0.001066  -0.004693  -0.015974  -0.000012   0.000000
    11  C   -0.000124   0.000054   0.000182  -0.000357  -0.000123  -0.000004
    12  C    0.521280  -0.007832  -0.107378  -0.014570  -0.000000  -0.000000
    13  C    5.185674   0.328498  -0.113278  -0.018708  -0.000000   0.000000
    14  N    0.328498   6.496439   0.429980  -0.019904   0.000000  -0.000000
    15  C   -0.113278   0.429980   5.560111   0.215857  -0.000000  -0.000000
    16  C   -0.018708  -0.019904   0.215857   5.320857   0.000000  -0.000000
    17  H   -0.000000   0.000000  -0.000000   0.000000   0.551179  -0.024483
    18  H    0.000000  -0.000000  -0.000000  -0.000000  -0.024483   0.559458
    19  H   -0.000000   0.000000  -0.000000   0.000000  -0.033111  -0.040315
    20  H    0.000341  -0.000077   0.000042   0.000227  -0.000006   0.000000
    21  H    0.000000  -0.000000   0.000000  -0.000019  -0.000289   0.000461
    22  H   -0.000030   0.000000  -0.000007   0.000321   0.000818  -0.000080
    23  H   -0.048282  -0.000373   0.005134   0.003188   0.000000  -0.000000
    24  H    0.311817  -0.115343  -0.007676  -0.063475   0.000000   0.000000
    25  H    0.005324  -0.055768   0.243852  -0.013314   0.000000   0.000000
    26  H    0.002105   0.000181  -0.017596   0.340152  -0.000000   0.000000
    27  H   -0.003861   0.000817  -0.016112   0.348091   0.000000  -0.000000
              19         20         21         22         23         24
     1  C    0.368416  -0.000005   0.002303   0.001059  -0.000000  -0.000000
     2  C   -0.011213  -0.000726  -0.014896  -0.005276   0.000002   0.000001
     3  C    0.000481  -0.000486   0.001897  -0.069648  -0.000083  -0.000005
     4  C    0.000002   0.006294   0.000674   0.017165   0.002300   0.000195
     5  C    0.000001  -0.056968   0.000115   0.015314   0.001040   0.003054
     6  C    0.000012   0.306471  -0.000025  -0.011651  -0.000032  -0.000037
     7  N    0.001084  -0.020880  -0.000517   0.005698   0.000027  -0.000001
     8  C   -0.003313   0.001098  -0.026979  -0.002339   0.000003   0.000006
     9  N   -0.000156   0.000005   0.291139   0.000984  -0.000000  -0.000000
    10  C   -0.000001   0.004796   0.000017  -0.034949  -0.047185   0.000670
    11  C   -0.000015  -0.007733  -0.000032   0.281611   0.001142   0.000001
    12  C   -0.000000   0.005871  -0.000000   0.000292   0.355833  -0.011320
    13  C   -0.000000   0.000341   0.000000  -0.000030  -0.048282   0.311817
    14  N    0.000000  -0.000077  -0.000000   0.000000  -0.000373  -0.115343
    15  C   -0.000000   0.000042   0.000000  -0.000007   0.005134  -0.007676
    16  C    0.000000   0.000227  -0.000019   0.000321   0.003188  -0.063475
    17  H   -0.033111  -0.000006  -0.000289   0.000818   0.000000   0.000000
    18  H   -0.040315   0.000000   0.000461  -0.000080  -0.000000   0.000000
    19  H    0.559532  -0.000000  -0.000597   0.000049   0.000000   0.000000
    20  H   -0.000000   0.615770  -0.000000  -0.002533  -0.000907  -0.000029
    21  H   -0.000597  -0.000000   0.441314  -0.000136   0.000000   0.000000
    22  H    0.000049  -0.002533  -0.000136   0.643723   0.000015   0.000001
    23  H    0.000000  -0.000907   0.000000   0.000015   0.593120   0.002678
    24  H    0.000000  -0.000029   0.000000   0.000001   0.002678   0.769702
    25  H    0.000000  -0.000001   0.000000   0.000000  -0.000519   0.025998
    26  H   -0.000000  -0.000006   0.000021  -0.000158  -0.000112   0.003565
    27  H    0.000000  -0.000003  -0.000006   0.000002  -0.000165   0.007512
              25         26         27
     1  C   -0.000000  -0.000000   0.000000
     2  C    0.000000   0.000101  -0.000052
     3  C   -0.000001   0.003081   0.000632
     4  C   -0.000002  -0.028125  -0.039847
     5  C    0.000027   0.004914  -0.000196
     6  C    0.000000  -0.000074  -0.000232
     7  N   -0.000000   0.000003  -0.000004
     8  C    0.000000   0.000034   0.000168
     9  N    0.000000  -0.000015  -0.000025
    10  C    0.000219  -0.002578   0.003257
    11  C   -0.000002   0.001874  -0.000156
    12  C    0.012280   0.001685  -0.001076
    13  C    0.005324   0.002105  -0.003861
    14  N   -0.055768   0.000181   0.000817
    15  C    0.243852  -0.017596  -0.016112
    16  C   -0.013314   0.340152   0.348091
    17  H    0.000000  -0.000000   0.000000
    18  H    0.000000   0.000000  -0.000000
    19  H    0.000000  -0.000000   0.000000
    20  H   -0.000001  -0.000006  -0.000003
    21  H    0.000000   0.000021  -0.000006
    22  H    0.000000  -0.000158   0.000002
    23  H   -0.000519  -0.000112  -0.000165
    24  H    0.025998   0.003565   0.007512
    25  H    0.612698   0.000874   0.000317
    26  H    0.000874   0.576504  -0.029797
    27  H    0.000317  -0.029797   0.577927
 Mulliken charges:
               1
     1  C   -0.419284
     2  C    0.116058
     3  C    0.020533
     4  C   -0.122596
     5  C    0.220822
     6  C   -0.115908
     7  N   -0.231565
     8  C    0.035237
     9  N   -0.252905
    10  C    0.093849
    11  C   -0.321507
    12  C   -0.094368
    13  C   -0.153034
    14  N   -0.058902
    15  C   -0.190519
    16  C   -0.284594
    17  H    0.161962
    18  H    0.152764
    19  H    0.159144
    20  H    0.149446
    21  H    0.305555
    22  H    0.159755
    23  H    0.133177
    24  H    0.072688
    25  H    0.168018
    26  H    0.143366
    27  H    0.152809
 Sum of Mulliken charges =  -0.00000
 Mulliken charges with hydrogens summed into heavy atoms:
               1
     1  C    0.054587
     2  C    0.116058
     3  C    0.020533
     4  C   -0.122596
     5  C    0.220822
     6  C    0.033538
     7  N   -0.231565
     8  C    0.035237
     9  N    0.052650
    10  C    0.093849
    11  C   -0.161753
    12  C    0.038809
    13  C   -0.080346
    14  N   -0.058902
    15  C   -0.022501
    16  C    0.011581
 Electronic spatial extent (au):  <R**2>=           3444.2986
 Charge=             -0.0000 electrons
 Dipole moment (field-independent basis, Debye):
    X=             -5.0897    Y=             -1.8663    Z=             -0.6243  Tot=              5.4569
 Quadrupole moment (field-independent basis, Debye-Ang):
   XX=            -84.1290   YY=            -86.7173   ZZ=           -102.8927
   XY=              6.6307   XZ=             -2.0668   YZ=              4.3771
 Traceless Quadrupole moment (field-independent basis, Debye-Ang):
   XX=              7.1173   YY=              4.5290   ZZ=            -11.6464
   XY=              6.6307   XZ=             -2.0668   YZ=              4.3771
 Octapole moment (field-independent basis, Debye-Ang**2):
  XXX=           -135.0371  YYY=            -10.5522  ZZZ=            -10.6059  XYY=            -14.5900
  XXY=            -36.1304  XXZ=             -7.4795  XZZ=            -11.1699  YZZ=             -4.4246
  YYZ=             -2.1283  XYZ=             -1.0717
 Hexadecapole moment (field-independent basis, Debye-Ang**3):
 XXXX=          -3494.4447 YYYY=           -570.7032 ZZZZ=           -417.6276 XXXY=             19.3523
 XXXZ=            -36.8688 YYYX=             98.5818 YYYZ=             26.0259 ZZZX=              8.9020
 ZZZY=              4.4034 XXYY=           -686.0085 XXZZ=           -720.5186 YYZZ=           -174.1848
 XXYZ=             27.5904 YYXZ=              6.0432 ZZXY=              8.5602
 N-N= 1.021823736286D+03 E-N=-3.586079138748D+03  KE= 6.593548787772D+02
 PrsmSu:  requested number of processors reduced to:  13 ShMem   1 Linda.
 Calling FoFJK, ICntrl=      2127 FMM=F ISym2X=0 I1Cent= 0 IOpClX= 0 NMat=1 NMatS=1 NMatT=0.
 ***** Axes restored to original set *****
 -------------------------------------------------------------------
 Center     Atomic                   Forces (Hartrees/Bohr)
 Number     Number              X              Y              Z
 -------------------------------------------------------------------
      1        6          -0.008826335   -0.016400452    0.006422849
      2        6          -0.022804618    0.050831703   -0.101451908
      3        6           0.064767358   -0.096447490    0.039767227
      4        6          -0.013030704   -0.037175393    0.010095613
      5        6          -0.005836680    0.053163690    0.057659872
      6        6           0.008791442    0.049022497    0.000049040
      7        7          -0.014096306   -0.010888019    0.095200654
      8        6           0.035011545    0.005641983   -0.016878007
      9        7          -0.009215694    0.032396063    0.003051633
     10        6           0.074968092   -0.025795481   -0.020150362
     11        6          -0.072055371    0.048489595   -0.045953897
     12        6          -0.066808026   -0.008653542    0.015165188
     13        6          -0.005888543    0.119428695   -0.054974006
     14        7          -0.014412291   -0.137458872    0.014325137
     15        6           0.057290890    0.007851296    0.001023919
     16        6          -0.029357180    0.026095456   -0.010815103
     17        1           0.002615673   -0.012667272    0.001331884
     18        1           0.013939229   -0.010927477    0.010662183
     19        1           0.040343273   -0.025222003    0.009887929
     20        1          -0.039109544    0.058299068   -0.052247581
     21        1           0.002501550   -0.003083037    0.044997770
     22        1           0.036069440   -0.060795904    0.020439293
     23        1          -0.009884744   -0.004341354    0.011512910
     24        1          -0.055161585    0.007448245    0.042254129
     25        1          -0.002431459    0.013893120   -0.051223195
     26        1           0.004894367   -0.018956766   -0.032319054
     27        1           0.027726222   -0.003748350    0.002165884
 -------------------------------------------------------------------
 Cartesian Forces:  Max     0.137458872 RMS     0.041905063

 GradGradGradGradGradGradGradGradGradGradGradGradGradGradGradGradGradGrad
 Berny optimization.
 FormGI is forming the generalized inverse of G from B-inverse, IUseBI=4.
 Internal  Forces:  Max     0.114402813 RMS     0.035955583
 Search for a local minimum.
 Step number   1 out of a maximum of  149
 All quantities printed in internal units (Hartrees-Bohrs-Radians)
 Mixed Optimization -- RFO/linear search
 Second derivative matrix not updated -- first step.
 ITU=  0
     Eigenvalues ---    0.00230   0.00230   0.00230   0.00774   0.00775
     Eigenvalues ---    0.00924   0.01002   0.01410   0.01670   0.01734
     Eigenvalues ---    0.02080   0.02190   0.02502   0.02780   0.03021
     Eigenvalues ---    0.03400   0.03817   0.04008   0.04372   0.05129
     Eigenvalues ---    0.05657   0.05794   0.06279   0.07872   0.09532
     Eigenvalues ---    0.11338   0.12275   0.12423   0.13656   0.13705
     Eigenvalues ---    0.14099   0.14261   0.14576   0.15364   0.15878
     Eigenvalues ---    0.15950   0.15960   0.15988   0.15998   0.16000
     Eigenvalues ---    0.16000   0.16000   0.16362   0.17505   0.17939
     Eigenvalues ---    0.18226   0.19807   0.20793   0.21482   0.21862
     Eigenvalues ---    0.22009   0.22957   0.25000   0.25257   0.25427
     Eigenvalues ---    0.25699   0.27126   0.27418   0.28372   0.29967
     Eigenvalues ---    0.32307   0.32700   0.35036   0.35721   0.36165
     Eigenvalues ---    0.36942   0.37328   0.39028   0.40757   0.40855
     Eigenvalues ---    0.42108   0.43725   0.50846   0.54224   0.67331
 RFO step:  Lambda=-3.46394020D-01 EMin= 2.30000000D-03
 Linear search not attempted -- first point.
 Maximum step size (   0.300) exceeded in Quadratic search.
    -- Step size scaled by   0.452
 Iteration  1 RMS(Cart)=  0.13676455 RMS(Int)=  0.00439558
 Iteration  2 RMS(Cart)=  0.00999830 RMS(Int)=  0.00043813
 Iteration  3 RMS(Cart)=  0.00005017 RMS(Int)=  0.00043694
 Iteration  4 RMS(Cart)=  0.00000001 RMS(Int)=  0.00043694
 Variable       Old X    -DE/DX   Delta X   Delta X   Delta X     New X
                                 (Linear)    (Quad)   (Total)
    R1        3.39325  -0.06148   0.00000  -0.05705  -0.05705   3.33620
    R2        2.05616   0.00317   0.00000   0.00206   0.00206   2.05822
    R3        2.09581  -0.00974   0.00000  -0.00654  -0.00654   2.08927
    R4        2.20130  -0.03749   0.00000  -0.02730  -0.02730   2.17400
    R5        2.90353   0.00352   0.00000  -0.00036  -0.00081   2.90272
    R6        2.70569   0.06525   0.00000   0.04536   0.04569   2.75138
    R7        2.87184   0.00324   0.00000   0.00327   0.00348   2.87532
    R8        3.32359  -0.02902   0.00000  -0.02812  -0.02891   3.29469
    R9        2.88663  -0.03513   0.00000  -0.02912  -0.02961   2.85702
   R10        2.60826   0.01502   0.00000   0.01108   0.01151   2.61977
   R11        3.41797   0.00733   0.00000   0.00686   0.00686   3.42483
   R12        2.74408  -0.00246   0.00000   0.00203   0.00229   2.74637
   R13        2.67981   0.05460   0.00000   0.03530   0.03558   2.71539
   R14        2.52844  -0.06624   0.00000  -0.03152  -0.03102   2.49742
   R15        2.59510  -0.08382   0.00000  -0.07575  -0.07575   2.51935
   R16        3.25399   0.02164   0.00000   0.01582   0.01603   3.27002
   R17        2.59309  -0.02289   0.00000  -0.01814  -0.01849   2.57460
   R18        2.02055  -0.04164   0.00000  -0.02615  -0.02615   1.99440
   R19        2.83705   0.00780   0.00000   0.00415   0.00423   2.84127
   R20        3.04707  -0.09182   0.00000  -0.07204  -0.07204   2.97502
   R21        2.24835  -0.03781   0.00000  -0.02844  -0.02844   2.21991
   R22        2.70537  -0.01236   0.00000  -0.00741  -0.00741   2.69797
   R23        2.02633   0.01254   0.00000   0.00792   0.00792   2.03425
   R24        2.45571   0.11440   0.00000   0.05070   0.05070   2.50641
   R25        2.48217  -0.05263   0.00000  -0.04523  -0.04523   2.43694
   R26        2.59021   0.04558   0.00000   0.02409   0.02409   2.61430
   R27        2.24163  -0.00996   0.00000  -0.00746  -0.00746   2.23417
   R28        1.97108   0.03675   0.00000   0.02200   0.02200   1.99308
   R29        2.04520   0.00363   0.00000   0.00233   0.00233   2.04753
    A1        1.93234   0.00249   0.00000   0.00254   0.00250   1.93484
    A2        2.00670  -0.00965   0.00000  -0.00885  -0.00894   1.99776
    A3        2.06362  -0.04244   0.00000  -0.03783  -0.03789   2.02573
    A4        1.94101   0.00840   0.00000   0.00721   0.00710   1.94811
    A5        1.77607   0.01993   0.00000   0.01805   0.01806   1.79413
    A6        1.72362   0.02640   0.00000   0.02346   0.02334   1.74696
    A7        1.77599   0.04120   0.00000   0.03799   0.03823   1.81422
    A8        1.60450   0.04352   0.00000   0.03954   0.04048   1.64498
    A9        1.51893   0.02025   0.00000   0.02520   0.02535   1.54428
   A10        1.66588   0.02218   0.00000   0.02906   0.02849   1.69437
   A11        2.27292  -0.01681   0.00000  -0.01149  -0.01187   2.26104
   A12        2.18157   0.01526   0.00000   0.01522   0.01532   2.19689
   A13        1.54728   0.01090   0.00000   0.00662   0.00661   1.55390
   A14        1.64433   0.02775   0.00000   0.02276   0.02322   1.66755
   A15        2.14303  -0.06382   0.00000  -0.05201  -0.05237   2.09066
   A16        1.94209   0.04425   0.00000   0.03900   0.04012   1.98221
   A17        2.31160   0.00684   0.00000   0.00795   0.00861   2.32021
   A18        1.52393  -0.07287   0.00000  -0.06035  -0.05966   1.46427
   A19        1.65941   0.07110   0.00000   0.06148   0.06114   1.72055
   A20        1.94816   0.02847   0.00000   0.02582   0.02568   1.97384
   A21        1.81294   0.01979   0.00000   0.01637   0.01646   1.82941
   A22        2.45518  -0.05319   0.00000  -0.04696  -0.04683   2.40835
   A23        2.14043  -0.02196   0.00000  -0.02195  -0.02234   2.11809
   A24        1.43210   0.06090   0.00000   0.05281   0.05376   1.48586
   A25        2.57596   0.04915   0.00000   0.04492   0.04499   2.62095
   A26        2.54161  -0.01129   0.00000  -0.00639  -0.00707   2.53455
   A27        2.69724  -0.02435   0.00000  -0.02017  -0.02023   2.67701
   A28        1.84448   0.04532   0.00000   0.03892   0.03886   1.88335
   A29        1.58437  -0.04046   0.00000  -0.03491  -0.03567   1.54869
   A30        2.80113  -0.01250   0.00000  -0.01372  -0.01340   2.78774
   A31        1.80618  -0.03389   0.00000  -0.02874  -0.02881   1.77737
   A32        1.28917   0.06721   0.00000   0.06777   0.06752   1.35669
   A33        2.17935  -0.00413   0.00000  -0.00150  -0.00117   2.17818
   A34        2.43932  -0.05980   0.00000  -0.04770  -0.04770   2.39162
   A35        1.98332   0.02459   0.00000   0.01912   0.01912   2.00245
   A36        1.85867   0.03507   0.00000   0.02847   0.02847   1.88714
   A37        1.69648  -0.05019   0.00000  -0.04149  -0.04129   1.65519
   A38        2.45676   0.01961   0.00000   0.01714   0.01705   2.47380
   A39        1.68398   0.01775   0.00000   0.01062   0.01089   1.69487
   A40        1.52724  -0.00574   0.00000  -0.00435  -0.00435   1.52289
   A41        1.31670   0.11133   0.00000   0.09935   0.09935   1.41605
   A42        1.74313   0.01702   0.00000   0.01523   0.01517   1.75830
   A43        1.53936   0.05493   0.00000   0.04924   0.04910   1.58845
   A44        1.95619  -0.00249   0.00000  -0.00096  -0.00164   1.95455
   A45        3.27037   0.06570   0.00000   0.06860   0.06897   3.33934
   A46        3.23843   0.02767   0.00000   0.02806   0.02763   3.26606
    D1       -1.56985  -0.00374   0.00000  -0.00291  -0.00259  -1.57244
    D2       -2.52852   0.01201   0.00000   0.00803   0.00759  -2.52093
    D3        2.49544  -0.00950   0.00000  -0.00774  -0.00714   2.48831
    D4        1.53677   0.00625   0.00000   0.00320   0.00304   1.53982
    D5        0.46821  -0.00471   0.00000  -0.00316  -0.00283   0.46538
    D6       -0.49046   0.01104   0.00000   0.00778   0.00735  -0.48311
    D7       -1.55549  -0.01648   0.00000  -0.01506  -0.01489  -1.57038
    D8        0.61006  -0.00410   0.00000  -0.00534  -0.00531   0.60475
    D9        2.56198  -0.00004   0.00000   0.00319   0.00303   2.56501
   D10       -1.55565   0.01235   0.00000   0.01291   0.01261  -1.54304
   D11        0.51500  -0.00912   0.00000  -0.00713  -0.00706   0.50795
   D12        2.68055   0.00327   0.00000   0.00259   0.00253   2.68308
   D13        0.01968  -0.01500   0.00000  -0.01584  -0.01555   0.00413
   D14        2.17837   0.00496   0.00000   0.00331   0.00317   2.18154
   D15        0.97493  -0.03598   0.00000  -0.03163  -0.03107   0.94386
   D16        3.13363  -0.01602   0.00000  -0.01249  -0.01235   3.12127
   D17        1.63819  -0.04807   0.00000  -0.04948  -0.04753   1.59066
   D18       -1.45364  -0.01298   0.00000  -0.01149  -0.00979  -1.46343
   D19       -1.49536  -0.00629   0.00000  -0.00939  -0.01008  -1.50544
   D20        1.54940  -0.03396   0.00000  -0.03745  -0.03771   1.51169
   D21        1.35427  -0.02794   0.00000  -0.02141  -0.02181   1.33246
   D22       -2.85724   0.02175   0.00000   0.02293   0.02241  -2.83484
   D23       -1.03703  -0.05054   0.00000  -0.04338  -0.04348  -1.08051
   D24        1.03465  -0.00084   0.00000   0.00096   0.00073   1.03538
   D25       -2.12630   0.00455   0.00000   0.00390   0.00417  -2.12213
   D26        0.01804   0.01329   0.00000   0.01446   0.01439   0.03244
   D27        0.32668   0.00401   0.00000   0.00653   0.00659   0.33326
   D28        2.47102   0.01274   0.00000   0.01709   0.01681   2.48783
   D29       -0.38566  -0.04185   0.00000  -0.03608  -0.03564  -0.42130
   D30        1.26238  -0.01191   0.00000  -0.00770  -0.00723   1.25515
   D31       -2.61425  -0.00156   0.00000  -0.00448  -0.00505  -2.61930
   D32       -0.96621   0.02838   0.00000   0.02390   0.02336  -0.94285
   D33        0.44056  -0.01628   0.00000  -0.01365  -0.01356   0.42700
   D34        2.39715  -0.00857   0.00000  -0.00544  -0.00469   2.39246
   D35        2.36314   0.01647   0.00000   0.01569   0.01493   2.37807
   D36       -1.96345   0.02419   0.00000   0.02389   0.02380  -1.93965
   D37       -0.48726   0.01569   0.00000   0.01754   0.01782  -0.46944
   D38        2.35311  -0.00801   0.00000  -0.00428  -0.00390   2.34921
   D39       -2.07557   0.04888   0.00000   0.04240   0.04182  -2.03376
   D40        0.76480   0.02518   0.00000   0.02058   0.02010   0.78490
   D41       -1.10654   0.00329   0.00000   0.00386   0.00385  -1.10270
   D42        1.85007  -0.01364   0.00000  -0.01655  -0.01696   1.83311
   D43        1.20402   0.00577   0.00000   0.00825   0.00737   1.21138
   D44       -2.12256  -0.01116   0.00000  -0.01216  -0.01344  -2.13600
   D45        0.00111   0.00229   0.00000  -0.00118  -0.00110   0.00001
   D46       -2.66870   0.00560   0.00000   0.00335   0.00331  -2.66539
   D47        1.79151  -0.04966   0.00000  -0.05011  -0.04956   1.74194
   D48        1.85095   0.00428   0.00000   0.00797   0.00819   1.85913
   D49       -3.00722  -0.02849   0.00000  -0.03075  -0.03155  -3.03877
   D50        0.39937   0.01158   0.00000   0.00732   0.00651   0.40588
   D51       -0.98920  -0.04772   0.00000  -0.05637  -0.05672  -1.04592
   D52       -2.15895   0.04835   0.00000   0.05408   0.05373  -2.10522
   D53        2.73567  -0.01095   0.00000  -0.00961  -0.00950   2.72617
   D54       -1.08256   0.05173   0.00000   0.06837   0.06815  -1.01441
   D55        1.98105   0.05155   0.00000   0.06826   0.06806   2.04910
   D56        1.50006   0.02518   0.00000   0.03117   0.03138   1.53144
   D57       -1.71952   0.02500   0.00000   0.03107   0.03129  -1.68823
   D58       -2.12359   0.05970   0.00000   0.07195   0.07204  -2.05155
   D59       -0.21153   0.03322   0.00000   0.04377   0.04367  -0.16786
   D60        1.09251   0.05985   0.00000   0.07205   0.07215   1.16466
   D61        3.00457   0.03336   0.00000   0.04387   0.04378   3.04835
   D62        1.48861   0.03346   0.00000   0.03816   0.03833   1.52694
   D63       -1.00960   0.02403   0.00000   0.03083   0.03066  -0.97894
   D64        2.10573  -0.03479   0.00000  -0.04281  -0.04281   2.06292
         Item               Value     Threshold  Converged?
 Maximum Force            0.114403     0.000450     NO 
 RMS     Force            0.035956     0.000300     NO 
 Maximum Displacement     0.634048     0.001800     NO 
 RMS     Displacement     0.142235     0.001200     NO 
 Predicted change in Energy=-1.461109D-01
 GradGradGradGradGradGradGradGradGradGradGradGradGradGradGradGradGradGrad

                          Input orientation:                          
 ---------------------------------------------------------------------
 Center     Atomic      Atomic             Coordinates (Angstroms)
 Number     Number       Type             X           Y           Z
 ---------------------------------------------------------------------
      1          6           0        1.041695   -0.192449    0.185763
      2          6           0        2.768105   -0.422723    0.474306
      3          6           0        4.183855   -0.970068    0.709952
      4          6           0        5.563135   -0.200168    1.447882
      5          6           0        5.112451   -0.339013    2.751529
      6          6           0        3.788193   -0.493009    3.330112
      7          7           0        2.833186    0.039949    2.588168
      8          6           0        3.190912    0.827377    1.089386
      9          7           0        3.176495    0.838230   -0.272912
     10          6           0        5.420079   -1.727715    2.547504
     11          6           0        4.530098   -2.242028    1.450216
     12          6           0        6.699614   -1.540170    3.445325
     13          6           0        7.870964   -0.723953    3.437258
     14          7           0        8.714825   -1.740576    3.320905
     15          6           0        8.550566   -1.633746    1.951422
     16          6           0        7.222776   -0.876779    1.178845
     17          1           0        0.457421   -0.526859    1.041957
     18          1           0        0.672111   -0.635150   -0.757511
     19          1           0        0.692798    0.895151    0.048340
     20          1           0        3.917878   -1.475565    4.221816
     21          1           0        3.414390    1.248438   -1.215775
     22          1           0        3.355897   -2.244652    1.485157
     23          1           0        6.706269   -2.126564    4.348046
     24          1           0        8.520280    0.108038    2.696192
     25          1           0        9.709674   -1.409428    2.013976
     26          1           0        7.083166   -1.381896    0.263563
     27          1           0        7.626208    0.118549    1.035479
 ---------------------------------------------------------------------
                    Distance matrix (angstroms):
                    1          2          3          4          5
     1  C    0.000000
     2  C    1.765439   0.000000
     3  C    3.279121   1.536054   0.000000
     4  C    4.694297   2.968092   1.743474   0.000000
     5  C    4.814114   3.269359   2.329926   1.386322   0.000000
     6  C    4.185751   3.033339   2.692466   2.603644   1.453318
     7  N    3.005827   2.164881   2.524309   2.968254   2.316322
     8  C    2.544743   1.455967   2.088233   2.609944   2.795621
     9  N    2.414550   1.521552   2.291449   3.120169   3.779030
    10  C    5.206256   3.610279   2.340700   1.887600   1.436925
    11  C    4.238935   2.714201   1.511872   2.288311   2.377818
    12  C    6.667319   5.052959   3.759830   2.660258   2.107894
    13  C    7.582455   5.908383   4.592770   3.091608   2.868413
    14  N    8.432243   6.723342   5.285872   3.976710   3.907130
    15  C    7.847166   6.089769   4.588014   3.351632   3.759938
    16  C    6.297641   4.532839   3.076297   1.812344   2.686260
    17  H    1.089163   2.381667   3.767357   5.132234   4.962583
    18  H    1.105595   2.440428   3.820728   5.382850   5.667246
    19  H    1.150430   2.495023   4.013010   5.184460   5.325760
    20  H    5.119427   4.058853   3.558014   3.468173   2.209186
    21  H    3.109685   2.463095   3.036819   3.716265   4.598142
    22  H    3.354921   2.164889   1.706172   3.008854   2.884552
    23  H    7.290596   5.780836   4.575563   3.664520   2.878274
    24  H    7.894414   6.189184   4.889994   3.224589   3.437472
    25  H    8.941882   7.178408   5.694576   4.356209   4.777471
    26  H    6.157938   4.425400   2.962240   2.260439   3.340852
    27  H    6.646393   4.920269   3.625030   2.127892   3.077850
                    6          7          8          9         10
     6  C    0.000000
     7  N    1.321576   0.000000
     8  C    2.668523   1.730422   0.000000
     9  N    3.889493   2.990133   1.362418   0.000000
    10  C    2.190895   3.133417   3.691042   4.424081   0.000000
    11  C    2.672732   3.062982   3.368214   3.780133   1.503538
    12  C    3.096157   4.263890   4.844246   5.647516   1.574314
    13  C    4.090701   5.165627   5.460953   6.184158   2.793928
    14  N    5.082146   6.188768   6.487501   7.087937   3.384326
    15  C    5.087461   5.991254   5.960379   6.319728   3.188117
    16  C    4.070821   4.700540   4.378136   4.628309   2.418065
    17  H    4.041144   2.890726   3.050931   3.314470   5.323223
    18  H    5.141870   4.039748   3.448822   2.945780   5.887276
    19  H    4.720009   3.429775   2.707202   2.505034   5.955874
    20  H    1.333181   2.478335   3.955268   5.109391   2.263516
    21  H    4.882361   4.033388   2.353933   1.055393   5.200244
    22  H    2.580502   2.590224   3.101809   3.553471   2.378372
    23  H    3.495691   4.774067   5.630485   6.527064   2.248403
    24  H    4.812043   5.688527   5.612614   6.156687   3.606015
    25  H    6.134816   7.050991   6.953590   7.277654   4.334350
    26  H    4.588103   5.048540   4.551100   4.525355   2.846373
    27  H    4.513280   5.038857   4.491903   4.693588   3.249910
                   11         12         13         14         15
    11  C    0.000000
    12  C    3.029829   0.000000
    13  C    4.173041   1.427703   0.000000
    14  N    4.611168   2.028970   1.326334   0.000000
    15  C    4.096996   2.380446   1.870104   1.383429   0.000000
    16  C    3.031182   2.418826   2.354555   2.749686   1.712571
    17  H    4.437925   6.765201   7.793390   8.651672   8.218961
    18  H    4.726539   7.403626   8.332313   9.085190   8.390801
    19  H    5.150924   7.317932   8.101378   9.055918   8.471219
    20  H    2.940075   2.888800   4.099676   4.888003   5.161541
    21  H    4.531629   6.347825   6.738107   7.590143   6.687183
    22  H    1.174723   3.939415   5.148694   5.687017   5.251208
    23  H    3.625806   1.076479   2.037981   2.288733   3.064001
    24  H    4.795500   2.567609   1.289573   1.960991   1.894574
    25  H    5.276273   3.335613   2.424141   1.675544   1.182271
    26  H    2.943829   3.208703   3.335544   3.484007   2.250680
    27  H    3.915383   3.068759   2.557001   3.140796   2.182642
                   16         17         18         19         20
    16  C    0.000000
    17  H    6.775781   0.000000
    18  H    6.835134   1.815462   0.000000
    19  H    6.859912   1.750654   1.729637   0.000000
    20  H    4.532170   4.794404   6.002915   5.782676   0.000000
    21  H    4.975395   4.122220   3.358273   3.021566   6.102547
    22  H    4.113108   3.398295   3.850034   4.360608   2.897692
    23  H    3.445660   7.248268   8.043760   7.986242   2.866157
    24  H    2.226145   8.255258   8.606633   8.300611   5.100729
    25  H    2.676905   9.344942   9.484629   9.512038   6.198696
    26  H    1.054693   6.725881   6.534664   6.787346   5.069082
    27  H    1.083507   7.197784   7.220964   7.046256   5.142534
                   21         22         23         24         25
    21  H    0.000000
    22  H    4.415895   0.000000
    23  H    7.292681   4.408522   0.000000
    24  H    6.532542   5.802810   3.318539   0.000000
    25  H    7.558184   6.430220   3.870737   2.045184   0.000000
    26  H    4.750474   4.016114   4.168883   3.194196   3.156462
    27  H    4.907565   4.901273   4.106083   1.886119   2.762789
                   26         27
    26  H    0.000000
    27  H    1.772592   0.000000
 Stoichiometry    C13H11N3
 Framework group  C1[X(C13H11N3)]
 Deg. of freedom    75
 Full point group                 C1      NOp   1
 Largest Abelian subgroup         C1      NOp   1
 Largest concise Abelian subgroup C1      NOp   1
                         Standard orientation:                         
 ---------------------------------------------------------------------
 Center     Atomic      Atomic             Coordinates (Angstroms)
 Number     Number       Type             X           Y           Z
 ---------------------------------------------------------------------
      1          6           0       -4.286397   -0.000239    0.487301
      2          6           0       -2.562832   -0.371978    0.398380
      3          6           0       -1.068705   -0.605741    0.667456
      4          6           0        0.268747   -0.638676   -0.450506
      5          6           0        0.342338    0.736261   -0.611820
      6          6           0       -0.627394    1.805884   -0.445506
      7          7           0       -1.874606    1.407334   -0.624902
      8          6           0       -2.247152   -0.236513   -1.016483
      9          7           0       -2.735495   -1.456028   -0.655254
     10          6           0        0.865481    0.711204    0.726255
     11          6           0       -0.209103    0.178354    1.632878
     12          6           0        2.299287    0.977813    0.133309
     13          6           0        3.178123    0.347407   -0.798663
     14          7           0        4.135653    0.116094    0.089477
     15          6           0        3.486733   -1.070376    0.381142
     16          6           0        1.838943   -1.395206    0.046221
     17          1           0       -4.445471    1.064641    0.651621
     18          1           0       -4.850059   -0.613267    1.214503
     19          1           0       -4.897529   -0.205093   -0.465611
     20          1           0        0.022227    2.752765    0.231829
     21          1           0       -2.938907   -2.478098   -0.822137
     22          1           0       -1.265138    0.670700    1.782416
     23          1           0        2.751189    1.903311    0.446429
     24          1           0        3.323862   -0.739496   -1.477191
     25          1           0        4.512746   -1.513777   -0.004159
     26          1           0        1.508426   -2.060759    0.794669
     27          1           0        1.931376   -1.881893   -0.917407
 ---------------------------------------------------------------------
[...]
 0.00025616,0.00019144,-0.00000629,-0.00002875,0.00000696,-0.00017782,0
 .00004777,-0.00017572,-0.00003068,-0.00177798,-0.00095074,-0.00000257,
 0.00000296,-0.00002020,0.00001384,-0.00001044,0.00002196,-0.00004624,-
 0.00001735,0.00001106,-0.03542051,0.05050868,0.00011834,0.00006676,0.0
 0006954,0.00130024,-0.00087801,-0.00085564,-0.00088772,0.00148765,-0.0
 0004739,0.00267364,0.00152602,0.00213091,-0.00085092,0.00129145,-0.000
 14254,0.12619686,-0.03955750,-0.26163359,0.00432657,-0.00033646,-0.021
 23027,0.00397463,0.00512757,0.00154728,-0.00255325,-0.00037919,-0.0018
 0658,-0.00078034,-0.00049504,-0.00016245,0.00031665,0.00002370,0.00064
 639,-0.00020303,0.00010621,-0.00017537,-0.00007429,0.00018622,0.000109
 09,0.00004419,0.00000582,-0.00002937,-0.00007189,-0.00000582,-0.000028
 48,0.00015730,-0.00048354,-0.00036859,-0.00009892,-0.00011834,0.000020
 13,-0.00006438,-0.00001714,0.00000285,0.00000088,0.00000527,-0.0000118
 7,-0.13359053,0.03272210,0.28151347,-0.00023027,-0.00095759,0.00271627
 ,-0.00431680,0.00586990,-0.00720575,0.00321364,-0.00129278,-0.00099193
 ,-0.00007873,-0.00047909,-0.00003962,0.00022324,-0.00010926,-0.0000121
 2,-0.00012964,0.00054310,-0.00086373,-0.00096889,0.00136630,0.00152751
 ,0.00263182,0.00242362,-0.01586630,-0.31839907,-0.06543357,0.19803237,
 0.00012867,0.00004764,0.00012384,-0.00042860,0.00092158,-0.00045990,-0
 .00025845,-0.00004435,-0.00014387,0.00008162,0.00015200,-0.00001687,0.
 00007336,-0.00003871,0.00016240,-0.00036948,-0.00008550,-0.00009201,0.
 00010296,0.00030060,-0.00002229,-0.00039295,-0.00058559,-0.00025657,0.
 00004795,-0.00012742,0.00006520,0.00045258,0.00007805,0.00006294,0.000
 04660,-0.00000591,0.00002720,0.31877135,-0.00023433,-0.00186568,0.0063
 6678,-0.02407098,0.00609040,0.00559554,-0.00037159,0.00399675,-0.00083
 363,0.00063713,0.00011722,0.00023231,-0.00056554,0.00051409,-0.0008537
 1,-0.00193891,-0.00101886,0.00201380,0.00006821,-0.00002138,-0.0058918
 7,0.01427740,-0.00249346,0.01541715,-0.04464697,-0.04764835,0.00610328
 ,0.00016370,-0.00053305,-0.00049916,0.00051506,-0.00119113,0.00006810,
 -0.00000153,0.00025049,0.00011669,-0.00005124,0.00010353,-0.00003594,-
 0.00017258,0.00000724,-0.00010546,0.00037765,0.00004816,-0.00001631,-0
 .00001271,0.00000378,0.00010975,-0.00190095,-0.00087275,-0.00038319,0.
 00015694,0.00019146,-0.00031656,-0.00006461,-0.00003409,-0.00010604,0.
 00001173,0.00003035,-0.00018058,0.05772026,0.04415535,-0.00070922,-0.0
 0265760,0.00081261,-0.00638257,0.00504845,-0.00983737,0.00099578,-0.00
 072800,0.00138186,-0.00034720,-0.00017175,-0.00003238,0.00067205,-0.00
 044796,-0.00077663,-0.00344044,0.00259530,-0.00064163,0.00156753,-0.00
 058857,0.00541654,0.03094594,0.01060498,-0.03161579,0.15379190,0.01413
 514,-0.10140027,0.00049970,0.00019316,0.00042079,-0.00042836,0.0004521
 6,-0.00031434,-0.00007013,-0.00006292,0.00005644,0.00002284,-0.0000894
 4,0.00007486,0.00012987,0.00003775,0.00000447,-0.00026996,-0.00012614,
 -0.00008445,0.00005813,0.00048624,0.00005686,-0.00064428,-0.00063386,0
 .00002496,-0.00018253,-0.00041284,0.00010081,0.00048852,0.00000144,0.0
 0014223,0.00029582,-0.00035942,0.00055073,-0.17659993,-0.02696247,0.13
 560404,-0.00044307,0.00012187,0.00005667,0.00000906,-0.00049020,0.0010
 5670,0.00154712,0.00475283,-0.00187623,-0.00126211,-0.00759261,-0.0031
 7351,-0.00129651,-0.00103489,0.00161681,0.00003094,0.00045099,-0.00074
 360,0.00017180,-0.00024514,0.00056300,-0.00026780,-0.00019936,-0.00077
 606,0.00023551,-0.00004351,0.00026948,-0.00227167,-0.00133323,0.008714
 75,-0.23095363,-0.14041111,0.04305280,-0.00062709,-0.00179972,0.000286
 61,-0.00057794,0.00050593,-0.00026695,-0.00067876,-0.00023826,0.000054
 60,0.00019950,0.00022814,-0.00008154,0.00086193,-0.00024519,-0.0001706
 5,-0.00014339,0.00044108,-0.00057113,0.00004210,-0.00003851,0.00011309
 ,0.00014170,0.00013124,-0.00005645,0.00027045,-0.00009372,-0.00002322,
 0.00000360,0.00010918,-0.00007084,0.23563940,-0.00026962,-0.00014289,0
 .00034821,-0.00085289,0.00210507,-0.00061645,-0.01409526,-0.00508279,-
 0.00446510,-0.00812188,0.00493646,0.00604618,0.00186175,0.00186120,-0.
 00067557,-0.00050509,-0.00042218,0.00077359,0.00138108,0.00111284,-0.0
 0045366,-0.00090644,-0.00136693,0.00074434,0.00028536,0.00008460,-0.00
 060070,-0.00160461,-0.00284293,0.00213144,-0.12383445,-0.12626944,0.04
 581814,0.00046774,-0.00047327,0.00025981,0.00019334,0.00000446,-0.0003
 9178,0.00014852,-0.00029008,0.00024727,-0.00041753,-0.00022032,0.00038
 879,-0.00059852,-0.00214842,-0.00084139,0.00075112,-0.00019098,-0.0000
 1147,-0.00000196,0.00003186,-0.00007013,0.00015446,0.00013856,-0.00026
 501,-0.00049301,-0.00035022,-0.00008285,-0.00011648,0.00018360,-0.0000
 4797,0.14697536,0.12921282,0.00029821,0.00008289,-0.00036456,0.0009805
 8,0.00078689,-0.00003524,0.01506443,0.00394527,-0.00000024,-0.00343578
 ,0.00592452,0.00473788,0.00228080,0.00215685,-0.00117962,-0.00073754,-
 0.00045276,0.00139986,0.00117492,0.00073006,-0.00069866,-0.00084654,-0
 .00052530,0.00067090,-0.00013511,0.00023668,-0.00015351,-0.00956375,-0
 .00695952,0.00748997,0.04637754,0.04532485,-0.06815681,-0.00048541,-0.
 00149870,-0.00000683,-0.00055279,0.00046057,-0.00029867,-0.00036110,-0
 .00030871,0.00007955,-0.00005046,0.00020699,-0.00021196,0.00012055,-0.
 00141090,0.00060307,-0.00035214,0.00014085,0.00030509,-0.00014342,0.00
 001492,-0.00015316,-0.00010004,-0.00011249,0.00001921,-0.00056616,-0.0
 0038185,-0.00014525,-0.00007260,-0.00008300,-0.00000716,-0.04847348,-0
 .04808743,0.05606299,0.00000881,0.00001998,-0.00000330,0.00004280,-0.0
 0032284,-0.00003001,0.00037523,0.00094484,-0.00047500,0.00116809,-0.00
 160740,-0.00019902,-0.00420173,0.00122712,0.00238301,0.00080634,0.0003
 8280,-0.00140530,-0.00080155,0.00037591,-0.00067569,0.00038583,0.00077
 501,0.00073500,-0.00013960,-0.00006987,-0.00031325,-0.01191018,0.01996
 019,0.01767625,0.00077756,-0.00140564,0.00076665,-0.08927675,0.0704527
 8,0.06472893,0.00750794,-0.01474996,-0.01517954,0.00261721,-0.00013737
 ,-0.00266181,0.00026155,0.00045159,0.00067552,0.00014139,-0.00030916,0
 .00017409,-0.00000287,0.00000487,0.00000946,-0.00002837,-0.00000715,-0
 .00002184,-0.00000937,-0.00000209,-0.00000313,0.00000286,0.00002562,-0
 .00000349,0.00002303,-0.00011872,0.00005904,-0.00028508,0.00015393,-0.
 00000432,0.09461109,0.00001223,-0.00005614,-0.00000388,-0.00003658,-0.
 00004726,-0.00053708,0.00022692,-0.00024094,0.00105914,-0.00016953,0.0
 0214447,-0.00141974,0.00523133,0.00074197,-0.00161078,-0.00023006,-0.0
 0004755,0.00016952,-0.00038152,-0.00059718,0.00022581,0.00009643,0.000
 01681,-0.00014251,0.00003045,-0.00004679,0.00000991,0.00675521,-0.0089
 2286,-0.00119592,-0.00085432,-0.00047148,-0.00013896,0.05378559,-0.151
 06600,-0.12063523,0.00834381,-0.00531097,-0.01076678,0.00507332,0.0000
 4888,0.00024666,-0.00075746,-0.00193411,0.00062042,0.00050187,-0.00038
 383,-0.00022627,-0.00000755,-0.00000126,0.00000638,-0.00000188,0.00000
 691,-0.00000114,0.00001785,0.00001003,0.00001357,0.00014191,0.00006546
 ,0.00001855,-0.00000524,-0.00004797,-0.00001245,-0.00002305,0.00012561
 ,0.00002587,-0.07352178,0.16439679,0.00001652,-0.00004833,-0.00000180,
 0.00004264,0.00018781,0.00012060,0.00015560,-0.00053044,0.00004162,0.0
 0057645,-0.00149516,0.00225346,-0.00451045,0.00071122,0.00052363,-0.00
 001153,0.00031589,-0.00016182,0.00057043,0.00057997,0.00011214,-0.0001
 7371,-0.00023470,-0.00008181,0.00007142,0.00003852,0.00017488,-0.00546
 162,0.00691812,0.00118783,0.00054076,0.00048907,0.00027153,0.07037165,
 -0.12896176,-0.16054487,0.00347728,-0.01444738,-0.01277295,-0.00296511
 ,0.00364749,-0.00262611,0.00086074,0.00180200,0.00057963,0.00000872,0.
 00040799,-0.00021443,0.00000526,0.00000087,-0.00000971,0.00000722,0.00
 000269,0.00001193,0.00002097,0.00000322,0.00000224,-0.00017611,-0.0000
 7756,-0.00002354,-0.00000570,0.00006961,-0.00003673,0.00012404,-0.0000
 5676,-0.00002041,-0.06482071,0.13725563,0.16703748,0.00000631,-0.00001
 351,0.00000807,-0.00002808,0.00009058,0.00010507,-0.00011261,-0.000046
 98,-0.00018003,-0.00012171,-0.00085526,0.00122235,-0.00179187,0.000990
 37,-0.00047293,-0.00022623,0.00014325,-0.00018707,-0.00005761,-0.00013
 732,-0.00001682,-0.00016385,0.00001994,-0.00005258,0.00009174,0.000012
 73,-0.00003003,0.00152442,0.00022126,-0.00198900,0.00021671,0.00014946
 ,0.00018214,0.01174909,-0.00983636,-0.01036993,-0.07277483,0.03536887,
 0.05817839,-0.00378968,0.01528033,0.01937548,-0.00301571,0.00191336,0.
 00271166,0.00012798,0.00093453,0.00022259,-0.00000462,-0.00000060,-0.0
 0000124,0.00000192,0.00000011,0.00000421,0.00000903,-0.00000192,0.0000
 0116,0.00006952,0.00008436,0.00002406,-0.00002034,0.00001300,-0.000036
 91,0.00002814,-0.00007119,-0.00003347,-0.00235488,-0.00387114,0.001079
 65,0.06949484,0.00001422,-0.00000993,-0.00001613,0.00006273,-0.0000574
 5,-0.00022091,0.00009494,-0.00037387,0.00013843,0.00065607,0.00098976,
 -0.00032382,0.00271338,-0.00007955,0.00151593,-0.00011700,0.00026222,-
 0.00020783,-0.00004860,-0.00001113,0.00018967,0.00014045,-0.00006924,0
 .00005367,-0.00004762,-0.00001067,-0.00005340,0.00086091,-0.00342341,0
 .00372041,-0.00068230,0.00017636,-0.00035549,0.00187355,-0.01391671,-0
 .02033769,0.04501880,-0.14458213,-0.13905843,-0.00714931,0.00577128,0.
 01276964,-0.00277747,-0.00107852,-0.00242954,-0.00006683,-0.00002570,0
 .00047660,0.00000392,-0.00000120,-0.00000096,-0.00000222,-0.00000266,0
 .00000027,0.00000177,0.00000817,0.00000511,-0.00004416,-0.00002998,-0.
 00002345,-0.00001780,0.00000207,0.00001006,-0.00005624,0.00010776,-0.0
 0001584,-0.00253373,0.00129276,-0.00636810,-0.03781496,0.15585716,-0.0
 0004144,0.00000694,0.00001102,-0.00004041,-0.00001707,0.00003210,-0.00
 017389,-0.00026871,-0.00012813,-0.00044925,-0.00095005,0.00066265,-0.0
 0117868,0.00016219,-0.00157232,-0.00011843,0.00017963,0.00006064,0.000
 36615,0.00006370,0.00021322,-0.00014248,-0.00015671,-0.00023053,0.0000
 2892,-0.00001712,0.00039581,0.00094884,0.00193625,-0.00119664,-0.00007
 118,0.00057050,0.00020575,0.00989871,-0.00150175,0.00001690,0.04582358
 ,-0.14262062,-0.19366812,0.01114509,-0.00452086,-0.01934933,0.00507920
 ,-0.00044363,0.00631800,-0.00001373,-0.00037825,-0.00132481,-0.0000034
 2,-0.00000184,-0.00000601,0.00002120,0.00001422,0.00001295,-0.00000316
 ,-0.00000688,-0.00000386,-0.00008002,-0.00000738,0.00004556,0.00001084
 ,0.00007579,-0.00002525,0.00007839,-0.00013015,-0.00002447,-0.00111282
 ,-0.00353565,0.00410766,-0.06970592,0.15038880,0.20564791,-0.00003310,
 0.00010460,-0.00003925,-0.00002651,-0.00026909,0.00016600,-0.00039179,
 0.00001843,0.00129539,-0.00056804,0.00089791,-0.00521382,-0.00004704,-
 0.00007909,-0.00046733,0.00002284,-0.00014069,0.00022261,0.00001391,0.
 00016677,-0.00013163,-0.00002050,-0.00015342,0.00009634,-0.00003498,0.
 00013842,-0.00017100,0.00002716,-0.00040994,0.00042298,-0.00032090,-0.
 00014263,0.00000171,-0.00013795,0.00066191,-0.00009294,0.00140302,-0.0
 0124748,-0.00147569,0.01083741,0.00400737,-0.00556543,-0.21089448,-0.0
 5653306,0.11604259,-0.02224719,-0.00625813,0.01457786,0.00002586,0.000
 00090,-0.00000289,-0.00000787,-0.00001128,-0.00000746,-0.00004195,0.00
 000033,-0.00001714,-0.00003094,0.00002857,0.00000538,0.00000863,-0.000
 04636,0.00006892,0.00000237,-0.00015421,0.00002477,0.00001175,0.000025
 38,0.00000882,0.00058905,0.00000693,-0.00010574,0.22104462,-0.00001008
 ,0.00003413,-0.00001705,-0.00020270,-0.00006047,-0.00003095,0.00008282
 ,0.00087530,-0.00053024,0.00024195,0.00138257,0.00045744,-0.00026499,-
 0.00004674,0.00006633,0.00001527,-0.00004003,-0.00000890,-0.00002863,-
 0.00003515,-0.00000716,0.00001023,0.00001513,0.00003528,0.00000961,-0.
 00003092,-0.00002489,0.00069477,-0.00020211,0.00073532,0.00029545,-0.0
 0015520,0.00010814,0.00106579,-0.00053770,-0.00121115,0.00175301,0.015
 61919,0.00585107,-0.00850438,-0.01002600,0.00885601,-0.05530296,-0.064
 94510,0.04129078,0.00319608,0.00423012,0.00191453,-0.00000016,0.000001
 95,0.00000186,-0.00000398,-0.00000288,-0.00000319,-0.00001288,-0.00000
 288,-0.00000153,0.00002406,0.00001330,0.00000304,0.00000550,-0.0000015
 7,-0.00000053,-0.00005421,0.00016224,-0.00000427,0.00001797,0.00019696
 ,-0.00030297,-0.00245511,-0.00096826,0.00127782,0.05923309,0.05361909,
 -0.00001972,0.00002557,-0.00002693,-0.00011018,-0.00014318,-0.00001276
 ,-0.00036216,0.00040248,0.00050230,-0.00200395,0.00065603,-0.00152661,
 -0.00024871,0.00016334,-0.00035946,-0.00002261,-0.00005832,0.00012254,
 0.00005834,-0.00006691,0.00003171,-0.00000305,-0.00000686,-0.00003830,
 0.00001096,-0.00002732,0.00007893,-0.00032112,-0.00056113,0.00097073,0
 .00013002,-0.00028658,0.00006720,0.00017098,-0.00019167,-0.00220389,0.
 00038527,0.00642897,-0.00145865,0.02108664,0.01304061,-0.03334334,0.11
 137940,0.03967207,-0.12839254,-0.01259471,-0.00096365,0.00818869,0.000
 00169,0.00000288,0.00000089,-0.00000116,0.00000366,0.,-0.00000921,-0.0
 0000395,-0.00000473,-0.00000394,0.00002882,0.00000785,-0.00000591,0.00
 002467,-0.00000321,0.00002497,0.00002606,0.00003173,0.00006463,0.00010
 617,0.00001301,0.00014090,-0.00012231,-0.00011522,-0.11948250,-0.05782
 964,0.15605664,0.00004428,-0.00001900,0.00004514,-0.00010495,0.0001552
 0,0.00003615,0.00185922,0.00054509,-0.00085354,-0.00691246,0.01662546,
 0.02695469,-0.00466085,0.00019025,-0.00093854,0.00035822,-0.00133977,0
 .00155979,-0.00043778,-0.00015919,-0.00074182,0.00018867,0.00047433,0.
 00070606,-0.00006393,-0.00012075,-0.00035038,-0.00024161,-0.00000554,-
 0.00028664,0.00033947,-0.00073170,0.00055317,0.00042404,0.00069641,-0.
 00092061,-0.00168142,-0.00278123,0.00079732,-0.00240616,0.00512063,-0.
 00026202,0.00099172,-0.01600520,-0.02362764,-0.04323544,0.00394760,0.0
 0770661,-0.00001617,-0.00000217,0.00000394,-0.00002636,-0.00001255,-0.
 00001507,0.00001755,-0.00000490,0.00000760,0.00006589,0.00061299,0.000
 13074,0.00002545,0.00003391,0.00004028,-0.00011756,0.00008842,0.000052
 23,0.00012986,-0.00011706,0.00013877,0.00024600,0.00003798,-0.00022795
 ,0.00025686,0.00075986,0.00142590,0.05503630,-0.00000702,-0.00001226,0
 .00002478,0.00001602,-0.00009415,-0.00022326,-0.00016505,0.00094853,-0
 .00004609,-0.00004291,0.00354284,0.00520067,-0.00125457,-0.00020240,0.
 00093030,0.00015177,-0.00025242,0.00020147,-0.00007890,0.00003277,-0.0
 0005201,-0.00000833,0.00006332,-0.00034113,0.00003691,-0.00004464,0.00
 029621,0.00018774,0.00110278,0.00003206,0.00044307,0.00004846,-0.00022
 796,0.00065839,-0.00017823,0.00036226,-0.00027796,0.00064645,0.0001422
 8,0.00100472,-0.00233863,-0.00004043,0.00069371,0.00419212,0.00684252,
 0.00657354,-0.13314298,-0.12161063,-0.00002247,-0.00000446,0.00000800,
 0.00000574,0.00001283,-0.00000462,0.00000032,-0.00000118,0.00000204,0.
 00012242,0.00012295,0.00003609,0.00004974,-0.00018249,-0.00009733,0.00
 014677,-0.00005433,-0.00007470,0.00006472,-0.00006878,0.00014499,-0.00
 009601,0.00004075,0.00004342,-0.00061865,-0.00010110,-0.00032699,-0.00
 797117,0.14695783,0.00000019,-0.00001137,-0.00003879,0.00005891,0.0000
 1359,0.00008313,-0.00079275,0.00037908,0.00104645,0.00317030,-0.008468
 99,-0.01395985,0.00251724,-0.00040860,0.00148882,-0.00001299,0.0006919
 0,-0.00083921,0.00014438,-0.00001916,0.00031621,-0.00004895,-0.0001331
 9,-0.00024085,0.00003920,0.00002126,0.00014701,-0.00033813,-0.00015778
 ,0.00044285,0.00017828,0.00064273,-0.00028078,0.00019623,-0.00034931,0
 .00029232,-0.00158418,-0.00151883,-0.00012993,-0.00126309,0.00223550,0
 .00053676,-0.00230407,-0.00971115,-0.01861448,0.01280254,-0.12476790,-
 0.20011398,0.00000054,-0.00000008,0.00000099,0.00000275,0.00000361,0.0
 0001035,0.00000288,-0.00000084,-0.00000492,-0.00005825,-0.00025600,-0.
 00002895,-0.00001913,0.00003116,-0.00001084,0.00014090,-0.00023191,-0.
 00016991,-0.00030199,0.00036899,0.00004301,-0.00005888,0.00028695,-0.0
 0020688,-0.00058011,0.00088268,0.00088148,-0.01180714,0.13358090,0.220
 55170,-0.00003529,0.00006506,-0.00005866,-0.00014698,-0.00008071,0.000
 46028,-0.00004151,-0.00012656,-0.00053761,-0.00430429,-0.02512667,0.01
 458034,0.00224874,0.00055549,-0.00191547,-0.00021004,-0.00013962,0.000
 62271,0.00039596,0.00054112,-0.00036103,-0.00054724,-0.00036069,0.0005
 9739,0.00023532,0.00023824,-0.00047157,-0.00416642,-0.00235049,0.00201
 376,0.00051147,0.00031615,0.00114155,-0.00194257,0.00162040,-0.0020472
 3,-0.00012147,0.00051935,0.00127981,-0.00319796,-0.00290880,-0.0016457
 1,-0.00135263,0.02669561,-0.01315319,-0.04322880,-0.00967927,0.0054889
 4,0.00004880,0.00001628,-0.00000951,0.00001273,0.00000081,0.00000852,-
 0.00002684,0.00000037,-0.00000303,-0.00025786,-0.00008196,-0.00009470,
 -0.00024131,0.00011283,-0.00045395,-0.00025901,-0.00041793,-0.00045992
 ,0.00013903,-0.00026513,0.00004799,0.00030728,-0.00012740,0.00006759,0
 .00055976,-0.00056538,0.00030922,-0.00007885,0.00038749,-0.00008467,0.
 05569998,-0.00003089,0.00006409,-0.00005863,-0.00019328,-0.00007465,0.
 00031994,-0.00026059,-0.00006884,0.00034251,-0.00256565,-0.00204602,0.
 00216271,-0.00029205,0.00079211,-0.00018205,-0.00007813,-0.00027639,0.
 00043013,-0.00002273,0.00008174,-0.00035679,-0.00002567,-0.00007636,0.
 00073481,0.00011816,0.00003364,-0.00054386,0.00041189,0.00088683,-0.00
 120862,-0.00009929,0.00017544,0.00019237,-0.00001411,0.00009513,0.0001
 8112,-0.00051944,-0.00052602,-0.00000232,0.00115737,0.00024514,-0.0015
 4212,-0.00024519,-0.00414219,0.00319820,-0.00894753,-0.25720141,0.0856
 5692,0.00003489,0.00002194,-0.00001403,-0.00000149,-0.00000951,0.00000
 337,-0.00002854,-0.00000805,-0.00000647,-0.00007781,0.00004930,-0.0000
 4854,-0.00017898,0.00021628,-0.00016542,0.00003557,-0.00021230,-0.0001
 2178,-0.00007164,0.00019646,-0.00005192,-0.00002180,0.00013209,-0.0001
 6260,0.00077342,0.00100614,0.00000718,-0.00001790,-0.02103355,0.006896
 76,0.01116142,0.28167898,0.00004282,-0.00002929,0.00000889,0.00018391,
 -0.00013608,-0.00016169,0.00011932,0.00029173,-0.00015293,0.00230605,0
 .01327375,-0.00694040,-0.00128358,0.00046315,0.00076087,0.00016390,-0.
 00001351,-0.00024168,-0.00048384,-0.00050378,0.00002538,0.00035965,0.0
 0042433,0.00049525,-0.00013388,-0.00001872,-0.00015153,0.00213596,0.00
 137096,-0.00108556,0.00031143,0.00005819,-0.00064882,0.00130440,-0.000
 86311,0.00028717,0.00037658,0.00159399,0.00084687,-0.00368311,-0.00346
 180,-0.00044085,-0.00259903,0.02040771,-0.01237496,0.00595644,0.088662
 75,-0.07323252,-0.00001651,-0.00000152,0.00001022,-0.00001102,-0.00000
 124,-0.00000392,0.00001851,0.00000508,0.00000941,0.00006708,0.00008311
 ,0.00004608,-0.00005435,0.00004326,0.00013886,0.00013085,0.00024453,0.
 00022621,-0.00006136,0.00009974,0.00001352,-0.00012091,-0.00002163,0.0
 0012140,0.00041956,-0.00150787,0.00053196,-0.00012700,-0.02480286,0.00
 879830,-0.00532185,-0.09566087,0.08311443\\0.00007257,-0.00002186,0.00
 002728,-0.00009543,0.00004635,0.00000113,0.00011241,0.00008543,-0.0000
 2033,0.00009254,-0.00012858,-0.00014016,-0.00017551,0.00004833,0.00010
 695,0.00001190,-0.00002139,0.00016304,-0.00004509,-0.00010579,-0.00005
 813,-0.00002226,0.00015884,-0.00010032,0.00004354,-0.00005474,0.000117
 25,0.00007435,-0.00015906,0.00007513,-0.00004915,0.00004032,0.00001860
 ,-0.00007327,0.00017247,0.00006999,0.00004688,-0.00012613,0.00016904,-
 0.00008222,0.00023871,-0.00031043,0.00021791,-0.00017937,0.00011863,-0
 .00024141,0.00014097,-0.00007823,-0.00000145,-0.00001325,0.00000781,0.
 00001432,-0.00000124,0.00001753,0.00004789,0.00000821,-0.00000133,0.00
 005233,-0.00000426,-0.00012849,-0.00001470,0.00002102,-0.00001994,0.00
 001294,-0.00000275,-0.00000796,-0.00001382,-0.00003041,-0.00003363,-0.
 00008819,-0.00004555,-0.00002472,-0.00000021,-0.00001448,-0.00000001,0
 .00009479,-0.00005028,0.00002288,0.00000835,-0.00000150,0.00000844\\\@


 THOSE WHO ARE UNABLE TO LEARN FROM PAST MEETINGS
 ARE CONDEMNED TO REPEAT THEM.
 Job cpu time:       0 days 11 hours 14 minutes  0.5 seconds.
 Elapsed time:       0 days  2 hours 48 minutes 30.4 seconds.
 File lengths (MBytes):  RWF=    494 Int=      0 D2E=      0 Chk=     21 Scr=      1
 Normal termination of Gaussian 16 at Thu May 18 19:49:54 2023.
### All Done ###
