### Starting Gaussian ###
 Entering Gaussian System, Link 0=g16
 Initial command:
 /cluster/software/gaussian/gaussian-16-A.03/avx2/g16/l1.exe "/local/scratch/yxie/Gau-25143.inp" -scrdir="/local/scratch/yxie/"
 Entering Link 1 = /cluster/software/gaussian/gaussian-16-A.03/avx2/g16/l1.exe PID=     25152.
  
 Copyright (c) 1988,1990,1992,1993,1995,1998,2003,2009,2016,
            Gaussian, Inc.  All Rights Reserved.
  
 This is part of the Gaussian(R) 16 program.  It is based on
 the Gaussian(R) 09 system (copyright 2009, Gaussian, Inc.),
 the Gaussian(R) 03 system (copyright 2003, Gaussian, Inc.),
 the Gaussian(R) 98 system (copyright 1998, Gaussian, Inc.),
 the Gaussian(R) 94 system (copyright 1995, Gaussian, Inc.),
 the Gaussian 92(TM) system (copyright 1992, Gaussian, Inc.),
 the Gaussian 90(TM) system (copyright 1990, Gaussian, Inc.),
 the Gaussian 88(TM) system (copyright 1988, Gaussian, Inc.),
 the Gaussian 86(TM) system (copyright 1986, Carnegie Mellon
 University), and the Gaussian 82(TM) system (copyright 1983,
 Carnegie Mellon University). Gaussian is a federally registered
 trademark of Gaussian, Inc.
  
 This software contains proprietary and confidential information,
 including trade secrets, belonging to Gaussian, Inc.
  
 This software is provided under written license and may be
 used, copied, transmitted, or stored only in accord with that
 written license.
  
 The following legend is applicable only to US Government
 contracts under FAR:
  
                    RESTRICTED RIGHTS LEGEND
  
 Use, reproduction and disclosure by the US Government is
 subject to restrictions as set forth in subparagraphs (a)
 and (c) of the Commercial Computer Software - Restricted
 Rights clause in FAR 52.227-19.
  
 Gaussian, Inc.
 340 Quinnipiac St., Bldg. 40, Wallingford CT 06492
  
  
 ---------------------------------------------------------------
 Warning -- This program may not be used in any manner that
 competes with the business of Gaussian, Inc. or will provide
 assistance to any competitor of Gaussian, Inc.  The licensee
 of this program is prohibited from giving any competitor of
 Gaussian, Inc. access to this program.  By using this program,
 the user acknowledges that Gaussian, Inc. is engaged in the
 business of creating and licensing software in the field of
 computational chemistry and represents and warrants to the
 licensee that it is not a competitor of Gaussian, Inc. and that
 it will not use this program in any manner prohibited above.
 ---------------------------------------------------------------
  

 Cite this work as:
 Gaussian 16, Revision A.03,
 M. J. Frisch, G. W. Trucks, H. B. Schlegel, G. E. Scuseria, 
 M. A. Robb, J. R. Cheeseman, G. Scalmani, V. Barone, 
 G. A. Petersson, H. Nakatsuji, X. Li, M. Caricato, A. V. Marenich, 
 J. Bloino, B. G. Janesko, R. Gomperts, B. Mennucci, H. P. Hratchian, 
 J. V. Ortiz, A. F. Izmaylov, J. L. Sonnenberg, D. Williams-Young, 
 F. Ding, F. Lipparini, F. Egidi, J. Goings, B. Peng, A. Petrone, 
 T. Henderson, D. Ranasinghe, V. G. Zakrzewski, J. Gao, N. Rega, 
 G. Zheng, W. Liang, M. Hada, M. Ehara, K. Toyota, R. Fukuda, 
 J. Hasegawa, M. Ishida, T. Nakajima, Y. Honda, O. Kitao, H. Nakai, 
 T. Vreven, K. Throssell, J. A. Montgomery, Jr., J. E. Peralta, 
 F. Ogliaro, M. J. Bearpark, J. J. Heyd, E. N. Brothers, K. N. Kudin, 
 V. N. Staroverov, T. A. Keith, R. Kobayashi, J. Normand, 
 K. Raghavachari, A. P. Rendell, J. C. Burant, S. S. Iyengar, 
 J. Tomasi, M. Cossi, J. M. Millam, M. Klene, C. Adamo, R. Cammi, 
 J. W. Ochterski, R. L. Martin, K. Morokuma, O. Farkas, 
 J. B. Foresman, and D. J. Fox, Gaussian, Inc., Wallingford CT, 2016.
 
 ******************************************
 Gaussian 16:  ES64L-G16RevA.03 25-Dec-2016
                18-May-2023 
 ******************************************
 %chk=CC1CNdNC2dCCdC3CdCCqdC31rCqdOrNCCC2.chk
 %NProcShared=20
 Will use up to   20 processors via shared memory.
 -----------------------------
 # opt freq b3lyp/6-31g(2df,p)
 -----------------------------
 1/18=20,19=15,26=3,38=1/1,3;
 2/9=110,12=2,17=6,18=5,40=1/2;
 3/5=1,6=6,7=104,11=2,25=1,30=1,71=1,74=-5/1,2,3;
 4//1;
 5/5=2,38=5/2;
 6/7=2,8=2,9=2,10=2,28=1/1;
 7//1,2,3,16;
 1/18=20,19=15,26=3/3(2);
 2/9=110/2;
 99//99;
 2/9=110/2;
 3/5=1,6=6,7=104,11=2,25=1,30=1,71=1,74=-5/1,2,3;
 4/5=5,16=3,69=1/1;
 5/5=2,38=5/2;
 7//1,2,3,16;
 1/18=20,19=15,26=3/3(-5);
 2/9=110/2;
 6/7=2,8=2,9=2,10=2,19=2,28=1/1;
 99/9=1/99;
 -------------------
 Title Card Required
 -------------------
 Symbolic Z-matrix:
 Charge =  0 Multiplicity = 1
 C                     0.61571  -0.24098   0.48591 
 C                     1.99678   0.28721   0.55636 
 C                     2.97934   0.42438   1.90613 
 N                     3.06424   1.72633   2.68201 
 N                     3.94689   2.65531   2.30326 
 C                     3.40506   4.03489   2.2282 
 C                     2.10922   3.97661   2.51164 
 C                     1.71987   3.25045   1.23396 
 C                     2.42915   2.52026   0.21227 
 C                     3.68836   1.67319  -0.50416 
 C                     3.25119   0.84007  -1.56655 
 C                     2.06297   1.67684  -1.7897 
 C                     1.60085   1.66556  -0.49444 
 C                     2.47171   2.55693  -2.97632 
 O                     2.99873   1.99857  -4.00833 
 N                     2.50978   3.8937   -2.85752 
 C                     3.27161   4.50028  -1.77971 
 C                     2.43835   5.03975  -0.62819 
 C                     3.41391   5.09065   0.79941 
 H                     0.39206  -0.99619   1.21569 
 H                     0.48483  -0.65368  -0.53487 
 H                    -0.05098   0.61724   0.56137 
 H                     2.57909  -0.53268   0.05504 
 H                     4.02517   0.23019   1.62554 
 H                     2.71593  -0.40624   2.57148 
 H                     1.72247   3.5947    3.47178 
 H                     0.99473   4.05678   1.01757 
 H                     4.6606    1.36633  -0.12096 
 H                     2.40332   0.15025  -1.957 
 H                     1.69045   4.34427  -3.24615 
 H                     3.92273   5.27317  -2.17231 
 H                     3.95695   3.74422  -1.41289 
 H                     1.49222   4.47346  -0.62047 
 H                     1.99926   6.01146  -0.89479 
 H                     3.08945   6.07392   1.20067 
 H                     4.44705   5.20279   0.4822 
 

 GradGradGradGradGradGradGradGradGradGradGradGradGradGradGradGradGradGrad
 Berny optimization.
 Initialization pass.
                           ----------------------------
                           !    Initial Parameters    !
                           ! (Angstroms and Degrees)  !
 --------------------------                            --------------------------
 ! Name  Definition              Value          Derivative Info.                !
 --------------------------------------------------------------------------------
 ! R1    R(1,2)                  1.4803         estimate D2E/DX2                !
 ! R2    R(1,20)                 1.0738         estimate D2E/DX2                !
 ! R3    R(1,21)                 1.1088         estimate D2E/DX2                !
 ! R4    R(1,22)                 1.0894         estimate D2E/DX2                !
 ! R5    R(2,3)                  1.6751         estimate D2E/DX2                !
 ! R6    R(2,13)                 1.7779         estimate D2E/DX2                !
 ! R7    R(2,23)                 1.1237         estimate D2E/DX2                !
 ! R8    R(3,4)                  1.518          estimate D2E/DX2                !
 ! R9    R(3,24)                 1.1001         estimate D2E/DX2                !
 ! R10   R(3,25)                 1.0964         estimate D2E/DX2                !
 ! R11   R(4,5)                  1.3362         estimate D2E/DX2                !
 ! R12   R(5,6)                  1.4841         estimate D2E/DX2                !
 ! R13   R(6,7)                  1.3278         estimate D2E/DX2                !
 ! R14   R(6,19)                 1.7766         estimate D2E/DX2                !
 ! R15   R(7,8)                  1.5203         estimate D2E/DX2                !
 ! R16   R(7,26)                 1.1033         estimate D2E/DX2                !
 ! R17   R(8,9)                  1.4423         estimate D2E/DX2                !
 ! R18   R(8,27)                 1.1058         estimate D2E/DX2                !
 ! R19   R(9,10)                 1.6782         estimate D2E/DX2                !
 ! R20   R(9,13)                 1.3842         estimate D2E/DX2                !
 ! R21   R(10,11)                1.4191         estimate D2E/DX2                !
 ! R22   R(10,28)                1.0892         estimate D2E/DX2                !
 ! R23   R(11,12)                1.4703         estimate D2E/DX2                !
 ! R24   R(11,29)                1.1607         estimate D2E/DX2                !
 ! R25   R(12,13)                1.3753         estimate D2E/DX2                !
 ! R26   R(12,14)                1.5329         estimate D2E/DX2                !
 ! R27   R(14,15)                1.2863         estimate D2E/DX2                !
 ! R28   R(14,16)                1.3426         estimate D2E/DX2                !
 ! R29   R(16,17)                1.4526         estimate D2E/DX2                !
 ! R30   R(16,30)                1.0126         estimate D2E/DX2                !
 ! R31   R(17,18)                1.5203         estimate D2E/DX2                !
 ! R32   R(17,31)                1.0842         estimate D2E/DX2                !
 ! R33   R(17,32)                1.0844         estimate D2E/DX2                !
 ! R34   R(18,19)                1.7298         estimate D2E/DX2                !
 ! R35   R(18,33)                1.1027         estimate D2E/DX2                !
 ! R36   R(18,34)                1.0991         estimate D2E/DX2                !
 ! R37   R(19,35)                1.1105         estimate D2E/DX2                !
 ! R38   R(19,36)                1.0865         estimate D2E/DX2                !
 ! A1    A(2,1,20)             114.3896         estimate D2E/DX2                !
 ! A2    A(2,1,21)             106.6632         estimate D2E/DX2                !
 ! A3    A(2,1,22)             106.653          estimate D2E/DX2                !
 ! A4    A(20,1,21)            109.836          estimate D2E/DX2                !
 ! A5    A(20,1,22)            112.3059         estimate D2E/DX2                !
 ! A6    A(21,1,22)            106.5445         estimate D2E/DX2                !
 ! A7    A(1,2,3)              127.9371         estimate D2E/DX2                !
 ! A8    A(1,2,13)              92.3344         estimate D2E/DX2                !
 ! A9    A(1,2,23)             101.6481         estimate D2E/DX2                !
 ! A10   A(3,2,13)             122.9143         estimate D2E/DX2                !
 ! A11   A(3,2,23)              96.6193         estimate D2E/DX2                !
 ! A12   A(13,2,23)            114.671          estimate D2E/DX2                !
 ! A13   A(2,3,4)              120.9896         estimate D2E/DX2                !
 ! A14   A(2,3,24)             109.7336         estimate D2E/DX2                !
 ! A15   A(2,3,25)             106.6206         estimate D2E/DX2                !
 ! A16   A(4,3,24)             103.2145         estimate D2E/DX2                !
 ! A17   A(4,3,25)             110.6737         estimate D2E/DX2                !
 ! A18   A(24,3,25)            104.4456         estimate D2E/DX2                !
 ! A19   A(3,4,5)              119.2321         estimate D2E/DX2                !
 ! A20   A(4,5,6)              114.7995         estimate D2E/DX2                !
 ! A21   A(5,6,7)              107.7414         estimate D2E/DX2                !
 ! A22   A(5,6,19)             126.2487         estimate D2E/DX2                !
 ! A23   A(7,6,19)             101.6909         estimate D2E/DX2                !
 ! A24   A(6,7,8)               95.2501         estimate D2E/DX2                !
 ! A25   A(6,7,26)             122.8932         estimate D2E/DX2                !
 ! A26   A(8,7,26)             118.4403         estimate D2E/DX2                !
 ! A27   A(7,8,9)              135.3337         estimate D2E/DX2                !
 ! A28   A(7,8,27)              89.0895         estimate D2E/DX2                !
 ! A29   A(9,8,27)             123.5755         estimate D2E/DX2                !
 ! A30   A(8,9,10)             157.9653         estimate D2E/DX2                !
 ! A31   A(8,9,13)             112.334          estimate D2E/DX2                !
 ! A32   A(10,9,13)             85.3754         estimate D2E/DX2                !
 ! A33   A(9,10,11)            112.6292         estimate D2E/DX2                !
 ! A34   A(9,10,28)            131.4368         estimate D2E/DX2                !
 ! A35   A(11,10,28)           111.8996         estimate D2E/DX2                !
 ! A36   A(10,11,12)            91.6312         estimate D2E/DX2                !
 ! A37   A(10,11,29)           145.6677         estimate D2E/DX2                !
 ! A38   A(12,11,29)            72.3526         estimate D2E/DX2                !
 ! A39   A(11,12,13)            97.1197         estimate D2E/DX2                !
 ! A40   A(11,12,14)           103.2233         estimate D2E/DX2                !
 ! A41   A(13,12,14)           145.4252         estimate D2E/DX2                !
 ! A42   A(2,13,9)              92.504          estimate D2E/DX2                !
 ! A43   A(2,13,12)            119.2215         estimate D2E/DX2                !
 ! A44   A(9,13,12)            105.9448         estimate D2E/DX2                !
 ! A45   A(12,14,15)           118.7577         estimate D2E/DX2                !
 ! A46   A(12,14,16)           120.712          estimate D2E/DX2                !
 ! A47   A(15,14,16)           119.4445         estimate D2E/DX2                !
 ! A48   A(14,16,17)           119.7561         estimate D2E/DX2                !
 ! A49   A(14,16,30)           112.7143         estimate D2E/DX2                !
 ! A50   A(17,16,30)           121.5558         estimate D2E/DX2                !
 ! A51   A(16,17,18)           115.0071         estimate D2E/DX2                !
 ! A52   A(16,17,31)           110.1192         estimate D2E/DX2                !
 ! A53   A(16,17,32)           106.9367         estimate D2E/DX2                !
 ! A54   A(18,17,31)           110.5164         estimate D2E/DX2                !
 ! A55   A(18,17,32)           109.7297         estimate D2E/DX2                !
 ! A56   A(31,17,32)           103.8849         estimate D2E/DX2                !
 ! A57   A(17,18,19)           109.0521         estimate D2E/DX2                !
 ! A58   A(17,18,33)           107.0582         estimate D2E/DX2                !
 ! A59   A(17,18,34)           110.4225         estimate D2E/DX2                !
 ! A60   A(19,18,33)           119.5528         estimate D2E/DX2                !
 ! A61   A(19,18,34)           113.5442         estimate D2E/DX2                !
 ! A62   A(33,18,34)            96.4852         estimate D2E/DX2                !
 ! A63   A(6,19,18)            130.0482         estimate D2E/DX2                !
 ! A64   A(6,19,35)            103.541          estimate D2E/DX2                !
 ! A65   A(6,19,36)            107.5096         estimate D2E/DX2                !
 ! A66   A(18,19,35)            99.177          estimate D2E/DX2                !
 ! A67   A(18,19,36)           107.3581         estimate D2E/DX2                !
 ! A68   A(35,19,36)           106.9737         estimate D2E/DX2                !
 ! D1    D(20,1,2,3)           -30.051          estimate D2E/DX2                !
 ! D2    D(20,1,2,13)         -166.2148         estimate D2E/DX2                !
 ! D3    D(20,1,2,23)           78.0037         estimate D2E/DX2                !
 ! D4    D(21,1,2,3)          -151.6937         estimate D2E/DX2                !
 ! D5    D(21,1,2,13)           72.1425         estimate D2E/DX2                !
 ! D6    D(21,1,2,23)          -43.639          estimate D2E/DX2                !
 ! D7    D(22,1,2,3)            94.7415         estimate D2E/DX2                !
 ! D8    D(22,1,2,13)          -41.4223         estimate D2E/DX2                !
 ! D9    D(22,1,2,23)         -157.2038         estimate D2E/DX2                !
 ! D10   D(1,2,3,4)            -95.6011         estimate D2E/DX2                !
 ! D11   D(1,2,3,24)           144.4819         estimate D2E/DX2                !
 ! D12   D(1,2,3,25)            31.9214         estimate D2E/DX2                !
 ! D13   D(13,2,3,4)            28.8768         estimate D2E/DX2                !
 ! D14   D(13,2,3,24)          -91.0402         estimate D2E/DX2                !
 ! D15   D(13,2,3,25)          156.3993         estimate D2E/DX2                !
 ! D16   D(23,2,3,4)           154.0233         estimate D2E/DX2                !
 ! D17   D(23,2,3,24)           34.1062         estimate D2E/DX2                !
 ! D18   D(23,2,3,25)          -78.4543         estimate D2E/DX2                !
 ! D19   D(1,2,13,9)           143.374          estimate D2E/DX2                !
 ! D20   D(1,2,13,12)         -106.7776         estimate D2E/DX2                !
 ! D21   D(3,2,13,9)             3.9676         estimate D2E/DX2                !
 ! D22   D(3,2,13,12)          113.8159         estimate D2E/DX2                !
 ! D23   D(23,2,13,9)         -112.675          estimate D2E/DX2                !
 ! D24   D(23,2,13,12)          -2.8267         estimate D2E/DX2                !
 ! D25   D(2,3,4,5)            -87.2833         estimate D2E/DX2                !
 ! D26   D(24,3,4,5)            35.7833         estimate D2E/DX2                !
 ! D27   D(25,3,4,5)           147.0364         estimate D2E/DX2                !
 ! D28   D(3,4,5,6)            133.5894         estimate D2E/DX2                !
 ! D29   D(4,5,6,7)             -2.8893         estimate D2E/DX2                !
 ! D30   D(4,5,6,19)          -122.7824         estimate D2E/DX2                !
 ! D31   D(5,6,7,8)            -69.2591         estimate D2E/DX2                !
 ! D32   D(5,6,7,26)            59.7164         estimate D2E/DX2                !
 ! D33   D(19,6,7,8)            65.1817         estimate D2E/DX2                !
 ! D34   D(19,6,7,26)         -165.8429         estimate D2E/DX2                !
 ! D35   D(5,6,19,18)           74.9628         estimate D2E/DX2                !
 ! D36   D(5,6,19,35)         -170.4089         estimate D2E/DX2                !
 ! D37   D(5,6,19,36)          -57.4016         estimate D2E/DX2                !
 ! D38   D(7,6,19,18)          -47.5557         estimate D2E/DX2                !
 ! D39   D(7,6,19,35)           67.0725         estimate D2E/DX2                !
 ! D40   D(7,6,19,36)         -179.9202         estimate D2E/DX2                !
 ! D41   D(6,7,8,9)             15.66           estimate D2E/DX2                !
 ! D42   D(6,7,8,27)          -124.7592         estimate D2E/DX2                !
 ! D43   D(26,7,8,9)          -116.4056         estimate D2E/DX2                !
 ! D44   D(26,7,8,27)          103.1752         estimate D2E/DX2                !
 ! D45   D(7,8,9,10)            17.4711         estimate D2E/DX2                !
 ! D46   D(7,8,9,13)           158.9809         estimate D2E/DX2                !
 ! D47   D(27,8,9,10)          147.5941         estimate D2E/DX2                !
 ! D48   D(27,8,9,13)          -70.8962         estimate D2E/DX2                !
 ! D49   D(8,9,10,11)          157.2696         estimate D2E/DX2                !
 ! D50   D(8,9,10,28)            2.1757         estimate D2E/DX2                !
 ! D51   D(13,9,10,11)          12.5497         estimate D2E/DX2                !
 ! D52   D(13,9,10,28)        -142.5442         estimate D2E/DX2                !
 ! D53   D(8,9,13,2)           -94.1414         estimate D2E/DX2                !
 ! D54   D(8,9,13,12)          144.4794         estimate D2E/DX2                !
 ! D55   D(10,9,13,2)           72.3106         estimate D2E/DX2                !
 ! D56   D(10,9,13,12)         -49.0686         estimate D2E/DX2                !
 ! D57   D(9,10,11,12)          24.4678         estimate D2E/DX2                !
 ! D58   D(9,10,11,29)         -35.7935         estimate D2E/DX2                !
 ! D59   D(28,10,11,12)       -175.4256         estimate D2E/DX2                !
 ! D60   D(28,10,11,29)        124.3131         estimate D2E/DX2                !
 ! D61   D(10,11,12,13)        -52.758          estimate D2E/DX2                !
 ! D62   D(10,11,12,14)         99.0943         estimate D2E/DX2                !
 ! D63   D(29,11,12,13)         96.3183         estimate D2E/DX2                !
 ! D64   D(29,11,12,14)       -111.8294         estimate D2E/DX2                !
 ! D65   D(11,12,13,2)         -27.0318         estimate D2E/DX2                !
 ! D66   D(11,12,13,9)          75.2006         estimate D2E/DX2                !
 ! D67   D(14,12,13,2)        -153.0085         estimate D2E/DX2                !
 ! D68   D(14,12,13,9)         -50.7761         estimate D2E/DX2                !
 ! D69   D(11,12,14,15)         48.4155         estimate D2E/DX2                !
 ! D70   D(11,12,14,16)       -119.6054         estimate D2E/DX2                !
 ! D71   D(13,12,14,15)        172.8385         estimate D2E/DX2                !
 ! D72   D(13,12,14,16)          4.8176         estimate D2E/DX2                !
 ! D73   D(12,14,16,17)         53.0887         estimate D2E/DX2                !
 ! D74   D(12,14,16,30)       -100.1392         estimate D2E/DX2                !
 ! D75   D(15,14,16,17)       -114.8509         estimate D2E/DX2                !
 ! D76   D(15,14,16,30)         91.9212         estimate D2E/DX2                !
 ! D77   D(14,16,17,18)       -104.3491         estimate D2E/DX2                !
 ! D78   D(14,16,17,31)        130.0075         estimate D2E/DX2                !
 ! D79   D(14,16,17,32)         17.7537         estimate D2E/DX2                !
 ! D80   D(30,16,17,18)         46.4674         estimate D2E/DX2                !
 ! D81   D(30,16,17,31)        -79.1761         estimate D2E/DX2                !
 ! D82   D(30,16,17,32)        168.5701         estimate D2E/DX2                !
 ! D83   D(16,17,18,19)        155.9788         estimate D2E/DX2                !
 ! D84   D(16,17,18,33)         25.3023         estimate D2E/DX2                !
 ! D85   D(16,17,18,34)        -78.6031         estimate D2E/DX2                !
 ! D86   D(31,17,18,19)        -78.5836         estimate D2E/DX2                !
 ! D87   D(31,17,18,33)        150.7399         estimate D2E/DX2                !
 ! D88   D(31,17,18,34)         46.8345         estimate D2E/DX2                !
 ! D89   D(32,17,18,19)         35.3959         estimate D2E/DX2                !
 ! D90   D(32,17,18,33)        -95.2806         estimate D2E/DX2                !
 ! D91   D(32,17,18,34)        160.8139         estimate D2E/DX2                !
 ! D92   D(17,18,19,6)        -105.3039         estimate D2E/DX2                !
 ! D93   D(17,18,19,35)        138.2329         estimate D2E/DX2                !
 ! D94   D(17,18,19,36)         27.1127         estimate D2E/DX2                !
 ! D95   D(33,18,19,6)          18.2392         estimate D2E/DX2                !
 ! D96   D(33,18,19,35)        -98.2241         estimate D2E/DX2                !
 ! D97   D(33,18,19,36)        150.6557         estimate D2E/DX2                !
 ! D98   D(34,18,19,6)         131.1118         estimate D2E/DX2                !
 ! D99   D(34,18,19,35)         14.6486         estimate D2E/DX2                !
 ! D100  D(34,18,19,36)        -96.4716         estimate D2E/DX2                !
 --------------------------------------------------------------------------------
 Trust Radius=3.00D-01 FncErr=1.00D-07 GrdErr=1.00D-06 EigMax=2.50D+02 EigMin=1.00D-04
 Number of steps in this run=    216 maximum allowed number of steps=    216.
 GradGradGradGradGradGradGradGradGradGradGradGradGradGradGradGradGradGrad

                          Input orientation:                          
 ---------------------------------------------------------------------
 Center     Atomic      Atomic             Coordinates (Angstroms)
 Number     Number       Type             X           Y           Z
 ---------------------------------------------------------------------
      1          6           0        0.615710   -0.240980    0.485910
      2          6           0        1.996780    0.287210    0.556360
      3          6           0        2.979340    0.424380    1.906130
      4          7           0        3.064240    1.726330    2.682010
      5          7           0        3.946890    2.655310    2.303260
      6          6           0        3.405060    4.034890    2.228200
      7          6           0        2.109220    3.976610    2.511640
      8          6           0        1.719870    3.250450    1.233960
      9          6           0        2.429150    2.520260    0.212270
     10          6           0        3.688360    1.673190   -0.504160
     11          6           0        3.251190    0.840070   -1.566550
     12          6           0        2.062970    1.676840   -1.789700
     13          6           0        1.600850    1.665560   -0.494440
     14          6           0        2.471710    2.556930   -2.976320
     15          8           0        2.998730    1.998570   -4.008330
     16          7           0        2.509780    3.893700   -2.857520
     17          6           0        3.271610    4.500280   -1.779710
     18          6           0        2.438350    5.039750   -0.628190
     19          6           0        3.413910    5.090650    0.799410
     20          1           0        0.392060   -0.996190    1.215690
     21          1           0        0.484830   -0.653680   -0.534870
     22          1           0       -0.050980    0.617240    0.561370
     23          1           0        2.579090   -0.532680    0.055040
     24          1           0        4.025170    0.230190    1.625540
     25          1           0        2.715930   -0.406240    2.571480
     26          1           0        1.722470    3.594700    3.471780
     27          1           0        0.994730    4.056780    1.017570
     28          1           0        4.660600    1.366330   -0.120960
     29          1           0        2.403320    0.150250   -1.957000
     30          1           0        1.690450    4.344270   -3.246150
     31          1           0        3.922730    5.273170   -2.172310
     32          1           0        3.956950    3.744220   -1.412890
     33          1           0        1.492220    4.473460   -0.620470
     34          1           0        1.999260    6.011460   -0.894790
     35          1           0        3.089450    6.073920    1.200670
     36          1           0        4.447050    5.202790    0.482200
 ---------------------------------------------------------------------
                    Distance matrix (angstroms):
                    1          2          3          4          5
     1  C    0.000000
     2  C    1.480305   0.000000
     3  C    2.836631   1.675147   0.000000
     4  N    3.832553   2.780094   1.517983   0.000000
     5  N    4.773680   3.530225   2.463922   1.336236   0.000000
     6  C    5.394359   4.338595   3.649760   2.377299   1.484067
     7  C    4.911438   4.177013   3.707032   2.450479   2.272947
     8  C    3.737490   3.052313   3.166188   2.495420   2.541105
     9  C    3.314799   2.300403   2.750379   2.670820   2.587279
    10  C    3.753061   2.430450   2.805661   3.247157   2.985466
    11  C    3.510985   2.527043   3.508020   4.344038   4.330649
    12  C    3.309229   2.727536   4.008435   4.582705   4.610735
    13  C    2.359339   1.777861   3.033727   3.497862   3.782940
    14  C    4.822870   4.225756   5.351988   5.749581   5.482682
    15  O    5.558108   4.976852   6.120399   6.696197   6.416111
    16  N    5.644608   4.992446   5.911770   5.974221   5.498413
    17  C    5.887817   4.983209   5.503072   5.257827   4.531066
    18  C    5.696433   4.917802   5.293117   4.725242   4.068740
    19  C    6.029468   5.014017   4.815367   3.871059   2.911445
    20  H    1.073751   2.157999   3.031294   4.086900   5.210861
    21  H    1.108802   2.088552   3.652845   4.760895   5.566889
    22  H    1.089363   2.074190   3.320906   3.928332   4.813613
    23  H    2.031157   1.123666   2.121956   3.498495   4.133842
    24  H    3.625628   2.293635   1.100091   2.068321   2.519254
    25  H    2.964429   2.249168   1.096360   2.163652   3.310633
    26  H    4.985256   4.417512   3.752587   2.432055   2.682524
    27  H    4.347075   3.927655   4.233503   3.533303   3.511747
    28  H    4.394641   2.952829   2.796962   3.245706   2.836846
    29  H    3.052281   2.549708   3.915446   4.943810   5.177620
    30  H    6.008981   5.568901   6.600967   6.624499   6.224151
    31  H    6.957612   6.001227   6.405812   6.073014   5.185027
    32  H    5.536348   4.435215   4.795097   4.651561   3.872415
    33  H    4.921208   4.377693   4.999028   4.574314   4.228389
    34  H    6.550843   5.905326   6.326229   5.682431   5.028372
    35  H    6.819695   5.924110   5.694480   4.593097   3.692940
    36  H    6.656862   5.492927   5.197591   4.340173   3.171131
                    6          7          8          9         10
     6  C    0.000000
     7  C    1.327756   0.000000
     8  C    2.108014   1.520318   0.000000
     9  C    2.703790   2.740513   1.442257   0.000000
    10  C    3.622662   4.110289   3.063293   1.678216   0.000000
    11  C    4.962930   5.270068   3.999716   2.581277   1.419112
    12  C    4.848209   4.877767   3.425855   2.203027   2.072322
    13  C    4.035055   3.825691   2.348065   1.384208   2.087547
    14  C    5.490222   5.680193   4.332746   3.189085   2.893581
    15  O    6.573128   6.871236   5.539340   4.290693   3.586178
    16  N    5.165850   5.384719   4.216389   3.363993   3.443547
    17  C    4.037046   4.476725   3.612780   2.932269   3.129400
    18  C    3.178559   3.331235   2.680562   2.655991   3.593276
    19  C    1.776555   2.423847   2.538689   2.814496   3.667922
    20  H    5.951060   5.418198   4.449423   4.185930   4.577015
    21  H    6.176163   5.775764   4.460528   3.796379   3.959529
    22  H    5.138372   4.444703   3.243776   3.145537   4.029026
    23  H    5.125187   5.156487   4.054650   3.060661   2.531610
    24  H    3.901728   4.300198   3.819648   3.128743   2.594477
    25  H    4.507369   4.425048   4.019014   3.769949   3.837865
    26  H    2.138076   1.103313   2.264145   3.504030   4.833738
    27  H    2.697368   1.865680   1.105812   2.250991   3.905484
    28  H    3.770430   4.500409   3.746146   2.534160   1.089154
    29  H    5.797397   5.890354   4.501174   3.212997   2.466053
    30  H    5.744920   5.784694   4.611799   3.979115   4.317965
    31  H    4.600631   5.187415   4.532843   3.936434   3.974608
    32  H    3.694132   4.343967   3.500593   2.544287   2.277520
    33  H    3.459223   3.230737   2.233045   2.320837   3.560628
    34  H    3.954260   3.969442   3.497544   3.687664   4.671856
    35  H    2.305010   2.660489   3.138286   3.747190   4.757264
    36  H    2.344835   3.329804   3.437191   3.367603   3.742538
                   11         12         13         14         15
    11  C    0.000000
    12  C    1.470322   0.000000
    13  C    2.134122   1.375275   0.000000
    14  C    2.354283   1.532871   2.777169   0.000000
    15  O    2.714433   2.429295   3.796365   1.286297   0.000000
    16  N    3.397197   2.500869   3.372671   1.342578   2.270452
    17  C    3.666469   3.071274   3.532562   2.418331   3.361512
    18  C    4.379331   3.577594   3.479146   3.417488   4.581282
    19  C    4.867409   4.492508   4.085643   4.643664   5.731291
    20  H    4.391735   4.355387   3.386832   5.875590   6.561532
    21  H    3.308837   3.081631   2.574104   4.496264   5.041731
    22  H    3.934720   3.334526   2.223118   4.758320   5.664889
    23  H    2.228388   2.924282   2.468024   4.329707   4.805653
    24  H    3.340724   4.196056   3.525894   5.385543   5.993433
    25  H    4.354662   4.877035   3.864664   6.294291   7.011204
    26  H    5.942200   5.610463   4.412173   6.573912   7.754258
    27  H    4.702819   3.832234   2.893353   4.514662   5.788948
    28  H    2.086412   3.103029   3.096949   3.789703   4.274715
    29  H    1.160684   1.572992   2.253709   2.614536   2.824669
    30  H    4.187646   3.061895   3.841279   1.969203   2.791921
    31  H    4.524410   4.066778   4.606650   3.182743   3.866232
    32  H    2.992624   2.828994   3.273467   2.461688   3.271359
    33  H    4.146151   3.084467   2.812825   3.191006   4.457830
    34  H    5.363009   4.426494   4.382449   4.060758   5.176520
    35  H    5.922571   5.415744   4.952067   5.495277   6.614408
    36  H    4.965962   4.824696   4.643994   4.781621   5.703465
                   16         17         18         19         20
    16  N    0.000000
    17  C    1.452583   0.000000
    18  C    2.507677   1.520312   0.000000
    19  C    3.952629   2.649650   1.729841   0.000000
    20  H    6.707220   6.890240   6.634739   6.808413   0.000000
    21  H    5.493067   5.989914   6.019975   6.584614   1.786163
    22  H    5.383446   5.621233   5.212524   5.663349   1.796545
    23  H    5.299118   5.401535   5.615923   5.733485   2.518938
    24  H    5.984609   5.513370   5.543389   4.967917   3.856355
    25  H    6.928638   6.581457   6.322479   5.817492   2.754375
    26  H    6.385084   5.549600   4.405724   3.498628   5.285471
    27  H    4.163928   3.633958   2.399749   2.639870   5.092639
    28  H    4.301440   3.808200   4.323158   4.033841   5.058514
    29  H    3.851712   4.439383   5.066969   5.746881   3.927525
    30  H    1.012595   2.162141   2.810118   4.460264   7.079149
    31  H    2.090186   1.084182   2.154571   3.020485   7.952927
    32  H    2.050269   1.084377   2.144831   2.646136   6.487631
    33  H    2.525063   2.123861   1.102681   2.467767   5.873577
    34  H    2.932209   2.164630   1.099134   2.391535   7.492955
    35  H    4.643090   3.375232   2.199584   1.110452   7.567205
    36  H    4.076820   2.644129   2.300961   1.086543   7.443675
                   21         22         23         24         25
    21  H    0.000000
    22  H    1.761838   0.000000
    23  H    2.179119   2.914782   0.000000
    24  H    4.240590   4.230516   2.267066   0.000000
    25  H    3.832551   3.569852   2.523328   1.736075   0.000000
    26  H    5.969399   4.525581   5.426157   4.475596   4.219600
    27  H    4.985830   3.623819   4.949728   4.918941   5.029484
    28  H    4.657125   4.819305   2.823101   2.178267   3.764702
    29  H    2.519794   3.547373   2.132040   3.933368   4.573241
    30  H    5.812406   5.605403   5.955852   6.790430   7.580486
    31  H    7.044708   6.703809   6.361946   6.313937   7.497707
    32  H    5.671689   5.453367   4.727070   4.645979   5.885716
    33  H    5.225871   4.318408   5.167111   5.428235   5.957976
    34  H    6.844496   5.951596   6.638083   6.624157   7.329087
    35  H    7.420023   6.328219   6.724589   5.933403   6.634087
    36  H    7.143659   6.423847   6.047095   5.119762   6.230817
                   26         27         28         29         30
    26  H    0.000000
    27  H    2.601206   0.000000
    28  H    5.148400   4.687577   0.000000
    29  H    6.465249   5.108147   3.153602   0.000000
    30  H    6.759694   4.329663   5.239917   4.445210   0.000000
    31  H    6.286029   4.497569   4.473912   5.347829   2.645574
    32  H    5.373570   3.844422   2.796170   3.953030   2.976227
    33  H    4.191866   1.761901   4.465691   4.615903   2.636320
    34  H    4.998427   2.913241   5.409138   5.970372   2.898927
    35  H    3.629477   2.913800   5.135818   6.747705   4.972233
    36  H    4.352801   3.676748   3.889451   5.971155   4.715559
                   31         32         33         34         35
    31  H    0.000000
    32  H    1.707506   0.000000
    33  H    2.992511   2.689724   0.000000
    34  H    2.424225   3.039960   1.642494   0.000000
    35  H    3.565466   3.607042   2.903303   2.362915   0.000000
    36  H    2.706712   2.441104   3.237101   2.922623   1.765827
                   36
    36  H    0.000000
 Stoichiometry    C15H17N3O
 Framework group  C1[X(C15H17N3O)]
 Deg. of freedom   102
 Full point group                 C1      NOp   1
 Largest Abelian subgroup         C1      NOp   1
 Largest concise Abelian subgroup C1      NOp   1
                         Standard orientation:                         
 ---------------------------------------------------------------------
 Center     Atomic      Atomic             Coordinates (Angstroms)
 Number     Number       Type             X           Y           Z
 ---------------------------------------------------------------------
      1          6           0        0.997376   -2.989469    1.396006
      2          6           0        0.984786   -2.176170    0.159200
      3          6           0        2.296414   -1.640884   -0.734791
      4          7           0        2.872565   -0.252590   -0.522749
      5          7           0        2.358556    0.777785   -1.200723
      6          6           0        2.083760    1.985700   -0.383481
      7          6           0        2.377164    1.695683    0.878557
      8          6           0        1.221215    0.727136    1.071083
      9          6           0        0.315275    0.024340    0.196179
     10          6           0       -0.273463   -0.630933   -1.232252
     11          6           0       -1.200594   -1.681972   -1.009487
     12          6           0       -1.539995   -1.157031    0.321337
     13          6           0       -0.255508   -1.079161    0.806527
     14          6           0       -2.844313   -0.390748    0.073831
     15          8           0       -3.785043   -0.967551   -0.587142
     16          7           0       -2.923073    0.926582    0.320725
     17          6           0       -1.948572    1.829648   -0.266488
     18          6           0       -0.885795    2.340536    0.693120
     19          6           0        0.515502    2.802167   -0.209993
     20          1           0        1.830838   -3.661670    1.476182
     21          1           0        0.048658   -3.563237    1.408903
     22          1           0        0.948400   -2.290268    2.229930
     23          1           0        0.607182   -2.917573   -0.596023
     24          1           0        2.043738   -1.647463   -1.805451
     25          1           0        3.077345   -2.403686   -0.633385
     26          1           0        3.384281    1.382966    1.202937
     27          1           0        0.891365    1.321734    1.943134
     28          1           0        0.147249   -0.666344   -2.236245
     29          1           0       -1.482667   -2.584663   -0.336605
     30          1           0       -3.370771    1.132518    1.205318
     31          1           0       -2.452577    2.658097   -0.751361
     32          1           0       -1.477160    1.296890   -1.084909
     33          1           0       -0.791795    1.593820    1.499026
     34          1           0       -1.290567    3.148359    1.318963
     35          1           0        0.769266    3.741702    0.324779
     36          1           0        0.181700    3.083724   -1.204919
 ---------------------------------------------------------------------
 Rotational constants (GHZ):           0.5869076           0.4232833           0.2931428
 Standard basis: 6-31G(2df,p) (6D, 7F)
 There are   674 symmetry adapted cartesian basis functions of A   symmetry.
 There are   617 symmetry adapted basis functions of A   symmetry.
   617 basis functions,   955 primitive gaussians,   674 cartesian basis functions
    68 alpha electrons       68 beta electrons
       nuclear repulsion energy      1505.9036921014 Hartrees.
 NAtoms=   36 NActive=   36 NUniq=   36 SFac= 1.00D+00 NAtFMM=   60 NAOKFM=F Big=F
 Integral buffers will be    131072 words long.
 Raffenetti 2 integral format.
 Two-electron integral symmetry is turned on.
 One-electron integrals computed using PRISM.
 PrsmSu:  requested number of processors reduced to:  12 ShMem   1 Linda.
 NBasis=   617 RedAO= T EigKep=  1.98D-04  NBF=   617
 NBsUse=   617 1.00D-06 EigRej= -1.00D+00 NBFU=   617
 ExpMin= 1.61D-01 ExpMax= 5.48D+03 ExpMxC= 8.25D+02 IAcc=3 IRadAn=         5 AccDes= 0.00D+00
 Harris functional with IExCor=  402 and IRadAn=       5 diagonalized for initial guess.
 HarFok:  IExCor=  402 AccDes= 0.00D+00 IRadAn=         5 IDoV= 1 UseB2=F ITyADJ=14
 ICtDFT=  3500011 ScaDFX=  1.000000  1.000000  1.000000  1.000000
 FoFCou: FMM=F IPFlag=           0 FMFlag=      100000 FMFlg1=           0
         NFxFlg=           0 DoJE=T BraDBF=F KetDBF=T FulRan=T
         wScrn=  0.000000 ICntrl=       500 IOpCl=  0 I1Cent=   200000004 NGrid=           0
         NMat0=    1 NMatS0=      1 NMatT0=    0 NMatD0=    1 NMtDS0=    0 NMtDT0=    0
 Petite list used in FoFCou.
 Requested convergence on RMS density matrix=1.00D-08 within 128 cycles.
 Requested convergence on MAX density matrix=1.00D-06.
 Requested convergence on             energy=1.00D-06.
 No special actions if energy rises.
 Integral accuracy reduced to 1.0D-05 until final iterations.
 EnCoef did     4 forward-backward iterations
 Problem detected with inexpensive integrals.
 Switching to full accuracy and repeating last cycle.
 EnCoef did     4 forward-backward iterations
 EnCoef did     2 forward-backward iterations
 Restarting incremental Fock formation.
 SCF Done:  E(RB3LYP) =  -820.368538368     A.U. after   29 cycles
            NFock= 29  Conv=0.30D-08     -V/T= 2.0075

 **********************************************************************

            Population analysis using the SCF density.

 **********************************************************************

 Orbital symmetries:
       Occupied  (A) (A) (A) (A) (A) (A) (A) (A) (A) (A) (A) (A)
                 (A) (A) (A) (A) (A) (A) (A) (A) (A) (A) (A) (A)
                 (A) (A) (A) (A) (A) (A) (A) (A) (A) (A) (A) (A)
                 (A) (A) (A) (A) (A) (A) (A) (A) (A) (A) (A) (A)
                 (A) (A) (A) (A) (A) (A) (A) (A) (A) (A) (A) (A)
                 (A) (A) (A) (A) (A) (A) (A) (A)
       Virtual   (A) (A) (A) (A) (A) (A) (A) (A) (A) (A) (A) (A)
                 (A) (A) (A) (A) (A) (A) (A) (A) (A) (A) (A) (A)
                 (A) (A) (A) (A) (A) (A) (A) (A) (A) (A) (A) (A)
                 (A) (A) (A) (A) (A) (A) (A) (A) (A) (A) (A) (A)
                 (A) (A) (A) (A) (A) (A) (A) (A) (A) (A) (A) (A)
                 (A) (A) (A) (A) (A) (A) (A) (A) (A) (A) (A) (A)
                 (A) (A) (A) (A) (A) (A) (A) (A) (A) (A) (A) (A)
                 (A) (A) (A) (A) (A) (A) (A) (A) (A) (A) (A) (A)
                 (A) (A) (A) (A) (A) (A) (A) (A) (A) (A) (A) (A)
                 (A) (A) (A) (A) (A) (A) (A) (A) (A) (A) (A) (A)
                 (A) (A) (A) (A) (A) (A) (A) (A) (A) (A) (A) (A)
                 (A) (A) (A) (A) (A) (A) (A) (A) (A) (A) (A) (A)
                 (A) (A) (A) (A) (A) (A) (A) (A) (A) (A) (A) (A)
                 (A) (A) (A) (A) (A) (A) (A) (A) (A) (A) (A) (A)
                 (A) (A) (A) (A) (A) (A) (A) (A) (A) (A) (A) (A)
                 (A) (A) (A) (A) (A) (A) (A) (A) (A) (A) (A) (A)
                 (A) (A) (A) (A) (A) (A) (A) (A) (A) (A) (A) (A)
                 (A) (A) (A) (A) (A) (A) (A) (A) (A) (A) (A) (A)
                 (A) (A) (A) (A) (A) (A) (A) (A) (A) (A) (A) (A)
                 (A) (A) (A) (A) (A) (A) (A) (A) (A) (A) (A) (A)
                 (A) (A) (A) (A) (A) (A) (A) (A) (A) (A) (A) (A)
                 (A) (A) (A) (A) (A) (A) (A) (A) (A) (A) (A) (A)
                 (A) (A) (A) (A) (A) (A) (A) (A) (A) (A) (A) (A)
                 (A) (A) (A) (A) (A) (A) (A) (A) (A) (A) (A) (A)
                 (A) (A) (A) (A) (A) (A) (A) (A) (A) (A) (A) (A)
                 (A) (A) (A) (A) (A) (A) (A) (A) (A) (A) (A) (A)
                 (A) (A) (A) (A) (A) (A) (A) (A) (A) (A) (A) (A)
                 (A) (A) (A) (A) (A) (A) (A) (A) (A) (A) (A) (A)
                 (A) (A) (A) (A) (A) (A) (A) (A) (A) (A) (A) (A)
                 (A) (A) (A) (A) (A) (A) (A) (A) (A) (A) (A) (A)
                 (A) (A) (A) (A) (A) (A) (A) (A) (A) (A) (A) (A)
                 (A) (A) (A) (A) (A) (A) (A) (A) (A) (A) (A) (A)
                 (A) (A) (A) (A) (A) (A) (A) (A) (A) (A) (A) (A)
                 (A) (A) (A) (A) (A) (A) (A) (A) (A) (A) (A) (A)
                 (A) (A) (A) (A) (A) (A) (A) (A) (A) (A) (A) (A)
                 (A) (A) (A) (A) (A) (A) (A) (A) (A) (A) (A) (A)
                 (A) (A) (A) (A) (A) (A) (A) (A) (A) (A) (A) (A)
                 (A) (A) (A) (A) (A) (A) (A) (A) (A) (A) (A) (A)
                 (A) (A) (A) (A) (A) (A) (A) (A) (A) (A) (A) (A)
                 (A) (A) (A) (A) (A) (A) (A) (A) (A) (A) (A) (A)
                 (A) (A) (A) (A) (A) (A) (A) (A) (A) (A) (A) (A)
                 (A) (A) (A) (A) (A) (A) (A) (A) (A) (A) (A) (A)
                 (A) (A) (A) (A) (A) (A) (A) (A) (A) (A) (A) (A)
                 (A) (A) (A) (A) (A) (A) (A) (A) (A) (A) (A) (A)
                 (A) (A) (A) (A) (A) (A) (A) (A) (A) (A) (A) (A)
                 (A) (A) (A) (A) (A) (A) (A) (A) (A)
 The electronic state is 1-A.
 Alpha  occ. eigenvalues --  -19.12871 -14.38181 -14.36004 -14.34325 -10.31628
 Alpha  occ. eigenvalues --  -10.27403 -10.25286 -10.24304 -10.23798 -10.23490
 Alpha  occ. eigenvalues --  -10.23401 -10.23181 -10.23121 -10.22726 -10.22329
 Alpha  occ. eigenvalues --  -10.21259 -10.20703 -10.18886 -10.16345  -1.02575
 Alpha  occ. eigenvalues --   -0.98057  -0.94811  -0.92867  -0.83675  -0.81175
 Alpha  occ. eigenvalues --   -0.77624  -0.77092  -0.73786  -0.71098  -0.68252
 Alpha  occ. eigenvalues --   -0.66884  -0.63489  -0.62958  -0.61763  -0.58566
 Alpha  occ. eigenvalues --   -0.55131  -0.53941  -0.51310  -0.50753  -0.50022
 Alpha  occ. eigenvalues --   -0.48897  -0.47664  -0.47035  -0.46491  -0.45070
 Alpha  occ. eigenvalues --   -0.44498  -0.43583  -0.42521  -0.41519  -0.40403
 Alpha  occ. eigenvalues --   -0.39003  -0.38605  -0.37091  -0.36886  -0.36162
 Alpha  occ. eigenvalues --   -0.35985  -0.35233  -0.34196  -0.32111  -0.30828
 Alpha  occ. eigenvalues --   -0.30435  -0.27135  -0.26200  -0.24644  -0.22486
 Alpha  occ. eigenvalues --   -0.20205  -0.19321  -0.16794
 Alpha virt. eigenvalues --   -0.11984  -0.10531  -0.07887  -0.06522  -0.02352
 Alpha virt. eigenvalues --   -0.01127   0.02628   0.05327   0.06303   0.06982
 Alpha virt. eigenvalues --    0.08649   0.09368   0.10419   0.11892   0.12550
 Alpha virt. eigenvalues --    0.13147   0.13886   0.14076   0.14747   0.15056
 Alpha virt. eigenvalues --    0.15810   0.16118   0.16956   0.17497   0.18232
 Alpha virt. eigenvalues --    0.19093   0.19966   0.20564   0.21932   0.23216
 Alpha virt. eigenvalues --    0.24307   0.25172   0.25279   0.26043   0.26917
 Alpha virt. eigenvalues --    0.27797   0.30737   0.31937   0.32759   0.33810
 Alpha virt. eigenvalues --    0.34611   0.37830   0.38788   0.40643   0.41553
 Alpha virt. eigenvalues --    0.42549   0.43026   0.44020   0.44679   0.45436
 Alpha virt. eigenvalues --    0.46719   0.47620   0.47982   0.48591   0.48912
 Alpha virt. eigenvalues --    0.49292   0.50516   0.51342   0.52004   0.52753
 Alpha virt. eigenvalues --    0.53998   0.54673   0.54775   0.55050   0.56090
 Alpha virt. eigenvalues --    0.57393   0.57780   0.58324   0.58970   0.60564
 Alpha virt. eigenvalues --    0.61107   0.61791   0.62461   0.62672   0.62810
 Alpha virt. eigenvalues --    0.63426   0.64936   0.65215   0.66036   0.66916
 Alpha virt. eigenvalues --    0.68151   0.68190   0.69135   0.69767   0.70269
 Alpha virt. eigenvalues --    0.70552   0.71070   0.71739   0.73134   0.73327
 Alpha virt. eigenvalues --    0.74458   0.74513   0.74660   0.75307   0.76025
 Alpha virt. eigenvalues --    0.76508   0.76752   0.77547   0.78019   0.79004
 Alpha virt. eigenvalues --    0.79954   0.80319   0.80617   0.81666   0.82497
 Alpha virt. eigenvalues --    0.82819   0.83810   0.84541   0.85300   0.86223
 Alpha virt. eigenvalues --    0.86722   0.87130   0.88572   0.88991   0.89537
 Alpha virt. eigenvalues --    0.90292   0.91208   0.92367   0.94300   0.94512
 Alpha virt. eigenvalues --    0.95149   0.95752   0.98269   0.99036   0.99631
 Alpha virt. eigenvalues --    1.01089   1.02395   1.03605   1.04931   1.06030
 Alpha virt. eigenvalues --    1.06932   1.07874   1.09318   1.09603   1.10993
 Alpha virt. eigenvalues --    1.12080   1.13455   1.14453   1.15688   1.16942
 Alpha virt. eigenvalues --    1.18009   1.19960   1.20623   1.20852   1.22967
 Alpha virt. eigenvalues --    1.24644   1.24937   1.26428   1.27446   1.29390
 Alpha virt. eigenvalues --    1.29934   1.30867   1.31924   1.34523   1.34644
 Alpha virt. eigenvalues --    1.35468   1.36353   1.36961   1.38181   1.38699
 Alpha virt. eigenvalues --    1.40719   1.42388   1.42766   1.43260   1.45344
 Alpha virt. eigenvalues --    1.45915   1.46063   1.46568   1.48212   1.48601
 Alpha virt. eigenvalues --    1.49677   1.50207   1.50594   1.52370   1.53703
 Alpha virt. eigenvalues --    1.54217   1.55542   1.55996   1.56960   1.57577
 Alpha virt. eigenvalues --    1.58465   1.58875   1.59601   1.61184   1.62081
 Alpha virt. eigenvalues --    1.62783   1.63512   1.64858   1.65236   1.66065
 Alpha virt. eigenvalues --    1.66714   1.68363   1.69190   1.69954   1.70605
 Alpha virt. eigenvalues --    1.71195   1.72299   1.73128   1.73965   1.76396
 Alpha virt. eigenvalues --    1.77271   1.78183   1.79377   1.80650   1.80802
 Alpha virt. eigenvalues --    1.81801   1.83271   1.84408   1.85629   1.86489
 Alpha virt. eigenvalues --    1.87854   1.88166   1.90472   1.92330   1.94364
 Alpha virt. eigenvalues --    1.94962   1.96011   1.97770   2.00238   2.01338
 Alpha virt. eigenvalues --    2.02252   2.02780   2.05308   2.06422   2.07642
 Alpha virt. eigenvalues --    2.08614   2.09905   2.12162   2.14032   2.14268
 Alpha virt. eigenvalues --    2.15631   2.17908   2.19095   2.21910   2.23460
 Alpha virt. eigenvalues --    2.24987   2.26537   2.30202   2.31256   2.33121
 Alpha virt. eigenvalues --    2.34911   2.36204   2.38033   2.39135   2.41172
 Alpha virt. eigenvalues --    2.42591   2.43937   2.45011   2.45590   2.47211
 Alpha virt. eigenvalues --    2.47962   2.50163   2.51890   2.52889   2.53906
 Alpha virt. eigenvalues --    2.58238   2.58990   2.59805   2.61913   2.64146
 Alpha virt. eigenvalues --    2.64524   2.66402   2.67422   2.69233   2.70833
 Alpha virt. eigenvalues --    2.73743   2.73956   2.74087   2.74626   2.76304
 Alpha virt. eigenvalues --    2.77221   2.78494   2.79780   2.80403   2.82490
 Alpha virt. eigenvalues --    2.83222   2.83575   2.84416   2.85831   2.87132
 Alpha virt. eigenvalues --    2.87610   2.88521   2.89346   2.90719   2.91582
 Alpha virt. eigenvalues --    2.93025   2.94465   2.95292   2.96028   2.97289
 Alpha virt. eigenvalues --    2.97566   2.98004   2.99346   3.00286   3.00669
 Alpha virt. eigenvalues --    3.02296   3.03595   3.04784   3.05069   3.06135
 Alpha virt. eigenvalues --    3.07050   3.08883   3.10682   3.11754   3.13171
 Alpha virt. eigenvalues --    3.14445   3.15621   3.17925   3.19345   3.19652
 Alpha virt. eigenvalues --    3.20340   3.22467   3.23266   3.24224   3.25255
 Alpha virt. eigenvalues --    3.26076   3.27861   3.28716   3.29799   3.30635
 Alpha virt. eigenvalues --    3.31944   3.32843   3.33460   3.34635   3.37005
 Alpha virt. eigenvalues --    3.37401   3.38295   3.39686   3.41036   3.41640
 Alpha virt. eigenvalues --    3.42512   3.43645   3.44639   3.45454   3.46404
 Alpha virt. eigenvalues --    3.47863   3.48520   3.49842   3.51252   3.51995
 Alpha virt. eigenvalues --    3.53424   3.55379   3.55817   3.56983   3.58357
 Alpha virt. eigenvalues --    3.59109   3.59715   3.61336   3.62209   3.63613
 Alpha virt. eigenvalues --    3.63932   3.65644   3.66995   3.67169   3.68056
 Alpha virt. eigenvalues --    3.68192   3.68604   3.71226   3.72116   3.72964
 Alpha virt. eigenvalues --    3.73190   3.75456   3.76384   3.77421   3.79494
 Alpha virt. eigenvalues --    3.80284   3.81879   3.83247   3.85431   3.86253
 Alpha virt. eigenvalues --    3.88914   3.89456   3.90791   3.91778   3.94117
 Alpha virt. eigenvalues --    3.96307   3.97540   3.98938   3.99837   4.01547
 Alpha virt. eigenvalues --    4.02919   4.05104   4.06453   4.08525   4.09889
 Alpha virt. eigenvalues --    4.10580   4.13280   4.14128   4.15214   4.17605
 Alpha virt. eigenvalues --    4.18260   4.19363   4.22632   4.23117   4.25042
 Alpha virt. eigenvalues --    4.26539   4.27530   4.28278   4.29106   4.29891
 Alpha virt. eigenvalues --    4.31537   4.33219   4.33989   4.35058   4.37258
 Alpha virt. eigenvalues --    4.38195   4.39068   4.39719   4.41018   4.42141
 Alpha virt. eigenvalues --    4.43309   4.44900   4.45356   4.46420   4.47655
 Alpha virt. eigenvalues --    4.48358   4.48817   4.49371   4.50330   4.51457
 Alpha virt. eigenvalues --    4.51802   4.52006   4.54143   4.54464   4.55178
 Alpha virt. eigenvalues --    4.55675   4.58235   4.58705   4.59316   4.60423
 Alpha virt. eigenvalues --    4.61528   4.61692   4.63820   4.64264   4.65113
 Alpha virt. eigenvalues --    4.66621   4.66998   4.68534   4.69133   4.69162
 Alpha virt. eigenvalues --    4.69835   4.70940   4.72118   4.73470   4.74136
 Alpha virt. eigenvalues --    4.74595   4.75319   4.76784   4.77761   4.79248
 Alpha virt. eigenvalues --    4.79807   4.79981   4.81235   4.82296   4.83360
 Alpha virt. eigenvalues --    4.84107   4.84491   4.85073   4.85775   4.86488
 Alpha virt. eigenvalues --    4.88308   4.90547   4.90925   4.92909   4.93096
 Alpha virt. eigenvalues --    4.93406   4.94987   4.96096   4.96656   4.98222
 Alpha virt. eigenvalues --    4.99322   5.00800   5.01413   5.02132   5.03991
 Alpha virt. eigenvalues --    5.04778   5.06156   5.07236   5.08146   5.08970
 Alpha virt. eigenvalues --    5.09858   5.10838   5.12459   5.13909   5.14598
 Alpha virt. eigenvalues --    5.15551   5.17004   5.20081   5.21175   5.23293
 Alpha virt. eigenvalues --    5.23975   5.27081   5.29590   5.31663   5.32621
 Alpha virt. eigenvalues --    5.35840   5.36759   5.39056   5.41225   5.42571
 Alpha virt. eigenvalues --    5.44082   5.44528   5.48376   5.50868   5.52059
 Alpha virt. eigenvalues --    5.54430   5.55213   5.56033   5.58361   5.62276
 Alpha virt. eigenvalues --    5.66739   5.67305   5.73943   5.77914   5.86198
 Alpha virt. eigenvalues --    5.90288   5.99274   6.02028   6.10673   6.18864
 Alpha virt. eigenvalues --    6.30992   6.33986   6.39232   6.57324   6.64826
 Alpha virt. eigenvalues --    6.80078   7.62955   9.53068  10.85333  11.19761
 Alpha virt. eigenvalues --   11.27794  11.34688  11.41055  11.44743  11.54882
 Alpha virt. eigenvalues --   11.69504  11.85517  12.09042  12.15752  12.17891
 Alpha virt. eigenvalues --   12.49001  12.52563  12.62228  12.77767  13.02646
 Alpha virt. eigenvalues --   13.07948  13.25269  17.68252  19.45766
          Condensed to atoms (all electrons):
               1          2          3          4          5          6
     1  C    5.075598   0.386243  -0.023568   0.000473   0.000005  -0.000016
     2  C    0.386243   4.968762   0.348767  -0.035071  -0.000404   0.001515
     3  C   -0.023568   0.348767   4.967329   0.328449  -0.075636   0.007645
     4  N    0.000473  -0.035071   0.328449   6.634251   0.426492  -0.106050
     5  N    0.000005  -0.000404  -0.075636   0.426492   6.551951   0.388309
     6  C   -0.000016   0.001515   0.007645  -0.106050   0.388309   4.963541
     7  C   -0.000058   0.001436   0.002025  -0.078566  -0.064295   0.509473
     8  C   -0.000680  -0.012535  -0.006019   0.019848  -0.019713  -0.095604
     9  C   -0.003475  -0.049699  -0.000748   0.021260  -0.021576  -0.025258
    10  C    0.005597  -0.068037  -0.002692  -0.006187   0.008036   0.002269
    11  C    0.000497  -0.029868  -0.004315  -0.000242   0.001139   0.000298
    12  C   -0.002498   0.000283   0.000957  -0.000019  -0.000015  -0.000262
    13  C   -0.060956   0.303696  -0.020321  -0.001252   0.001042   0.000016
    14  C   -0.000005   0.002481  -0.000043  -0.000001  -0.000002  -0.000008
    15  O    0.000002  -0.000051   0.000000   0.000000  -0.000000   0.000000
    16  N   -0.000001  -0.000107   0.000001   0.000000  -0.000001  -0.000031
    17  C    0.000002   0.000026   0.000001   0.000003   0.000148  -0.000242
    18  C    0.000000   0.000004   0.000008   0.000189  -0.000295  -0.015684
    19  C   -0.000002   0.000061  -0.000199   0.000190  -0.020044   0.357777
    20  H    0.350494  -0.022808  -0.004698   0.000032   0.000001   0.000001
    21  H    0.371911  -0.023193   0.003335  -0.000040  -0.000001   0.000001
    22  H    0.355828  -0.037827  -0.000903   0.000323   0.000007  -0.000003
    23  H   -0.062888   0.348221  -0.031852   0.002608   0.000080  -0.000047
    24  H    0.004151  -0.028816   0.327689  -0.036776   0.011209  -0.000493
    25  H   -0.004073  -0.035085   0.361285  -0.018326   0.001786  -0.000272
    26  H   -0.000001   0.000318  -0.000156   0.005382  -0.009595  -0.025829
    27  H   -0.000046   0.000447  -0.000155   0.002232   0.002473   0.002407
    28  H   -0.000101  -0.001642  -0.001191  -0.001878   0.006286  -0.000453
    29  H    0.002541  -0.011363   0.000206  -0.000011  -0.000005   0.000003
    30  H    0.000000   0.000007  -0.000000  -0.000000   0.000000   0.000001
    31  H   -0.000000  -0.000000   0.000000   0.000000  -0.000005  -0.000063
    32  H   -0.000008   0.000240   0.000015  -0.000017   0.000055   0.000965
    33  H   -0.000018  -0.000026   0.000002  -0.000024   0.000018   0.000352
    34  H    0.000000   0.000001   0.000000  -0.000002   0.000002   0.001009
    35  H    0.000000   0.000000   0.000002  -0.000014   0.001057  -0.025026
    36  H    0.000000  -0.000006  -0.000009   0.000111   0.002154  -0.028917
               7          8          9         10         11         12
     1  C   -0.000058  -0.000680  -0.003475   0.005597   0.000497  -0.002498
     2  C    0.001436  -0.012535  -0.049699  -0.068037  -0.029868   0.000283
     3  C    0.002025  -0.006019  -0.000748  -0.002692  -0.004315   0.000957
     4  N   -0.078566   0.019848   0.021260  -0.006187  -0.000242  -0.000019
     5  N   -0.064295  -0.019713  -0.021576   0.008036   0.001139  -0.000015
     6  C    0.509473  -0.095604  -0.025258   0.002269   0.000298  -0.000262
     7  C    5.258617   0.330627  -0.004348   0.001641  -0.000004  -0.000154
     8  C    0.330627   5.313016   0.511731  -0.024578   0.003314  -0.006433
     9  C   -0.004348   0.511731   4.824214   0.391309   0.030219  -0.116105
    10  C    0.001641  -0.024578   0.391309   5.229591   0.580782  -0.147415
    11  C   -0.000004   0.003314   0.030219   0.580782   5.363215   0.136733
    12  C   -0.000154  -0.006433  -0.116105  -0.147415   0.136733   5.376612
    13  C    0.002973  -0.051617   0.291013  -0.131053  -0.142662   0.565266
    14  C   -0.000024   0.000720  -0.010900  -0.003212  -0.037964   0.338820
    15  O    0.000000  -0.000002   0.000074  -0.000361  -0.002479  -0.081835
    16  N   -0.000000  -0.000550  -0.000827   0.002081   0.003970  -0.108884
    17  C    0.000334  -0.000444   0.001688  -0.011060  -0.003191   0.006046
    18  C    0.003946  -0.027377  -0.006439  -0.002651  -0.000169   0.000567
    19  C   -0.052485  -0.053404  -0.004164   0.002274   0.000133  -0.000083
    20  H   -0.000006  -0.000156  -0.000146  -0.000243  -0.000194   0.000174
    21  H    0.000003   0.000058   0.001661   0.000496  -0.000767   0.001753
    22  H    0.000110   0.006154   0.001849   0.000532   0.000725  -0.001021
    23  H   -0.000004   0.000598   0.003198  -0.012648  -0.002257  -0.006182
    24  H   -0.000084   0.000249  -0.001096   0.003050   0.000933   0.000350
    25  H   -0.000213   0.000512   0.000829  -0.000184   0.000158   0.000019
    26  H    0.347475  -0.040392   0.000342   0.000045   0.000001   0.000003
    27  H   -0.060902   0.371566  -0.051057   0.001644  -0.000026   0.000068
    28  H    0.000032  -0.000675  -0.042759   0.340101  -0.063196   0.016558
    29  H    0.000003  -0.000207   0.004949  -0.005985   0.322898   0.000566
    30  H   -0.000001   0.000007  -0.000203  -0.000154  -0.000191   0.003285
    31  H   -0.000001  -0.000031  -0.000047   0.000635   0.000186  -0.000181
    32  H   -0.000070   0.000882   0.001663   0.015337  -0.001628   0.000475
    33  H   -0.002606  -0.011995  -0.014017   0.001252   0.000596  -0.001156
    34  H   -0.000288   0.003330   0.000845  -0.000055  -0.000006  -0.000078
    35  H    0.002593   0.002766   0.000361  -0.000030  -0.000000  -0.000005
    36  H    0.003382   0.004897  -0.000343  -0.000585   0.000042  -0.000046
              13         14         15         16         17         18
     1  C   -0.060956  -0.000005   0.000002  -0.000001   0.000002   0.000000
     2  C    0.303696   0.002481  -0.000051  -0.000107   0.000026   0.000004
     3  C   -0.020321  -0.000043   0.000000   0.000001   0.000001   0.000008
     4  N   -0.001252  -0.000001   0.000000   0.000000   0.000003   0.000189
     5  N    0.001042  -0.000002  -0.000000  -0.000001   0.000148  -0.000295
     6  C    0.000016  -0.000008   0.000000  -0.000031  -0.000242  -0.015684
     7  C    0.002973  -0.000024   0.000000  -0.000000   0.000334   0.003946
     8  C   -0.051617   0.000720  -0.000002  -0.000550  -0.000444  -0.027377
     9  C    0.291013  -0.010900   0.000074  -0.000827   0.001688  -0.006439
    10  C   -0.131053  -0.003212  -0.000361   0.002081  -0.011060  -0.002651
    11  C   -0.142662  -0.037964  -0.002479   0.003970  -0.003191  -0.000169
    12  C    0.565266   0.338820  -0.081835  -0.108884   0.006046   0.000567
    13  C    5.369357  -0.005786   0.001899  -0.000282  -0.001377  -0.001961
    14  C   -0.005786   4.474917   0.661506   0.382832  -0.058999   0.000630
    15  O    0.001899   0.661506   7.842637  -0.078030  -0.001931  -0.000037
    16  N   -0.000282   0.382832  -0.078030   6.466877   0.382479  -0.052873
    17  C   -0.001377  -0.058999  -0.001931   0.382479   4.872220   0.403425
    18  C   -0.001961   0.000630  -0.000037  -0.052873   0.403425   5.058898
    19  C    0.000401   0.000070   0.000002   0.003002  -0.022645   0.329164
    20  H    0.006690   0.000003  -0.000000  -0.000000  -0.000000   0.000000
    21  H   -0.003824  -0.000063  -0.000001   0.000001   0.000000  -0.000000
    22  H    0.002962  -0.000038   0.000000   0.000003  -0.000001  -0.000001
    23  H   -0.016182   0.000085  -0.000003  -0.000002  -0.000005   0.000002
    24  H    0.000802  -0.000002  -0.000000   0.000000   0.000004  -0.000001
    25  H    0.001425   0.000001  -0.000000  -0.000000   0.000000   0.000000
    26  H    0.000052   0.000000  -0.000000  -0.000000  -0.000001  -0.000111
    27  H   -0.001062   0.000091  -0.000000  -0.000144   0.000538  -0.015635
    28  H    0.017101  -0.000156  -0.000076   0.000068  -0.000089   0.000041
    29  H   -0.028908  -0.005654   0.000041   0.000454   0.000047  -0.000022
    30  H   -0.000183  -0.024268   0.001609   0.338078  -0.041608  -0.001152
    31  H    0.000030   0.002669   0.000242  -0.025766   0.361308  -0.044172
    32  H   -0.000982   0.000952   0.000035  -0.026245   0.358414  -0.037816
    33  H    0.002278   0.001765   0.000033   0.003571  -0.045717   0.364670
    34  H   -0.000006   0.000044   0.000002   0.000933  -0.029970   0.341753
    35  H   -0.000051  -0.000002  -0.000000  -0.000106   0.001547  -0.032765
    36  H   -0.000035   0.000015   0.000000   0.000432  -0.004695  -0.032079
              19         20         21         22         23         24
     1  C   -0.000002   0.350494   0.371911   0.355828  -0.062888   0.004151
     2  C    0.000061  -0.022808  -0.023193  -0.037827   0.348221  -0.028816
     3  C   -0.000199  -0.004698   0.003335  -0.000903  -0.031852   0.327689
     4  N    0.000190   0.000032  -0.000040   0.000323   0.002608  -0.036776
     5  N   -0.020044   0.000001  -0.000001   0.000007   0.000080   0.011209
     6  C    0.357777   0.000001   0.000001  -0.000003  -0.000047  -0.000493
     7  C   -0.052485  -0.000006   0.000003   0.000110  -0.000004  -0.000084
     8  C   -0.053404  -0.000156   0.000058   0.006154   0.000598   0.000249
     9  C   -0.004164  -0.000146   0.001661   0.001849   0.003198  -0.001096
    10  C    0.002274  -0.000243   0.000496   0.000532  -0.012648   0.003050
    11  C    0.000133  -0.000194  -0.000767   0.000725  -0.002257   0.000933
    12  C   -0.000083   0.000174   0.001753  -0.001021  -0.006182   0.000350
    13  C    0.000401   0.006690  -0.003824   0.002962  -0.016182   0.000802
    14  C    0.000070   0.000003  -0.000063  -0.000038   0.000085  -0.000002
    15  O    0.000002  -0.000000  -0.000001   0.000000  -0.000003  -0.000000
    16  N    0.003002  -0.000000   0.000001   0.000003  -0.000002   0.000000
    17  C   -0.022645  -0.000000   0.000000  -0.000001  -0.000005   0.000004
    18  C    0.329164   0.000000  -0.000000  -0.000001   0.000002  -0.000001
    19  C    5.089854  -0.000000   0.000000   0.000003  -0.000001  -0.000015
    20  H   -0.000000   0.619493  -0.033890  -0.026952   0.002445  -0.000159
    21  H    0.000000  -0.033890   0.605660  -0.031371  -0.015115  -0.000139
    22  H    0.000003  -0.026952  -0.031371   0.587815   0.008762  -0.000087
    23  H   -0.000001   0.002445  -0.015115   0.008762   0.653600  -0.005608
    24  H   -0.000015  -0.000159  -0.000139  -0.000087  -0.005608   0.627845
    25  H    0.000000   0.002777  -0.000204   0.000065   0.004166  -0.035686
    26  H    0.004929   0.000001   0.000000  -0.000020  -0.000005   0.000031
    27  H   -0.006622   0.000006   0.000000  -0.000051  -0.000008   0.000020
    28  H   -0.000225  -0.000010  -0.000019  -0.000018  -0.000858   0.005700
    29  H    0.000001  -0.000185   0.004949  -0.000046   0.000354  -0.000163
    30  H   -0.000049  -0.000000  -0.000000  -0.000001  -0.000000   0.000000
    31  H    0.001749   0.000000  -0.000000   0.000000   0.000000  -0.000000
    32  H   -0.006131   0.000000   0.000000  -0.000001   0.000004  -0.000008
    33  H   -0.017015   0.000000   0.000001   0.000043   0.000002   0.000001
    34  H   -0.021996   0.000000   0.000000  -0.000000  -0.000000  -0.000000
    35  H    0.353877   0.000000  -0.000000  -0.000000  -0.000000   0.000000
    36  H    0.334133   0.000000  -0.000000  -0.000000   0.000000   0.000008
              25         26         27         28         29         30
     1  C   -0.004073  -0.000001  -0.000046  -0.000101   0.002541   0.000000
     2  C   -0.035085   0.000318   0.000447  -0.001642  -0.011363   0.000007
     3  C    0.361285  -0.000156  -0.000155  -0.001191   0.000206  -0.000000
     4  N   -0.018326   0.005382   0.002232  -0.001878  -0.000011  -0.000000
     5  N    0.001786  -0.009595   0.002473   0.006286  -0.000005   0.000000
     6  C   -0.000272  -0.025829   0.002407  -0.000453   0.000003   0.000001
     7  C   -0.000213   0.347475  -0.060902   0.000032   0.000003  -0.000001
     8  C    0.000512  -0.040392   0.371566  -0.000675  -0.000207   0.000007
     9  C    0.000829   0.000342  -0.051057  -0.042759   0.004949  -0.000203
    10  C   -0.000184   0.000045   0.001644   0.340101  -0.005985  -0.000154
    11  C    0.000158   0.000001  -0.000026  -0.063196   0.322898  -0.000191
    12  C    0.000019   0.000003   0.000068   0.016558   0.000566   0.003285
    13  C    0.001425   0.000052  -0.001062   0.017101  -0.028908  -0.000183
    14  C    0.000001   0.000000   0.000091  -0.000156  -0.005654  -0.024268
    15  O   -0.000000  -0.000000  -0.000000  -0.000076   0.000041   0.001609
    16  N   -0.000000  -0.000000  -0.000144   0.000068   0.000454   0.338078
    17  C    0.000000  -0.000001   0.000538  -0.000089   0.000047  -0.041608
    18  C    0.000000  -0.000111  -0.015635   0.000041  -0.000022  -0.001152
    19  C    0.000000   0.004929  -0.006622  -0.000225   0.000001  -0.000049
    20  H    0.002777   0.000001   0.000006  -0.000010  -0.000185  -0.000000
    21  H   -0.000204   0.000000   0.000000  -0.000019   0.004949  -0.000000
    22  H    0.000065  -0.000020  -0.000051  -0.000018  -0.000046  -0.000001
    23  H    0.004166  -0.000005  -0.000008  -0.000858   0.000354  -0.000000
    24  H   -0.035686   0.000031   0.000020   0.005700  -0.000163   0.000000
    25  H    0.587775  -0.000049   0.000010   0.000220  -0.000015   0.000000
    26  H   -0.000049   0.594079   0.001721   0.000001   0.000000   0.000000
    27  H    0.000010   0.001721   0.590650  -0.000021   0.000002   0.000012
    28  H    0.000220   0.000001  -0.000021   0.601636  -0.000678   0.000003
    29  H   -0.000015   0.000000   0.000002  -0.000678   0.448004  -0.000022
    30  H    0.000000   0.000000   0.000012   0.000003  -0.000022   0.465920
    31  H   -0.000000  -0.000000  -0.000026  -0.000004   0.000001  -0.000536
    32  H   -0.000000   0.000002   0.000135   0.000468   0.000070   0.005124
    33  H   -0.000000  -0.000012   0.003209  -0.000022   0.000020   0.001514
    34  H   -0.000000   0.000015   0.001450  -0.000000   0.000000   0.002070
    35  H   -0.000000   0.000047  -0.000063  -0.000000  -0.000000   0.000003
    36  H    0.000000  -0.000225   0.000103   0.000130  -0.000000   0.000007
              31         32         33         34         35         36
     1  C   -0.000000  -0.000008  -0.000018   0.000000   0.000000   0.000000
     2  C   -0.000000   0.000240  -0.000026   0.000001   0.000000  -0.000006
     3  C    0.000000   0.000015   0.000002   0.000000   0.000002  -0.000009
     4  N    0.000000  -0.000017  -0.000024  -0.000002  -0.000014   0.000111
     5  N   -0.000005   0.000055   0.000018   0.000002   0.001057   0.002154
     6  C   -0.000063   0.000965   0.000352   0.001009  -0.025026  -0.028917
     7  C   -0.000001  -0.000070  -0.002606  -0.000288   0.002593   0.003382
     8  C   -0.000031   0.000882  -0.011995   0.003330   0.002766   0.004897
     9  C   -0.000047   0.001663  -0.014017   0.000845   0.000361  -0.000343
    10  C    0.000635   0.015337   0.001252  -0.000055  -0.000030  -0.000585
    11  C    0.000186  -0.001628   0.000596  -0.000006  -0.000000   0.000042
    12  C   -0.000181   0.000475  -0.001156  -0.000078  -0.000005  -0.000046
    13  C    0.000030  -0.000982   0.002278  -0.000006  -0.000051  -0.000035
    14  C    0.002669   0.000952   0.001765   0.000044  -0.000002   0.000015
    15  O    0.000242   0.000035   0.000033   0.000002  -0.000000   0.000000
    16  N   -0.025766  -0.026245   0.003571   0.000933  -0.000106   0.000432
    17  C    0.361308   0.358414  -0.045717  -0.029970   0.001547  -0.004695
    18  C   -0.044172  -0.037816   0.364670   0.341753  -0.032765  -0.032079
    19  C    0.001749  -0.006131  -0.017015  -0.021996   0.353877   0.334133
    20  H    0.000000   0.000000   0.000000   0.000000   0.000000   0.000000
    21  H   -0.000000   0.000000   0.000001   0.000000  -0.000000  -0.000000
    22  H    0.000000  -0.000001   0.000043  -0.000000  -0.000000  -0.000000
    23  H    0.000000   0.000004   0.000002  -0.000000  -0.000000   0.000000
    24  H   -0.000000  -0.000008   0.000001  -0.000000   0.000000   0.000008
    25  H   -0.000000  -0.000000  -0.000000  -0.000000  -0.000000   0.000000
    26  H   -0.000000   0.000002  -0.000012   0.000015   0.000047  -0.000225
    27  H   -0.000026   0.000135   0.003209   0.001450  -0.000063   0.000103
    28  H   -0.000004   0.000468  -0.000022  -0.000000  -0.000000   0.000130
    29  H    0.000001   0.000070   0.000020   0.000000  -0.000000  -0.000000
    30  H   -0.000536   0.005124   0.001514   0.002070   0.000003   0.000007
    31  H    0.616601  -0.031408   0.006133  -0.008124  -0.000287   0.002106
    32  H   -0.031408   0.560096  -0.000120   0.005682   0.000080   0.001538
    33  H    0.006133  -0.000120   0.626209  -0.049009   0.001176   0.002275
    34  H   -0.008124   0.005682  -0.049009   0.656828  -0.001978   0.001961
    35  H   -0.000287   0.000080   0.001176  -0.001978   0.594603  -0.029519
    36  H    0.002106   0.001538   0.002275   0.001961  -0.029519   0.626552
 Mulliken charges:
               1
     1  C   -0.394949
     2  C   -0.005970
     3  C   -0.175213
     4  N   -0.157367
     5  N   -0.190659
     6  C    0.088676
     7  C   -0.200559
     8  C   -0.217864
     9  C    0.266000
    10  C   -0.169543
    11  C   -0.156681
    12  C    0.023836
    13  C   -0.098504
    14  C    0.279525
    15  O   -0.343276
    16  N   -0.290932
    17  C   -0.166254
    18  C   -0.232061
    19  C   -0.272543
    20  H    0.107331
    21  H    0.118796
    22  H    0.133159
    23  H    0.129539
    24  H    0.127093
    25  H    0.133079
    26  H    0.121953
    27  H    0.157033
    28  H    0.125726
    29  H    0.268155
    30  H    0.250727
    31  H    0.118992
    32  H    0.152203
    33  H    0.126616
    34  H    0.095588
    35  H    0.131735
    36  H    0.116613
 Sum of Mulliken charges =  -0.00000
 Mulliken charges with hydrogens summed into heavy atoms:
               1
     1  C   -0.035663
     2  C    0.123569
     3  C    0.084959
     4  N   -0.157367
     5  N   -0.190659
     6  C    0.088676
     7  C   -0.078606
     8  C   -0.060831
     9  C    0.266000
    10  C   -0.043816
    11  C    0.111474
    12  C    0.023836
    13  C   -0.098504
    14  C    0.279525
    15  O   -0.343276
    16  N   -0.040205
    17  C    0.104941
    18  C   -0.009857
    19  C   -0.024195
 Electronic spatial extent (au):  <R**2>=           3973.9571
 Charge=             -0.0000 electrons
 Dipole moment (field-independent basis, Debye):
    X=              0.1122    Y=             -0.3213    Z=              2.2304  Tot=              2.2562
 Quadrupole moment (field-independent basis, Debye-Ang):
   XX=           -131.5825   YY=           -103.5686   ZZ=           -112.9858
   XY=            -12.5894   XZ=             -7.7783   YZ=              1.3746
 Traceless Quadrupole moment (field-independent basis, Debye-Ang):
   XX=            -15.5369   YY=             12.4771   ZZ=              3.0598
   XY=            -12.5894   XZ=             -7.7783   YZ=              1.3746
 Octapole moment (field-independent basis, Debye-Ang**2):
  XXX=             31.5531  YYY=            -14.2870  ZZZ=             -0.6912  XYY=             -4.7022
  XXY=             13.9740  XXZ=             33.2540  XZZ=            -11.9813  YZZ=              6.1688
  YYZ=              3.0236  XYZ=              6.4968
 Hexadecapole moment (field-independent basis, Debye-Ang**3):
 XXXX=          -2966.1576 YYYY=          -2025.4665 ZZZZ=           -597.2290 XXXY=           -136.0707
 XXXZ=           -110.1612 YYYX=            -56.8097 YYYZ=             -5.3664 ZZZX=            -12.5919
 ZZZY=             12.7866 XXYY=           -782.2259 XXZZ=           -535.4849 YYZZ=           -457.2498
 XXYZ=              6.6073 YYXZ=            -21.7285 ZZXY=            -29.8529
 N-N= 1.505903692101D+03 E-N=-4.917810642323D+03  KE= 8.142753955179D+02
 PrsmSu:  requested number of processors reduced to:  12 ShMem   1 Linda.
 Calling FoFJK, ICntrl=      2127 FMM=F ISym2X=0 I1Cent= 0 IOpClX= 0 NMat=1 NMatS=1 NMatT=0.
 ***** Axes restored to original set *****
 -------------------------------------------------------------------
 Center     Atomic                   Forces (Hartrees/Bohr)
 Number     Number              X              Y              Z
 -------------------------------------------------------------------
      1        6          -0.019137000   -0.001328061    0.010827982
      2        6           0.009395404   -0.030884593   -0.007233201
      3        6           0.020546502    0.019303037   -0.005897319
      4        7           0.012731889    0.026578882   -0.011025559
      5        7          -0.015221960   -0.031993729   -0.020963820
      6        6           0.035842713   -0.012508950   -0.030726029
      7        6          -0.039964675   -0.016142639    0.008181616
      8        6          -0.022611803    0.046183445    0.012611449
      9        6          -0.004517681    0.024785792    0.043239405
     10        6           0.050467069   -0.030849331    0.011168063
     11        6           0.006044756    0.013760233    0.027236479
     12        6          -0.049850568    0.005709674   -0.047700777
     13        6          -0.004755545   -0.004469905   -0.012326005
     14        6           0.032899103   -0.076441095   -0.058833229
     15        8          -0.049770980    0.024831549    0.065480487
     16        7          -0.013636283    0.039151333   -0.002477838
     17        6          -0.002302309    0.005071008    0.002177525
     18        6           0.009207826   -0.003958748    0.019148096
     19        6           0.004672372    0.015863193    0.000616881
     20        1          -0.008149012   -0.011638983    0.009429501
     21        1          -0.002608365    0.000937545    0.009520513
     22        1          -0.013443816   -0.003329251    0.006670409
     23        1          -0.001727772    0.019882273    0.004376642
     24        1          -0.004903931   -0.006453640   -0.013780457
     25        1          -0.007730989    0.007020978    0.002692272
     26        1          -0.001861088    0.003267982   -0.010144156
     27        1          -0.027241527   -0.044096858   -0.023774111
     28        1           0.003040627    0.017652806    0.014802827
     29        1           0.049456736   -0.009842297   -0.013577965
     30        1           0.006628942    0.009644350    0.000887100
     31        1           0.001861974    0.007971964   -0.006270872
     32        1           0.001717982   -0.003332934   -0.000160936
     33        1           0.014812281    0.000674736    0.008345972
     34        1           0.016441571    0.011569081    0.007815920
     35        1           0.009317238   -0.013985957    0.006526914
     36        1           0.004350320    0.001397112   -0.006863780
 -------------------------------------------------------------------
 Cartesian Forces:  Max     0.076441095 RMS     0.022364234

 GradGradGradGradGradGradGradGradGradGradGradGradGradGradGradGradGradGrad
 Berny optimization.
 FormGI is forming the generalized inverse of G from B-inverse, IUseBI=4.
 Internal  Forces:  Max     0.089078870 RMS     0.020613559
 Search for a local minimum.
 Step number   1 out of a maximum of  216
 All quantities printed in internal units (Hartrees-Bohrs-Radians)
 Mixed Optimization -- RFO/linear search
 Second derivative matrix not updated -- first step.
 ITU=  0
     Eigenvalues ---    0.00280   0.00321   0.00674   0.00810   0.00943
     Eigenvalues ---    0.01026   0.01127   0.01207   0.01303   0.01511
     Eigenvalues ---    0.01657   0.01786   0.01949   0.02320   0.02601
     Eigenvalues ---    0.02625   0.02727   0.02935   0.03292   0.03532
     Eigenvalues ---    0.03842   0.03951   0.04102   0.04299   0.04996
     Eigenvalues ---    0.05113   0.05382   0.05459   0.05733   0.06169
     Eigenvalues ---    0.06694   0.06710   0.07645   0.08297   0.08436
     Eigenvalues ---    0.09003   0.09173   0.09795   0.09942   0.10159
     Eigenvalues ---    0.10989   0.11858   0.12358   0.12648   0.12846
     Eigenvalues ---    0.13847   0.13901   0.14151   0.14595   0.14618
     Eigenvalues ---    0.14896   0.15048   0.15845   0.16000   0.16000
     Eigenvalues ---    0.16000   0.16643   0.17502   0.18078   0.18641
     Eigenvalues ---    0.19203   0.19297   0.20391   0.21074   0.21220
[...]
 0000834,0.00000319,-0.00000916,-0.00000326,-0.00000085,0.00000646,0.00
 000936,0.00001182,-0.00002837,0.00002263,-0.00000047,0.00000015,0.0000
 2135,-0.00000571,-0.00000394,0.00001355,-0.00002581,0.00000159,0.00000
 730,-0.00002368,0.00012466,-0.00008516,0.00001606,-0.00000693,-0.00007
 960,0.00010805,0.00053494,-0.00014612,0.00051341,-0.04588237,-0.119979
 80,0.19974126,-0.00022827,0.00022680,-0.00023035,0.00091092,0.00004569
 ,0.00007586,0.00006331,0.00004906,0.00008780,-0.00024289,-0.00028884,-
 0.00024806,0.00016678,0.00007411,-0.00001047,0.00003682,0.00008983,-0.
 00007219,-0.00003112,-0.00010408,0.00008866,-0.00003988,0.00017564,-0.
 00006340,-0.00031429,0.00025426,0.00050784,-0.00005980,-0.00164586,0.0
 0186809,0.00205408,0.00049739,-0.00097508,-0.00073016,-0.00177171,0.00
 110733,-0.00175001,0.00024773,-0.00100785,0.00122327,0.00565077,-0.000
 02336,-0.00042490,-0.00266990,-0.00014780,-0.02466499,0.01745819,-0.00
 716946,-0.19028790,0.13286266,-0.01097732,0.00010575,0.00228950,0.0000
 0312,0.00047279,0.00001066,0.00010902,0.00012641,0.00005641,-0.0000509
 2,-0.00001405,-0.00000922,0.00001659,0.00000271,-0.00001753,0.00000054
 ,-0.00002701,-0.00002046,-0.00000756,-0.00000720,-0.00002741,0.0000038
 1,-0.00000202,-0.00001202,-0.00002364,0.00001956,-0.00002599,-0.000032
 24,0.00003087,0.00002382,-0.00008324,0.00078152,0.00081649,-0.00061314
 ,0.00009110,-0.00008213,0.00005911,-0.00371843,-0.00316683,0.00039148,
 0.00716066,-0.00500851,0.00003365,0.20909203,0.00017762,-0.00021816,0.
 00021013,-0.00076953,-0.00004052,-0.00007688,-0.00005814,-0.00024574,-
 0.00001064,0.00044577,0.00040548,-0.00004865,-0.00018310,-0.00012716,0
 .00000046,-0.00032066,-0.00010866,-0.00010997,0.00012698,0.00002739,0.
 00002208,-0.00000133,-0.00010037,-0.00001946,0.00046705,-0.00008925,-0
 .00034119,-0.00014257,-0.00241860,0.00288319,-0.00322061,-0.00502780,0
 .00139058,-0.00040331,0.00109543,-0.00131539,0.00142056,-0.00085195,0.
 00028338,-0.00087964,-0.00161092,0.00047365,0.00061182,0.00029342,-0.0
 0026451,-0.01195592,0.01241469,-0.00193010,0.14108225,-0.17410769,0.00
 884738,0.01077447,-0.00886170,0.00122017,-0.00014244,0.00086966,0.0002
 8684,-0.00010922,-0.00005378,0.00005423,0.00002679,0.00002254,-0.00001
 162,-0.00001143,0.00000713,-0.00000319,0.00002140,0.00003750,0.0000138
 5,0.00000219,0.00003525,0.00001562,0.00002853,0.00004684,0.00002279,-0
 .00003341,0.00005402,0.00002562,0.00001235,-0.00003264,-0.00000796,-0.
 00048397,-0.00129760,0.00115704,0.00006683,0.00005422,0.00000913,-0.00
 306855,-0.00034498,-0.00072703,0.01495204,-0.01417892,0.00133374,-0.14
 677995,0.19619105,0.00003085,-0.00000406,-0.00000440,0.00000150,0.0000
 2773,-0.00003388,0.00003208,-0.00001272,0.00000446,0.00009702,0.000194
 11,0.00003467,0.00004343,0.00014062,0.00003205,-0.00001549,-0.00003998
 ,-0.00005649,0.00015308,-0.00003541,0.00003707,-0.00002852,-0.00008131
 ,-0.00013563,0.00009972,0.00001581,-0.00057213,0.00110956,0.00255478,-
 0.00035719,-0.00018014,0.00096503,0.00041060,0.00000874,-0.00042485,-0
 .00008877,-0.00005541,0.00005713,-0.00010967,0.00050144,0.00058153,0.0
 0005390,-0.00021718,-0.00051543,0.00017600,-0.00971334,0.00798028,-0.0
 0350159,-0.00868775,0.00398507,-0.04366782,0.02043429,-0.01841382,0.00
 087088,0.00028986,0.00099401,0.00139865,-0.00000796,-0.00000112,0.0000
 0729,-0.00000248,0.00000407,-0.00000254,-0.00000408,0.00000380,-0.0000
 0063,0.00000481,-0.00002064,0.00000493,-0.00002270,0.00001925,0.000000
 39,-0.00002298,-0.00001027,0.00001548,-0.00008127,0.00004546,0.0000439
 8,-0.00001189,0.00001279,-0.00002732,-0.00028998,0.00146446,-0.0012289
 3,0.00012411,-0.00004749,-0.00001869,-0.00170306,-0.00156058,0.0006657
 0,-0.01718883,0.01688744,-0.00130401,0.01637204,-0.01064802,0.05122590
 ,-0.00001468,0.00001885,0.00000097,0.00001889,0.00001338,-0.00000830,0
 .00007400,-0.00000720,0.00006194,0.00023649,-0.00002642,-0.00000763,0.
 00003821,-0.00014013,-0.00007143,-0.00025816,-0.00047045,-0.00028870,-
 0.00069567,-0.00119062,0.00089093,-0.00015853,-0.00031871,0.00078970,-
 0.00015517,0.00016512,0.00004877,-0.00007038,-0.00019563,-0.00007623,0
 .00014367,-0.00002064,-0.00004948,0.00006307,0.00003978,0.00009101,-0.
 00003521,-0.00001445,0.00005518,-0.00016813,-0.00040913,0.00002104,0.0
 0035384,0.00010202,0.00004700,0.00140919,-0.00007398,0.00037613,-0.000
 38758,-0.00079335,-0.00067611,-0.25416117,0.10806974,0.00489166,-0.005
 61429,0.00243649,-0.00052265,0.00000794,0.00000253,-0.00000513,0.00000
 257,-0.00000025,0.00000218,-0.00000132,0.00000026,-0.00000392,0.000004
 87,-0.00000119,0.00000561,0.00000796,-0.00001934,0.00000073,-0.0000018
 3,-0.00000036,-0.00000816,-0.00007519,-0.00051658,0.00026891,0.0000271
 5,0.00002677,0.00004286,0.00004572,-0.00009088,-0.00000927,-0.00000439
 ,-0.00002302,-0.00000482,0.00026820,0.00062643,0.00020966,-0.00021822,
 0.00032022,0.00058500,0.00066619,-0.00111504,-0.00000310,0.27666824,0.
 00003271,-0.00003236,0.00001459,-0.00009527,-0.00002276,-0.00001032,-0
 .00010738,-0.00007803,-0.00003215,-0.00016360,0.00023811,-0.00009322,-
 0.00026808,-0.00023883,0.00027932,0.00139455,0.00077214,-0.00054158,-0
 .00018234,-0.00024098,0.00074958,-0.00024098,-0.00036481,-0.00029106,0
 .00050548,-0.00042698,-0.00019944,-0.00000730,0.00017536,-0.00017344,-
 0.00021948,0.00002861,0.00014796,0.00004543,0.00024945,-0.00014954,0.0
 0015887,-0.00002726,0.00006841,-0.00027624,-0.00060957,0.00003231,-0.0
 0007444,0.00014015,0.00005029,-0.00026304,0.00245721,0.00221099,0.0206
 7416,-0.01291895,-0.00321368,0.10824811,-0.09841050,-0.00235259,0.0092
 6852,-0.00538747,0.00112942,-0.00001693,0.00000309,0.00000465,0.000002
 79,0.00000149,0.00000076,-0.00001092,-0.00000369,0.00001217,-0.0000024
 3,0.00001500,-0.00000589,-0.00003513,0.00005407,0.00000372,-0.00000072
 ,0.00001438,-0.00000325,-0.00036801,0.00011817,0.00037421,-0.00011408,
 -0.00006691,0.00000744,-0.00013779,0.00010121,-0.00001337,-0.00002950,
 0.00004469,0.00000399,-0.00037102,-0.00024916,-0.00080559,-0.00021214,
 -0.00007325,-0.00033957,0.00023625,-0.00163460,-0.00432676,-0.11573977
 ,0.10429265,0.00003126,-0.00002842,0.00003774,-0.00012557,0.00001751,-
 0.00002697,0.00010262,-0.00001960,0.00000460,0.00022224,-0.00006125,0.
 00049430,0.00008396,0.00050204,-0.00034343,-0.00120233,-0.00151229,0.0
 0137994,0.00009429,0.00053056,-0.00060286,0.00035589,0.00015323,0.0003
 4948,-0.00009672,0.00020635,-0.00028042,-0.00008784,0.00009911,-0.0002
 5143,-0.00013960,-0.00007124,0.00013342,0.00010573,0.00011208,-0.00004
 985,0.00018041,-0.00003453,0.00011398,-0.00039228,-0.00014231,0.000122
 91,-0.00002803,0.00000202,-0.00007715,0.00034946,0.00134730,0.00202598
 ,0.02108179,-0.01313162,-0.00202706,0.00708565,-0.00366401,-0.04402666
 ,-0.02793557,0.01379304,-0.00517627,-0.00001698,-0.00001248,0.00000722
 ,0.00000578,0.00000391,-0.00000236,-0.00000089,0.00000404,-0.00000436,
 0.00001370,0.00000065,0.00001449,0.00000914,-0.00002510,-0.00001489,-0
 .00000505,0.00000410,0.00000617,0.00064067,0.00025831,-0.00035174,0.00
 003391,0.00005570,0.00000305,-0.00001535,-0.00008527,-0.00007574,-0.00
 001223,0.00004151,-0.00002342,-0.00041781,-0.00001517,-0.00060268,-0.0
 0016811,0.00062139,0.00026602,-0.00017342,-0.00214749,-0.00400102,-0.0
 0546216,0.00523501,0.05786547,0.00000810,0.00000367,0.00001960,-0.0000
 1460,0.00005849,-0.00001469,0.00013646,0.00002008,0.00011754,0.0002780
 1,0.00019449,0.00045492,0.00035964,0.00002968,-0.00024257,-0.00071328,
 0.00008493,-0.00211051,-0.00044100,-0.00109902,0.00025149,0.00004203,0
 .00030451,0.00059163,-0.00033382,0.00035322,-0.00009357,0.00003494,0.0
 0001602,-0.00000958,0.00001271,-0.00003877,0.00000478,-0.00002016,-0.0
 0015008,0.00001724,0.00000560,0.00004976,0.00004298,0.00049255,0.00047
 153,-0.00003980,-0.00007061,-0.00005180,-0.00010791,0.00001257,-0.0004
 9798,-0.00059983,0.00091316,0.00167098,0.00179207,-0.16200191,-0.12020
 749,0.03913109,0.00505118,0.00612614,-0.00554054,-0.00000183,-0.000011
 29,0.00000629,0.00000315,0.00000446,-0.00000413,0.00000489,0.00000705,
 -0.00001134,0.00001487,-0.00000668,0.00001629,0.00001418,-0.00002574,-
 0.00000387,-0.00000193,-0.00001049,0.00000636,0.00019219,-0.00001087,-
 0.00022967,0.00009002,0.00006844,-0.00002135,0.00004506,-0.00001156,-0
 .00002044,0.00002144,-0.00000064,-0.00001035,-0.00000528,-0.00001451,0
 .00041380,0.00114076,0.00023840,-0.00098974,-0.00035966,-0.00018663,-0
 .00038134,-0.01939755,-0.02107539,0.00665867,0.17371322,0.00000915,0.0
 0000184,-0.00001293,0.00005758,0.00002125,0.00000215,-0.00000407,0.000
 29283,-0.00017049,-0.00067277,-0.00072512,-0.00007230,0.00007949,0.001
 13535,0.00030291,0.00103218,-0.00026546,0.00209279,0.00013956,0.000234
 76,0.00011168,0.00030488,0.00032602,-0.00037855,0.00024181,-0.00006331
 ,0.00005308,-0.00017170,0.00010449,0.00001551,-0.00005420,0.00001373,0
 .00000668,-0.00000412,-0.00033673,-0.00002350,-0.00001864,0.00007822,-
 0.00008445,0.00085530,0.00125844,-0.00097564,-0.00067361,-0.00023206,0
 .00015772,0.00046916,-0.00254161,-0.00239238,-0.01527307,-0.01496465,0
 .00257405,-0.12276898,-0.17454556,0.04084999,-0.00747544,-0.00822039,0
 .00507441,-0.00000288,-0.00000686,0.00000923,-0.00000782,-0.00000285,-
 0.00000557,0.00001282,0.00000329,-0.00000034,-0.00001472,-0.00002281,-
 0.00001226,0.00005788,-0.00006626,-0.00002256,0.00000069,-0.00001654,0
 .00002325,-0.00012502,0.00002295,0.00009337,-0.00001076,-0.00002019,-0
 .00003814,-0.00005458,0.00003389,0.00003820,0.00003037,-0.00002631,0.0
 0000249,-0.00003960,-0.00008392,0.00003730,-0.00038124,0.00188246,-0.0
 0012108,0.00067770,-0.00046494,-0.00017981,0.00984491,0.01092962,-0.00
 372746,0.13349936,0.18562324,0.00002968,-0.00002359,0.00003955,-0.0000
 6277,0.00010900,-0.00004615,0.00003444,-0.00032103,0.00037936,0.000460
 33,0.00154217,0.00081005,0.00081122,-0.00104918,-0.00066182,-0.0027777
 4,0.00142636,-0.00537950,0.00007356,0.00041955,0.00009503,-0.00003539,
 -0.00042353,-0.00029055,0.00014356,0.00015435,-0.00055000,0.00002831,0
 .00012935,-0.00010558,-0.00009468,-0.00007953,0.00005329,-0.00002898,-
 0.00033050,0.00038172,-0.00009736,-0.00011429,-0.00004576,0.00102409,0
 .00240102,-0.00136091,-0.00120047,-0.00066263,0.00020038,-0.00038939,-
 0.00575382,-0.00222095,-0.01598563,-0.01642474,-0.00208245,0.04101100,
 0.04189295,-0.05335308,0.01787970,0.02081104,-0.01354810,-0.00001184,-
 0.00000373,0.00000484,0.00002104,0.00002201,0.00000223,-0.00002350,-0.
 00000226,-0.00000596,0.00003483,0.00001294,0.00003952,-0.00007485,0.00
 011975,0.00001414,0.00000514,0.00001856,-0.00001804,0.00007613,0.00003
 217,-0.00005318,0.00002435,0.00003877,-0.00009616,0.00005363,0.0000632
 1,-0.00008023,0.00003851,0.00003164,0.00001108,0.00003340,0.00000854,0
 .00020089,-0.00221035,-0.00192263,-0.00018766,0.00077609,-0.00016882,0
 .00011965,0.00067069,0.00073880,-0.00072525,-0.04062915,-0.04254102,0.
 07636560,-0.00000482,0.00001039,-0.00002106,0.00006231,0.00000209,0.00
 004650,-0.00029351,0.00021535,0.00011687,-0.00078069,-0.00116329,0.001
 02567,0.00068799,-0.00120379,-0.00053075,0.00458045,-0.01484111,-0.010
 70216,-0.00094625,0.00084016,0.00081620,0.00057145,0.00034109,0.000234
 51,0.00031097,-0.00002763,0.00009370,-0.00024735,-0.00003053,-0.000127
 68,0.00002884,-0.00000718,-0.00002173,0.00000470,0.00004967,-0.0000686
 7,-0.00002156,0.00004529,-0.00004891,0.00022839,0.00003343,-0.00003885
 ,-0.00014197,0.00003742,0.00002839,-0.00019105,-0.00027987,-0.00003047
 ,0.00044536,0.00104636,-0.00073024,0.00004048,-0.00590433,-0.00747002,
 -0.05236398,0.01830518,0.01498505,0.00000568,0.00000324,-0.00000188,-0
 .00000768,-0.00000597,-0.00000284,0.00001274,0.00000267,0.00000628,-0.
 00000642,-0.00001145,-0.00002072,0.00008341,-0.00003076,-0.00000541,0.
 00002334,-0.00007024,0.00000292,-0.00051970,-0.00006598,0.00005441,-0.
 00002768,0.00008260,-0.00004633,-0.00004823,-0.00027097,0.00001196,-0.
 00000477,-0.00002568,0.00001085,0.00001441,0.00000644,0.00000612,0.000
 13426,-0.00017029,-0.00033162,-0.00000070,-0.00008948,-0.00022502,0.00
 040877,-0.00080243,-0.00001363,0.00006293,0.00016667,0.00068172,0.0498
 5229,-0.00001183,0.00001237,-0.00002856,0.00006400,-0.00002368,0.00008
 319,-0.00053374,0.00057400,0.00007493,-0.00225435,-0.00245616,0.000857
 48,-0.00155659,-0.00145315,-0.00198855,0.00287459,-0.02011132,-0.00609
 433,0.00019706,0.00006199,0.00042087,-0.00009645,-0.00009553,-0.000023
 84,0.00046004,-0.00016164,0.00090879,-0.00002846,0.00016470,0.00021344
 ,-0.00001473,0.00006473,-0.00003923,-0.00002442,0.00004278,-0.00026220
 ,0.00004190,0.00011811,0.00004067,-0.00015461,-0.00083256,0.00019947,0
 .00012026,0.00027220,-0.00000294,0.00035438,0.00070178,0.00009731,0.00
 028686,0.00016218,0.00082227,0.00039848,0.00465906,0.00539551,0.022103
 38,-0.23082747,-0.11319257,0.00000450,-0.00000829,0.00000200,-0.000020
 80,-0.00001990,-0.00000903,0.00004513,0.00001009,0.00000076,-0.0000236
 9,-0.00002838,-0.00004561,0.00016034,-0.00005257,-0.00002606,0.0000267
 6,-0.00016241,0.00000813,-0.00050459,0.00014454,-0.00018174,-0.0000805
 4,-0.00000478,-0.00002626,-0.00006402,0.00010030,0.00019717,-0.0000138
 2,-0.00004124,0.00000457,0.00002243,0.00002063,-0.00002350,-0.00014750
 ,-0.00004040,0.00019422,-0.00011738,0.00005847,0.00016177,-0.00037959,
 0.00073902,-0.00015586,0.00011092,0.00083588,-0.00022777,-0.02190046,0
 .25499499,0.00003172,-0.00001962,0.00002225,-0.00005130,0.00003211,-0.
 00004247,0.00027452,-0.00016023,-0.00010611,0.00104422,0.00115477,-0.0
 0065954,0.00056505,0.00185392,0.00050214,-0.00297588,0.01206797,0.0074
 2248,-0.00003694,-0.00067865,-0.00012534,-0.00015058,0.00022153,-0.000
 03366,0.00009999,0.00003759,-0.00043255,-0.00004990,0.00005490,-0.0000
 9374,-0.00011673,-0.00006586,0.00008235,0.00001334,-0.00014041,0.00007
 199,0.00002955,-0.00001147,-0.00005779,0.00077898,0.00132959,-0.000219
 80,-0.00065232,-0.00028165,-0.00004137,-0.00111712,-0.00135926,-0.0003
 4085,-0.00057462,0.00469273,-0.00150205,0.00115078,-0.02500661,-0.0239
 0767,0.01472203,-0.11200541,-0.10427260,-0.00001330,-0.00000452,0.0000
 1117,0.00000793,0.00001220,-0.00000071,-0.00002016,-0.00000265,-0.0000
 0150,0.00000471,0.00000723,0.00002018,-0.00006857,-0.00000189,-0.00000
 198,-0.00001306,0.00006676,0.00001510,-0.00003787,-0.00000929,0.000051
 59,0.00003439,-0.00001329,-0.00004372,-0.00002645,0.00003276,-0.000086
 84,0.00002739,0.00001975,0.00000324,-0.00001738,-0.00013864,-0.0000575
 6,0.00035668,-0.00059470,-0.00149335,0.00003193,0.00013060,0.00034274,
 -0.00052221,-0.00052382,0.00170433,0.00094278,-0.00018449,0.00086312,-
 0.01377892,0.11747268,0.12140435,-0.00002213,0.00003018,-0.00000359,0.
 00007957,-0.00000721,-0.00001247,0.00009182,0.00013894,-0.00003680,0.0
 0033421,-0.00047210,-0.00056331,0.00240074,0.00296865,0.00015041,-0.02
 117012,0.00507500,-0.00145172,-0.00120593,-0.00437923,0.00091110,-0.00
 103249,0.00089968,0.00023512,-0.00011758,0.00003493,0.00051969,-0.0004
 1948,0.00007098,-0.00021077,0.00023737,-0.00012502,-0.00006424,0.00006
 137,-0.00002911,0.00010328,-0.00007008,0.00000196,-0.00000639,-0.00011
 677,0.00026665,0.00002029,0.00014885,-0.00009455,-0.00011173,0.0001464
 9,-0.00020883,-0.00008997,0.00008821,-0.00004590,0.00000273,-0.0045560
 5,0.00125314,0.00009728,-0.28498597,0.07502358,-0.01468499,0.00001134,
 -0.00000382,-0.00000080,-0.00000230,-0.00000303,-0.00000146,0.00000716
 ,0.00000145,-0.00000836,-0.00000667,-0.00002231,-0.00000063,0.00004659
 ,-0.00009387,-0.00001033,0.00000530,-0.00001661,0.00001494,0.00012572,
 0.00018264,-0.00010118,0.00022380,0.00005822,-0.00046974,0.00017533,-0
 .00054858,-0.00015873,0.00000582,-0.00002244,-0.00000742,0.00000635,0.
 00005134,0.00007543,0.00006463,-0.00003970,-0.00001334,-0.00010155,-0.
 00026174,-0.00046001,0.00097247,0.00024751,-0.00076161,0.00071195,0.00
 027369,-0.00028931,-0.00195243,0.00065656,0.00010728,0.30981445,-0.000
 02703,0.00002161,0.00000615,0.00002655,0.00000100,-0.00001399,0.000126
 39,0.00003585,0.00001304,0.00007871,-0.00011456,-0.00003818,0.00073432
 ,0.00251874,-0.00123974,-0.02553075,0.00494109,-0.00126104,-0.00153380
 ,-0.00352189,0.00217486,-0.00089511,0.00035596,-0.00020419,-0.00036607
 ,0.00016461,0.00046408,-0.00030684,-0.00017305,-0.00013817,0.00021317,
 -0.00005054,-0.00005627,-0.00001311,0.00008287,0.00002112,-0.00001339,
 0.00003784,0.00006901,-0.00024031,-0.00020523,0.00002908,0.00025031,0.
 00000976,-0.00003868,0.00018178,0.00017599,-0.00009165,-0.00070593,0.0
 0017064,-0.00023307,0.00564150,-0.00269311,0.00026241,0.07749306,-0.07
 137005,0.00454108,0.00000935,-0.00000132,-0.00000626,0.00000401,-0.000
 00338,-0.00000015,0.00000626,-0.00000097,-0.00000814,0.00000405,-0.000
 00516,0.00001270,0.00001932,-0.00005075,-0.00001206,0.00000518,-0.0000
 0162,-0.00000005,-0.00022478,0.00003900,-0.00006811,0.00026388,0.00016
 958,-0.00053779,-0.00003371,-0.00039510,-0.00024682,-0.00000663,-0.000
 01816,-0.00000920,0.00000186,-0.00005098,-0.00002936,0.00001348,0.0000
 1024,0.00005510,0.00000488,0.00020292,0.00022715,-0.00011974,0.0004116
 8,0.00184624,0.00008680,-0.00019270,0.00007690,0.02571338,-0.00741834,
 0.00201537,-0.08086105,0.07691754,-0.00000274,0.00000008,-0.00000912,0
 .00003014,0.00000069,0.00001997,-0.00000766,-0.00010238,0.00001040,0.0
 0012566,0.00025986,-0.00003061,-0.00040096,-0.00115082,-0.00023937,0.0
 1213130,-0.00435316,0.00095996,0.00005783,0.00240379,0.00030007,0.0006
 5045,-0.00011616,0.00043636,-0.00018604,-0.00000817,-0.00007333,-0.000
 23870,0.00002954,-0.00012942,0.00006248,-0.00007591,-0.00004556,0.0000
 4054,-0.00000213,0.00011702,-0.00005856,-0.00004727,-0.00005310,0.0004
 0162,0.00054789,-0.00014591,-0.00015336,-0.00013396,0.00009025,-0.0000
 9856,-0.00078184,-0.00023706,-0.00041673,0.00042328,0.00167607,-0.0282
 2447,0.00993711,-0.00207996,-0.01665398,0.00472062,-0.04801751,0.00000
 349,0.00000602,-0.00000319,-0.00000085,0.00000330,0.00000243,-0.000004
 71,0.00000031,0.00000325,-0.00000213,0.00000765,-0.00000375,-0.0000190
 0,0.00002128,0.00002734,0.00000062,0.00001952,-0.00001592,-0.00021516,
 -0.00004977,-0.00017973,-0.00007398,0.00007953,0.00017347,0.00002389,-
 0.00035906,0.00003360,-0.00000175,-0.00000845,0.00000928,0.00008302,0.
 00010146,0.00020383,0.00014244,0.00007538,0.00023353,0.00037653,-0.000
 54956,-0.00033360,-0.00134064,0.00201167,-0.00586557,0.00059284,-0.000
 50183,0.00123089,0.01609575,-0.00482715,0.00100419,0.01728137,-0.00758
 137,0.05093079\\-0.00000147,-0.00001518,-0.00000025,0.00000085,0.00003
 273,0.00002246,0.00001620,-0.00001817,-0.00002657,-0.00000025,0.000023
 66,-0.00002890,-0.00004067,0.00002757,-0.00002383,0.00005649,-0.000010
 57,0.00002928,-0.00002716,0.00000660,0.00001892,0.00003151,-0.00002578
 ,-0.00000999,-0.00004695,0.00005965,0.00004381,0.00004987,0.00000857,0
 .00004862,-0.00005008,0.00002552,-0.00002172,0.00001683,-0.00003017,-0
 .00001662,0.00000587,-0.00006805,-0.00001553,-0.00001451,0.00003771,-0
 .00004747,0.00000167,0.00000016,0.00001577,0.00002070,-0.00002686,0.00
 001055,0.00000151,-0.00002458,-0.00001865,-0.00001258,-0.00001648,0.00
 004593,0.00000509,-0.00001337,-0.00003118,0.00000367,0.00000467,-0.000
 00389,0.00000333,0.00000303,-0.00000490,-0.00000105,-0.00000036,-0.000
 00506,0.00000066,0.00000048,-0.00000452,-0.00000241,0.00000580,0.00000
 516,-0.00000330,-0.00000147,0.00000280,0.00000300,0.00000204,-0.000009
 22,-0.00000340,0.00000096,-0.00000560,-0.00000337,0.00000301,-0.000014
 11,0.00000164,-0.00001350,0.00001991,0.00000719,-0.00000060,0.00000195
 ,-0.00000783,0.00000679,0.00000461,0.00000162,0.00000318,0.00001010,-0
 .00000907,0.00000386,-0.00000256,0.00000750,0.00000194,0.00000047,-0.0
 0000727,-0.00000063,0.00001034,-0.00000382,0.00000785,-0.00000011\\\@


 I take a simple view of life: keep your eyes open and get on with it.
 -- Laurence Olivier
 Job cpu time:       1 days  5 hours  0 minutes 46.8 seconds.
 Elapsed time:       0 days  7 hours 15 minutes 14.7 seconds.
 File lengths (MBytes):  RWF=    991 Int=      0 D2E=      0 Chk=     32 Scr=      1
 Normal termination of Gaussian 16 at Fri May 19 04:32:51 2023.
### All Done ###
