### Starting Gaussian ###
 Entering Gaussian System, Link 0=g16
 Initial command:
 /cluster/software/gaussian/gaussian-16-A.03/avx2/g16/l1.exe "/local/scratch/ks29c/Gau-16639.inp" -scrdir="/local/scratch/ks29c/"
 Entering Link 1 = /cluster/software/gaussian/gaussian-16-A.03/avx2/g16/l1.exe PID=     16640.
  
 Copyright (c) 1988,1990,1992,1993,1995,1998,2003,2009,2016,
            Gaussian, Inc.  All Rights Reserved.
  
 This is part of the Gaussian(R) 16 program.  It is based on
 the Gaussian(R) 09 system (copyright 2009, Gaussian, Inc.),
 the Gaussian(R) 03 system (copyright 2003, Gaussian, Inc.),
 the Gaussian(R) 98 system (copyright 1998, Gaussian, Inc.),
 the Gaussian(R) 94 system (copyright 1995, Gaussian, Inc.),
 the Gaussian 92(TM) system (copyright 1992, Gaussian, Inc.),
 the Gaussian 90(TM) system (copyright 1990, Gaussian, Inc.),
 the Gaussian 88(TM) system (copyright 1988, Gaussian, Inc.),
 the Gaussian 86(TM) system (copyright 1986, Carnegie Mellon
 University), and the Gaussian 82(TM) system (copyright 1983,
 Carnegie Mellon University). Gaussian is a federally registered
 trademark of Gaussian, Inc.
  
 This software contains proprietary and confidential information,
 including trade secrets, belonging to Gaussian, Inc.
  
 This software is provided under written license and may be
 used, copied, transmitted, or stored only in accord with that
 written license.
  
 The following legend is applicable only to US Government
 contracts under FAR:
  
                    RESTRICTED RIGHTS LEGEND
  
 Use, reproduction and disclosure by the US Government is
 subject to restrictions as set forth in subparagraphs (a)
 and (c) of the Commercial Computer Software - Restricted
 Rights clause in FAR 52.227-19.
  
 Gaussian, Inc.
 340 Quinnipiac St., Bldg. 40, Wallingford CT 06492
  
  
 ---------------------------------------------------------------
 Warning -- This program may not be used in any manner that
 competes with the business of Gaussian, Inc. or will provide
 assistance to any competitor of Gaussian, Inc.  The licensee
 of this program is prohibited from giving any competitor of
 Gaussian, Inc. access to this program.  By using this program,
 the user acknowledges that Gaussian, Inc. is engaged in the
 business of creating and licensing software in the field of
 computational chemistry and represents and warrants to the
 licensee that it is not a competitor of Gaussian, Inc. and that
 it will not use this program in any manner prohibited above.
 ---------------------------------------------------------------
  

 Cite this work as:
 Gaussian 16, Revision A.03,
 M. J. Frisch, G. W. Trucks, H. B. Schlegel, G. E. Scuseria, 
 M. A. Robb, J. R. Cheeseman, G. Scalmani, V. Barone, 
 G. A. Petersson, H. Nakatsuji, X. Li, M. Caricato, A. V. Marenich, 
 J. Bloino, B. G. Janesko, R. Gomperts, B. Mennucci, H. P. Hratchian, 
 J. V. Ortiz, A. F. Izmaylov, J. L. Sonnenberg, D. Williams-Young, 
 F. Ding, F. Lipparini, F. Egidi, J. Goings, B. Peng, A. Petrone, 
 T. Henderson, D. Ranasinghe, V. G. Zakrzewski, J. Gao, N. Rega, 
 G. Zheng, W. Liang, M. Hada, M. Ehara, K. Toyota, R. Fukuda, 
 J. Hasegawa, M. Ishida, T. Nakajima, Y. Honda, O. Kitao, H. Nakai, 
 T. Vreven, K. Throssell, J. A. Montgomery, Jr., J. E. Peralta, 
 F. Ogliaro, M. J. Bearpark, J. J. Heyd, E. N. Brothers, K. N. Kudin, 
 V. N. Staroverov, T. A. Keith, R. Kobayashi, J. Normand, 
 K. Raghavachari, A. P. Rendell, J. C. Burant, S. S. Iyengar, 
 J. Tomasi, M. Cossi, J. M. Millam, M. Klene, C. Adamo, R. Cammi, 
 J. W. Ochterski, R. L. Martin, K. Morokuma, O. Farkas, 
 J. B. Foresman, and D. J. Fox, Gaussian, Inc., Wallingford CT, 2016.
 
 ******************************************
 Gaussian 16:  ES64L-G16RevA.03 25-Dec-2016
                20-May-2023 
 ******************************************
 %chk=CC1dCCdC1CC1CdCC2dCC2dCC2dCCdCC2C1.chk
 %NProcShared=20
 Will use up to   20 processors via shared memory.
 -----------------------------
 # opt freq b3lyp/6-31g(2df,p)
 -----------------------------
 1/18=20,19=15,26=3,38=1/1,3;
 2/9=110,12=2,17=6,18=5,40=1/2;
 3/5=1,6=6,7=104,11=2,25=1,30=1,71=1,74=-5/1,2,3;
 4//1;
 5/5=2,38=5/2;
 6/7=2,8=2,9=2,10=2,28=1/1;
 7//1,2,3,16;
 1/18=20,19=15,26=3/3(2);
 2/9=110/2;
 99//99;
 2/9=110/2;
 3/5=1,6=6,7=104,11=2,25=1,30=1,71=1,74=-5/1,2,3;
 4/5=5,16=3,69=1/1;
 5/5=2,38=5/2;
 7//1,2,3,16;
 1/18=20,19=15,26=3/3(-5);
 2/9=110/2;
 6/7=2,8=2,9=2,10=2,19=2,28=1/1;
 99/9=1/99;
 -------------------
 Title Card Required
 -------------------
 Symbolic Z-matrix:
 Charge =  0 Multiplicity = 1
 C                     0.83567  -0.1045    0.14634 
 C                     2.30535  -0.18269   0.2605 
 C                     3.16311  -0.79417   1.05927 
 C                     4.24328  -0.19815   0.30614 
 C                     3.34075   0.50826  -0.46142 
 C                     2.74921   1.5061   -1.58312 
 C                     3.035     2.35827  -2.82359 
 C                     2.92109   3.70066  -3.53251 
 C                     3.5983    4.00537  -4.69207 
 C                     2.94306   4.64924  -5.75916 
 C                     2.96184   5.26168  -6.91659 
 C                     1.63802   4.89603  -6.50542 
 C                     0.90294   4.07805  -5.82116 
 C                    -0.30601   3.56451  -5.41408 
 C                    -1.4269    3.4841   -6.13698 
 C                    -2.50568   3.14891  -5.28319 
 C                    -1.96249   2.78337  -4.07186 
 C                    -0.15161   2.77146  -3.98906 
 C                     1.63814   1.8787   -3.87752 
 H                     0.39056  -0.70041   0.93044 
 H                     0.55114  -0.43579  -0.85759 
 H                     0.54993   0.95084   0.18548 
 H                     2.93799  -1.45537   1.89957 
 H                     5.25733  -0.46738   0.59691 
 H                     1.98774   2.09944  -1.08008 
 H                     2.09605   0.72928  -2.01216 
 H                     4.08165   2.71537  -2.61273 
 H                     1.93973   4.11074  -3.36086 
 H                     4.57067   3.58828  -4.96991 
 H                     3.70549   5.62498  -7.52756 
 H                     1.41245   3.44475  -5.17326 
 H                    -1.55676   3.75586  -7.17697 
 H                    -3.5074    3.55229  -5.57244 
 H                    -2.64293   3.29307  -3.34157 
 H                    -0.1192    3.44818  -3.10888 
 H                     2.22542   1.89662  -4.8416 
 H                     1.75497   0.78075  -3.82065 
 

 GradGradGradGradGradGradGradGradGradGradGradGradGradGradGradGradGradGrad
 Berny optimization.
 Initialization pass.
                           ----------------------------
                           !    Initial Parameters    !
                           ! (Angstroms and Degrees)  !
 --------------------------                            --------------------------
 ! Name  Definition              Value          Derivative Info.                !
 --------------------------------------------------------------------------------
 ! R1    R(1,2)                  1.4762         estimate D2E/DX2                !
 ! R2    R(1,20)                 1.0808         estimate D2E/DX2                !
 ! R3    R(1,21)                 1.0948         estimate D2E/DX2                !
 ! R4    R(1,22)                 1.094          estimate D2E/DX2                !
 ! R5    R(2,3)                  1.322          estimate D2E/DX2                !
 ! R6    R(2,5)                  1.439          estimate D2E/DX2                !
 ! R7    R(3,4)                  1.4454         estimate D2E/DX2                !
 ! R8    R(3,23)                 1.0927         estimate D2E/DX2                !
 ! R9    R(4,5)                  1.3794         estimate D2E/DX2                !
 ! R10   R(4,24)                 1.0887         estimate D2E/DX2                !
 ! R11   R(5,6)                  1.6136         estimate D2E/DX2                !
 ! R12   R(6,7)                  1.5319         estimate D2E/DX2                !
 ! R13   R(6,25)                 1.0885         estimate D2E/DX2                !
 ! R14   R(6,26)                 1.1019         estimate D2E/DX2                !
 ! R15   R(7,8)                  1.5224         estimate D2E/DX2                !
 ! R16   R(7,19)                 1.8144         estimate D2E/DX2                !
 ! R17   R(7,27)                 1.1258         estimate D2E/DX2                !
 ! R18   R(8,9)                  1.377          estimate D2E/DX2                !
 ! R19   R(8,28)                 1.0774         estimate D2E/DX2                !
 ! R20   R(9,10)                 1.408          estimate D2E/DX2                !
 ! R21   R(9,29)                 1.0939         estimate D2E/DX2                !
 ! R22   R(10,11)                1.3096         estimate D2E/DX2                !
 ! R23   R(10,12)                1.5235         estimate D2E/DX2                !
 ! R24   R(11,12)                1.4336         estimate D2E/DX2                !
 ! R25   R(11,30)                1.0287         estimate D2E/DX2                !
 ! R26   R(12,13)                1.2952         estimate D2E/DX2                !
 ! R27   R(13,14)                1.3751         estimate D2E/DX2                !
 ! R28   R(13,31)                1.0394         estimate D2E/DX2                !
 ! R29   R(14,15)                1.3362         estimate D2E/DX2                !
 ! R30   R(14,18)                1.6381         estimate D2E/DX2                !
 ! R31   R(15,16)                1.416          estimate D2E/DX2                !
 ! R32   R(15,32)                1.0827         estimate D2E/DX2                !
 ! R33   R(16,17)                1.377          estimate D2E/DX2                !
 ! R34   R(16,33)                1.118          estimate D2E/DX2                !
 ! R35   R(17,18)                1.8128         estimate D2E/DX2                !
 ! R36   R(17,34)                1.1208         estimate D2E/DX2                !
 ! R37   R(18,35)                1.1107         estimate D2E/DX2                !
 ! R38   R(19,36)                1.129          estimate D2E/DX2                !
 ! R39   R(19,37)                1.1056         estimate D2E/DX2                !
 ! A1    A(2,1,20)             108.9488         estimate D2E/DX2                !
 ! A2    A(2,1,21)             108.2785         estimate D2E/DX2                !
 ! A3    A(2,1,22)             107.9602         estimate D2E/DX2                !
 ! A4    A(20,1,21)            113.0419         estimate D2E/DX2                !
 ! A5    A(20,1,22)            113.4753         estimate D2E/DX2                !
 ! A6    A(21,1,22)            104.8819         estimate D2E/DX2                !
 ! A7    A(1,2,3)              135.824          estimate D2E/DX2                !
 ! A8    A(1,2,5)              130.7034         estimate D2E/DX2                !
 ! A9    A(3,2,5)               93.3459         estimate D2E/DX2                !
 ! A10   A(2,3,4)               88.8154         estimate D2E/DX2                !
 ! A11   A(2,3,23)             127.6521         estimate D2E/DX2                !
 ! A12   A(4,3,23)             143.5313         estimate D2E/DX2                !
 ! A13   A(3,4,5)               90.6961         estimate D2E/DX2                !
 ! A14   A(3,4,24)             117.0599         estimate D2E/DX2                !
 ! A15   A(5,4,24)             152.2107         estimate D2E/DX2                !
 ! A16   A(2,5,4)               86.8887         estimate D2E/DX2                !
 ! A17   A(2,5,6)              112.4513         estimate D2E/DX2                !
 ! A18   A(4,5,6)              160.6218         estimate D2E/DX2                !
 ! A19   A(5,6,7)              146.9835         estimate D2E/DX2                !
 ! A20   A(5,6,25)             105.7991         estimate D2E/DX2                !
 ! A21   A(5,6,26)              92.9815         estimate D2E/DX2                !
 ! A22   A(7,6,25)             101.6245         estimate D2E/DX2                !
 ! A23   A(7,6,26)             100.8052         estimate D2E/DX2                !
 ! A24   A(25,6,26)             98.601          estimate D2E/DX2                !
 ! A25   A(6,7,8)              148.6123         estimate D2E/DX2                !
 ! A26   A(6,7,19)             100.3528         estimate D2E/DX2                !
 ! A27   A(6,7,27)             101.4334         estimate D2E/DX2                !
 ! A28   A(8,7,19)              84.5467         estimate D2E/DX2                !
 ! A29   A(8,7,27)              82.9397         estimate D2E/DX2                !
 ! A30   A(19,7,27)            155.2826         estimate D2E/DX2                !
 ! A31   A(7,8,9)              123.4            estimate D2E/DX2                !
 ! A32   A(7,8,28)             109.2447         estimate D2E/DX2                !
 ! A33   A(9,8,28)             119.8631         estimate D2E/DX2                !
 ! A34   A(8,9,10)             120.6985         estimate D2E/DX2                !
 ! A35   A(8,9,29)             124.5187         estimate D2E/DX2                !
 ! A36   A(10,9,29)            113.2981         estimate D2E/DX2                !
 ! A37   A(9,10,11)            151.278          estimate D2E/DX2                !
 ! A38   A(9,10,12)            147.5587         estimate D2E/DX2                !
 ! A39   A(10,11,30)           134.4601         estimate D2E/DX2                !
 ! A40   A(12,11,30)           158.1139         estimate D2E/DX2                !
 ! A41   A(10,12,13)            97.1851         estimate D2E/DX2                !
 ! A42   A(11,12,13)           146.7879         estimate D2E/DX2                !
 ! A43   A(12,13,14)           153.0206         estimate D2E/DX2                !
 ! A44   A(12,13,31)           115.8408         estimate D2E/DX2                !
 ! A45   A(14,13,31)            91.0823         estimate D2E/DX2                !
 ! A46   A(13,14,15)           126.8558         estimate D2E/DX2                !
 ! A47   A(13,14,18)           110.8209         estimate D2E/DX2                !
 ! A48   A(15,14,18)           121.37           estimate D2E/DX2                !
 ! A49   A(14,15,16)           109.0942         estimate D2E/DX2                !
 ! A50   A(14,15,32)           127.2405         estimate D2E/DX2                !
 ! A51   A(16,15,32)           123.1749         estimate D2E/DX2                !
 ! A52   A(15,16,17)           107.0217         estimate D2E/DX2                !
 ! A53   A(15,16,33)           116.1818         estimate D2E/DX2                !
 ! A54   A(17,16,33)           132.5995         estimate D2E/DX2                !
 ! A55   A(16,17,18)           115.8485         estimate D2E/DX2                !
 ! A56   A(16,17,34)           102.2978         estimate D2E/DX2                !
 ! A57   A(18,17,34)           125.4294         estimate D2E/DX2                !
 ! A58   A(14,18,17)            82.1218         estimate D2E/DX2                !
 ! A59   A(14,18,35)           113.3997         estimate D2E/DX2                !
 ! A60   A(17,18,35)            93.5167         estimate D2E/DX2                !
 ! A61   A(7,19,36)             95.2414         estimate D2E/DX2                !
 ! A62   A(7,19,37)             98.6995         estimate D2E/DX2                !
 ! A63   A(36,19,37)            90.2704         estimate D2E/DX2                !
 ! D1    D(20,1,2,3)             0.5824         estimate D2E/DX2                !
 ! D2    D(20,1,2,5)          -174.1769         estimate D2E/DX2                !
 ! D3    D(21,1,2,3)          -122.7312         estimate D2E/DX2                !
 ! D4    D(21,1,2,5)            62.5095         estimate D2E/DX2                !
 ! D5    D(22,1,2,3)           124.2273         estimate D2E/DX2                !
 ! D6    D(22,1,2,5)           -50.532          estimate D2E/DX2                !
 ! D7    D(1,2,3,4)           -179.7938         estimate D2E/DX2                !
 ! D8    D(1,2,3,23)             0.5358         estimate D2E/DX2                !
 ! D9    D(5,2,3,4)             -3.7711         estimate D2E/DX2                !
 ! D10   D(5,2,3,23)           176.5585         estimate D2E/DX2                !
 ! D11   D(1,2,5,4)           -179.6988         estimate D2E/DX2                !
 ! D12   D(1,2,5,6)             -0.9533         estimate D2E/DX2                !
 ! D13   D(3,2,5,4)              3.9569         estimate D2E/DX2                !
 ! D14   D(3,2,5,6)           -177.2976         estimate D2E/DX2                !
 ! D15   D(2,3,4,5)              3.9278         estimate D2E/DX2                !
 ! D16   D(2,3,4,24)          -177.4847         estimate D2E/DX2                !
 ! D17   D(23,3,4,5)          -176.5112         estimate D2E/DX2                !
 ! D18   D(23,3,4,24)            2.0762         estimate D2E/DX2                !
 ! D19   D(3,4,5,2)             -3.6126         estimate D2E/DX2                !
 ! D20   D(3,4,5,6)            179.8835         estimate D2E/DX2                !
 ! D21   D(24,4,5,2)           179.0862         estimate D2E/DX2                !
 ! D22   D(24,4,5,6)             2.5823         estimate D2E/DX2                !
 ! D23   D(2,5,6,7)           -165.4297         estimate D2E/DX2                !
 ! D24   D(2,5,6,25)            49.5099         estimate D2E/DX2                !
 ! D25   D(2,5,6,26)           -50.2995         estimate D2E/DX2                !
 ! D26   D(4,5,6,7)             10.7926         estimate D2E/DX2                !
 ! D27   D(4,5,6,25)          -134.2678         estimate D2E/DX2                !
 ! D28   D(4,5,6,26)           125.9227         estimate D2E/DX2                !
 ! D29   D(5,6,7,8)           -129.5259         estimate D2E/DX2                !
 ! D30   D(5,6,7,19)           133.9316         estimate D2E/DX2                !
 ! D31   D(5,6,7,27)           -34.3215         estimate D2E/DX2                !
 ! D32   D(25,6,7,8)            16.2372         estimate D2E/DX2                !
 ! D33   D(25,6,7,19)          -80.3053         estimate D2E/DX2                !
 ! D34   D(25,6,7,27)          111.4416         estimate D2E/DX2                !
 ! D35   D(26,6,7,8)           117.4645         estimate D2E/DX2                !
 ! D36   D(26,6,7,19)           20.922          estimate D2E/DX2                !
 ! D37   D(26,6,7,27)         -147.3311         estimate D2E/DX2                !
 ! D38   D(6,7,8,9)            169.0196         estimate D2E/DX2                !
 ! D39   D(6,7,8,28)           -41.4465         estimate D2E/DX2                !
 ! D40   D(19,7,8,9)           -90.0194         estimate D2E/DX2                !
 ! D41   D(19,7,8,28)           59.5145         estimate D2E/DX2                !
 ! D42   D(27,7,8,9)            68.6201         estimate D2E/DX2                !
 ! D43   D(27,7,8,28)         -141.846          estimate D2E/DX2                !
 ! D44   D(6,7,19,36)         -142.8628         estimate D2E/DX2                !
 ! D45   D(6,7,19,37)          -51.7838         estimate D2E/DX2                !
 ! D46   D(8,7,19,36)           68.4552         estimate D2E/DX2                !
 ! D47   D(8,7,19,37)          159.5342         estimate D2E/DX2                !
 ! D48   D(27,7,19,36)           8.6328         estimate D2E/DX2                !
 ! D49   D(27,7,19,37)          99.7118         estimate D2E/DX2                !
 ! D50   D(7,8,9,10)           135.2628         estimate D2E/DX2                !
 ! D51   D(7,8,9,29)           -29.8867         estimate D2E/DX2                !
 ! D52   D(28,8,9,10)          -11.2336         estimate D2E/DX2                !
 ! D53   D(28,8,9,29)         -176.3831         estimate D2E/DX2                !
 ! D54   D(8,9,10,11)          170.119          estimate D2E/DX2                !
 ! D55   D(8,9,10,12)          -28.9052         estimate D2E/DX2                !
 ! D56   D(29,9,10,11)         -23.1735         estimate D2E/DX2                !
 ! D57   D(29,9,10,12)         137.8023         estimate D2E/DX2                !
 ! D58   D(9,10,11,30)          -8.7015         estimate D2E/DX2                !
 ! D59   D(9,10,12,13)          -4.4681         estimate D2E/DX2                !
 ! D60   D(10,11,12,30)       -174.4044         estimate D2E/DX2                !
 ! D61   D(30,11,12,13)        146.7162         estimate D2E/DX2                !
 ! D62   D(10,12,13,14)        165.6875         estimate D2E/DX2                !
 ! D63   D(10,12,13,31)        -10.3403         estimate D2E/DX2                !
 ! D64   D(11,12,13,14)       -172.5109         estimate D2E/DX2                !
 ! D65   D(11,12,13,31)         11.4613         estimate D2E/DX2                !
 ! D66   D(12,13,14,15)         32.4696         estimate D2E/DX2                !
 ! D67   D(12,13,14,18)       -158.687          estimate D2E/DX2                !
 ! D68   D(31,13,14,15)       -151.1055         estimate D2E/DX2                !
 ! D69   D(31,13,14,18)         17.7379         estimate D2E/DX2                !
 ! D70   D(13,14,15,16)       -168.3171         estimate D2E/DX2                !
 ! D71   D(13,14,15,32)          3.7813         estimate D2E/DX2                !
 ! D72   D(18,14,15,16)         23.9118         estimate D2E/DX2                !
 ! D73   D(18,14,15,32)       -163.9898         estimate D2E/DX2                !
 ! D74   D(13,14,18,17)        169.7019         estimate D2E/DX2                !
 ! D75   D(13,14,18,35)         79.2668         estimate D2E/DX2                !
 ! D76   D(15,14,18,17)        -20.7451         estimate D2E/DX2                !
 ! D77   D(15,14,18,35)       -111.1803         estimate D2E/DX2                !
 ! D78   D(14,15,16,17)        -11.1136         estimate D2E/DX2                !
 ! D79   D(14,15,16,33)        148.8264         estimate D2E/DX2                !
 ! D80   D(32,15,16,17)        176.3995         estimate D2E/DX2                !
 ! D81   D(32,15,16,33)        -23.6605         estimate D2E/DX2                !
 ! D82   D(15,16,17,18)         -2.7034         estimate D2E/DX2                !
 ! D83   D(15,16,17,34)        137.1933         estimate D2E/DX2                !
 ! D84   D(33,16,17,18)       -157.9847         estimate D2E/DX2                !
 ! D85   D(33,16,17,34)        -18.088          estimate D2E/DX2                !
 ! D86   D(16,17,18,14)         12.2322         estimate D2E/DX2                !
 ! D87   D(16,17,18,35)        125.3847         estimate D2E/DX2                !
 ! D88   D(34,17,18,14)       -117.1966         estimate D2E/DX2                !
 ! D89   D(34,17,18,35)         -4.0441         estimate D2E/DX2                !
 --------------------------------------------------------------------------------
 Trust Radius=3.00D-01 FncErr=1.00D-07 GrdErr=1.00D-06 EigMax=2.50D+02 EigMin=1.00D-04
 Number of steps in this run=    201 maximum allowed number of steps=    222.
 GradGradGradGradGradGradGradGradGradGradGradGradGradGradGradGradGradGrad

                          Input orientation:                          
 ---------------------------------------------------------------------
 Center     Atomic      Atomic             Coordinates (Angstroms)
 Number     Number       Type             X           Y           Z
 ---------------------------------------------------------------------
      1          6           0        0.835670   -0.104500    0.146340
      2          6           0        2.305350   -0.182690    0.260500
      3          6           0        3.163110   -0.794170    1.059270
      4          6           0        4.243280   -0.198150    0.306140
      5          6           0        3.340750    0.508260   -0.461420
      6          6           0        2.749210    1.506100   -1.583120
      7          6           0        3.035000    2.358270   -2.823590
      8          6           0        2.921090    3.700660   -3.532510
      9          6           0        3.598300    4.005370   -4.692070
     10          6           0        2.943060    4.649240   -5.759160
     11          6           0        2.961840    5.261680   -6.916590
     12          6           0        1.638020    4.896030   -6.505420
     13          6           0        0.902940    4.078050   -5.821160
     14          6           0       -0.306010    3.564510   -5.414080
     15          6           0       -1.426900    3.484100   -6.136980
     16          6           0       -2.505680    3.148910   -5.283190
     17          6           0       -1.962490    2.783370   -4.071860
     18          6           0       -0.151610    2.771460   -3.989060
     19          6           0        1.638140    1.878700   -3.877520
     20          1           0        0.390560   -0.700410    0.930440
     21          1           0        0.551140   -0.435790   -0.857590
     22          1           0        0.549930    0.950840    0.185480
     23          1           0        2.937990   -1.455370    1.899570
     24          1           0        5.257330   -0.467380    0.596910
     25          1           0        1.987740    2.099440   -1.080080
     26          1           0        2.096050    0.729280   -2.012160
     27          1           0        4.081650    2.715370   -2.612730
     28          1           0        1.939730    4.110740   -3.360860
     29          1           0        4.570670    3.588280   -4.969910
     30          1           0        3.705490    5.624980   -7.527560
     31          1           0        1.412450    3.444750   -5.173260
     32          1           0       -1.556760    3.755860   -7.176970
     33          1           0       -3.507400    3.552290   -5.572440
     34          1           0       -2.642930    3.293070   -3.341570
     35          1           0       -0.119200    3.448180   -3.108880
     36          1           0        2.225420    1.896620   -4.841600
     37          1           0        1.754970    0.780750   -3.820650
 ---------------------------------------------------------------------
                    Distance matrix (angstroms):
                    1          2          3          4          5
     1  C    0.000000
     2  C    1.476179   0.000000
     3  C    2.593465   1.322004   0.000000
     4  C    3.412640   1.938529   1.445411   0.000000
     5  C    2.649580   1.438970   2.010069   1.379393   0.000000
     6  C    3.040839   2.539283   3.527716   2.950596   1.613634
     7  C    4.441033   4.062078   5.003088   4.217871   3.015936
     8  C    5.688775   5.463192   6.430126   5.628867   4.449621
     9  C    6.923393   6.613586   7.503525   6.562597   5.494953
    10  C    7.868549   7.745355   8.727550   7.872460   6.735868
    11  C    9.121484   9.032318  10.016395   9.144379   8.025447
    12  C    8.360322   8.486248   9.587951   8.895808   7.660401
    13  C    7.287613   7.556934   8.728529   8.184593   6.885719
    14  C    6.758945   7.284337   8.540325   8.220375   6.867923
    15  C    7.581384   8.264550   9.547659   9.339363   7.987371
    16  C    7.157450   8.060897   9.376026   9.380399   8.025163
    17  C    5.827753   6.766189   8.086969   8.158917   6.807037
    18  C    5.132972   5.729085   7.013325   6.825129   5.455538
    19  C    4.557246   4.670943   5.817359   5.348184   4.055456
    20  H    1.080761   2.093627   2.777125   3.935158   3.478761
    21  H    1.094799   2.095576   3.259628   3.878484   2.971549
    22  H    1.094039   2.090937   3.261484   3.869828   2.898799
    23  H    3.052608   2.169447   1.092689   2.413173   3.097149
    24  H    4.459347   2.984695   2.169407   1.088728   2.396918
    25  H    2.772855   2.665736   3.785669   3.505422   2.178355
    26  H    2.634932   2.457739   3.590710   3.293211   2.000730
    27  H    5.108867   4.450780   5.161799   4.127290   3.169921
    28  H    5.593536   5.628629   6.715084   6.108990   4.831922
    29  H    7.332316   6.834404   7.585388   6.502380   5.596937
    30  H    9.997577   9.815462  10.734678   9.775731   8.731792
    31  H    6.420903   6.594038   7.738067   7.162970   5.877308
    32  H    8.617248   9.259807  10.526899  10.260195   8.923627
    33  H    8.058462   9.042197  10.361805  10.425763   9.071152
    34  H    5.984117   7.038557   8.353623   8.538987   7.201032
    35  H    4.912206   5.514924   6.792979   6.632444   5.255799
    36  H    5.551165   5.510113   6.552853   5.912618   4.728370
    37  H    4.167228   4.229293   5.317598   4.917350   3.724698
                    6          7          8          9         10
     6  C    0.000000
     7  C    1.531873   0.000000
     8  C    2.940367   1.522351   0.000000
     9  C    4.078342   2.553715   1.376968   0.000000
    10  C    5.230317   3.724858   2.420384   1.408044   0.000000
    11  C    6.526522   5.018744   3.726988   2.632847   1.309610
    12  C    6.079096   4.684832   3.451575   2.814998   1.523463
    13  C    5.290049   4.060634   3.074617   2.923199   2.119479
    14  C    5.314854   4.396362   3.738050   3.994908   3.442699
    15  C    6.487682   5.670502   5.072985   5.254724   4.538375
    16  C    6.633492   6.113418   5.728799   6.192053   5.671535
    17  C    5.479540   5.168539   4.998167   5.727157   5.512973
    18  C    3.975480   3.418118   3.242427   4.009811   4.029429
    19  C    2.576350   1.814380   2.254890   3.004737   3.594340
    20  H    4.092664   5.517366   6.759506   8.002911   8.937827
    21  H    3.021397   4.223919   5.466450   6.611530   7.456822
    22  H    2.876298   4.148606   5.196861   6.512542   7.398917
    23  H    4.575486   6.071367   7.489488   8.585185   9.794000
    24  H    3.864948   4.962144   6.315274   7.122583   8.481466
    25  H    1.088549   2.050262   3.073997   4.390096   5.413678
    26  H    1.101881   2.047841   3.438205   4.491262   5.488490
    27  H    2.073120   1.125815   1.778677   2.494270   3.864746
    28  H    3.255728   2.135281   1.077356   2.129337   2.654900
    29  H    4.373047   2.911683   2.190859   1.093921   2.097061
    30  H    7.294930   5.766133   4.503189   3.267205   2.158844
    31  H    4.293530   3.055169   2.243556   2.307332   2.033923
    32  H    7.409046   6.479926   5.773758   5.728143   4.801739
    33  H    7.697190   7.196170   6.746022   7.174351   6.545731
    34  H    5.946476   5.777633   5.582195   6.425276   6.235962
    35  H    3.785154   3.349369   3.080028   4.078818   4.224212
    36  H    3.323335   2.222815   2.335002   2.520711   2.988953
    37  H    2.553661   2.263001   3.157330   3.815156   4.487159
                   11         12         13         14         15
    11  C    0.000000
    12  C    1.433618   0.000000
    13  C    2.615342   1.295240   0.000000
    14  C    3.977030   2.596771   1.375135   0.000000
    15  C    4.798815   3.394559   2.425010   1.336205   0.000000
    16  C    6.084864   4.660099   3.573710   2.242410   1.416007
    17  C    6.203510   4.832103   3.598185   2.270608   2.245573
    18  C    4.946231   3.748152   2.485124   1.638124   2.597649
    19  C    4.736315   4.001267   3.025788   2.997114   4.132425
    20  H   10.184983   9.389798   8.287359   7.676437   8.411998
    21  H    8.659337   7.842678   6.718299   6.123619   6.866596
    22  H    8.651014   7.843252   6.781134   6.238508   7.092162
    23  H   11.083502  10.614804   9.714414   9.445221  10.394074
    24  H    9.723378   9.607740   8.989620   9.129014  10.278054
    25  H    6.709209   6.113717   5.250669   5.117741   6.256939
    26  H    6.733920   6.144997   5.210207   5.038004   6.083942
    27  H    5.124537   5.087204   4.717533   5.274482   6.584482
    28  H    3.874608   3.255145   2.670033   3.091509   4.408369
    29  H    3.029549   3.559275   3.796939   4.896924   6.110953
    30  H    1.028731   2.418795   3.627545   4.980408   5.732234
    31  H    2.956526   1.982863   1.039444   1.739380   2.998702
    32  H    4.770014   3.457974   2.827039   2.169970   1.082726
    33  H    6.824941   5.399207   4.448526   3.205328   2.156811
    34  H    6.933227   5.559313   4.397471   3.135311   3.054429
    35  H    5.223049   4.089080   2.966137   2.315681   3.298600
    36  H    4.021384   3.479913   2.732605   3.085082   4.187785
    37  H    5.578540   4.914997   3.949707   3.812608   4.774702
                   16         17         18         19         20
    16  C    0.000000
    17  C    1.376951   0.000000
    18  C    2.712727   1.812811   0.000000
    19  C    4.556379   3.717625   2.003164   0.000000
    20  H    7.862230   6.534261   6.045603   5.596851   0.000000
    21  H    6.463757   5.197390   4.537225   3.957071   1.814624
    22  H    6.638872   5.272131   4.607993   4.307330   1.818513
    23  H   10.120523   8.811333   7.879574   6.795616   2.828176
    24  H   10.388333   9.191876   7.796014   6.214753   4.883748
    25  H    6.241662   5.002282   3.672954   2.827829   3.798991
    26  H    6.142489   4.993335   3.623618   2.238396   3.689391
    27  H    7.121252   6.218144   4.451732   2.875839   6.151890
    28  H    4.937827   4.182673   2.561642   2.310822   6.630411
    29  H    7.096895   6.643535   4.891747   3.565910   8.407158
    30  H    7.053138   7.220984   5.961609   5.624175  11.069647
    31  H    3.930820   3.611194   2.074110   2.045089   7.448608
    32  H    2.203461   3.279034   3.620257   4.961601   9.454126
    33  H    1.117955   2.286859   3.791848   5.670118   8.692928
    34  H    1.951796   1.120766   2.626404   4.540401   6.587869
    35  H    3.242294   2.183351   1.110728   2.478370   5.812638
    36  H    4.913913   4.349416   2.672535   1.129012   6.589971
    37  H    5.089238   4.230024   2.761582   1.105612   5.160262
                   21         22         23         24         25
    21  H    0.000000
    22  H    1.735148   0.000000
    23  H    3.786625   3.798787   0.000000
    24  H    4.925931   4.933583   2.837673   0.000000
    25  H    2.922450   2.233433   4.734761   4.482307   0.000000
    26  H    2.253257   2.696145   4.558858   4.270004   1.660675
    27  H    5.047259   4.839069   6.250111   4.670536   2.666992
    28  H    5.372660   4.949044   7.723356   6.901420   3.041314
    29  H    7.018614   7.049857   8.677200   6.921659   4.900913
    30  H    9.548369   9.554901  11.814872  10.272880   7.546529
    31  H    5.867321   5.973242   8.738614   7.961327   4.346831
    32  H    7.870688   8.155486  11.390491  11.166951   7.244258
    33  H    7.389610   7.508869  11.065742  11.447232   7.244904
    34  H    5.502421   5.302875   9.009101   9.595140   5.289820
    35  H    4.539040   4.187750   7.646946   7.613906   3.220920
    36  H    4.910772   5.382685   7.562206   6.660208   3.774475
    37  H    3.421827   4.186900   6.254653   5.774010   3.050221
                   26         27         28         29         30
    26  H    0.000000
    27  H    2.871906   0.000000
    28  H    3.643858   2.663565   0.000000
    29  H    4.800616   2.560744   3.127915   0.000000
    30  H    7.548365   5.723887   4.772025   3.382049   0.000000
    31  H    4.222989   3.770005   2.001590   3.168013   3.943877
    32  H    7.012736   7.328477   5.187878   6.514952   5.595337
    33  H    7.214127   8.188651   5.905436   8.100590   7.755277
    34  H    5.549620   6.788588   4.655076   7.400991   7.953789
    35  H    3.674581   4.293054   2.177538   5.047568   6.236301
    36  H    3.063519   3.013935   2.678906   2.894542   4.827593
    37  H    1.841092   3.258108   3.366657   4.138984   6.404083
                   31         32         33         34         35
    31  H    0.000000
    32  H    3.595532   0.000000
    33  H    4.937189   2.533960   0.000000
    34  H    4.452438   4.013008   2.406509   0.000000
    35  H    2.570531   4.325575   4.190449   2.539176   0.000000
    36  H    1.779782   4.818258   6.011705   5.282139   3.302560
    37  H    3.007286   5.575277   6.200221   5.087514   3.336812
                   36         37
    36  H    0.000000
    37  H    1.583928   0.000000
 Stoichiometry    C19H18
 Framework group  C1[X(C19H18)]
 Deg. of freedom   105
 Full point group                 C1      NOp   1
 Largest Abelian subgroup         C1      NOp   1
 Largest concise Abelian subgroup C1      NOp   1
                         Standard orientation:                         
 ---------------------------------------------------------------------
 Center     Atomic      Atomic             Coordinates (Angstroms)
 Number     Number       Type             X           Y           Z
 ---------------------------------------------------------------------
      1          6           0        3.898225    1.987923   -0.174565
      2          6           0        4.475276    0.641875    0.010566
      3          6           0        5.692638    0.140320    0.129584
      4          6           0        5.106463   -1.175587    0.247905
      5          6           0        3.848615   -0.653339    0.029274
      6          6           0        2.249433   -0.567101   -0.168203
      7          6           0        0.901734   -1.288029   -0.065224
      8          6           0       -0.415602   -1.680308   -0.719667
      9          6           0       -1.284852   -2.602180   -0.180597
     10          6           0       -2.668839   -2.346412   -0.138730
     11          6           0       -3.902488   -2.733377    0.069707
     12          6           0       -3.783039   -1.310518   -0.058610
     13          6           0       -3.026160   -0.269267    0.084834
     14          6           0       -2.795046    1.086294    0.090998
     15          6           0       -3.657979    2.044863    0.440194
     16          6           0       -3.133668    3.302705    0.055474
     17          6           0       -1.821207    3.098396   -0.307428
     18          6           0       -1.201285    1.406166   -0.111623
     19          6           0       -0.088275   -0.012036    0.761635
     20          1           0        4.700997    2.709493   -0.228767
     21          1           0        3.204078    2.180299    0.649896
     22          1           0        3.270939    1.965730   -1.070635
     23          1           0        6.641475    0.682189    0.122172
     24          1           0        5.787447   -2.007532    0.419536
     25          1           0        2.092017    0.069087   -1.037354
     26          1           0        2.135725    0.196676    0.617836
     27          1           0        1.190789   -2.341484   -0.337509
     28          1           0       -0.800293   -0.840784   -1.274563
     29          1           0       -0.982369   -3.449212    0.442062
     30          1           0       -4.353100   -3.641671    0.243598
     31          1           0       -2.020794   -0.461417    0.265832
     32          1           0       -4.660084    1.914496    0.828891
     33          1           0       -3.882363    4.085312   -0.221664
     34          1           0       -1.730568    3.720223   -1.235454
     35          1           0       -0.867598    1.333129   -1.168522
     36          1           0       -0.676173   -0.734771    1.399365
     37          1           0        0.586214    0.197932    1.612138
 ---------------------------------------------------------------------
 Rotational constants (GHZ):           0.5968116           0.1940070           0.1492630
 Standard basis: 6-31G(2df,p) (6D, 7F)
 There are   679 symmetry adapted cartesian basis functions of A   symmetry.
 There are   622 symmetry adapted basis functions of A   symmetry.
   622 basis functions,   962 primitive gaussians,   679 cartesian basis functions
    66 alpha electrons       66 beta electrons
       nuclear repulsion energy      1237.3463321120 Hartrees.
 NAtoms=   37 NActive=   37 NUniq=   37 SFac= 1.00D+00 NAtFMM=   60 NAOKFM=F Big=F
 Integral buffers will be    131072 words long.
 Raffenetti 2 integral format.
 Two-electron integral symmetry is turned on.
 One-electron integrals computed using PRISM.
 PrsmSu:  requested number of processors reduced to:  12 ShMem   1 Linda.
 NBasis=   622 RedAO= T EigKep=  1.23D-04  NBF=   622
 NBsUse=   622 1.00D-06 EigRej= -1.00D+00 NBFU=   622
 ExpMin= 1.61D-01 ExpMax= 3.05D+03 ExpMxC= 4.57D+02 IAcc=3 IRadAn=         5 AccDes= 0.00D+00
 Harris functional with IExCor=  402 and IRadAn=       5 diagonalized for initial guess.
 HarFok:  IExCor=  402 AccDes= 0.00D+00 IRadAn=         5 IDoV= 1 UseB2=F ITyADJ=14
 ICtDFT=  3500011 ScaDFX=  1.000000  1.000000  1.000000  1.000000
 FoFCou: FMM=F IPFlag=           0 FMFlag=      100000 FMFlg1=           0
         NFxFlg=           0 DoJE=T BraDBF=F KetDBF=T FulRan=T
         wScrn=  0.000000 ICntrl=       500 IOpCl=  0 I1Cent=   200000004 NGrid=           0
         NMat0=    1 NMatS0=      1 NMatT0=    0 NMatD0=    1 NMtDS0=    0 NMtDT0=    0
 Petite list used in FoFCou.
 Requested convergence on RMS density matrix=1.00D-08 within 128 cycles.
 Requested convergence on MAX density matrix=1.00D-06.
 Requested convergence on             energy=1.00D-06.
 No special actions if energy rises.
 Integral accuracy reduced to 1.0D-05 until final iterations.
 EnCoef did     1 forward-backward iterations
 Problem detected with inexpensive integrals.
 Switching to full accuracy and repeating last cycle.
 EnCoef did     3 forward-backward iterations
 EnCoef did     2 forward-backward iterations
 EnCoef did     3 forward-backward iterations
 Restarting incremental Fock formation.
 SCF Done:  E(RB3LYP) =  -733.960141860     A.U. after   25 cycles
            NFock= 25  Conv=0.96D-08     -V/T= 2.0076

 **********************************************************************

            Population analysis using the SCF density.

 **********************************************************************

 Orbital symmetries:
       Occupied  (A) (A) (A) (A) (A) (A) (A) (A) (A) (A) (A) (A)
                 (A) (A) (A) (A) (A) (A) (A) (A) (A) (A) (A) (A)
                 (A) (A) (A) (A) (A) (A) (A) (A) (A) (A) (A) (A)
                 (A) (A) (A) (A) (A) (A) (A) (A) (A) (A) (A) (A)
                 (A) (A) (A) (A) (A) (A) (A) (A) (A) (A) (A) (A)
                 (A) (A) (A) (A) (A) (A)
       Virtual   (A) (A) (A) (A) (A) (A) (A) (A) (A) (A) (A) (A)
                 (A) (A) (A) (A) (A) (A) (A) (A) (A) (A) (A) (A)
                 (A) (A) (A) (A) (A) (A) (A) (A) (A) (A) (A) (A)
                 (A) (A) (A) (A) (A) (A) (A) (A) (A) (A) (A) (A)
                 (A) (A) (A) (A) (A) (A) (A) (A) (A) (A) (A) (A)
                 (A) (A) (A) (A) (A) (A) (A) (A) (A) (A) (A) (A)
                 (A) (A) (A) (A) (A) (A) (A) (A) (A) (A) (A) (A)
                 (A) (A) (A) (A) (A) (A) (A) (A) (A) (A) (A) (A)
                 (A) (A) (A) (A) (A) (A) (A) (A) (A) (A) (A) (A)
                 (A) (A) (A) (A) (A) (A) (A) (A) (A) (A) (A) (A)
                 (A) (A) (A) (A) (A) (A) (A) (A) (A) (A) (A) (A)
                 (A) (A) (A) (A) (A) (A) (A) (A) (A) (A) (A) (A)
                 (A) (A) (A) (A) (A) (A) (A) (A) (A) (A) (A) (A)
                 (A) (A) (A) (A) (A) (A) (A) (A) (A) (A) (A) (A)
                 (A) (A) (A) (A) (A) (A) (A) (A) (A) (A) (A) (A)
                 (A) (A) (A) (A) (A) (A) (A) (A) (A) (A) (A) (A)
                 (A) (A) (A) (A) (A) (A) (A) (A) (A) (A) (A) (A)
                 (A) (A) (A) (A) (A) (A) (A) (A) (A) (A) (A) (A)
                 (A) (A) (A) (A) (A) (A) (A) (A) (A) (A) (A) (A)
                 (A) (A) (A) (A) (A) (A) (A) (A) (A) (A) (A) (A)
                 (A) (A) (A) (A) (A) (A) (A) (A) (A) (A) (A) (A)
                 (A) (A) (A) (A) (A) (A) (A) (A) (A) (A) (A) (A)
                 (A) (A) (A) (A) (A) (A) (A) (A) (A) (A) (A) (A)
                 (A) (A) (A) (A) (A) (A) (A) (A) (A) (A) (A) (A)
                 (A) (A) (A) (A) (A) (A) (A) (A) (A) (A) (A) (A)
                 (A) (A) (A) (A) (A) (A) (A) (A) (A) (A) (A) (A)
                 (A) (A) (A) (A) (A) (A) (A) (A) (A) (A) (A) (A)
                 (A) (A) (A) (A) (A) (A) (A) (A) (A) (A) (A) (A)
                 (A) (A) (A) (A) (A) (A) (A) (A) (A) (A) (A) (A)
                 (A) (A) (A) (A) (A) (A) (A) (A) (A) (A) (A) (A)
                 (A) (A) (A) (A) (A) (A) (A) (A) (A) (A) (A) (A)
                 (A) (A) (A) (A) (A) (A) (A) (A) (A) (A) (A) (A)
                 (A) (A) (A) (A) (A) (A) (A) (A) (A) (A) (A) (A)
                 (A) (A) (A) (A) (A) (A) (A) (A) (A) (A) (A) (A)
                 (A) (A) (A) (A) (A) (A) (A) (A) (A) (A) (A) (A)
                 (A) (A) (A) (A) (A) (A) (A) (A) (A) (A) (A) (A)
                 (A) (A) (A) (A) (A) (A) (A) (A) (A) (A) (A) (A)
                 (A) (A) (A) (A) (A) (A) (A) (A) (A) (A) (A) (A)
                 (A) (A) (A) (A) (A) (A) (A) (A) (A) (A) (A) (A)
                 (A) (A) (A) (A) (A) (A) (A) (A) (A) (A) (A) (A)
                 (A) (A) (A) (A) (A) (A) (A) (A) (A) (A) (A) (A)
                 (A) (A) (A) (A) (A) (A) (A) (A) (A) (A) (A) (A)
                 (A) (A) (A) (A) (A) (A) (A) (A) (A) (A) (A) (A)
                 (A) (A) (A) (A) (A) (A) (A) (A) (A) (A) (A) (A)
                 (A) (A) (A) (A) (A) (A) (A) (A) (A) (A) (A) (A)
                 (A) (A) (A) (A) (A) (A) (A) (A) (A) (A) (A) (A)
                 (A) (A) (A) (A)
 The electronic state is 1-A.
 Alpha  occ. eigenvalues --  -10.25866 -10.25101 -10.23688 -10.22855 -10.21909
 Alpha  occ. eigenvalues --  -10.21686 -10.20939 -10.20916 -10.20592 -10.20550
 Alpha  occ. eigenvalues --  -10.19515 -10.19274 -10.18243 -10.18169 -10.18036
 Alpha  occ. eigenvalues --  -10.17711 -10.15952 -10.15906 -10.14084  -0.91302
 Alpha  occ. eigenvalues --   -0.90054  -0.84133  -0.83488  -0.77187  -0.75884
 Alpha  occ. eigenvalues --   -0.73947  -0.70564  -0.68574  -0.66940  -0.65405
 Alpha  occ. eigenvalues --   -0.62108  -0.60148  -0.58196  -0.56869  -0.54538
 Alpha  occ. eigenvalues --   -0.53843  -0.51787  -0.48748  -0.48442  -0.46890
 Alpha  occ. eigenvalues --   -0.46054  -0.45140  -0.44524  -0.43939  -0.41460
 Alpha  occ. eigenvalues --   -0.41229  -0.40926  -0.39634  -0.38939  -0.38523
 Alpha  occ. eigenvalues --   -0.37558  -0.37169  -0.36042  -0.35340  -0.34351
 Alpha  occ. eigenvalues --   -0.33180  -0.32645  -0.32183  -0.31160  -0.28681
 Alpha  occ. eigenvalues --   -0.26996  -0.24052  -0.22662  -0.20004  -0.15514
 Alpha  occ. eigenvalues --   -0.14944
 Alpha virt. eigenvalues --   -0.09557  -0.06571  -0.05844  -0.02572   0.01258
 Alpha virt. eigenvalues --    0.03431   0.05091   0.07179   0.07478   0.08526
 Alpha virt. eigenvalues --    0.09379   0.10572   0.11469   0.11802   0.12276
 Alpha virt. eigenvalues --    0.12848   0.13367   0.13603   0.14107   0.15308
 Alpha virt. eigenvalues --    0.15886   0.15948   0.16957   0.17332   0.17865
 Alpha virt. eigenvalues --    0.18787   0.19931   0.20953   0.21252   0.22543
 Alpha virt. eigenvalues --    0.23009   0.24057   0.25405   0.25807   0.28279
 Alpha virt. eigenvalues --    0.29456   0.30765   0.31736   0.32763   0.33310
 Alpha virt. eigenvalues --    0.35626   0.36431   0.37352   0.38651   0.39252
 Alpha virt. eigenvalues --    0.40442   0.41444   0.42512   0.44638   0.44936
 Alpha virt. eigenvalues --    0.46753   0.47118   0.47439   0.47917   0.48144
 Alpha virt. eigenvalues --    0.48482   0.49835   0.50511   0.51006   0.51937
 Alpha virt. eigenvalues --    0.52388   0.52749   0.53186   0.53660   0.54665
 Alpha virt. eigenvalues --    0.55233   0.55659   0.56640   0.56842   0.57683
 Alpha virt. eigenvalues --    0.58706   0.59108   0.59397   0.60238   0.60781
 Alpha virt. eigenvalues --    0.61145   0.62296   0.62419   0.62811   0.64274
 Alpha virt. eigenvalues --    0.64449   0.64816   0.66383   0.66998   0.68047
 Alpha virt. eigenvalues --    0.68373   0.69447   0.69723   0.70741   0.70924
 Alpha virt. eigenvalues --    0.71690   0.72048   0.72584   0.72869   0.73298
 Alpha virt. eigenvalues --    0.73853   0.74190   0.74667   0.75137   0.75656
 Alpha virt. eigenvalues --    0.76289   0.76610   0.76665   0.77612   0.78243
 Alpha virt. eigenvalues --    0.78312   0.79686   0.79745   0.80371   0.81973
 Alpha virt. eigenvalues --    0.82249   0.83421   0.84287   0.84574   0.84928
 Alpha virt. eigenvalues --    0.86146   0.87400   0.87811   0.88489   0.89592
 Alpha virt. eigenvalues --    0.89984   0.90420   0.91198   0.91766   0.93006
 Alpha virt. eigenvalues --    0.93993   0.94651   0.95517   0.96845   0.97479
 Alpha virt. eigenvalues --    0.98630   0.99688   0.99996   1.01907   1.03550
 Alpha virt. eigenvalues --    1.05010   1.05459   1.06415   1.08011   1.08202
 Alpha virt. eigenvalues --    1.09740   1.10104   1.11641   1.12980   1.13918
 Alpha virt. eigenvalues --    1.14399   1.14852   1.16539   1.17465   1.18901
 Alpha virt. eigenvalues --    1.19511   1.20869   1.21239   1.23558   1.24660
 Alpha virt. eigenvalues --    1.25375   1.26480   1.26737   1.28200   1.28696
 Alpha virt. eigenvalues --    1.30296   1.32399   1.33080   1.33262   1.33885
 Alpha virt. eigenvalues --    1.35918   1.37201   1.37559   1.38236   1.40038
 Alpha virt. eigenvalues --    1.41409   1.42167   1.43600   1.43987   1.44976
 Alpha virt. eigenvalues --    1.45096   1.46012   1.47283   1.48284   1.49349
 Alpha virt. eigenvalues --    1.50054   1.50913   1.52316   1.53401   1.53686
 Alpha virt. eigenvalues --    1.53960   1.54072   1.55330   1.57199   1.57835
 Alpha virt. eigenvalues --    1.58027   1.60918   1.61263   1.62045   1.64585
 Alpha virt. eigenvalues --    1.65043   1.65587   1.67477   1.69850   1.70764
 Alpha virt. eigenvalues --    1.71448   1.72293   1.73699   1.74577   1.75506
 Alpha virt. eigenvalues --    1.75908   1.78047   1.78694   1.79860   1.80400
 Alpha virt. eigenvalues --    1.81750   1.83005   1.84179   1.84910   1.85758
 Alpha virt. eigenvalues --    1.87756   1.89403   1.89503   1.92270   1.93038
 Alpha virt. eigenvalues --    1.95687   1.96035   1.97510   1.99646   2.00202
 Alpha virt. eigenvalues --    2.01963   2.02787   2.03581   2.05073   2.07772
 Alpha virt. eigenvalues --    2.11483   2.13641   2.17127   2.20008   2.21250
 Alpha virt. eigenvalues --    2.22468   2.23631   2.24767   2.26800   2.27686
 Alpha virt. eigenvalues --    2.28453   2.29018   2.29840   2.32213   2.33398
 Alpha virt. eigenvalues --    2.34376   2.35006   2.36624   2.36897   2.37873
 Alpha virt. eigenvalues --    2.39364   2.39496   2.41476   2.43584   2.44636
 Alpha virt. eigenvalues --    2.45824   2.47527   2.47709   2.50602   2.50817
 Alpha virt. eigenvalues --    2.52127   2.53356   2.54133   2.54767   2.57135
 Alpha virt. eigenvalues --    2.57983   2.59138   2.59804   2.61407   2.62905
 Alpha virt. eigenvalues --    2.63473   2.65635   2.66854   2.68085   2.70221
 Alpha virt. eigenvalues --    2.70734   2.70799   2.72619   2.73036   2.74713
 Alpha virt. eigenvalues --    2.74905   2.75389   2.76329   2.77342   2.79372
 Alpha virt. eigenvalues --    2.80412   2.81226   2.81789   2.82693   2.83753
 Alpha virt. eigenvalues --    2.84615   2.85187   2.86122   2.86826   2.88259
 Alpha virt. eigenvalues --    2.88440   2.89548   2.90602   2.92608   2.93880
 Alpha virt. eigenvalues --    2.94728   2.95021   2.97230   2.99245   3.00670
 Alpha virt. eigenvalues --    3.01040   3.01361   3.02589   3.02830   3.03248
 Alpha virt. eigenvalues --    3.04168   3.04946   3.06207   3.06951   3.08680
 Alpha virt. eigenvalues --    3.09023   3.09908   3.10469   3.10619   3.12143
 Alpha virt. eigenvalues --    3.12652   3.13881   3.14435   3.15447   3.16601
 Alpha virt. eigenvalues --    3.17233   3.18114   3.18979   3.19663   3.20319
 Alpha virt. eigenvalues --    3.21777   3.24317   3.24608   3.24948   3.25836
 Alpha virt. eigenvalues --    3.27477   3.28099   3.28840   3.30404   3.31218
 Alpha virt. eigenvalues --    3.31598   3.33502   3.33798   3.34229   3.35460
 Alpha virt. eigenvalues --    3.36774   3.37556   3.38645   3.39195   3.39820
 Alpha virt. eigenvalues --    3.40691   3.42276   3.42552   3.43512   3.43896
 Alpha virt. eigenvalues --    3.44234   3.45075   3.46833   3.47713   3.48984
 Alpha virt. eigenvalues --    3.51337   3.52263   3.52926   3.53072   3.53461
 Alpha virt. eigenvalues --    3.54851   3.55245   3.56488   3.56733   3.58503
 Alpha virt. eigenvalues --    3.59186   3.60273   3.61753   3.63821   3.64743
 Alpha virt. eigenvalues --    3.65945   3.66336   3.68008   3.69235   3.70146
 Alpha virt. eigenvalues --    3.70979   3.72463   3.74281   3.74745   3.75375
 Alpha virt. eigenvalues --    3.75862   3.77621   3.78798   3.79312   3.79909
 Alpha virt. eigenvalues --    3.80689   3.81348   3.81872   3.84585   3.85669
 Alpha virt. eigenvalues --    3.87475   3.88343   3.89340   3.91176   3.93773
 Alpha virt. eigenvalues --    3.95257   3.95745   3.97614   4.00967   4.01663
 Alpha virt. eigenvalues --    4.02422   4.03536   4.04099   4.05670   4.06128
 Alpha virt. eigenvalues --    4.08159   4.10122   4.13899   4.15537   4.15631
 Alpha virt. eigenvalues --    4.18596   4.21556   4.23930   4.26675   4.27672
 Alpha virt. eigenvalues --    4.29060   4.30306   4.31097   4.32481   4.33770
 Alpha virt. eigenvalues --    4.34398   4.36204   4.37646   4.38309   4.39457
 Alpha virt. eigenvalues --    4.41329   4.41612   4.43740   4.44707   4.45154
 Alpha virt. eigenvalues --    4.45731   4.46176   4.47386   4.47835   4.48397
 Alpha virt. eigenvalues --    4.49667   4.50955   4.52495   4.53198   4.54015
 Alpha virt. eigenvalues --    4.54789   4.55193   4.55650   4.56491   4.58118
 Alpha virt. eigenvalues --    4.59069   4.59290   4.60157   4.61264   4.61763
 Alpha virt. eigenvalues --    4.62404   4.63247   4.64095   4.66066   4.66882
 Alpha virt. eigenvalues --    4.68103   4.68962   4.69184   4.69743   4.71727
 Alpha virt. eigenvalues --    4.72115   4.73733   4.74467   4.74934   4.77685
 Alpha virt. eigenvalues --    4.79502   4.79879   4.80862   4.81370   4.82476
 Alpha virt. eigenvalues --    4.84127   4.85077   4.85750   4.86145   4.87771
 Alpha virt. eigenvalues --    4.88808   4.89303   4.89573   4.90838   4.92199
 Alpha virt. eigenvalues --    4.92766   4.94428   4.95692   4.96802   4.97890
 Alpha virt. eigenvalues --    4.99068   5.00338   5.01395   5.04066   5.04961
 Alpha virt. eigenvalues --    5.05443   5.07108   5.09080   5.09397   5.11746
 Alpha virt. eigenvalues --    5.13015   5.13430   5.19991   5.20639   5.22588
 Alpha virt. eigenvalues --    5.22706   5.24020   5.25466   5.26986   5.28838
 Alpha virt. eigenvalues --    5.36845   5.38403   5.40435   5.42291   5.44047
 Alpha virt. eigenvalues --    5.46478   5.49419   5.50457   5.54830   5.56166
 Alpha virt. eigenvalues --    5.61865   5.62954   5.66382   5.68763   5.71979
 Alpha virt. eigenvalues --    5.73267   5.79112   5.83849   5.86581   5.97172
 Alpha virt. eigenvalues --    6.05903   6.11083   6.11548   6.29288   6.37995
 Alpha virt. eigenvalues --    6.62855   6.66465   9.77773   9.84984   9.97528
 Alpha virt. eigenvalues --   10.49586  10.78959  10.89911  10.93133  10.99054
 Alpha virt. eigenvalues --   11.10460  11.24178  11.65681  11.68912  11.79099
 Alpha virt. eigenvalues --   11.86523  12.01491  12.03500  12.16277  12.42186
 Alpha virt. eigenvalues --   12.54434
          Condensed to atoms (all electrons):
               1          2          3          4          5          6
     1  C    5.220000   0.394886  -0.101270   0.022920  -0.105513  -0.003473
     2  C    0.394886   4.292177   0.678326  -0.003635   0.323334  -0.022655
     3  C   -0.101270   0.678326   5.241136   0.124891  -0.015539   0.002615
     4  C    0.022920  -0.003635   0.124891   5.372132   0.579030  -0.050809
     5  C   -0.105513   0.323334  -0.015539   0.579030   4.807815   0.362489
     6  C   -0.003473  -0.022655   0.002615  -0.050809   0.362489   5.108568
     7  C    0.000641   0.002718  -0.000250  -0.002060  -0.018172   0.374932
     8  C   -0.000001  -0.000030   0.000000   0.000007   0.000552   0.003490
     9  C   -0.000000   0.000000  -0.000000   0.000000   0.000003   0.002277
    10  C    0.000000   0.000000  -0.000000   0.000000   0.000000  -0.000083
    11  C    0.000000   0.000000  -0.000000   0.000000   0.000000   0.000001
    12  C    0.000000   0.000000   0.000000   0.000000  -0.000000   0.000000
    13  C   -0.000000  -0.000000  -0.000000  -0.000000   0.000000  -0.000055
    14  C    0.000000  -0.000000   0.000000   0.000000   0.000000   0.000006
    15  C   -0.000000  -0.000000  -0.000000   0.000000   0.000000  -0.000000
    16  C    0.000000   0.000000   0.000000  -0.000000   0.000000   0.000000
    17  C   -0.000001   0.000000  -0.000000  -0.000000  -0.000000  -0.000007
    18  C    0.000011  -0.000004  -0.000000   0.000000   0.000018   0.000851
    19  C   -0.000053  -0.000007  -0.000005   0.000033   0.001543  -0.059264
    20  H    0.361963  -0.012115  -0.007139  -0.000124   0.005331   0.000009
    21  H    0.355096  -0.024615   0.002011  -0.000101   0.001822  -0.002446
    22  H    0.352201  -0.022126   0.001645  -0.000119  -0.002112   0.002157
    23  H   -0.005832  -0.016788   0.347223  -0.035690   0.005833  -0.000396
    24  H   -0.000909  -0.005510  -0.027715   0.336666  -0.009925  -0.001051
    25  H    0.003370  -0.004004   0.000690   0.001167  -0.024807   0.330310
    26  H    0.006651  -0.009051   0.000490   0.002108  -0.029473   0.349379
    27  H    0.000009   0.000038   0.000004   0.000292  -0.003714  -0.068675
    28  H   -0.000001   0.000002  -0.000000   0.000000  -0.000045  -0.003378
    29  H    0.000000   0.000000   0.000000   0.000000   0.000002  -0.000068
    30  H    0.000000   0.000000   0.000000  -0.000000  -0.000000  -0.000000
    31  H   -0.000000  -0.000000   0.000000  -0.000000  -0.000002   0.000120
    32  H   -0.000000   0.000000   0.000000  -0.000000  -0.000000  -0.000000
    33  H   -0.000000  -0.000000  -0.000000  -0.000000  -0.000000  -0.000000
    34  H    0.000000   0.000000   0.000000  -0.000000   0.000000   0.000000
    35  H    0.000002  -0.000001   0.000000   0.000000   0.000007   0.000150
    36  H    0.000001   0.000002   0.000000  -0.000002  -0.000170   0.003064
    37  H   -0.000131  -0.000070   0.000001   0.000000   0.000632  -0.008961
               7          8          9         10         11         12
     1  C    0.000641  -0.000001  -0.000000   0.000000   0.000000   0.000000
     2  C    0.002718  -0.000030   0.000000   0.000000   0.000000   0.000000
     3  C   -0.000250   0.000000  -0.000000  -0.000000  -0.000000   0.000000
     4  C   -0.002060   0.000007   0.000000   0.000000   0.000000   0.000000
     5  C   -0.018172   0.000552   0.000003   0.000000   0.000000  -0.000000
     6  C    0.374932   0.003490   0.002277  -0.000083   0.000001   0.000000
     7  C    5.030147   0.340977  -0.025087   0.003108  -0.000108   0.000411
     8  C    0.340977   5.244371   0.514718  -0.019143   0.005734  -0.015296
     9  C   -0.025087   0.514718   5.122954   0.509938  -0.086702  -0.060320
    10  C    0.003108  -0.019143   0.509938   4.330258   0.602677   0.292973
    11  C   -0.000108   0.005734  -0.086702   0.602677   5.238655   0.353985
    12  C    0.000411  -0.015296  -0.060320   0.292973   0.353985   5.322202
    13  C   -0.000141   0.004009  -0.007078  -0.080914  -0.035763   0.494807
    14  C    0.000733  -0.003698   0.002304   0.011257   0.003918  -0.016786
    15  C   -0.000018  -0.000023  -0.000067  -0.000240  -0.000001  -0.027243
    16  C    0.000001   0.000010   0.000003   0.000000   0.000001   0.000491
    17  C    0.000062   0.000039  -0.000012  -0.000015   0.000004  -0.000292
    18  C   -0.005865  -0.002616   0.001627   0.000652   0.000086   0.013361
    19  C    0.282278  -0.097829  -0.036029   0.002007   0.000185   0.000891
    20  H   -0.000011  -0.000000   0.000000   0.000000   0.000000   0.000000
    21  H   -0.000201   0.000001   0.000000  -0.000000  -0.000000  -0.000000
    22  H   -0.000122  -0.000006  -0.000000   0.000000  -0.000000  -0.000000
    23  H    0.000001  -0.000000   0.000000   0.000000   0.000000  -0.000000
    24  H    0.000009  -0.000000   0.000000  -0.000000   0.000000  -0.000000
    25  H   -0.062799  -0.010392   0.000064   0.000019   0.000000   0.000001
    26  H   -0.041004   0.003134  -0.000083   0.000002  -0.000000  -0.000001
    27  H    0.335332  -0.104931  -0.014476   0.001753   0.000004   0.000024
    28  H   -0.061879   0.346668  -0.030938  -0.009614   0.000129   0.002359
    29  H   -0.000089  -0.068765   0.356280  -0.024474  -0.005744   0.005421
    30  H    0.000004  -0.000350  -0.004935  -0.037537   0.348203  -0.027840
    31  H   -0.004876   0.026947  -0.015389  -0.079340  -0.023383  -0.167989
    32  H    0.000000   0.000000   0.000000   0.000001   0.000010   0.001421
    33  H    0.000000   0.000000  -0.000000  -0.000000  -0.000000  -0.000020
    34  H   -0.000000  -0.000001   0.000000  -0.000000  -0.000000   0.000014
    35  H   -0.000869  -0.002599   0.000258  -0.000014  -0.000004  -0.000264
    36  H   -0.029310  -0.015813   0.014947  -0.001302  -0.000246   0.002605
    37  H   -0.038173   0.008427   0.002038  -0.000128  -0.000009  -0.000063
              13         14         15         16         17         18
     1  C   -0.000000   0.000000  -0.000000   0.000000  -0.000001   0.000011
     2  C   -0.000000  -0.000000  -0.000000   0.000000   0.000000  -0.000004
     3  C   -0.000000   0.000000  -0.000000   0.000000  -0.000000  -0.000000
     4  C   -0.000000   0.000000   0.000000  -0.000000  -0.000000   0.000000
     5  C    0.000000   0.000000   0.000000   0.000000  -0.000000   0.000018
     6  C   -0.000055   0.000006  -0.000000   0.000000  -0.000007   0.000851
     7  C   -0.000141   0.000733  -0.000018   0.000001   0.000062  -0.005865
     8  C    0.004009  -0.003698  -0.000023   0.000010   0.000039  -0.002616
     9  C   -0.007078   0.002304  -0.000067   0.000003  -0.000012   0.001627
    10  C   -0.080914   0.011257  -0.000240   0.000000  -0.000015   0.000652
    11  C   -0.035763   0.003918  -0.000001   0.000001   0.000004   0.000086
    12  C    0.494807  -0.016786  -0.027243   0.000491  -0.000292   0.013361
    13  C    4.819965   0.427387  -0.064182   0.004167  -0.016827  -0.032354
    14  C    0.427387   4.764426   0.550497   0.027776  -0.126491   0.336785
    15  C   -0.064182   0.550497   5.080107   0.352918  -0.002188  -0.051656
    16  C    0.004167   0.027776   0.352918   4.830044   0.615823  -0.028514
    17  C   -0.016827  -0.126491  -0.002188   0.615823   5.256218   0.268849
    18  C   -0.032354   0.336785  -0.051656  -0.028514   0.268849   5.257629
    19  C   -0.022051  -0.003243  -0.000064   0.000286  -0.003587   0.264242
    20  H    0.000000  -0.000000  -0.000000  -0.000000   0.000000   0.000000
    21  H   -0.000000   0.000000  -0.000000   0.000000   0.000005   0.000014
    22  H   -0.000000   0.000000  -0.000000   0.000000   0.000001   0.000043
    23  H   -0.000000   0.000000  -0.000000   0.000000  -0.000000  -0.000000
    24  H   -0.000000   0.000000  -0.000000   0.000000  -0.000000   0.000000
    25  H    0.000011   0.000009  -0.000000  -0.000000   0.000010  -0.000165
    26  H   -0.000006   0.000009   0.000000   0.000000  -0.000011   0.001004
    27  H    0.000016  -0.000007   0.000000   0.000000   0.000000   0.000214
    28  H    0.006797  -0.004564   0.000044  -0.000034  -0.000248   0.006955
    29  H   -0.001052  -0.000033  -0.000001   0.000000  -0.000000   0.000026
    30  H   -0.004377   0.000096  -0.000006   0.000000  -0.000000   0.000002
    31  H    0.441181  -0.124264   0.019716  -0.000541   0.001820  -0.078275
    32  H   -0.018036  -0.043567   0.384232  -0.064037   0.010409   0.004974
    33  H   -0.000396   0.000264  -0.035244   0.362198  -0.041246   0.002338
    34  H    0.000422   0.007009  -0.002177  -0.034807   0.325208  -0.024336
    35  H    0.002109  -0.028071   0.003092  -0.000508  -0.024064   0.337948
    36  H   -0.011457   0.001774  -0.000118   0.000013   0.000016  -0.011350
    37  H    0.001625  -0.000304   0.000010  -0.000002  -0.000224  -0.016196
              19         20         21         22         23         24
     1  C   -0.000053   0.361963   0.355096   0.352201  -0.005832  -0.000909
     2  C   -0.000007  -0.012115  -0.024615  -0.022126  -0.016788  -0.005510
     3  C   -0.000005  -0.007139   0.002011   0.001645   0.347223  -0.027715
     4  C    0.000033  -0.000124  -0.000101  -0.000119  -0.035690   0.336666
     5  C    0.001543   0.005331   0.001822  -0.002112   0.005833  -0.009925
     6  C   -0.059264   0.000009  -0.002446   0.002157  -0.000396  -0.001051
     7  C    0.282278  -0.000011  -0.000201  -0.000122   0.000001   0.000009
     8  C   -0.097829  -0.000000   0.000001  -0.000006  -0.000000  -0.000000
     9  C   -0.036029   0.000000   0.000000  -0.000000   0.000000   0.000000
    10  C    0.002007   0.000000  -0.000000   0.000000   0.000000  -0.000000
    11  C    0.000185   0.000000  -0.000000  -0.000000   0.000000   0.000000
    12  C    0.000891   0.000000  -0.000000  -0.000000  -0.000000  -0.000000
    13  C   -0.022051   0.000000  -0.000000  -0.000000  -0.000000  -0.000000
    14  C   -0.003243  -0.000000   0.000000   0.000000   0.000000   0.000000
    15  C   -0.000064  -0.000000  -0.000000  -0.000000  -0.000000  -0.000000
    16  C    0.000286  -0.000000   0.000000   0.000000   0.000000   0.000000
    17  C   -0.003587   0.000000   0.000005   0.000001  -0.000000  -0.000000
    18  C    0.264242   0.000000   0.000014   0.000043  -0.000000   0.000000
    19  C    5.378066   0.000000   0.000196   0.000054  -0.000000  -0.000000
    20  H    0.000000   0.574505  -0.026430  -0.024916   0.003723   0.000019
    21  H    0.000196  -0.026430   0.603509  -0.043355  -0.000074   0.000011
    22  H    0.000054  -0.024916  -0.043355   0.605865  -0.000036   0.000013
    23  H   -0.000000   0.003723  -0.000074  -0.000036   0.595383   0.003157
    24  H   -0.000000   0.000019   0.000011   0.000013   0.003157   0.594274
    25  H    0.014641   0.000043   0.001631   0.000060   0.000006  -0.000037
    26  H   -0.029651   0.000006  -0.000380   0.001504   0.000015  -0.000032
    27  H    0.005855   0.000000   0.000002   0.000008   0.000000  -0.000007
    28  H   -0.000424   0.000000   0.000000   0.000001   0.000000  -0.000000
    29  H    0.000133   0.000000   0.000000  -0.000000   0.000000   0.000000
    30  H    0.000003  -0.000000  -0.000000  -0.000000  -0.000000  -0.000000
    31  H    0.013636   0.000000   0.000000   0.000000   0.000000   0.000000
    32  H   -0.000039  -0.000000  -0.000000  -0.000000  -0.000000  -0.000000
    33  H   -0.000004  -0.000000   0.000000  -0.000000  -0.000000  -0.000000
    34  H    0.000127  -0.000000  -0.000000   0.000000   0.000000   0.000000
    35  H   -0.031768  -0.000000  -0.000002   0.000001   0.000000   0.000000
    36  H    0.331575   0.000000  -0.000007   0.000000   0.000000  -0.000000
    37  H    0.316431  -0.000000   0.000264  -0.000020  -0.000000   0.000000
              25         26         27         28         29         30
     1  C    0.003370   0.006651   0.000009  -0.000001   0.000000   0.000000
     2  C   -0.004004  -0.009051   0.000038   0.000002   0.000000   0.000000
     3  C    0.000690   0.000490   0.000004  -0.000000   0.000000   0.000000
     4  C    0.001167   0.002108   0.000292   0.000000   0.000000  -0.000000
     5  C   -0.024807  -0.029473  -0.003714  -0.000045   0.000002  -0.000000
     6  C    0.330310   0.349379  -0.068675  -0.003378  -0.000068  -0.000000
     7  C   -0.062799  -0.041004   0.335332  -0.061879  -0.000089   0.000004
     8  C   -0.010392   0.003134  -0.104931   0.346668  -0.068765  -0.000350
     9  C    0.000064  -0.000083  -0.014476  -0.030938   0.356280  -0.004935
    10  C    0.000019   0.000002   0.001753  -0.009614  -0.024474  -0.037537
    11  C    0.000000  -0.000000   0.000004   0.000129  -0.005744   0.348203
    12  C    0.000001  -0.000001   0.000024   0.002359   0.005421  -0.027840
    13  C    0.000011  -0.000006   0.000016   0.006797  -0.001052  -0.004377
    14  C    0.000009   0.000009  -0.000007  -0.004564  -0.000033   0.000096
    15  C   -0.000000   0.000000   0.000000   0.000044  -0.000001  -0.000006
    16  C   -0.000000   0.000000   0.000000  -0.000034   0.000000   0.000000
    17  C    0.000010  -0.000011   0.000000  -0.000248  -0.000000  -0.000000
    18  C   -0.000165   0.001004   0.000214   0.006955   0.000026   0.000002
    19  C    0.014641  -0.029651   0.005855  -0.000424   0.000133   0.000003
    20  H    0.000043   0.000006   0.000000   0.000000   0.000000  -0.000000
    21  H    0.001631  -0.000380   0.000002   0.000000   0.000000  -0.000000
    22  H    0.000060   0.001504   0.000008   0.000001  -0.000000  -0.000000
    23  H    0.000006   0.000015   0.000000   0.000000   0.000000  -0.000000
    24  H   -0.000037  -0.000032  -0.000007  -0.000000   0.000000  -0.000000
    25  H    0.638872  -0.037496   0.012602   0.002786   0.000019   0.000000
    26  H   -0.037496   0.613447   0.002212   0.000069  -0.000005  -0.000000
    27  H    0.012602   0.002212   0.666357   0.013041   0.006086   0.000000
    28  H    0.002786   0.000069   0.013041   0.604248   0.005771   0.000003
    29  H    0.000019  -0.000005   0.006086   0.005771   0.618053   0.001606
    30  H    0.000000  -0.000000   0.000000   0.000003   0.001606   0.565269
    31  H   -0.000073   0.000101  -0.000009  -0.009930  -0.003588  -0.001416
    32  H    0.000000  -0.000000  -0.000000   0.000001  -0.000000  -0.000001
    33  H    0.000000  -0.000000   0.000000  -0.000000  -0.000000  -0.000000
    34  H   -0.000001   0.000000   0.000000   0.000004  -0.000000   0.000000
    35  H    0.000419  -0.000055  -0.000080   0.004861  -0.000001  -0.000000
    36  H   -0.000333   0.001091  -0.001370  -0.000990   0.001356   0.000023
    37  H   -0.000529   0.010958  -0.000768   0.000747   0.000007  -0.000000
              31         32         33         34         35         36
     1  C   -0.000000  -0.000000  -0.000000   0.000000   0.000002   0.000001
     2  C   -0.000000   0.000000  -0.000000   0.000000  -0.000001   0.000002
     3  C    0.000000   0.000000  -0.000000   0.000000   0.000000   0.000000
     4  C   -0.000000  -0.000000  -0.000000  -0.000000   0.000000  -0.000002
     5  C   -0.000002  -0.000000  -0.000000   0.000000   0.000007  -0.000170
     6  C    0.000120  -0.000000  -0.000000   0.000000   0.000150   0.003064
     7  C   -0.004876   0.000000   0.000000  -0.000000  -0.000869  -0.029310
     8  C    0.026947   0.000000   0.000000  -0.000001  -0.002599  -0.015813
     9  C   -0.015389   0.000000  -0.000000   0.000000   0.000258   0.014947
    10  C   -0.079340   0.000001  -0.000000  -0.000000  -0.000014  -0.001302
    11  C   -0.023383   0.000010  -0.000000  -0.000000  -0.000004  -0.000246
    12  C   -0.167989   0.001421  -0.000020   0.000014  -0.000264   0.002605
    13  C    0.441181  -0.018036  -0.000396   0.000422   0.002109  -0.011457
    14  C   -0.124264  -0.043567   0.000264   0.007009  -0.028071   0.001774
    15  C    0.019716   0.384232  -0.035244  -0.002177   0.003092  -0.000118
    16  C   -0.000541  -0.064037   0.362198  -0.034807  -0.000508   0.000013
    17  C    0.001820   0.010409  -0.041246   0.325208  -0.024064   0.000016
    18  C   -0.078275   0.004974   0.002338  -0.024336   0.337948  -0.011350
    19  C    0.013636  -0.000039  -0.000004   0.000127  -0.031768   0.331575
    20  H    0.000000  -0.000000  -0.000000  -0.000000  -0.000000   0.000000
    21  H    0.000000  -0.000000   0.000000  -0.000000  -0.000002  -0.000007
    22  H    0.000000  -0.000000  -0.000000   0.000000   0.000001   0.000000
    23  H    0.000000  -0.000000  -0.000000   0.000000   0.000000   0.000000
    24  H    0.000000  -0.000000  -0.000000   0.000000   0.000000  -0.000000
    25  H   -0.000073   0.000000   0.000000  -0.000001   0.000419  -0.000333
    26  H    0.000101  -0.000000  -0.000000   0.000000  -0.000055   0.001091
    27  H   -0.000009  -0.000000   0.000000   0.000000  -0.000080  -0.001370
    28  H   -0.009930   0.000001  -0.000000   0.000004   0.004861  -0.000990
    29  H   -0.003588  -0.000000  -0.000000  -0.000000  -0.000001   0.001356
    30  H   -0.001416  -0.000001  -0.000000   0.000000  -0.000000   0.000023
    31  H    0.999868   0.000251   0.000038  -0.000105  -0.002404  -0.011099
    32  H    0.000251   0.636113  -0.001893  -0.000501  -0.000095  -0.000005
    33  H    0.000038  -0.001893   0.605185  -0.003018  -0.000113  -0.000000
    34  H   -0.000105  -0.000501  -0.003018   0.625851   0.001978  -0.000003
    35  H   -0.002404  -0.000095  -0.000113   0.001978   0.586605   0.001481
    36  H   -0.011099  -0.000005  -0.000000  -0.000003   0.001481   0.586352
    37  H   -0.001283   0.000001  -0.000000   0.000000   0.001277  -0.034786
              37
     1  C   -0.000131
     2  C   -0.000070
     3  C    0.000001
     4  C    0.000000
     5  C    0.000632
     6  C   -0.008961
     7  C   -0.038173
     8  C    0.008427
     9  C    0.002038
    10  C   -0.000128
    11  C   -0.000009
    12  C   -0.000063
    13  C    0.001625
    14  C   -0.000304
    15  C    0.000010
    16  C   -0.000002
    17  C   -0.000224
    18  C   -0.016196
    19  C    0.316431
    20  H   -0.000000
    21  H    0.000264
    22  H   -0.000020
    23  H   -0.000000
    24  H    0.000000
    25  H   -0.000529
    26  H    0.010958
    27  H   -0.000768
    28  H    0.000747
    29  H    0.000007
    30  H   -0.000000
    31  H   -0.001283
    32  H    0.000001
    33  H   -0.000000
    34  H    0.000000
    35  H    0.001277
    36  H   -0.034786
    37  H    0.623043
 Mulliken charges:
               1
     1  C   -0.500567
     2  C    0.429129
     3  C   -0.247113
     4  C   -0.346708
     5  C    0.121059
     6  C   -0.319100
     7  C   -0.080322
     8  C   -0.157592
     9  C   -0.246294
    10  C    0.498160
    11  C   -0.401632
    12  C   -0.174855
    13  C    0.092193
    14  C    0.216779
    15  C   -0.207388
    16  C   -0.065287
    17  C   -0.263253
    18  C   -0.246295
    19  C   -0.328165
    20  H    0.125135
    21  H    0.133048
    22  H    0.129260
    23  H    0.103475
    24  H    0.111036
    25  H    0.133906
    26  H    0.155069
    27  H    0.150188
    28  H    0.127559
    29  H    0.109060
    30  H    0.161252
    31  H    0.020288
    32  H    0.090759
    33  H    0.111912
    34  H    0.104336
    35  H    0.150725
    36  H    0.174058
    37  H    0.136185
 Sum of Mulliken charges =  -0.00000
 Mulliken charges with hydrogens summed into heavy atoms:
               1
     1  C   -0.113124
     2  C    0.429129
     3  C   -0.143639
     4  C   -0.235671
     5  C    0.121059
     6  C   -0.030125
     7  C    0.069867
     8  C   -0.030032
     9  C   -0.137233
    10  C    0.498160
    11  C   -0.240380
    12  C   -0.174855
    13  C    0.112481
    14  C    0.216779
    15  C   -0.116630
    16  C    0.046624
    17  C   -0.158918
    18  C   -0.095571
    19  C   -0.017921
 Electronic spatial extent (au):  <R**2>=           6882.6678
 Charge=             -0.0000 electrons
 Dipole moment (field-independent basis, Debye):
    X=              0.7089    Y=             -1.5343    Z=             -0.2583  Tot=              1.7098
 Quadrupole moment (field-independent basis, Debye-Ang):
   XX=           -110.9756   YY=           -108.3760   ZZ=           -113.5388
   XY=              3.0073   XZ=             -0.4708   YZ=             -4.4503
 Traceless Quadrupole moment (field-independent basis, Debye-Ang):
   XX=             -0.0121   YY=              2.5874   ZZ=             -2.5753
   XY=              3.0073   XZ=             -0.4708   YZ=             -4.4503
 Octapole moment (field-independent basis, Debye-Ang**2):
  XXX=             23.4389  YYY=            -32.9794  ZZZ=             -0.8668  XYY=            -23.2478
  XXY=              8.4918  XXZ=              9.7527  XZZ=              0.1828  YZZ=              2.9073
  YYZ=             -3.5173  XYZ=              7.4161
 Hexadecapole moment (field-independent basis, Debye-Ang**3):
 XXXX=          -6719.4175 YYYY=          -2316.1912 ZZZZ=           -226.4932 XXXY=            -23.3558
 XXXZ=            -13.7985 YYYX=             50.1784 YYYZ=            -66.1907 ZZZX=             -1.2738
 ZZZY=            -10.4615 XXYY=          -1358.2450 XXZZ=          -1282.5136 YYZZ=           -446.2596
 XXYZ=            -31.4359 YYXZ=              1.6899 ZZXY=              1.7304
 N-N= 1.237346332112D+03 E-N=-4.174211633956D+03  KE= 7.284458186971D+02
 PrsmSu:  requested number of processors reduced to:  12 ShMem   1 Linda.
 Calling FoFJK, ICntrl=      2127 FMM=F ISym2X=0 I1Cent= 0 IOpClX= 0 NMat=1 NMatS=1 NMatT=0.
 ***** Axes restored to original set *****
 -------------------------------------------------------------------
 Center     Atomic                   Forces (Hartrees/Bohr)
 Number     Number              X              Y              Z
 -------------------------------------------------------------------
      1        6           0.013773156    0.004784922   -0.007963803
      2        6          -0.081587736   -0.035494983    0.050516558
      3        6          -0.080800069   -0.037715659    0.036861539
      4        6           0.056297552    0.038648891   -0.035512348
      5        6           0.084207347    0.053408969   -0.050328620
      6        6          -0.038220371   -0.011148675    0.027096765
      7        6           0.024083009    0.028763568    0.007339688
      8        6          -0.039036454    0.017241697    0.018597965
      9        6          -0.003843746   -0.004920074    0.021888053
     10        6           0.051698216    0.046688802   -0.034717119
     11        6          -0.001414347   -0.020835638    0.041479770
     12        6           0.044770345    0.022021040   -0.003945873
     13        6          -0.037875530   -0.047786415    0.022424669
     14        6           0.022781892   -0.013000531   -0.014998847
     15        6          -0.018092954   -0.004161731   -0.009225033
     16        6           0.017937021   -0.003133984    0.013498413
     17        6          -0.045169123   -0.014728595    0.017441166
     18        6          -0.054756986    0.055595794   -0.030123882
     19        6           0.031009282   -0.046837118   -0.052451216
     20        1          -0.009760340   -0.001660833    0.001673013
     21        1          -0.008904306   -0.005152664    0.001249625
     22        1          -0.008558525   -0.000353601    0.005617859
     23        1           0.013964940    0.003043927   -0.005487794
     24        1           0.008538316    0.019012095   -0.022136291
     25        1          -0.005397200   -0.001983793    0.020410923
     26        1           0.004010718    0.003160105    0.002833311
     27        1           0.031336606   -0.056851055   -0.043689678
     28        1          -0.002496765    0.019022774   -0.008936883
     29        1          -0.002106259   -0.003203495    0.009141171
     30        1           0.012013227    0.025446599   -0.041500847
     31        1           0.034407681    0.000364061    0.013809526
     32        1           0.007494926    0.006000922    0.000624277
     33        1           0.010161809   -0.016113271    0.019742751
     34        1           0.023263557   -0.027872550    0.019595365
     35        1           0.009022600   -0.005116423   -0.012078837
     36        1          -0.032227688    0.014378332    0.005086154
     37        1          -0.030523801    0.000488591    0.016168510
 -------------------------------------------------------------------
 Cartesian Forces:  Max     0.084207347 RMS     0.029248995

 GradGradGradGradGradGradGradGradGradGradGradGradGradGradGradGradGradGrad
 Berny optimization.
 FormGI is forming the generalized inverse of G from B-inverse, IUseBI=4.
 Internal  Forces:  Max     0.261062682 RMS     0.048916368
 Search for a local minimum.
 Step number   1 out of a maximum of  201
 All quantities printed in internal units (Hartrees-Bohrs-Radians)
[...]
    11  C    6.004756   4.937215   3.544053   2.771759   1.323160
    12  C    5.162439   4.031670   2.855300   2.543894   1.495876
    13  C    4.550165   3.394765   2.663005   2.882982   2.453587
    14  C    4.616463   3.668526   3.461921   4.066354   3.860548
    15  C    5.728150   4.892131   4.808907   5.396494   5.070913
    16  C    5.644838   5.055736   5.373459   6.202129   6.150440
    17  C    4.468169   4.041034   4.641383   5.655316   5.900073
    18  C    3.425360   2.758595   3.150756   4.166240   4.461666
    19  C    2.609869   1.608419   2.554359   3.560583   4.316819
    20  H    4.652369   6.108354   6.952551   7.976150   9.138255
    21  H    3.695331   5.210557   6.159496   7.360794   8.416898
    22  H    3.676839   5.188006   5.767377   6.819986   7.831191
    23  H    4.625132   5.526745   6.488469   7.192130   8.584749
    24  H    3.221163   3.232731   4.193986   4.680172   6.121123
    25  H    1.100038   2.195305   2.529848   3.736937   4.670800
    26  H    1.100669   2.194363   3.276316   4.603910   5.549666
    27  H    2.169342   1.094121   2.153713   2.848805   4.156611
    28  H    2.712598   2.147735   1.089016   2.074108   2.496601
    29  H    4.235404   2.992548   2.149664   1.087582   2.184062
    30  H    7.011362   5.995845   4.571242   3.732203   2.311585
    31  H    3.717255   2.405838   1.807578   2.175370   2.323697
    32  H    6.727596   5.830828   5.574825   5.982734   5.423776
    33  H    6.605066   6.089768   6.455382   7.278496   7.184827
    34  H    4.511976   4.359028   5.221468   6.339113   6.751702
    35  H    3.038368   2.796769   3.037383   4.206477   4.485730
    36  H    3.502445   2.199355   2.897884   3.528741   4.224018
    37  H    2.660754   2.159866   3.442587   4.507131   5.376295
                   11         12         13         14         15
    11  C    0.000000
    12  C    1.427582   0.000000
    13  C    2.755813   1.332658   0.000000
    14  C    4.132939   2.710241   1.436418   0.000000
    15  C    5.125307   3.759842   2.627859   1.353285   0.000000
    16  C    6.396264   4.986819   3.731435   2.298576   1.465481
    17  C    6.407941   4.994350   3.689113   2.388256   2.316207
    18  C    5.089416   3.716950   2.465318   1.556422   2.361783
    19  C    5.267233   4.046628   2.972985   2.679203   3.675512
    20  H   10.263610   9.643986   9.149404   9.101240  10.041261
    21  H    9.472679   8.671423   8.015975   7.761208   8.575932
    22  H    8.861574   8.294603   7.897273   7.924705   8.900433
    23  H    9.870867   9.339782   8.904139   9.080081  10.159958
    24  H    7.439893   6.874779   6.450488   6.794889   7.946461
    25  H    5.714510   5.016350   4.601356   4.800786   5.940100
    26  H    6.575526   5.569180   4.753949   4.482142   5.404892
    27  H    5.414174   4.628643   4.074817   4.434176   5.628929
    28  H    3.415314   2.673496   2.504621   3.193523   4.484208
    29  H    3.422610   3.315253   3.606245   4.747319   6.040953
    30  H    1.080960   2.402707   3.725530   5.037979   5.901260
    31  H    3.110723   1.884311   1.084676   1.946285   3.265170
    32  H    5.221225   3.989396   3.107346   2.175840   1.082077
    33  H    7.351992   5.962785   4.744578   3.324652   2.252846
    34  H    7.361140   5.965137   4.670536   3.439566   3.367024
    35  H    5.099647   3.834942   2.793117   2.122188   2.934654
    36  H    5.141338   3.951418   2.914965   2.779722   3.712803
    37  H    6.357554   5.138546   4.032739   3.528689   4.297698
                   16         17         18         19         20
    16  C    0.000000
    17  C    1.348143   0.000000
    18  C    2.328671   1.508681   0.000000
    19  C    3.633581   2.621150   1.561796   0.000000
    20  H    9.610903   8.323872   7.749752   7.039924   0.000000
    21  H    8.031620   6.758755   6.349410   5.849527   1.774596
    22  H    8.628573   7.430003   6.706996   6.205662   1.774781
    23  H    9.870774   8.567161   7.813426   6.598290   3.046027
    24  H    7.900734   6.735598   5.769927   4.309727   5.166533
    25  H    5.996746   4.930270   3.801254   3.329504   4.648212
    26  H    5.071815   3.816635   3.083854   2.559588   4.668642
    27  H    5.770892   4.751893   3.584947   2.149980   6.222518
    28  H    5.083602   4.435513   2.971443   2.904620   6.998839
    29  H    6.801066   6.222851   4.795318   3.915621   8.254549
    30  H    7.241203   7.360354   6.091876   6.341508  11.150568
    31  H    4.066299   3.676875   2.272535   2.192478   8.359307
    32  H    2.261903   3.341695   3.417981   4.678124  11.073160
    33  H    1.083709   2.167708   3.381143   4.628056  10.358104
    34  H    2.177750   1.082455   2.295813   3.003213   7.889295
    35  H    2.919438   2.105153   1.105784   2.160150   7.167963
    36  H    3.839060   3.083280   2.177176   1.094881   7.906638
    37  H    3.882956   2.670402   2.167132   1.095903   6.588482
                   21         22         23         24         25
    21  H    0.000000
    22  H    1.758848   0.000000
    23  H    3.928936   3.939628   0.000000
    24  H    5.111893   5.108306   3.070348   0.000000
    25  H    3.768162   3.319709   5.049621   3.960859   0.000000
    26  H    3.354876   3.766755   5.051750   3.951542   1.737803
    27  H    5.538227   5.552606   5.090957   2.397575   2.951972
    28  H    6.075885   5.621166   6.998216   5.028780   2.359974
    29  H    7.774646   7.279251   7.059815   4.334333   4.378150
    30  H   10.404084   9.698388  10.796502   8.410907   6.644450
    31  H    7.316996   7.212116   7.905356   5.377164   3.910654
    32  H    9.614290   9.879613  11.187262   8.897777   6.874907
    33  H    8.717971   9.432863  10.714789   8.835936   6.969143
    34  H    6.267803   7.169320   8.236526   6.685838   5.076734
    35  H    5.741080   5.968353   7.590516   5.857448   3.143222
    36  H    6.812579   7.151475   7.116742   4.508016   4.237387
    37  H    5.338837   5.980625   6.157367   4.134455   3.579713
                   26         27         28         29         30
    26  H    0.000000
    27  H    2.884730   0.000000
    28  H    3.247409   3.057247   0.000000
    29  H    5.116473   2.789667   3.069266   0.000000
    30  H    7.591709   6.458771   4.383333   4.296912   0.000000
    31  H    4.050678   3.002012   2.028790   2.804776   4.176967
    32  H    6.451152   6.541961   5.220401   6.619307   5.842764
    33  H    5.942760   6.775787   6.146379   7.861508   8.144479
    34  H    3.678240   4.990036   5.064797   6.852064   8.339637
    35  H    2.640775   3.810705   2.537389   4.997948   6.063195
    36  H    3.595488   2.326703   3.459918   3.655018   6.201316
    37  H    2.322027   2.463615   3.786867   4.762783   7.432804
                   31         32         33         34         35
    31  H    0.000000
    32  H    3.941085   0.000000
    33  H    5.131537   2.677083   0.000000
    34  H    4.512213   4.353388   2.631594   0.000000
    35  H    2.656386   3.922206   3.902572   2.688690   0.000000
    36  H    2.122338   4.597228   4.795284   3.567428   3.027756
    37  H    3.287997   5.344655   4.740599   2.635788   2.677417
                   36         37
    36  H    0.000000
    37  H    1.754947   0.000000
 Stoichiometry    C19H18
 Framework group  C1[X(C19H18)]
 Deg. of freedom   105
 Full point group                 C1      NOp   1
 Largest Abelian subgroup         C1      NOp   1
 Largest concise Abelian subgroup C1      NOp   1
                         Standard orientation:                         
 ---------------------------------------------------------------------
 Center     Atomic      Atomic             Coordinates (Angstroms)
 Number     Number       Type             X           Y           Z
 ---------------------------------------------------------------------
      1          6           0        5.028607    0.836658   -1.639984
      2          6           0        4.529483    0.218735   -0.390442
      3          6           0        5.050973   -0.315832    0.714440
      4          6           0        3.620662   -0.612393    1.275091
      5          6           0        3.066120   -0.083402    0.182490
      6          6           0        1.708219    0.166046   -0.359675
      7          6           0        0.555450   -0.320482    0.565000
      8          6           0       -0.260912   -1.409130   -0.079472
      9          6           0       -0.787256   -2.580341    0.371505
     10          6           0       -2.087463   -2.886818   -0.188829
     11          6           0       -3.275080   -3.166756   -0.700641
     12          6           0       -3.071794   -1.783137   -0.413827
     13          6           0       -2.776588   -0.536226   -0.047707
     14          6           0       -2.841947    0.898035   -0.091501
     15          6           0       -3.744784    1.905291   -0.132759
     16          6           0       -3.046573    3.184839    0.018535
     17          6           0       -1.716984    2.992876    0.131807
     18          6           0       -1.418006    1.520544   -0.005915
     19          6           0       -0.394798    0.902439    0.999172
     20          1           0        6.122684    0.845757   -1.661609
     21          1           0        4.677562    1.872071   -1.748181
     22          1           0        4.674781    0.295576   -2.528054
     23          1           0        6.055889   -0.483123    1.078445
     24          1           0        3.251786   -1.064294    2.185821
     25          1           0        1.631206   -0.309469   -1.348632
     26          1           0        1.601707    1.241917   -0.566144
     27          1           0        0.986494   -0.663864    1.510194
     28          1           0       -0.570393   -1.116436   -1.081724
     29          1           0       -0.536445   -2.995305    1.345021
     30          1           0       -3.946404   -3.912091   -1.103475
     31          1           0       -1.822315   -0.668634    0.450645
     32          1           0       -4.816773    1.799973   -0.235905
     33          1           0       -3.550447    4.144270    0.023822
     34          1           0       -0.957449    3.755287    0.248191
     35          1           0       -0.996073    1.384203   -1.018902
     36          1           0       -0.930121    0.595274    1.903520
     37          1           0        0.300350    1.693206    1.303246
 ---------------------------------------------------------------------
 Rotational constants (GHZ):           0.5630917           0.2184712           0.1703142
 Standard basis: 6-31G(2df,p) (6D, 7F)
 There are   679 symmetry adapted cartesian basis functions of A   symmetry.
 There are   622 symmetry adapted basis functions of A   symmetry.
   622 basis functions,   962 primitive gaussians,   679 cartesian basis functions
    66 alpha electrons       66 beta electrons
       nuclear repulsion energy      1267.7039249227 Hartrees.
 NAtoms=   37 NActive=   37 NUniq=   37 SFac= 1.00D+00 NAtFMM=   60 NAOKFM=F Big=F
 Integral buffers will be    131072 words long.
 Raffenetti 2 integral format.
 Two-electron integral symmetry is turned on.
 One-electron integrals computed using PRISM.
 PrsmSu:  requested number of processors reduced to:  12 ShMem   1 Linda.
 NBasis=   622 RedAO= T EigKep=  1.21D-04  NBF=   622
 NBsUse=   622 1.00D-06 EigRej= -1.00D+00 NBFU=   622
 Initial guess from the checkpoint file:  "CC1dCCdC1CC1CdCC2dCC2dCC2dCCdCC2C1.chk"
 B after Tr=    -0.000000   -0.000000   -0.000000
         Rot=    1.000000   -0.000031    0.000002   -0.000046 Ang=  -0.01 deg.
 Requested convergence on RMS density matrix=1.00D-08 within 128 cycles.
 Requested convergence on MAX density matrix=1.00D-06.
 Requested convergence on             energy=1.00D-06.
 No special actions if energy rises.
 SCF Done:  E(RB3LYP) =  -734.502473749     A.U. after    7 cycles
            NFock=  7  Conv=0.43D-08     -V/T= 2.0085
 PrsmSu:  requested number of processors reduced to:  12 ShMem   1 Linda.
 Calling FoFJK, ICntrl=      2127 FMM=F ISym2X=0 I1Cent= 0 IOpClX= 0 NMat=1 NMatS=1 NMatT=0.
 ***** Axes restored to original set *****
 -------------------------------------------------------------------
 Center     Atomic                   Forces (Hartrees/Bohr)
 Number     Number              X              Y              Z
 -------------------------------------------------------------------
      1        6           0.000010212   -0.000027617   -0.000209533
      2        6          -0.000036169    0.000256727   -0.000436840
      3        6           0.000095381    0.000167343    0.000055255
      4        6           0.000641813   -0.000804162   -0.000039036
      5        6          -0.000329100    0.000023826    0.000701425
      6        6           0.000061698    0.000442141   -0.000276362
      7        6          -0.001958253   -0.002745157   -0.001376052
      8        6           0.000675990   -0.001861894    0.003660653
      9        6           0.000222879   -0.000068189   -0.001693998
     10        6           0.000513499    0.004089418    0.002602368
     11        6           0.000704319   -0.002076457    0.002001961
     12        6          -0.001231444   -0.000165504   -0.007612767
     13        6           0.000605324   -0.001871516   -0.003275806
     14        6          -0.000711100    0.002023610    0.004038513
     15        6          -0.001090752   -0.001203626    0.001187868
     16        6          -0.000095424    0.002013808   -0.000334656
     17        6           0.001353943   -0.000082487   -0.000639178
     18        6          -0.002824432    0.002081997    0.000583710
     19        6           0.003837235   -0.000827789    0.003073853
     20        1          -0.000041326   -0.000037387    0.000078768
     21        1           0.000009018    0.000033023    0.000021640
     22        1           0.000024992   -0.000004120    0.000069010
     23        1           0.000056448   -0.000095270   -0.000072549
     24        1          -0.000102707    0.000219422   -0.000041219
     25        1          -0.000217494    0.000228743    0.000010019
     26        1          -0.000070005    0.000093699   -0.000147138
     27        1           0.001027737    0.000888334    0.000085336
     28        1           0.000025711    0.000168916   -0.001635191
     29        1          -0.000306870    0.000066220    0.000160383
     30        1          -0.000179342    0.000685089    0.001725915
     31        1           0.000760074   -0.000568130   -0.000595947
     32        1           0.000383760   -0.000473883   -0.000646567
     33        1          -0.000148733   -0.000278482   -0.000106472
     34        1          -0.000196823    0.000181988    0.000065833
     35        1          -0.001091084    0.000002499   -0.000251188
     36        1          -0.000318966   -0.000181398   -0.000167174
     37        1          -0.000060008   -0.000293735   -0.000564837
 -------------------------------------------------------------------
 Cartesian Forces:  Max     0.007612767 RMS     0.001419960

 GradGradGradGradGradGradGradGradGradGradGradGradGradGradGradGradGradGrad
 Berny optimization.
 Using GEDIIS/GDIIS optimizer.
 FormGI is forming the generalized inverse of G from B-inverse, IUseBI=4.
 Internal  Forces:  Max     0.018960908 RMS     0.003552068
 Search for a local minimum.
 Step number  25 out of a maximum of  201
 All quantities printed in internal units (Hartrees-Bohrs-Radians)
 Mixed Optimization -- RFO/linear search
 Update second derivatives using D2CorX and points   20   21   22   23   24
                                                     25
 DE= -2.60D-05 DEPred=-5.30D-03 R= 4.91D-03
 Trust test= 4.91D-03 RLast= 3.39D-01 DXMaxT set to 2.48D-01
 ITU= -1  1  1  0 -1 -1  1  1 -1  0  1 -1  1  1  0  1  0  1  0  0
 ITU=  1  0 -1 -1  0
 Use linear search instead of GDIIS.
     Eigenvalues ---    0.00000   0.00230   0.00340   0.00449   0.00813
     Eigenvalues ---    0.01069   0.01078   0.01117   0.01328   0.01641
     Eigenvalues ---    0.01757   0.01911   0.02010   0.02056   0.02103
     Eigenvalues ---    0.02175   0.02325   0.02447   0.02496   0.02716
     Eigenvalues ---    0.02800   0.03066   0.03654   0.03822   0.04584
     Eigenvalues ---    0.04691   0.05191   0.05330   0.06420   0.07193
     Eigenvalues ---    0.07338   0.07360   0.08071   0.08421   0.09628
     Eigenvalues ---    0.12907   0.13005   0.13546   0.14783   0.15697
     Eigenvalues ---    0.15754   0.15853   0.15923   0.15992   0.15999
     Eigenvalues ---    0.16000   0.16002   0.16005   0.16031   0.16287
     Eigenvalues ---    0.16500   0.16619   0.18745   0.18889   0.20743
     Eigenvalues ---    0.21601   0.21961   0.22525   0.23323   0.23532
     Eigenvalues ---    0.24339   0.24992   0.25656   0.26506   0.27982
     Eigenvalues ---    0.28205   0.29344   0.30693   0.30991   0.31407
     Eigenvalues ---    0.31633   0.32177   0.33056   0.33140   0.33524
     Eigenvalues ---    0.34222   0.34266   0.34350   0.34366   0.34535
     Eigenvalues ---    0.34930   0.34983   0.35058   0.35183   0.35681
     Eigenvalues ---    0.35903   0.36358   0.38630   0.39769   0.41658
     Eigenvalues ---    0.42296   0.43205   0.45251   0.46362   0.47304
     Eigenvalues ---    0.49952   0.50940   0.55790   0.57966   0.58052
     Eigenvalues ---    0.63999   0.79451   1.86126   2.68651  33.62328
 RFO step:  Lambda=-1.13161023D-03 EMin= 1.77822117D-06
 Quartic linear search produced a step of  2.00000.
 Iteration  1 RMS(Cart)=  0.02081248 RMS(Int)=  0.02471410
 Iteration  2 RMS(Cart)=  0.00090285 RMS(Int)=  0.01281154
 Iteration  3 RMS(Cart)=  0.00210937 RMS(Int)=  0.00637039
 Iteration  4 RMS(Cart)=  0.01410376 RMS(Int)=  0.00130602
 SLEqS3 Cycle:  1111 Max:0.172955E-02 RMS:0.276763E-03 Conv:0.267467E-03
 SLEqS3 Cycle:   105 Max:0.425569E-02 RMS: 41.3046     Conv:0.267467E-03
 Iteration  5 RMS(Cart)=  0.00104601 RMS(Int)=  0.00120115
 SLEqS3 Cycle:  1111 Max:0.454526E-02 RMS:0.858197E-03 Conv:0.227644E-06
 SLEqS3 Cycle:  1111 Max:0.454526E-02 RMS:0.858192E-03 Conv:0.227644E-06
 Iteration  6 RMS(Cart)=  0.00354198 RMS(Int)=  0.00131062
 SLEqS3 Cycle:    29 Max:0.426632E-02 RMS:0.971862E-03 Conv:0.129071E-04
 Iteration  7 RMS(Cart)=  0.00408111 RMS(Int)=  0.00119502
 SLEqS3 Cycle:  1111 Max:0.477690E-02 RMS:0.868517E-03 Conv:0.435720E-07
 SLEqS3 Cycle:  1111 Max:0.481365E-02 RMS:0.868695E-03 Conv:0.435720E-07
 Iteration  8 RMS(Cart)=  0.00510187 RMS(Int)=  0.00135503
 SLEqS3 Cycle:  1111 Max:0.506653E-02 RMS:0.965878E-03 Conv:0.437553E-06
 SLEqS3 Cycle:  1111 Max:0.506669E-02 RMS:0.965888E-03 Conv:0.437553E-06
 Iteration  9 RMS(Cart)=  0.00642708 RMS(Int)=  0.00118534
 SLEqS3 Cycle:  1111 Max:0.487295E-02 RMS:0.635095E-03 Conv:0.197830E-05
 SLEqS3 Cycle:  1111 Max:0.556478E-02 RMS:0.984797E-03 Conv:0.197830E-05
 Iteration 10 RMS(Cart)=  0.00304145 RMS(Int)=  0.00108647
 SLEqS3 Cycle:  1111 Max:0.596896E-02 RMS:0.101047E-02 Conv:0.121254E-05
 SLEqS3 Cycle:  1111 Max:0.596898E-02 RMS:0.101047E-02 Conv:0.121254E-05
 Iteration 11 RMS(Cart)=  0.00244947 RMS(Int)=  0.00101563
 SLEqS3 Cycle:  1111 Max:0.630036E-02 RMS:0.103731E-02 Conv:0.214973E-06
 SLEqS3 Cycle:  1111 Max:0.630045E-02 RMS:0.103731E-02 Conv:0.214973E-06
 Iteration 12 RMS(Cart)=  0.00196721 RMS(Int)=  0.00096447
 SLEqS3 Cycle:  1111 Max:0.655114E-02 RMS:0.106082E-02 Conv:0.802205E-06
 SLEqS3 Cycle:  1111 Max:0.655115E-02 RMS:0.106082E-02 Conv:0.802205E-06
 Iteration 13 RMS(Cart)=  0.00158091 RMS(Int)=  0.00092713
 SLEqS3 Cycle:  1111 Max:0.675852E-02 RMS:0.108210E-02 Conv:0.628470E-06
 SLEqS3 Cycle:  1111 Max:0.675913E-02 RMS:0.108215E-02 Conv:0.628470E-06
 Iteration 14 RMS(Cart)=  0.00126256 RMS(Int)=  0.00089953
 SLEqS3 Cycle:  1111 Max:0.504012E-02 RMS:0.100812E-02 Conv:0.370562E-06
slurmstepd: error: *** JOB 27448514 ON lewis4-r630-hpc4-node302 CANCELLED AT 2023-05-20T20:21:24 ***
