### Starting Gaussian ###
 Entering Gaussian System, Link 0=g16
 Initial command:
 /cluster/software/gaussian/gaussian-16-A.03/avx2/g16/l1.exe "/local/scratch/cz9n3/Gau-19366.inp" -scrdir="/local/scratch/cz9n3/"
 Entering Link 1 = /cluster/software/gaussian/gaussian-16-A.03/avx2/g16/l1.exe PID=     19367.
  
 Copyright (c) 1988,1990,1992,1993,1995,1998,2003,2009,2016,
            Gaussian, Inc.  All Rights Reserved.
  
 This is part of the Gaussian(R) 16 program.  It is based on
 the Gaussian(R) 09 system (copyright 2009, Gaussian, Inc.),
 the Gaussian(R) 03 system (copyright 2003, Gaussian, Inc.),
 the Gaussian(R) 98 system (copyright 1998, Gaussian, Inc.),
 the Gaussian(R) 94 system (copyright 1995, Gaussian, Inc.),
 the Gaussian 92(TM) system (copyright 1992, Gaussian, Inc.),
 the Gaussian 90(TM) system (copyright 1990, Gaussian, Inc.),
 the Gaussian 88(TM) system (copyright 1988, Gaussian, Inc.),
 the Gaussian 86(TM) system (copyright 1986, Carnegie Mellon
 University), and the Gaussian 82(TM) system (copyright 1983,
 Carnegie Mellon University). Gaussian is a federally registered
 trademark of Gaussian, Inc.
  
 This software contains proprietary and confidential information,
 including trade secrets, belonging to Gaussian, Inc.
  
 This software is provided under written license and may be
 used, copied, transmitted, or stored only in accord with that
 written license.
  
 The following legend is applicable only to US Government
 contracts under FAR:
  
                    RESTRICTED RIGHTS LEGEND
  
 Use, reproduction and disclosure by the US Government is
 subject to restrictions as set forth in subparagraphs (a)
 and (c) of the Commercial Computer Software - Restricted
 Rights clause in FAR 52.227-19.
  
 Gaussian, Inc.
 340 Quinnipiac St., Bldg. 40, Wallingford CT 06492
  
  
 ---------------------------------------------------------------
 Warning -- This program may not be used in any manner that
 competes with the business of Gaussian, Inc. or will provide
 assistance to any competitor of Gaussian, Inc.  The licensee
 of this program is prohibited from giving any competitor of
 Gaussian, Inc. access to this program.  By using this program,
 the user acknowledges that Gaussian, Inc. is engaged in the
 business of creating and licensing software in the field of
 computational chemistry and represents and warrants to the
 licensee that it is not a competitor of Gaussian, Inc. and that
 it will not use this program in any manner prohibited above.
 ---------------------------------------------------------------
  

 Cite this work as:
 Gaussian 16, Revision A.03,
 M. J. Frisch, G. W. Trucks, H. B. Schlegel, G. E. Scuseria, 
 M. A. Robb, J. R. Cheeseman, G. Scalmani, V. Barone, 
 G. A. Petersson, H. Nakatsuji, X. Li, M. Caricato, A. V. Marenich, 
 J. Bloino, B. G. Janesko, R. Gomperts, B. Mennucci, H. P. Hratchian, 
 J. V. Ortiz, A. F. Izmaylov, J. L. Sonnenberg, D. Williams-Young, 
 F. Ding, F. Lipparini, F. Egidi, J. Goings, B. Peng, A. Petrone, 
 T. Henderson, D. Ranasinghe, V. G. Zakrzewski, J. Gao, N. Rega, 
 G. Zheng, W. Liang, M. Hada, M. Ehara, K. Toyota, R. Fukuda, 
 J. Hasegawa, M. Ishida, T. Nakajima, Y. Honda, O. Kitao, H. Nakai, 
 T. Vreven, K. Throssell, J. A. Montgomery, Jr., J. E. Peralta, 
 F. Ogliaro, M. J. Bearpark, J. J. Heyd, E. N. Brothers, K. N. Kudin, 
 V. N. Staroverov, T. A. Keith, R. Kobayashi, J. Normand, 
 K. Raghavachari, A. P. Rendell, J. C. Burant, S. S. Iyengar, 
 J. Tomasi, M. Cossi, J. M. Millam, M. Klene, C. Adamo, R. Cammi, 
 J. W. Ochterski, R. L. Martin, K. Morokuma, O. Farkas, 
 J. B. Foresman, and D. J. Fox, Gaussian, Inc., Wallingford CT, 2016.
 
 ******************************************
 Gaussian 16:  ES64L-G16RevA.03 25-Dec-2016
                18-May-2023 
 ******************************************
 %chk=CC1dC2NdCNdC2CdCNqCdOrCC1C.chk
 %NProcShared=20
 Will use up to   20 processors via shared memory.
 -----------------------------
 # opt freq b3lyp/6-31g(2df,p)
 -----------------------------
 1/18=20,19=15,26=3,38=1/1,3;
 2/9=110,12=2,17=6,18=5,40=1/2;
 3/5=1,6=6,7=104,11=2,25=1,30=1,71=1,74=-5/1,2,3;
 4//1;
 5/5=2,38=5/2;
 6/7=2,8=2,9=2,10=2,28=1/1;
 7//1,2,3,16;
 1/18=20,19=15,26=3/3(2);
 2/9=110/2;
 99//99;
 2/9=110/2;
 3/5=1,6=6,7=104,11=2,25=1,30=1,71=1,74=-5/1,2,3;
 4/5=5,16=3,69=1/1;
 5/5=2,38=5/2;
 7//1,2,3,16;
 1/18=20,19=15,26=3/3(-5);
 2/9=110/2;
 6/7=2,8=2,9=2,10=2,19=2,28=1/1;
 99/9=1/99;
 -------------------
 Title Card Required
 -------------------
 Symbolic Z-matrix:
 Charge =  0 Multiplicity = 1
 C                     0.48845  -0.12568   0.44924 
 C                     2.37222   0.17685   0.96541 
 C                     3.37045   1.1376    0.66279 
 N                     4.75326   1.16139   0.61192 
 C                     5.0505    2.43059   0.72204 
 N                     4.02614   3.34523   0.77035 
 C                     3.03436   2.59535   0.46079 
 C                     1.81839   3.06003  -0.18711 
 C                     1.0852    4.03536   0.26398 
 N                    -0.43912   3.50404   0.29257 
 C                    -1.74679   2.82281   0.40948 
 O                    -1.9378    1.63461   0.35576 
 C                     0.20158   2.22223   1.30549 
 C                     1.39406   0.74367   0.27521 
 C                     1.91057  -1.22516  -0.08184 
 H                    -0.41753   0.49044   0.34098 
 H                     0.19438  -0.9526    1.059 
 H                     0.40441  -0.34536  -0.85472 
 H                     6.06171   2.84354   0.72392 
 H                     1.05097   2.39538  -0.60783 
 H                     1.46994   4.78383   1.05209 
 H                    -2.66082   3.47361   0.70289 
 H                     0.31728   3.00346   2.32514 
 H                    -0.17952   3.47356   1.35973 
 H                     1.83229   0.92366  -0.72172 
 H                     0.99907  -1.89857  -0.30189 
 H                     2.35856  -2.05565   0.62965 
 H                     2.36177  -1.56465  -1.06711 
 
 Add virtual bond connecting atoms H24        and C13        Dist= 2.47D+00.
 Add virtual bond connecting atoms H24        and H23        Dist= 2.24D+00.
 Add virtual bond connecting atoms H18        and C1         Dist= 2.50D+00.

 GradGradGradGradGradGradGradGradGradGradGradGradGradGradGradGradGradGrad
 Berny optimization.
 Initialization pass.
                           ----------------------------
                           !    Initial Parameters    !
                           ! (Angstroms and Degrees)  !
 --------------------------                            --------------------------
 ! Name  Definition              Value          Derivative Info.                !
 --------------------------------------------------------------------------------
 ! R1    R(1,14)                 1.2674         estimate D2E/DX2                !
 ! R2    R(1,16)                 1.101          estimate D2E/DX2                !
 ! R3    R(1,17)                 1.0687         estimate D2E/DX2                !
 ! R4    R(1,18)                 1.325          estimate D2E/DX2                !
 ! R5    R(2,3)                  1.4181         estimate D2E/DX2                !
 ! R6    R(2,14)                 1.3246         estimate D2E/DX2                !
 ! R7    R(2,15)                 1.8098         estimate D2E/DX2                !
 ! R8    R(3,4)                  1.3839         estimate D2E/DX2                !
 ! R9    R(3,7)                  1.5096         estimate D2E/DX2                !
 ! R10   R(4,5)                  1.3082         estimate D2E/DX2                !
 ! R11   R(5,6)                  1.3741         estimate D2E/DX2                !
 ! R12   R(5,19)                 1.0923         estimate D2E/DX2                !
 ! R13   R(6,7)                  1.2813         estimate D2E/DX2                !
 ! R14   R(7,8)                  1.4541         estimate D2E/DX2                !
 ! R15   R(8,9)                  1.3009         estimate D2E/DX2                !
 ! R16   R(8,20)                 1.099          estimate D2E/DX2                !
 ! R17   R(9,10)                 1.6145         estimate D2E/DX2                !
 ! R18   R(9,21)                 1.153          estimate D2E/DX2                !
 ! R19   R(10,11)                1.4791         estimate D2E/DX2                !
 ! R20   R(10,24)                1.0987         estimate D2E/DX2                !
 ! R21   R(11,12)                1.2047         estimate D2E/DX2                !
 ! R22   R(11,22)                1.1598         estimate D2E/DX2                !
 ! R23   R(13,23)                1.2897         estimate D2E/DX2                !
 ! R24   R(13,24)                1.3092         estimate D2E/DX2                !
 ! R25   R(14,25)                1.1038         estimate D2E/DX2                !
 ! R26   R(15,26)                1.1544         estimate D2E/DX2                !
 ! R27   R(15,27)                1.1818         estimate D2E/DX2                !
 ! R28   R(15,28)                1.1356         estimate D2E/DX2                !
 ! R29   R(23,24)                1.1831         estimate D2E/DX2                !
 ! A1    A(14,1,16)            100.99           estimate D2E/DX2                !
 ! A2    A(14,1,17)            143.6832         estimate D2E/DX2                !
 ! A3    A(14,1,18)             91.3703         estimate D2E/DX2                !
 ! A4    A(16,1,17)            105.2296         estimate D2E/DX2                !
 ! A5    A(16,1,18)             86.7794         estimate D2E/DX2                !
 ! A6    A(17,1,18)            114.5677         estimate D2E/DX2                !
 ! A7    A(3,2,14)              96.8178         estimate D2E/DX2                !
 ! A8    A(3,2,15)             125.5132         estimate D2E/DX2                !
 ! A9    A(14,2,15)             80.8867         estimate D2E/DX2                !
 ! A10   A(2,3,4)              136.2876         estimate D2E/DX2                !
 ! A11   A(2,3,7)              121.7396         estimate D2E/DX2                !
 ! A12   A(4,3,7)              101.5918         estimate D2E/DX2                !
 ! A13   A(3,4,5)              103.9227         estimate D2E/DX2                !
 ! A14   A(4,5,6)              118.6436         estimate D2E/DX2                !
 ! A15   A(4,5,19)             125.2603         estimate D2E/DX2                !
 ! A16   A(6,5,19)             116.0037         estimate D2E/DX2                !
 ! A17   A(5,6,7)              100.3099         estimate D2E/DX2                !
 ! A18   A(3,7,6)              111.1305         estimate D2E/DX2                !
 ! A19   A(3,7,8)              123.6704         estimate D2E/DX2                !
 ! A20   A(6,7,8)              124.6048         estimate D2E/DX2                !
 ! A21   A(7,8,9)              123.808          estimate D2E/DX2                !
 ! A22   A(7,8,20)             124.1444         estimate D2E/DX2                !
 ! A23   A(9,8,20)             101.1056         estimate D2E/DX2                !
 ! A24   A(8,9,10)             106.9495         estimate D2E/DX2                !
 ! A25   A(8,9,21)             122.3884         estimate D2E/DX2                !
 ! A26   A(10,9,21)            121.1031         estimate D2E/DX2                !
 ! A27   A(9,10,24)             78.6531         estimate D2E/DX2                !
 ! A28   A(11,10,24)            96.8542         estimate D2E/DX2                !
 ! A29   A(10,11,12)           126.2235         estimate D2E/DX2                !
 ! A30   A(10,11,22)           117.2785         estimate D2E/DX2                !
 ! A31   A(12,11,22)           116.091          estimate D2E/DX2                !
 ! A32   A(1,14,2)              99.3577         estimate D2E/DX2                !
 ! A33   A(1,14,25)            121.3046         estimate D2E/DX2                !
 ! A34   A(2,14,25)            104.3133         estimate D2E/DX2                !
 ! A35   A(2,15,26)            139.7803         estimate D2E/DX2                !
 ! A36   A(2,15,27)             95.7001         estimate D2E/DX2                !
 ! A37   A(2,15,28)            129.2187         estimate D2E/DX2                !
 ! A38   A(26,15,27)            90.2371         estimate D2E/DX2                !
 ! A39   A(26,15,28)            88.5071         estimate D2E/DX2                !
 ! A40   A(27,15,28)            99.3024         estimate D2E/DX2                !
 ! A41   A(10,24,13)            93.156          estimate D2E/DX2                !
 ! A42   A(10,24,23)           154.5261         estimate D2E/DX2                !
 ! A43   L(9,10,11,24,-1)      175.5073         estimate D2E/DX2                !
 ! A44   L(9,10,11,24,-2)      187.9066         estimate D2E/DX2                !
 ! D1    D(16,1,14,2)          153.5771         estimate D2E/DX2                !
 ! D2    D(16,1,14,25)         -93.2528         estimate D2E/DX2                !
 ! D3    D(17,1,14,2)           17.8489         estimate D2E/DX2                !
 ! D4    D(17,1,14,25)         131.019          estimate D2E/DX2                !
 ! D5    D(18,1,14,2)         -119.4382         estimate D2E/DX2                !
 ! D6    D(18,1,14,25)          -6.268          estimate D2E/DX2                !
 ! D7    D(14,2,3,4)          -155.7392         estimate D2E/DX2                !
 ! D8    D(14,2,3,7)            32.7961         estimate D2E/DX2                !
 ! D9    D(15,2,3,4)           -72.0919         estimate D2E/DX2                !
 ! D10   D(15,2,3,7)           116.4434         estimate D2E/DX2                !
 ! D11   D(3,2,14,1)           176.3346         estimate D2E/DX2                !
 ! D12   D(3,2,14,25)           50.4954         estimate D2E/DX2                !
 ! D13   D(15,2,14,1)           51.3519         estimate D2E/DX2                !
 ! D14   D(15,2,14,25)         -74.4872         estimate D2E/DX2                !
 ! D15   D(3,2,15,26)         -152.6228         estimate D2E/DX2                !
 ! D16   D(3,2,15,27)          110.2269         estimate D2E/DX2                !
 ! D17   D(3,2,15,28)            3.3005         estimate D2E/DX2                !
 ! D18   D(14,2,15,26)         -60.7186         estimate D2E/DX2                !
 ! D19   D(14,2,15,27)        -157.8689         estimate D2E/DX2                !
 ! D20   D(14,2,15,28)          95.2047         estimate D2E/DX2                !
 ! D21   D(2,3,4,5)           -158.8005         estimate D2E/DX2                !
 ! D22   D(7,3,4,5)             13.7963         estimate D2E/DX2                !
 ! D23   D(2,3,7,6)            151.9581         estimate D2E/DX2                !
 ! D24   D(2,3,7,8)            -36.5321         estimate D2E/DX2                !
 ! D25   D(4,3,7,6)            -22.0321         estimate D2E/DX2                !
 ! D26   D(4,3,7,8)            149.4777         estimate D2E/DX2                !
 ! D27   D(3,4,5,6)             -3.7197         estimate D2E/DX2                !
 ! D28   D(3,4,5,19)           179.9233         estimate D2E/DX2                !
 ! D29   D(4,5,6,7)            -10.2001         estimate D2E/DX2                !
 ! D30   D(19,5,6,7)           166.4906         estimate D2E/DX2                !
 ! D31   D(5,6,7,3)             18.8364         estimate D2E/DX2                !
 ! D32   D(5,6,7,8)           -152.5782         estimate D2E/DX2                !
 ! D33   D(3,7,8,9)            135.6633         estimate D2E/DX2                !
 ! D34   D(3,7,8,20)            -1.5798         estimate D2E/DX2                !
 ! D35   D(6,7,8,9)            -53.9684         estimate D2E/DX2                !
 ! D36   D(6,7,8,20)           168.7886         estimate D2E/DX2                !
 ! D37   D(7,8,9,10)          -130.3183         estimate D2E/DX2                !
 ! D38   D(7,8,9,21)            16.0741         estimate D2E/DX2                !
 ! D39   D(20,8,9,10)           14.7507         estimate D2E/DX2                !
 ! D40   D(20,8,9,21)          161.1431         estimate D2E/DX2                !
 ! D41   D(8,9,10,24)          104.8389         estimate D2E/DX2                !
 ! D42   D(21,9,10,24)         -42.0768         estimate D2E/DX2                !
 ! D43   D(8,9,11,12)           15.514          estimate D2E/DX2                !
 ! D44   D(8,9,11,22)         -175.2556         estimate D2E/DX2                !
 ! D45   D(21,9,11,12)        -127.993          estimate D2E/DX2                !
 ! D46   D(21,9,11,22)          41.2374         estimate D2E/DX2                !
 ! D47   D(24,10,11,12)        -88.776          estimate D2E/DX2                !
 ! D48   D(24,10,11,22)         83.5818         estimate D2E/DX2                !
 ! D49   D(9,10,24,13)         -92.9164         estimate D2E/DX2                !
 ! D50   D(9,10,24,23)         -79.9467         estimate D2E/DX2                !
 ! D51   D(11,10,24,13)         79.1769         estimate D2E/DX2                !
 ! D52   D(11,10,24,23)         92.1467         estimate D2E/DX2                !
 --------------------------------------------------------------------------------
 Trust Radius=3.00D-01 FncErr=1.00D-07 GrdErr=1.00D-06 EigMax=2.50D+02 EigMin=1.00D-04
 Number of steps in this run=    135 maximum allowed number of steps=    168.
 GradGradGradGradGradGradGradGradGradGradGradGradGradGradGradGradGradGrad

                          Input orientation:                          
 ---------------------------------------------------------------------
 Center     Atomic      Atomic             Coordinates (Angstroms)
 Number     Number       Type             X           Y           Z
 ---------------------------------------------------------------------
      1          6           0        0.488450   -0.125680    0.449240
      2          6           0        2.372220    0.176850    0.965410
      3          6           0        3.370450    1.137600    0.662790
      4          7           0        4.753260    1.161390    0.611920
      5          6           0        5.050500    2.430590    0.722040
      6          7           0        4.026140    3.345230    0.770350
      7          6           0        3.034360    2.595350    0.460790
      8          6           0        1.818390    3.060030   -0.187110
      9          6           0        1.085200    4.035360    0.263980
     10          7           0       -0.439120    3.504040    0.292570
     11          6           0       -1.746790    2.822810    0.409480
     12          8           0       -1.937800    1.634610    0.355760
     13          6           0        0.201580    2.222230    1.305490
     14          6           0        1.394060    0.743670    0.275210
     15          6           0        1.910570   -1.225160   -0.081840
     16          1           0       -0.417530    0.490440    0.340980
     17          1           0        0.194380   -0.952600    1.059000
     18          1           0        0.404410   -0.345360   -0.854720
     19          1           0        6.061710    2.843540    0.723920
     20          1           0        1.050970    2.395380   -0.607830
     21          1           0        1.469940    4.783830    1.052090
     22          1           0       -2.660820    3.473610    0.702890
     23          1           0        0.317280    3.003460    2.325140
     24          1           0       -0.179520    3.473560    1.359730
     25          1           0        1.832290    0.923660   -0.721720
     26          1           0        0.999070   -1.898570   -0.301890
     27          1           0        2.358560   -2.055650    0.629650
     28          1           0        2.361770   -1.564650   -1.067110
 ---------------------------------------------------------------------
                    Distance matrix (angstroms):
                    1          2          3          4          5
     1  C    0.000000
     2  C    1.976498   0.000000
     3  C    3.153951   1.418126   0.000000
     4  N    4.457759   2.600697   1.383950   0.000000
     5  C    5.236529   3.508811   2.120826   1.308184   0.000000
     6  N    4.966445   3.579404   2.305456   2.307154   1.374123
     7  C    3.726365   2.557775   1.509568   2.243591   2.039661
     8  C    3.510332   3.154006   2.612845   3.585630   3.416033
     9  C    4.207694   4.127532   3.711931   4.672840   4.302175
    10  N    3.749640   4.407555   4.499992   5.705331   5.610051
    11  C    3.700199   4.927109   5.393537   6.712075   6.815767
    12  O    2.999008   4.590535   5.340300   6.712663   7.043017
    13  C    2.515579   3.001818   3.410458   4.724850   4.888338
    14  C    1.267354   1.324560   2.052198   3.401777   4.051532
    15  C    1.874387   1.809830   2.875475   3.775952   4.885682
    16  H    1.100965   2.875927   3.856316   5.221173   5.814528
    17  H    1.068682   2.455077   3.822740   5.045019   5.928020
    18  H    1.325003   2.730907   3.646834   4.830510   5.637218
    19  H    6.320834   4.558716   3.186981   2.134060   1.092281
    20  H    2.790980   3.023683   2.928562   4.088701   4.214977
    21  H    5.042821   4.695305   4.130192   4.908769   4.297334
    22  H    4.789272   6.022378   6.467980   7.766802   7.781562
    23  H    3.652371   3.749849   3.945464   5.099634   5.030058
    24  H    3.772228   4.187501   4.306358   5.498879   5.370991
    25  H    2.068373   1.922409   2.080523   3.219810   3.835643
    26  H    1.992001   2.792662   3.971445   4.928727   6.016988
    27  H    2.693445   2.257649   3.349905   4.010517   5.232726
    28  H    2.807005   2.676578   3.363353   3.996206   5.137341
                    6          7          8          9         10
     6  N    0.000000
     7  C    1.281318   0.000000
     8  C    2.423268   1.454058   0.000000
     9  C    3.062975   2.431376   1.300891   0.000000
    10  N    4.493556   3.594312   2.350232   1.614518   0.000000
    11  C    5.807742   4.786833   3.622527   3.084091   1.479102
    12  O    6.218254   5.065217   4.054071   3.861419   2.396832
    13  C    4.021786   2.979493   2.354536   2.270015   1.754862
    14  C    3.733781   2.480674   2.399858   3.306168   3.313683
    15  C    5.107869   4.019160   4.287474   5.336094   5.294012
    16  H    5.299093   4.044817   3.446884   3.851050   3.014066
    17  H    5.765158   4.583807   4.504597   5.128875   4.566221
    18  H    5.420169   4.158723   3.747229   4.572272   4.104351
    19  H    2.096996   3.048882   4.345412   5.137863   6.548520
    20  H    3.413683   2.261807   1.098953   1.857622   2.064029
    21  H    2.946711   2.754358   2.151400   1.152974   2.420587
    22  H    6.688532   5.767584   4.585463   3.813249   2.259478
    23  H    4.036065   3.320373   2.927103   2.429588   2.225772
    24  H    4.248695   3.450851   2.560345   1.765164   1.098705
    25  H    3.592110   2.374416   2.202289   3.348496   3.584194
    26  H    6.149007   4.991934   5.027144   5.961472   5.622274
    27  H    5.654213   4.702874   5.208557   6.233423   6.233040
    28  H    5.500301   4.482461   4.738916   5.895892   5.948557
                   11         12         13         14         15
    11  C    0.000000
    12  O    1.204653   0.000000
    13  C    2.227033   2.413344   0.000000
    14  C    3.769057   3.449863   2.160932   0.000000
    15  C    5.477567   4.814533   4.090211   2.066533   0.000000
    16  H    2.685437   1.902778   2.076698   1.830385   2.922689
    17  H    4.294617   3.425550   3.184392   2.220561   2.078729
    18  H    4.032761   3.297194   3.361572   1.855299   1.907855
    19  H    7.814856   8.098717   5.921602   5.137874   5.868180
    20  H    3.007503   3.231102   2.100533   1.904105   3.758176
    21  H    3.821766   4.692031   2.869624   4.114875   6.130898
    22  H    1.159776   2.006285   3.181574   4.906886   6.602412
    23  H    2.821839   3.292050   1.289726   3.235478   5.119898
    24  H    1.944939   2.735186   1.309201   3.332362   5.340840
    25  H    4.206685   3.984971   2.907762   1.103771   2.243435
    26  H    5.507924   4.641236   4.494514   2.733220   1.154442
    27  H    6.379792   5.670251   4.838345   2.981959   1.181790
    28  H    6.189539   5.544919   4.963478   2.840181   1.135602
                   16         17         18         19         20
    16  H    0.000000
    17  H    1.724051   0.000000
    18  H    1.674469   2.018707   0.000000
    19  H    6.903932   6.996322   6.683280   0.000000
    20  H    2.585639   3.836801   2.826774   5.204029   0.000000
    21  H    4.743566   5.876541   5.574932   4.995675   2.938633
    22  H    3.750018   5.279234   5.138708   8.745282   4.081415
    23  H    3.285134   4.155554   4.618841   5.965564   3.083890
    24  H    3.161251   4.452093   4.452967   6.305088   2.558881
    25  H    2.525609   3.061709   1.914926   4.864546   1.670147
    26  H    2.850861   1.842392   1.752627   7.012148   4.305148
    27  H    3.777907   2.466726   2.991178   6.142009   4.801335
    28  H    3.732375   3.097181   2.315823   6.027394   4.196543
                   21         22         23         24         25
    21  H    0.000000
    22  H    4.347619   0.000000
    23  H    2.473661   3.423714   0.000000
    24  H    2.128889   2.566766   1.183140   0.000000
    25  H    4.263638   5.359085   3.988004   3.857694   0.000000
    26  H    6.834431   6.577590   5.603215   5.745419   2.972456
    27  H    6.909891   7.468082   5.712802   6.127563   3.313525
    28  H    6.752005   7.330987   6.046067   6.142578   2.567359
                   26         27         28
    26  H    0.000000
    27  H    1.655492   0.000000
    28  H    1.598129   1.766376   0.000000
 Stoichiometry    C11H13N3O
 Framework group  C1[X(C11H13N3O)]
 Deg. of freedom    78
 Full point group                 C1      NOp   1
 Largest Abelian subgroup         C1      NOp   1
 Largest concise Abelian subgroup C1      NOp   1
                         Standard orientation:                         
 ---------------------------------------------------------------------
 Center     Atomic      Atomic             Coordinates (Angstroms)
 Number     Number       Type             X           Y           Z
 ---------------------------------------------------------------------
      1          6           0        0.875861    1.996581    0.152461
      2          6           0       -0.975579    1.454716    0.582689
      3          6           0       -1.854119    0.417367    0.178764
      4          7           0       -3.224198    0.248455    0.080420
      5          6           0       -3.382678   -1.050066    0.089031
      6          7           0       -2.265453   -1.849912    0.105418
      7          6           0       -1.354718   -0.976310   -0.116294
      8          6           0       -0.079092   -1.257132   -0.755200
      9          6           0        0.745365   -2.178805   -0.351334
     10          7           0        2.200773   -1.489830   -0.233995
     11          6           0        3.422201   -0.682248   -0.025025
     12          8           0        3.482622    0.520281    0.013233
     13          6           0        1.397660   -0.364341    0.846663
     14          6           0        0.076058    1.050168   -0.113628
     15          6           0       -0.644770    2.973028   -0.345094
     16          1           0        1.846560    1.491658    0.030311
     17          1           0        1.061735    2.802237    0.829549
     18          1           0        0.968008    2.321376   -1.128809
     19          1           0       -4.342044   -1.568644    0.027620
     20          1           0        0.620890   -0.483869   -1.101305
     21          1           0        0.425595   -3.021485    0.367686
     22          1           0        4.394607   -1.250856    0.251006
     23          1           0        1.342989   -1.227871    1.803073
     24          1           0        1.912626   -1.567783    0.823382
     25          1           0       -0.314485    0.899364   -1.134925
     26          1           0        0.192359    3.755440   -0.485744
     27          1           0       -1.199167    3.694543    0.409019
     28          1           0       -1.105644    3.334922   -1.317832
 ---------------------------------------------------------------------
 Rotational constants (GHZ):           1.0219378           0.5242061           0.3639734
 Standard basis: 6-31G(2df,p) (6D, 7F)
 There are   530 symmetry adapted cartesian basis functions of A   symmetry.
 There are   485 symmetry adapted basis functions of A   symmetry.
   485 basis functions,   751 primitive gaussians,   530 cartesian basis functions
    54 alpha electrons       54 beta electrons
       nuclear repulsion energy      1001.9115663611 Hartrees.
 NAtoms=   28 NActive=   28 NUniq=   28 SFac= 1.00D+00 NAtFMM=   60 NAOKFM=F Big=F
 Integral buffers will be    131072 words long.
 Raffenetti 2 integral format.
 Two-electron integral symmetry is turned on.
 One-electron integrals computed using PRISM.
 PrsmSu:  requested number of processors reduced to:  12 ShMem   1 Linda.
 NBasis=   485 RedAO= T EigKep=  1.86D-04  NBF=   485
 NBsUse=   485 1.00D-06 EigRej= -1.00D+00 NBFU=   485
 ExpMin= 1.61D-01 ExpMax= 5.48D+03 ExpMxC= 8.25D+02 IAcc=3 IRadAn=         5 AccDes= 0.00D+00
 Harris functional with IExCor=  402 and IRadAn=       5 diagonalized for initial guess.
 HarFok:  IExCor=  402 AccDes= 0.00D+00 IRadAn=         5 IDoV= 1 UseB2=F ITyADJ=14
 ICtDFT=  3500011 ScaDFX=  1.000000  1.000000  1.000000  1.000000
 FoFCou: FMM=F IPFlag=           0 FMFlag=      100000 FMFlg1=           0
         NFxFlg=           0 DoJE=T BraDBF=F KetDBF=T FulRan=T
         wScrn=  0.000000 ICntrl=       500 IOpCl=  0 I1Cent=   200000004 NGrid=           0
         NMat0=    1 NMatS0=      1 NMatT0=    0 NMatD0=    1 NMtDS0=    0 NMtDT0=    0
 Petite list used in FoFCou.
 Requested convergence on RMS density matrix=1.00D-08 within 128 cycles.
 Requested convergence on MAX density matrix=1.00D-06.
 Requested convergence on             energy=1.00D-06.
 No special actions if energy rises.
 Integral accuracy reduced to 1.0D-05 until final iterations.
 EnCoef did     5 forward-backward iterations
 EnCoef did     3 forward-backward iterations
 EnCoef did     5 forward-backward iterations
 EnCoef did     2 forward-backward iterations
 Initial convergence to 1.0D-05 achieved.  Increase integral accuracy.
 SCF Done:  E(RB3LYP) =  -665.422213880     A.U. after   24 cycles
            NFock= 24  Conv=0.56D-08     -V/T= 2.0045

 **********************************************************************

            Population analysis using the SCF density.

 **********************************************************************

 Orbital symmetries:
       Occupied  (A) (A) (A) (A) (A) (A) (A) (A) (A) (A) (A) (A)
                 (A) (A) (A) (A) (A) (A) (A) (A) (A) (A) (A) (A)
                 (A) (A) (A) (A) (A) (A) (A) (A) (A) (A) (A) (A)
                 (A) (A) (A) (A) (A) (A) (A) (A) (A) (A) (A) (A)
                 (A) (A) (A) (A) (A) (A)
       Virtual   (A) (A) (A) (A) (A) (A) (A) (A) (A) (A) (A) (A)
                 (A) (A) (A) (A) (A) (A) (A) (A) (A) (A) (A) (A)
                 (A) (A) (A) (A) (A) (A) (A) (A) (A) (A) (A) (A)
                 (A) (A) (A) (A) (A) (A) (A) (A) (A) (A) (A) (A)
                 (A) (A) (A) (A) (A) (A) (A) (A) (A) (A) (A) (A)
                 (A) (A) (A) (A) (A) (A) (A) (A) (A) (A) (A) (A)
                 (A) (A) (A) (A) (A) (A) (A) (A) (A) (A) (A) (A)
                 (A) (A) (A) (A) (A) (A) (A) (A) (A) (A) (A) (A)
                 (A) (A) (A) (A) (A) (A) (A) (A) (A) (A) (A) (A)
                 (A) (A) (A) (A) (A) (A) (A) (A) (A) (A) (A) (A)
                 (A) (A) (A) (A) (A) (A) (A) (A) (A) (A) (A) (A)
                 (A) (A) (A) (A) (A) (A) (A) (A) (A) (A) (A) (A)
                 (A) (A) (A) (A) (A) (A) (A) (A) (A) (A) (A) (A)
                 (A) (A) (A) (A) (A) (A) (A) (A) (A) (A) (A) (A)
                 (A) (A) (A) (A) (A) (A) (A) (A) (A) (A) (A) (A)
                 (A) (A) (A) (A) (A) (A) (A) (A) (A) (A) (A) (A)
                 (A) (A) (A) (A) (A) (A) (A) (A) (A) (A) (A) (A)
                 (A) (A) (A) (A) (A) (A) (A) (A) (A) (A) (A) (A)
                 (A) (A) (A) (A) (A) (A) (A) (A) (A) (A) (A) (A)
                 (A) (A) (A) (A) (A) (A) (A) (A) (A) (A) (A) (A)
                 (A) (A) (A) (A) (A) (A) (A) (A) (A) (A) (A) (A)
                 (A) (A) (A) (A) (A) (A) (A) (A) (A) (A) (A) (A)
                 (A) (A) (A) (A) (A) (A) (A) (A) (A) (A) (A) (A)
                 (A) (A) (A) (A) (A) (A) (A) (A) (A) (A) (A) (A)
                 (A) (A) (A) (A) (A) (A) (A) (A) (A) (A) (A) (A)
                 (A) (A) (A) (A) (A) (A) (A) (A) (A) (A) (A) (A)
                 (A) (A) (A) (A) (A) (A) (A) (A) (A) (A) (A) (A)
                 (A) (A) (A) (A) (A) (A) (A) (A) (A) (A) (A) (A)
                 (A) (A) (A) (A) (A) (A) (A) (A) (A) (A) (A) (A)
                 (A) (A) (A) (A) (A) (A) (A) (A) (A) (A) (A) (A)
                 (A) (A) (A) (A) (A) (A) (A) (A) (A) (A) (A) (A)
                 (A) (A) (A) (A) (A) (A) (A) (A) (A) (A) (A) (A)
                 (A) (A) (A) (A) (A) (A) (A) (A) (A) (A) (A) (A)
                 (A) (A) (A) (A) (A) (A) (A) (A) (A) (A) (A) (A)
                 (A) (A) (A) (A) (A) (A) (A) (A) (A) (A) (A) (A)
                 (A) (A) (A) (A) (A) (A) (A) (A) (A) (A) (A)
 The electronic state is 1-A.
 Alpha  occ. eigenvalues --  -19.18279 -14.42172 -14.29114 -14.28674 -10.36480
 Alpha  occ. eigenvalues --  -10.30297 -10.26128 -10.23116 -10.21581 -10.21520
 Alpha  occ. eigenvalues --  -10.21416 -10.20856 -10.20455 -10.17724 -10.17674
 Alpha  occ. eigenvalues --   -1.10409  -0.99840  -0.98305  -0.92518  -0.85230
 Alpha  occ. eigenvalues --   -0.82192  -0.75892  -0.70072  -0.69301  -0.67196
 Alpha  occ. eigenvalues --   -0.63641  -0.60939  -0.57209  -0.56673  -0.55489
 Alpha  occ. eigenvalues --   -0.53977  -0.50481  -0.49879  -0.48019  -0.46925
 Alpha  occ. eigenvalues --   -0.45509  -0.45110  -0.41590  -0.40478  -0.40133
 Alpha  occ. eigenvalues --   -0.39471  -0.37954  -0.37751  -0.36562  -0.33249
 Alpha  occ. eigenvalues --   -0.32453  -0.29706  -0.27628  -0.27349  -0.24644
 Alpha  occ. eigenvalues --   -0.24081  -0.21878  -0.19617  -0.16487
 Alpha virt. eigenvalues --   -0.11728  -0.09183  -0.05620  -0.04901  -0.03024
 Alpha virt. eigenvalues --    0.00421   0.02710   0.04572   0.05270   0.07217
 Alpha virt. eigenvalues --    0.08212   0.09138   0.10288   0.12845   0.13370
 Alpha virt. eigenvalues --    0.14106   0.15083   0.15610   0.17170   0.18417
 Alpha virt. eigenvalues --    0.21934   0.22870   0.24798   0.25760   0.27909
 Alpha virt. eigenvalues --    0.29126   0.29868   0.31326   0.33360   0.33841
 Alpha virt. eigenvalues --    0.35502   0.37234   0.39054   0.40403   0.41071
 Alpha virt. eigenvalues --    0.43024   0.43459   0.45675   0.46037   0.46743
 Alpha virt. eigenvalues --    0.48284   0.49350   0.50602   0.51225   0.51511
 Alpha virt. eigenvalues --    0.52929   0.53957   0.54565   0.55214   0.56007
 Alpha virt. eigenvalues --    0.57187   0.58810   0.59829   0.61212   0.61931
 Alpha virt. eigenvalues --    0.62529   0.63413   0.63569   0.64153   0.65848
 Alpha virt. eigenvalues --    0.66444   0.66851   0.67553   0.68296   0.68786
 Alpha virt. eigenvalues --    0.69919   0.70485   0.71538   0.71772   0.72006
 Alpha virt. eigenvalues --    0.73558   0.74057   0.75219   0.75722   0.76881
 Alpha virt. eigenvalues --    0.77758   0.78699   0.79129   0.79777   0.80460
 Alpha virt. eigenvalues --    0.81073   0.82738   0.83441   0.84025   0.84714
 Alpha virt. eigenvalues --    0.86997   0.87178   0.87761   0.89537   0.91100
 Alpha virt. eigenvalues --    0.91977   0.92991   0.93380   0.95136   0.95879
 Alpha virt. eigenvalues --    0.96326   0.97230   0.98253   0.99697   1.00188
 Alpha virt. eigenvalues --    1.00842   1.03311   1.05766   1.05999   1.08463
 Alpha virt. eigenvalues --    1.09150   1.11256   1.13707   1.14453   1.14827
 Alpha virt. eigenvalues --    1.16707   1.17946   1.19103   1.19614   1.20409
 Alpha virt. eigenvalues --    1.21728   1.23216   1.25216   1.27782   1.28429
 Alpha virt. eigenvalues --    1.30670   1.31661   1.32432   1.34207   1.35527
 Alpha virt. eigenvalues --    1.36204   1.37251   1.38569   1.39579   1.40639
 Alpha virt. eigenvalues --    1.43207   1.43567   1.44861   1.46984   1.47763
 Alpha virt. eigenvalues --    1.49077   1.50885   1.52374   1.52913   1.54820
 Alpha virt. eigenvalues --    1.55422   1.55880   1.58194   1.58973   1.59751
 Alpha virt. eigenvalues --    1.60994   1.61948   1.62649   1.63233   1.64456
 Alpha virt. eigenvalues --    1.65835   1.68583   1.70447   1.71356   1.73795
 Alpha virt. eigenvalues --    1.74821   1.76871   1.79033   1.80053   1.81738
 Alpha virt. eigenvalues --    1.83172   1.83935   1.85685   1.86734   1.88070
 Alpha virt. eigenvalues --    1.88944   1.90753   1.91756   1.95834   1.97285
 Alpha virt. eigenvalues --    1.98327   2.01449   2.05484   2.06158   2.07856
 Alpha virt. eigenvalues --    2.10435   2.11695   2.15962   2.16474   2.18506
 Alpha virt. eigenvalues --    2.19171   2.20730   2.22625   2.24096   2.26003
 Alpha virt. eigenvalues --    2.27462   2.29231   2.30561   2.33244   2.33840
 Alpha virt. eigenvalues --    2.37718   2.39257   2.40743   2.44695   2.46437
 Alpha virt. eigenvalues --    2.48554   2.49665   2.51385   2.53436   2.54797
 Alpha virt. eigenvalues --    2.55916   2.57571   2.61059   2.63882   2.64296
 Alpha virt. eigenvalues --    2.65477   2.66519   2.69406   2.71469   2.72406
 Alpha virt. eigenvalues --    2.73271   2.76048   2.77515   2.78550   2.81288
 Alpha virt. eigenvalues --    2.82781   2.83870   2.84852   2.87231   2.87381
 Alpha virt. eigenvalues --    2.89172   2.90665   2.91561   2.92214   2.93861
 Alpha virt. eigenvalues --    2.97037   2.97577   2.98067   2.99683   3.01442
 Alpha virt. eigenvalues --    3.02840   3.03758   3.04553   3.05190   3.07933
 Alpha virt. eigenvalues --    3.08103   3.09776   3.10334   3.11643   3.12627
 Alpha virt. eigenvalues --    3.12757   3.13107   3.15275   3.17320   3.18845
 Alpha virt. eigenvalues --    3.20856   3.21436   3.23376   3.24354   3.25268
 Alpha virt. eigenvalues --    3.27160   3.27358   3.28940   3.31814   3.33242
 Alpha virt. eigenvalues --    3.33814   3.34380   3.36360   3.37176   3.38778
 Alpha virt. eigenvalues --    3.40846   3.42801   3.44571   3.46443   3.49330
 Alpha virt. eigenvalues --    3.49554   3.52041   3.52595   3.53450   3.55047
 Alpha virt. eigenvalues --    3.57426   3.59081   3.60512   3.61959   3.64957
 Alpha virt. eigenvalues --    3.65918   3.68677   3.72159   3.74308   3.76107
 Alpha virt. eigenvalues --    3.76713   3.78120   3.80184   3.81673   3.83889
 Alpha virt. eigenvalues --    3.85428   3.87233   3.89369   3.91897   3.92797
 Alpha virt. eigenvalues --    3.93702   3.94926   3.96946   3.99479   4.00543
 Alpha virt. eigenvalues --    4.01287   4.01764   4.03680   4.04870   4.06983
 Alpha virt. eigenvalues --    4.08426   4.10052   4.12159   4.14276   4.14986
 Alpha virt. eigenvalues --    4.15885   4.16883   4.18751   4.20880   4.21649
 Alpha virt. eigenvalues --    4.24803   4.26421   4.27589   4.29218   4.30752
 Alpha virt. eigenvalues --    4.31357   4.32901   4.35005   4.36567   4.37385
 Alpha virt. eigenvalues --    4.38394   4.39712   4.41314   4.42946   4.44725
 Alpha virt. eigenvalues --    4.46069   4.46559   4.47558   4.47654   4.49031
 Alpha virt. eigenvalues --    4.52069   4.52685   4.55007   4.55379   4.56442
 Alpha virt. eigenvalues --    4.57793   4.58493   4.59919   4.60898   4.61184
 Alpha virt. eigenvalues --    4.62582   4.63816   4.65426   4.67810   4.68150
 Alpha virt. eigenvalues --    4.68861   4.71066   4.72505   4.74010   4.75519
 Alpha virt. eigenvalues --    4.77588   4.79215   4.79733   4.80371   4.81909
 Alpha virt. eigenvalues --    4.82372   4.83919   4.84579   4.86255   4.87863
 Alpha virt. eigenvalues --    4.90297   4.91852   4.94912   4.96139   4.98326
 Alpha virt. eigenvalues --    4.99921   5.01450   5.02337   5.02627   5.04390
 Alpha virt. eigenvalues --    5.05941   5.08166   5.09322   5.10269   5.10936
 Alpha virt. eigenvalues --    5.13013   5.14287   5.16865   5.18038   5.19680
 Alpha virt. eigenvalues --    5.23514   5.24160   5.27780   5.29372   5.30944
 Alpha virt. eigenvalues --    5.33656   5.36486   5.39396   5.43656   5.45310
 Alpha virt. eigenvalues --    5.48622   5.50229   5.51513   5.54240   5.55075
 Alpha virt. eigenvalues --    5.56369   5.59487   5.63282   5.64019   5.74769
 Alpha virt. eigenvalues --    5.79011   5.84666   5.91149   5.96379   5.97537
 Alpha virt. eigenvalues --    6.01917   6.22519   6.24970   6.27892   6.36149
 Alpha virt. eigenvalues --    6.71581   6.83827   7.12008  10.40697  10.60174
 Alpha virt. eigenvalues --   10.81746  11.03585  11.25092  11.39258  11.41998
 Alpha virt. eigenvalues --   11.44785  11.51255  11.69579  11.89627  12.21700
 Alpha virt. eigenvalues --   12.25866  12.87714  13.01379  14.35551  15.89894
 Alpha virt. eigenvalues --   19.75452
          Condensed to atoms (all electrons):
               1          2          3          4          5          6
     1  C    5.738298  -0.128885  -0.015661  -0.000932  -0.000046  -0.000143
     2  C   -0.128885   5.472276   0.486618  -0.027348  -0.000772   0.008485
     3  C   -0.015661   0.486618   4.656387   0.456947  -0.112673  -0.053528
     4  N   -0.000932  -0.027348   0.456947   6.510145   0.602595  -0.101308
     5  C   -0.000046  -0.000772  -0.112673   0.602595   4.734539   0.523162
     6  N   -0.000143   0.008485  -0.053528  -0.101308   0.523162   6.520335
     7  C    0.003465  -0.037139   0.475952  -0.080293  -0.108910   0.524661
     8  C   -0.005844   0.002348  -0.043035   0.007849   0.002637  -0.023496
     9  C    0.001509  -0.002299   0.004542   0.000025   0.000270  -0.006329
    10  N    0.001498   0.000100  -0.000035   0.000001   0.000006   0.000038
    11  C    0.000875   0.000134  -0.000002   0.000000  -0.000000  -0.000001
    12  O   -0.029043  -0.000013  -0.000005  -0.000000  -0.000000   0.000000
    13  C   -0.041793  -0.024350   0.000819  -0.000101   0.000130  -0.000282
    14  C    0.212702   0.430141  -0.054223  -0.002690   0.000859  -0.002943
    15  C   -0.138880   0.227325   0.006715  -0.001585   0.000132  -0.000103
    16  H    0.249951   0.012007   0.000744  -0.000000   0.000002   0.000001
    17  H    0.430313  -0.031107   0.000259  -0.000003   0.000001  -0.000000
    18  H    0.255342  -0.001097   0.000047   0.000083   0.000006  -0.000001
    19  H   -0.000001  -0.000335   0.003912  -0.031999   0.363429  -0.043324
    20  H    0.000983  -0.002523  -0.007313   0.000327  -0.000098   0.001464
    21  H    0.000031  -0.000042   0.000029   0.000035  -0.000141   0.004936
    22  H   -0.000240   0.000000  -0.000000   0.000000   0.000000   0.000000
    23  H    0.003256   0.000541  -0.000328  -0.000015   0.000016   0.000099
    24  H    0.001930   0.000128   0.000013  -0.000001  -0.000001   0.000037
    25  H   -0.073794  -0.107108  -0.001537  -0.000749   0.000710  -0.000625
    26  H   -0.095639   0.013819   0.000858  -0.000013  -0.000000   0.000000
    27  H    0.028442  -0.053707  -0.003450   0.000294  -0.000010   0.000002
    28  H    0.001992  -0.018331  -0.001550   0.000203   0.000015  -0.000001
               7          8          9         10         11         12
     1  C    0.003465  -0.005844   0.001509   0.001498   0.000875  -0.029043
     2  C   -0.037139   0.002348  -0.002299   0.000100   0.000134  -0.000013
     3  C    0.475952  -0.043035   0.004542  -0.000035  -0.000002  -0.000005
     4  N   -0.080293   0.007849   0.000025   0.000001   0.000000  -0.000000
     5  C   -0.108910   0.002637   0.000270   0.000006  -0.000000  -0.000000
     6  N    0.524661  -0.023496  -0.006329   0.000038  -0.000001   0.000000
     7  C    4.653308   0.427426  -0.021176   0.003536   0.000031  -0.000010
     8  C    0.427426   5.113187   0.454225  -0.065889   0.002932  -0.000592
     9  C   -0.021176   0.454225   5.126224   0.267914  -0.000757   0.001741
    10  N    0.003536  -0.065889   0.267914   6.897210   0.211600  -0.059271
    11  C    0.000031   0.002932  -0.000757   0.211600   4.618954   0.696514
    12  O   -0.000010  -0.000592   0.001741  -0.059271   0.696514   7.612525
    13  C   -0.034503  -0.063000  -0.015513   0.083852   0.002216  -0.074146
    14  C   -0.016466  -0.052144   0.003369  -0.001076  -0.000902   0.001867
    15  C    0.002263   0.000261   0.000013  -0.000041  -0.000011  -0.000051
    16  H    0.000051  -0.000452   0.001416  -0.000997  -0.004732   0.031001
    17  H   -0.000029  -0.000113  -0.000023   0.000019  -0.000009   0.000778
    18  H    0.000233  -0.000649  -0.000313  -0.000080   0.000122   0.000801
    19  H    0.004691  -0.000219   0.000009   0.000000   0.000000   0.000000
    20  H   -0.031626   0.395229  -0.054782  -0.017030   0.002582  -0.000641
    21  H   -0.007801  -0.037749   0.358390  -0.032823  -0.000436  -0.000034
    22  H    0.000002  -0.000244   0.001322  -0.074415   0.362884  -0.038058
    23  H    0.000303  -0.017992   0.031909  -0.082387  -0.002349   0.002746
    24  H   -0.001016  -0.005565  -0.010313   0.186377  -0.019687   0.000092
    25  H   -0.005408  -0.028207   0.003392   0.001465  -0.000013   0.000085
    26  H   -0.000029  -0.000016   0.000006   0.000002  -0.000002  -0.000021
    27  H   -0.000009  -0.000009  -0.000001   0.000000   0.000000   0.000000
    28  H    0.000026  -0.000049  -0.000002   0.000001   0.000000   0.000001
              13         14         15         16         17         18
     1  C   -0.041793   0.212702  -0.138880   0.249951   0.430313   0.255342
     2  C   -0.024350   0.430141   0.227325   0.012007  -0.031107  -0.001097
     3  C    0.000819  -0.054223   0.006715   0.000744   0.000259   0.000047
     4  N   -0.000101  -0.002690  -0.001585  -0.000000  -0.000003   0.000083
     5  C    0.000130   0.000859   0.000132   0.000002   0.000001   0.000006
     6  N   -0.000282  -0.002943  -0.000103   0.000001  -0.000000  -0.000001
     7  C   -0.034503  -0.016466   0.002263   0.000051  -0.000029   0.000233
     8  C   -0.063000  -0.052144   0.000261  -0.000452  -0.000113  -0.000649
     9  C   -0.015513   0.003369   0.000013   0.001416  -0.000023  -0.000313
    10  N    0.083852  -0.001076  -0.000041  -0.000997   0.000019  -0.000080
    11  C    0.002216  -0.000902  -0.000011  -0.004732  -0.000009   0.000122
    12  O   -0.074146   0.001867  -0.000051   0.031001   0.000778   0.000801
    13  C    6.292775   0.165033   0.005378  -0.019437  -0.000513   0.001847
    14  C    0.165033   4.746419  -0.004918  -0.025681  -0.003577   0.001737
    15  C    0.005378  -0.004918   5.387269   0.010211  -0.038782  -0.080488
    16  H   -0.019437  -0.025681   0.010211   0.633104  -0.050375  -0.015030
    17  H   -0.000513  -0.003577  -0.038782  -0.050375   0.558659  -0.016480
    18  H    0.001847   0.001737  -0.080488  -0.015030  -0.016480   0.849700
    19  H    0.000002  -0.000000   0.000001   0.000000  -0.000000   0.000000
    20  H   -0.048020  -0.028669  -0.000181   0.003393  -0.000160   0.000046
    21  H   -0.003350  -0.000321  -0.000000   0.000010  -0.000001  -0.000001
    22  H    0.002489  -0.000001  -0.000000   0.000912   0.000005   0.000005
    23  H    0.175327  -0.004510  -0.000039   0.001264  -0.000052  -0.000066
    24  H   -0.041251  -0.001949  -0.000010   0.001979  -0.000041  -0.000109
    25  H   -0.008508   0.456538   0.021588   0.003120   0.004364  -0.024388
    26  H   -0.000132  -0.008597   0.449468   0.008142  -0.033263  -0.061453
    27  H   -0.000069  -0.000768   0.311406  -0.000806   0.007863   0.007041
    28  H   -0.000033  -0.001383   0.342471  -0.000943   0.003243   0.011151
              19         20         21         22         23         24
     1  C   -0.000001   0.000983   0.000031  -0.000240   0.003256   0.001930
     2  C   -0.000335  -0.002523  -0.000042   0.000000   0.000541   0.000128
     3  C    0.003912  -0.007313   0.000029  -0.000000  -0.000328   0.000013
     4  N   -0.031999   0.000327   0.000035   0.000000  -0.000015  -0.000001
     5  C    0.363429  -0.000098  -0.000141   0.000000   0.000016  -0.000001
     6  N   -0.043324   0.001464   0.004936   0.000000   0.000099   0.000037
     7  C    0.004691  -0.031626  -0.007801   0.000002   0.000303  -0.001016
     8  C   -0.000219   0.395229  -0.037749  -0.000244  -0.017992  -0.005565
     9  C    0.000009  -0.054782   0.358390   0.001322   0.031909  -0.010313
    10  N    0.000000  -0.017030  -0.032823  -0.074415  -0.082387   0.186377
    11  C    0.000000   0.002582  -0.000436   0.362884  -0.002349  -0.019687
    12  O    0.000000  -0.000641  -0.000034  -0.038058   0.002746   0.000092
    13  C    0.000002  -0.048020  -0.003350   0.002489   0.175327  -0.041251
    14  C   -0.000000  -0.028669  -0.000321  -0.000001  -0.004510  -0.001949
    15  C    0.000001  -0.000181  -0.000000  -0.000000  -0.000039  -0.000010
    16  H    0.000000   0.003393   0.000010   0.000912   0.001264   0.001979
    17  H   -0.000000  -0.000160  -0.000001   0.000005  -0.000052  -0.000041
    18  H    0.000000   0.000046  -0.000001   0.000005  -0.000066  -0.000109
    19  H    0.600002   0.000008   0.000002  -0.000000   0.000000   0.000000
    20  H    0.000008   0.603167   0.008019   0.000005   0.002530   0.005666
    21  H    0.000002   0.008019   0.512964  -0.000060   0.005034  -0.000180
    22  H   -0.000000   0.000005  -0.000060   0.600242  -0.000201  -0.002456
    23  H    0.000000   0.002530   0.005034  -0.000201   0.681663   0.080193
    24  H    0.000000   0.005666  -0.000180  -0.002456   0.080193   0.501811
    25  H    0.000012  -0.006191  -0.000077   0.000004   0.000341   0.000239
    26  H    0.000000   0.000021   0.000000  -0.000000   0.000004   0.000002
    27  H   -0.000000  -0.000011  -0.000000   0.000000  -0.000001  -0.000000
    28  H    0.000000  -0.000020  -0.000000   0.000000   0.000000  -0.000000
              25         26         27         28
     1  C   -0.073794  -0.095639   0.028442   0.001992
     2  C   -0.107108   0.013819  -0.053707  -0.018331
     3  C   -0.001537   0.000858  -0.003450  -0.001550
     4  N   -0.000749  -0.000013   0.000294   0.000203
     5  C    0.000710  -0.000000  -0.000010   0.000015
     6  N   -0.000625   0.000000   0.000002  -0.000001
     7  C   -0.005408  -0.000029  -0.000009   0.000026
     8  C   -0.028207  -0.000016  -0.000009  -0.000049
     9  C    0.003392   0.000006  -0.000001  -0.000002
    10  N    0.001465   0.000002   0.000000   0.000001
    11  C   -0.000013  -0.000002   0.000000   0.000000
    12  O    0.000085  -0.000021   0.000000   0.000001
    13  C   -0.008508  -0.000132  -0.000069  -0.000033
    14  C    0.456538  -0.008597  -0.000768  -0.001383
    15  C    0.021588   0.449468   0.311406   0.342471
    16  H    0.003120   0.008142  -0.000806  -0.000943
    17  H    0.004364  -0.033263   0.007863   0.003243
    18  H   -0.024388  -0.061453   0.007041   0.011151
    19  H    0.000012   0.000000  -0.000000   0.000000
    20  H   -0.006191   0.000021  -0.000011  -0.000020
    21  H   -0.000077   0.000000  -0.000000  -0.000000
    22  H    0.000004  -0.000000   0.000000   0.000000
    23  H    0.000341   0.000004  -0.000001   0.000000
    24  H    0.000239   0.000002  -0.000000  -0.000000
    25  H    0.590925   0.002384  -0.001964   0.002718
    26  H    0.002384   0.703385  -0.075706  -0.070990
    27  H   -0.001964  -0.075706   0.667656  -0.012279
    28  H    0.002718  -0.070990  -0.012279   0.593741
 Mulliken charges:
               1
     1  C   -0.399686
     2  C   -0.218868
     3  C    0.199500
     4  N   -0.331464
     5  C   -0.005859
     6  N   -0.351138
     7  C    0.248466
     8  C   -0.060832
     9  C   -0.144767
    10  N   -0.319574
    11  C    0.130058
    12  O   -0.146266
    13  C   -0.354865
    14  C    0.192152
    15  C   -0.499409
    16  H    0.161146
    17  H    0.169025
    18  H    0.071994
    19  H    0.103811
    20  H    0.173824
    21  H    0.193565
    22  H    0.147805
    23  H    0.122712
    24  H    0.304113
    25  H    0.170685
    26  H    0.167770
    27  H    0.126085
    28  H    0.150018
 Sum of Mulliken charges =  -0.00000
 Mulliken charges with hydrogens summed into heavy atoms:
               1
     1  C    0.002479
     2  C   -0.218868
     3  C    0.199500
     4  N   -0.331464
     5  C    0.097952
     6  N   -0.351138
     7  C    0.248466
     8  C    0.112992
     9  C    0.048798
    10  N   -0.015461
    11  C    0.277864
    12  O   -0.146266
    13  C   -0.232153
    14  C    0.362837
    15  C   -0.055536
 Electronic spatial extent (au):  <R**2>=           2983.1211
 Charge=             -0.0000 electrons
 Dipole moment (field-independent basis, Debye):
    X=              6.2867    Y=             -1.5471    Z=             -0.9408  Tot=              6.5423
 Quadrupole moment (field-independent basis, Debye-Ang):
   XX=            -97.2925   YY=            -83.7383   ZZ=            -87.8522
   XY=             -6.6705   XZ=              3.2457   YZ=             -4.9527
 Traceless Quadrupole moment (field-independent basis, Debye-Ang):
   XX=             -7.6648   YY=              5.8894   ZZ=              1.7754
   XY=             -6.6705   XZ=              3.2457   YZ=             -4.9527
 Octapole moment (field-independent basis, Debye-Ang**2):
  XXX=             70.4034  YYY=             20.4454  ZZZ=             -4.1539  XYY=             27.3716
  XXY=            -44.8247  XXZ=             -0.4459  XZZ=              9.3518  YZZ=             -1.2626
  YYZ=              1.0304  XYZ=             -0.2830
 Hexadecapole moment (field-independent basis, Debye-Ang**3):
 XXXX=          -2345.0916 YYYY=          -1323.6424 ZZZZ=           -203.0018 XXXY=            -17.5686
 XXXZ=             16.4594 YYYX=            -17.1055 YYYZ=            -28.7484 ZZZX=              3.7936
 ZZZY=            -12.0368 XXYY=           -652.3761 XXZZ=           -432.8142 YYZZ=           -260.3067
 XXYZ=             -9.3811 YYXZ=             18.3698 ZZXY=             -1.0002
 N-N= 1.001911566361D+03 E-N=-3.552744509623D+03  KE= 6.624363209668D+02
 PrsmSu:  requested number of processors reduced to:  13 ShMem   1 Linda.
 Calling FoFJK, ICntrl=      2127 FMM=F ISym2X=0 I1Cent= 0 IOpClX= 0 NMat=1 NMatS=1 NMatT=0.
 ***** Axes restored to original set *****
 -------------------------------------------------------------------
 Center     Atomic                   Forces (Hartrees/Bohr)
 Number     Number              X              Y              Z
 -------------------------------------------------------------------
      1        6          -0.318348907   -0.052630907   -0.118976491
      2        6           0.135684344    0.005765205    0.007108887
      3        6           0.076548367    0.001624276   -0.009104854
      4        7          -0.012366182   -0.025728218    0.027252536
      5        6           0.023050996    0.027762535    0.010043576
      6        7           0.042685017    0.025093997   -0.015782474
      7        6          -0.053268515   -0.017932481   -0.029036352
      8        6           0.025804720   -0.033101263    0.000254340
      9        6          -0.027577275    0.056679041    0.027457751
     10        7           0.031205929   -0.006835501    0.043385987
     11        6          -0.058848334   -0.003405716   -0.003580672
     12        8          -0.017667287    0.030418891   -0.022650271
     13        6           0.020841322   -0.002439072    0.042400735
     14        6           0.056042564    0.080121183   -0.019363338
     15        6           0.089872068   -0.187337740    0.021955639
     16        1          -0.025246558   -0.008328230    0.014481022
     17        1           0.014739918    0.004281169    0.018768986
     18        1          -0.033618580    0.000296656    0.057820233
     19        1          -0.001369058   -0.008882277    0.002191283
     20        1           0.037803205    0.013651396   -0.015979783
     21        1          -0.031012693   -0.014083024   -0.025751359
     22        1           0.032413730   -0.003464514   -0.013060748
     23        1           0.011559074   -0.036283657   -0.022693056
     24        1          -0.029573304    0.044127768    0.013072152
     25        1          -0.034030116    0.020222960    0.006539326
     26        1           0.024904679    0.024703829    0.011524866
     27        1           0.004583144    0.025588747   -0.023165007
     28        1           0.015187731    0.040114946    0.014887088
 -------------------------------------------------------------------
 Cartesian Forces:  Max     0.318348907 RMS     0.054009139

 GradGradGradGradGradGradGradGradGradGradGradGradGradGradGradGradGradGrad
 Berny optimization.
 FormGI is forming the generalized inverse of G from B-inverse, IUseBI=4.
 Internal  Forces:  Max     0.301568133 RMS     0.070292551
 Search for a local minimum.
 Step number   1 out of a maximum of  135
 All quantities printed in internal units (Hartrees-Bohrs-Radians)
 Mixed Optimization -- RFO/linear search
 Second derivative matrix not updated -- first step.
 ITU=  0
     Eigenvalues ---    0.00230   0.00230   0.00230   0.00327   0.00412
     Eigenvalues ---    0.00431   0.00484   0.01289   0.01374   0.01646
     Eigenvalues ---    0.01849   0.02027   0.02145   0.02280   0.02515
     Eigenvalues ---    0.02627   0.03034   0.03087   0.03400   0.03843
     Eigenvalues ---    0.05040   0.05212   0.05462   0.06187   0.06716
     Eigenvalues ---    0.09941   0.10965   0.11520   0.13434   0.13583
     Eigenvalues ---    0.13619   0.14538   0.15876   0.15983   0.15991
     Eigenvalues ---    0.16000   0.16000   0.16000   0.16000   0.16000
     Eigenvalues ---    0.16000   0.17402   0.17761   0.18550   0.19588
     Eigenvalues ---    0.21642   0.22001   0.22283   0.22464   0.22817
     Eigenvalues ---    0.22876   0.23071   0.24560   0.24681   0.24812
     Eigenvalues ---    0.26044   0.27851   0.28314   0.28443   0.30033
     Eigenvalues ---    0.30296   0.33268   0.33576   0.33798   0.33826
     Eigenvalues ---    0.34550   0.34669   0.37397   0.37718   0.42744
     Eigenvalues ---    0.45290   0.48474   0.60498   0.60809   0.66946
     Eigenvalues ---    0.69947   0.77141   1.02519
 RFO step:  Lambda=-6.60495190D-01 EMin= 2.30000000D-03
 Linear search not attempted -- first point.
 Maximum step size (   0.300) exceeded in Quadratic search.
    -- Step size scaled by   0.417
 Iteration  1 RMS(Cart)=  0.25320399 RMS(Int)=  0.00868518
 Iteration  2 RMS(Cart)=  0.02900041 RMS(Int)=  0.00044533
 Iteration  3 RMS(Cart)=  0.00030708 RMS(Int)=  0.00043297
 Iteration  4 RMS(Cart)=  0.00000018 RMS(Int)=  0.00043297
 Variable       Old X    -DE/DX   Delta X   Delta X   Delta X     New X
                                 (Linear)    (Quad)   (Total)
    R1        2.39495   0.29386   0.00000   0.08550   0.08550   2.48045
    R2        2.08052   0.01469   0.00000   0.00614   0.00614   2.08667
    R3        2.01952   0.00334   0.00000   0.00135   0.00135   2.02086
    R4        2.50389  -0.05482   0.00000  -0.02737  -0.02737   2.47652
    R5        2.67987   0.07962   0.00000   0.03049   0.03049   2.71036
    R6        2.50305   0.29146   0.00000   0.09572   0.09572   2.59878
    R7        3.42008   0.02618   0.00000   0.01369   0.01369   3.43378
    R8        2.61529   0.00706   0.00000   0.00223   0.00227   2.61755
    R9        2.85267   0.08140   0.00000   0.03570   0.03573   2.88840
   R10        2.47211  -0.00354   0.00000  -0.00185  -0.00193   2.47018
   R11        2.59672  -0.01812   0.00000  -0.00678  -0.00686   2.58986
   R12        2.06411  -0.00462   0.00000  -0.00191  -0.00191   2.06220
   R13        2.42134   0.06379   0.00000   0.01968   0.01976   2.44110
   R14        2.74777   0.00850   0.00000   0.00341   0.00341   2.75119
   R15        2.45833   0.10059   0.00000   0.03151   0.03151   2.48984
   R16        2.07672  -0.02854   0.00000  -0.01191  -0.01191   2.06481
   R17        3.05100   0.00251   0.00000   0.00118   0.00118   3.05218
   R18        2.17881  -0.03709   0.00000  -0.01635  -0.01635   2.16245
   R19        2.79510   0.02544   0.00000   0.01052   0.01052   2.80562
   R20        2.07625   0.03236   0.00000   0.01350   0.01350   2.08975
   R21        2.27647  -0.02619   0.00000  -0.00647  -0.00647   2.26999
   R22        2.19166  -0.03079   0.00000  -0.01366  -0.01366   2.17800
   R23        2.43723  -0.04467   0.00000  -0.02168  -0.02171   2.41551
   R24        2.47403   0.03280   0.00000   0.01613   0.01615   2.49018
   R25        2.08583  -0.01612   0.00000  -0.00676  -0.00676   2.07906
   R26        2.18158  -0.03627   0.00000  -0.01601  -0.01601   2.16556
   R27        2.23326  -0.03019   0.00000  -0.01366  -0.01366   2.21960
   R28        2.14598  -0.01888   0.00000  -0.00818  -0.00818   2.13779
   R29        2.23581   0.02050   0.00000   0.01095   0.01096   2.24678
    A1        1.76261   0.04230   0.00000   0.02110   0.02099   1.78360
    A2        2.50774  -0.05900   0.00000  -0.02995  -0.02991   2.47784
    A3        1.59471   0.06938   0.00000   0.03562   0.03570   1.63041
    A4        1.83660  -0.00677   0.00000  -0.00386  -0.00396   1.83264
    A5        1.51459  -0.01477   0.00000  -0.00757  -0.00792   1.50667
    A6        1.99958  -0.01187   0.00000  -0.00557  -0.00541   1.99418
    A7        1.68979   0.01278   0.00000   0.01460   0.01643   1.70622
    A8        2.19062  -0.05622   0.00000  -0.02887  -0.03071   2.15991
    A9        1.41174   0.14244   0.00000   0.07569   0.07662   1.48836
   A10        2.37867  -0.15787   0.00000  -0.07295  -0.07286   2.30580
   A11        2.12476   0.17168   0.00000   0.07819   0.07805   2.20280
   A12        1.77311  -0.01648   0.00000  -0.00688  -0.00687   1.76624
   A13        1.81379   0.04128   0.00000   0.01727   0.01729   1.83108
   A14        2.07072  -0.01429   0.00000  -0.00761  -0.00771   2.06301
   A15        2.18620  -0.00048   0.00000  -0.00009  -0.00004   2.18616
   A16        2.02465   0.01497   0.00000   0.00780   0.00784   2.03249
   A17        1.75074   0.03297   0.00000   0.01614   0.01621   1.76694
   A18        1.93959  -0.04052   0.00000  -0.01693  -0.01693   1.92267
   A19        2.15845   0.15904   0.00000   0.07212   0.07210   2.23056
   A20        2.17476  -0.11875   0.00000  -0.05536  -0.05529   2.11947
   A21        2.16086  -0.04540   0.00000  -0.02066  -0.02066   2.14019
   A22        2.16673   0.02669   0.00000   0.01372   0.01374   2.18047
   A23        1.76463   0.03586   0.00000   0.01836   0.01834   1.78297
   A24        1.86662   0.14472   0.00000   0.06862   0.06857   1.93519
   A25        2.13608  -0.06356   0.00000  -0.02923  -0.02947   2.10661
   A26        2.11365  -0.05820   0.00000  -0.02695  -0.02688   2.08677
   A27        1.37276   0.02988   0.00000   0.01817   0.01809   1.39084
   A28        1.69043   0.04660   0.00000   0.02676   0.02673   1.71716
   A29        2.20302   0.04119   0.00000   0.01945   0.01944   2.22245
   A30        2.04690  -0.03762   0.00000  -0.01840  -0.01839   2.02850
   A31        2.02617  -0.00488   0.00000  -0.00175  -0.00175   2.02442
   A32        1.73412   0.30157   0.00000   0.14284   0.14163   1.87575
   A33        2.11717  -0.01922   0.00000  -0.00450  -0.00575   2.11142
   A34        1.82061  -0.08051   0.00000  -0.03254  -0.03439   1.78622
   A35        2.43963   0.01803   0.00000   0.00922   0.00923   2.44885
   A36        1.67028   0.00016   0.00000   0.00028   0.00021   1.67049
   A37        2.25529  -0.05389   0.00000  -0.02755  -0.02756   2.22773
   A38        1.57493   0.00881   0.00000   0.00520   0.00517   1.58010
   A39        1.54474   0.03343   0.00000   0.01693   0.01693   1.56167
   A40        1.73315   0.00559   0.00000   0.00231   0.00223   1.73538
   A41        1.62588   0.02446   0.00000   0.01150   0.01144   1.63732
   A42        2.69699  -0.01203   0.00000  -0.00644  -0.00638   2.69061
   A43        3.06318   0.07648   0.00000   0.04493   0.04482   3.10800
   A44        3.27959  -0.07316   0.00000  -0.04598  -0.04587   3.23372
    D1        2.68043  -0.07434   0.00000  -0.04193  -0.04249   2.63794
    D2       -1.62757   0.03730   0.00000   0.01998   0.02024  -1.60733
    D3        0.31152  -0.05037   0.00000  -0.02793  -0.02840   0.28313
    D4        2.28671   0.06128   0.00000   0.03398   0.03433   2.32105
    D5       -2.08459  -0.07540   0.00000  -0.04247  -0.04267  -2.12726
    D6       -0.10940   0.03624   0.00000   0.01944   0.02006  -0.08934
    D7       -2.71816  -0.09024   0.00000  -0.05098  -0.05091  -2.76907
    D8        0.57240  -0.06448   0.00000  -0.03456  -0.03446   0.53794
    D9       -1.25824   0.09155   0.00000   0.05117   0.05107  -1.20717
   D10        2.03232   0.11731   0.00000   0.06759   0.06752   2.09984
   D11        3.07762   0.06006   0.00000   0.03674   0.03785   3.11547
   D12        0.88131  -0.01835   0.00000  -0.00765  -0.00692   0.87439
   D13        0.89626   0.11367   0.00000   0.06509   0.06436   0.96062
   D14       -1.30005   0.03525   0.00000   0.02069   0.01959  -1.28046
   D15       -2.66377  -0.06158   0.00000  -0.03772  -0.03723  -2.70100
   D16        1.92382  -0.08007   0.00000  -0.04851  -0.04802   1.87580
   D17        0.05760  -0.06869   0.00000  -0.04213  -0.04169   0.01592
   D18       -1.05974   0.06284   0.00000   0.03792   0.03746  -1.02228
   D19       -2.75533   0.04435   0.00000   0.02713   0.02667  -2.72866
   D20        1.66164   0.05574   0.00000   0.03351   0.03300   1.69464
   D21       -2.77159   0.00625   0.00000   0.00546   0.00442  -2.76717
   D22        0.24079  -0.00182   0.00000  -0.00229  -0.00223   0.23856
   D23        2.65217  -0.01681   0.00000  -0.00990  -0.01052   2.64165
   D24       -0.63761  -0.03130   0.00000  -0.01713  -0.01760  -0.65521
   D25       -0.38453   0.01829   0.00000   0.00950   0.00944  -0.37510
   D26        2.60888   0.00380   0.00000   0.00228   0.00236   2.61123
   D27       -0.06492   0.00097   0.00000   0.00076   0.00061  -0.06431
   D28        3.14025  -0.00348   0.00000  -0.00153  -0.00151   3.13875
   D29       -0.17802  -0.00274   0.00000  -0.00070  -0.00054  -0.17856
   D30        2.90581   0.00085   0.00000   0.00115   0.00117   2.90698
   D31        0.32876  -0.00736   0.00000  -0.00447  -0.00448   0.32428
   D32       -2.66299  -0.02107   0.00000  -0.01018  -0.01062  -2.67361
   D33        2.36777   0.02207   0.00000   0.01343   0.01347   2.38124
   D34       -0.02757  -0.02097   0.00000  -0.01314  -0.01316  -0.04073
   D35       -0.94193   0.01684   0.00000   0.01059   0.01060  -0.93133
   D36        2.94592  -0.02621   0.00000  -0.01599  -0.01602   2.92990
   D37       -2.27448  -0.05933   0.00000  -0.03527  -0.03506  -2.30954
   D38        0.28055  -0.03424   0.00000  -0.02077  -0.02093   0.25962
   D39        0.25745  -0.01909   0.00000  -0.01122  -0.01106   0.24638
   D40        2.81248   0.00600   0.00000   0.00328   0.00307   2.81555
   D41        1.82978   0.01457   0.00000   0.00841   0.00795   1.83773
   D42       -0.73438  -0.00664   0.00000  -0.00433  -0.00441  -0.73879
   D43        0.27077   0.00463   0.00000   0.00289   0.00336   0.27413
   D44       -3.05879   0.04289   0.00000   0.02619   0.02662  -3.03217
   D45       -2.23390  -0.05580   0.00000  -0.03385  -0.03401  -2.26791
   D46        0.71973  -0.01753   0.00000  -0.01056  -0.01075   0.70898
   D47       -1.54943  -0.00060   0.00000  -0.00142  -0.00172  -1.55115
   D48        1.45878  -0.01380   0.00000  -0.00839  -0.00864   1.45014
   D49       -1.62170  -0.02981   0.00000  -0.01871  -0.01866  -1.64036
   D50       -1.39533  -0.03364   0.00000  -0.02116  -0.02111  -1.41644
   D51        1.38190   0.04336   0.00000   0.02727   0.02721   1.40911
   D52        1.60826   0.03953   0.00000   0.02482   0.02477   1.63303
         Item               Value     Threshold  Converged?
 Maximum Force            0.301568     0.000450     NO 
 RMS     Force            0.070293     0.000300     NO 
 Maximum Displacement     1.164946     0.001800     NO 
 RMS     Displacement     0.275971     0.001200     NO 
 Predicted change in Energy=-2.604458D-01
 GradGradGradGradGradGradGradGradGradGradGradGradGradGradGradGradGradGrad

                          Input orientation:                          
 ---------------------------------------------------------------------
 Center     Atomic      Atomic             Coordinates (Angstroms)
 Number     Number       Type             X           Y           Z
 ---------------------------------------------------------------------
      1          6           0        0.403711   -0.378478    0.459636
      2          6           0        2.480496    0.017407    0.937452
      3          6           0        3.369461    1.096911    0.618829
      4          7           0        4.751297    1.178142    0.568134
      5          6           0        5.018000    2.452218    0.687612
      6          7           0        3.968012    3.331150    0.744664
      7          6           0        2.978819    2.562454    0.429563
      8          6           0        1.775309    3.091543   -0.195873
      9          6           0        1.088509    4.091552    0.318198
     10          7           0       -0.489617    3.749299    0.350864
     11          6           0       -1.903023    3.298451    0.407984
     12          8           0       -2.315136    2.176315    0.290000
     13          6           0       -0.035806    2.333132    1.321233
     14          6           0        1.360041    0.507854    0.308761
     15          6           0        2.248643   -1.444245   -0.116865
     16          1           0       -0.503033    0.251427    0.441532
     17          1           0        0.133611   -1.235909    1.038825
     18          1           0        0.226842   -0.522943   -0.830834
     19          1           0        6.018154    2.888723    0.692268
     20          1           0        0.990595    2.485446   -0.654958
     21          1           0        1.540377    4.750531    1.137361
     22          1           0       -2.677626    4.090073    0.726870
     23          1           0        0.184459    3.040928    2.362575
     24          1           0       -0.239276    3.631207    1.421509
     25          1           0        1.743548    0.762524   -0.690484
     26          1           0        1.468067   -2.251339   -0.346082
     27          1           0        2.827157   -2.187527    0.584882
     28          1           0        2.762387   -1.677275   -1.097446
 ---------------------------------------------------------------------
                    Distance matrix (angstroms):
                    1          2          3          4          5
     1  C    0.000000
     2  C    2.167503   0.000000
     3  C    3.316291   1.434262   0.000000
     4  N    4.619128   2.576866   1.385149   0.000000
     5  C    5.418162   3.525572   2.135245   1.307164   0.000000
     6  N    5.152360   3.637412   2.316446   2.297856   1.370494
     7  C    3.909113   2.642639   1.528476   2.253264   2.058398
     8  C    3.788405   3.351421   2.680227   3.619574   3.421159
     9  C    4.524391   4.349685   3.776374   4.686838   4.273732
    10  N    4.224738   4.805484   4.690358   5.841681   5.668304
    11  C    4.340910   5.500984   5.717546   6.985795   6.978171
    12  O    3.734685   5.298883   5.795506   7.142001   7.349089
    13  C    2.878950   3.441169   3.690184   4.981718   5.094764
    14  C    1.312598   1.375213   2.116813   3.466580   4.159897
    15  C    2.207258   1.817076   2.873143   3.689094   4.847571
    16  H    1.104216   3.033505   3.967681   5.336930   5.948601
    17  H    1.069394   2.662507   4.011131   5.231846   6.130489
    18  H    1.310521   2.915093   3.821191   5.032047   5.840588
    19  H    6.500053   4.562849   3.198681   2.132234   1.091268
    20  H    3.128707   3.293446   3.034727   4.165078   4.245420
    21  H    5.296985   4.829726   4.118661   4.836941   4.192658
    22  H    5.434519   6.575498   6.748182   7.980817   7.868086
    23  H    3.919386   4.055175   4.118749   5.248429   5.149291
    24  H    4.173273   4.548739   4.482180   5.625975   5.437607
    25  H    2.102338   1.936096   2.114169   3.286854   3.933987
    26  H    2.299923   2.796369   3.969526   4.834949   5.982809
    27  H    3.026786   2.259693   3.329081   3.876896   5.132016
    28  H    3.110422   2.663122   3.318169   3.857891   5.032588
                    6          7          8          9         10
     6  N    0.000000
     7  C    1.291775   0.000000
     8  C    2.397908   1.455865   0.000000
     9  C    3.008591   2.433890   1.317567   0.000000
    10  N    4.494483   3.666722   2.421045   1.615142   0.000000
    11  C    5.880771   4.937058   3.733307   3.096180   1.484669
    12  O    6.404553   5.309853   4.219651   3.905601   2.410498
    13  C    4.166417   3.152084   2.481317   2.315643   1.775694
    14  C    3.868142   2.618476   2.665061   3.593982   3.732288
    15  C    5.148092   4.109182   4.561102   5.672763   5.889800
    16  H    5.437539   4.179030   3.696402   4.158699   3.499073
    17  H    5.970526   4.784764   4.790250   5.460126   5.070898
    18  H    5.597551   4.322228   3.983143   4.832836   4.490187
    19  H    2.097992   3.068065   4.339546   5.088038   6.573297
    20  H    3.396935   2.266087   1.092652   1.880478   2.190898
    21  H    2.839413   2.712523   2.141250   1.144320   2.396230
    22  H    6.688855   5.866633   4.655872   3.788243   2.246083
    23  H    4.125183   3.431315   3.013141   2.469938   2.236771
    24  H    4.271934   3.533034   2.639264   1.786680   1.105847
    25  H    3.688594   2.453599   2.381171   3.539625   3.871984
    26  H    6.213183   5.104567   5.353816   6.388866   6.350269
    27  H    5.637631   4.754939   5.439167   6.520802   6.804532
    28  H    5.470943   4.511529   4.952653   6.171327   6.490057
                   11         12         13         14         15
    11  C    0.000000
    12  O    1.201228   0.000000
    13  C    2.291804   2.506666   0.000000
    14  C    4.294749   4.036216   2.511001   0.000000
    15  C    6.324948   5.839698   4.642780   2.186655   0.000000
    16  H    3.353425   2.647994   2.307742   1.885320   3.280066
    17  H    5.010615   4.266190   3.584203   2.253405   2.419170
    18  H    4.546872   3.873488   3.585741   1.909282   2.333716
    19  H    7.936860   8.373355   6.111850   5.245343   5.799872
    20  H    3.188079   3.452009   2.232046   2.230720   4.161093
    21  H    3.807562   4.712705   2.891709   4.326593   6.360030
    22  H    1.152546   1.996177   3.227897   5.413858   7.457123
    23  H    2.871293   3.360222   1.278235   3.466498   5.524967
    24  H    1.976364   2.776008   1.317746   3.681217   5.858033
    25  H    4.575482   4.408295   3.111256   1.100193   2.335378
    26  H    6.537051   5.858442   5.104797   2.837893   1.145967
    27  H    7.245816   6.750796   5.401401   3.081193   1.174562
    28  H    6.985000   6.523526   5.455571   2.952758   1.131271
                   16         17         18         19         20
    16  H    0.000000
    17  H    1.724600   0.000000
    18  H    1.658698   2.003157   0.000000
    19  H    7.038756   7.194479   6.891923   0.000000
    20  H    2.902422   4.177535   3.108802   5.220536   0.000000
    21  H    4.990155   6.150298   5.780026   4.869798   2.940286
    22  H    4.421027   6.030461   5.669417   8.778441   4.235578
    23  H    3.456063   4.477302   4.785481   6.070016   3.172368
    24  H    3.528859   4.896357   4.748398   6.343383   2.671529
    25  H    2.567062   3.094535   1.993118   4.970410   1.880601
    26  H    3.281678   2.174819   2.182425   6.942745   4.770798
    27  H    4.130280   2.892547   3.396576   5.996859   5.171734
    28  H    4.092836   3.415980   2.798670   5.886547   4.545688
                   21         22         23         24         25
    21  H    0.000000
    22  H    4.289086   0.000000
    23  H    2.502479   3.459446   0.000000
    24  H    2.121506   2.576555   1.188942   0.000000
    25  H    4.391640   5.712115   4.116194   4.076941   0.000000
    26  H    7.157655   7.651895   6.082151   6.375245   3.045961
    27  H    7.077972   8.350512   6.122156   6.630281   3.391692
    28  H    6.914070   8.135365   6.393660   6.598113   2.675121
                   26         27         28
    26  H    0.000000
    27  H    1.648603   0.000000
    28  H    1.602923   1.759199   0.000000
 Stoichiometry    C11H13N3O
 Framework group  C1[X(C11H13N3O)]
 Deg. of freedom    78
 Full point group                 C1      NOp   1
 Largest Abelian subgroup         C1      NOp   1
 Largest concise Abelian subgroup C1      NOp   1
                         Standard orientation:                         
 ---------------------------------------------------------------------
 Center     Atomic      Atomic             Coordinates (Angstroms)
 Number     Number       Type             X           Y           Z
 ---------------------------------------------------------------------
      1          6           0        0.436393    2.415174    0.193172
      2          6           0       -1.431142    1.386427    0.583120
      3          6           0       -1.958458    0.121401    0.160326
      4          7           0       -3.253724   -0.360289    0.065998
      5          6           0       -3.130746   -1.661553    0.082300
      6          7           0       -1.867440   -2.192519    0.101924
      7          6           0       -1.149753   -1.143258   -0.127551
      8          6           0        0.158936   -1.241414   -0.757822
      9          6           0        1.109608   -2.031406   -0.301622
     10          7           0        2.514922   -1.241774   -0.200341
     11          6           0        3.730617   -0.399392   -0.071038
     12          8           0        3.791583    0.800082   -0.093273
     13          6           0        1.657566   -0.105037    0.860724
     14          6           0       -0.213222    1.300770   -0.049765
     15          6           0       -1.639500    2.930460   -0.351929
     16          1           0        1.489291    2.084935    0.152642
     17          1           0        0.437642    3.265119    0.842168
     18          1           0        0.567345    2.707816   -1.077527
     19          1           0       -3.956303   -2.373068    0.026926
     20          1           0        0.730165   -0.395906   -1.148592
     21          1           0        0.870545   -2.857581    0.453197
     22          1           0        4.704035   -0.949494    0.208618
     23          1           0        1.653310   -0.926942    1.839672
     24          1           0        2.236726   -1.288659    0.868914
     25          1           0       -0.500051    1.024610   -1.075381
     26          1           0       -1.132751    3.947776   -0.498608
     27          1           0       -2.415215    3.411163    0.387522
     28          1           0       -2.195508    3.078612   -1.325931
 ---------------------------------------------------------------------
 Rotational constants (GHZ):           0.9207811           0.4733080           0.3268500
 Standard basis: 6-31G(2df,p) (6D, 7F)
 There are   530 symmetry adapted cartesian basis functions of A   symmetry.
 There are   485 symmetry adapted basis functions of A   symmetry.
   485 basis functions,   751 primitive gaussians,   530 cartesian basis functions
    54 alpha electrons       54 beta electrons
       nuclear repulsion energy       964.4886440220 Hartrees.
 NAtoms=   28 NActive=   28 NUniq=   28 SFac= 1.00D+00 NAtFMM=   60 NAOKFM=F Big=F
 Integral buffers will be    131072 words long.
[...]
 0000459,-0.00000346,-0.00001579,0.00002113,0.00001177,0.00111660,-0.00
 172915,0.00118350,0.08178647,0.06061134,0.08328828,-0.00000297,-0.0000
 0026,0.00000692,-0.00001884,-0.00002131,0.00001712,0.00001143,0.000084
 35,-0.00016281,-0.00003418,-0.00002385,0.00008090,0.00000055,0.0000352
 4,-0.00003200,-0.00003425,-0.00001222,0.00008655,-0.00009349,0.0000196
 6,-0.00000654,0.00047658,-0.00102916,0.00036567,0.00217923,0.00128043,
 -0.00409475,0.00702078,0.01170180,-0.01484660,-0.08984330,0.05933200,-
 0.04063816,0.02044221,0.00074945,-0.00147618,-0.00231107,-0.00076644,-
 0.00023651,0.00002421,-0.00000042,-0.00002317,0.00000071,0.00000265,-0
 .00000389,-0.00000057,-0.00000420,-0.00000122,-0.00000229,0.00000420,0
 .00000184,-0.00000443,-0.00000791,-0.00000543,-0.00000714,0.00000123,0
 .00000279,0.00022956,0.00004853,0.00011402,-0.00002796,-0.00034001,0.0
 0025389,0.06288474,-0.00001970,0.00001218,0.00000417,-0.00007507,-0.00
 005771,0.00005735,-0.00023670,0.00025150,0.00014524,0.00019178,0.00010
 299,0.00001114,0.00002944,-0.00007743,-0.00002266,0.00012108,0.0000308
 0,-0.00017323,0.00003985,-0.00000704,0.00008940,-0.00026621,-0.0008755
 8,-0.00028571,0.00004544,0.00147512,-0.00203005,-0.00091550,0.00674831
 ,-0.00225806,0.06157738,-0.18594486,0.09021783,0.01114311,-0.04688242,
 0.00531138,-0.00095573,0.00076653,-0.00038475,0.00009458,0.00001315,-0
 .00000988,-0.00001190,0.00001064,0.00000121,0.00000288,-0.00001725,0.0
 0000588,0.00000504,-0.00001066,-0.00000825,0.00000752,0.00001241,-0.00
 000839,0.00002400,-0.00001538,0.00002071,0.00000579,0.00041805,-0.0001
 4704,-0.00006078,-0.00015739,0.00015526,-0.07176505,0.22359696,0.00003
 986,-0.00000460,-0.00001115,0.00011819,0.00011683,-0.00009547,0.000343
 33,-0.00067105,-0.00008931,-0.00032047,-0.00013385,-0.00012689,-0.0000
 9620,0.00023399,0.00009703,0.00007177,0.00005367,0.00012696,-0.0002908
 4,0.00066751,0.00028719,-0.00000873,-0.00044053,-0.00033854,-0.0001449
 7,-0.00453119,0.00030801,-0.02393030,0.02270709,-0.01896345,-0.0380613
 6,0.08654604,-0.11551715,0.00072083,-0.01367346,0.01938943,0.00110197,
 0.00093104,-0.00092507,-0.00013926,-0.00000863,0.00006150,0.00003907,0
 .00000388,0.00000018,0.00000388,0.00002220,0.00000486,0.00000171,0.000
 01161,0.00000884,0.00002077,0.00003240,0.00001455,-0.00001420,0.000007
 92,-0.00000835,-0.00018587,0.00019582,-0.00010418,0.00019810,0.0007086
 2,-0.00103833,0.06080991,-0.09228492,0.11757127,0.00003407,0.00000056,
 -0.00003086,0.00008673,0.00012005,0.00001737,0.00040833,-0.00046458,-0
 .00115164,-0.00040054,-0.00052197,0.00024036,-0.00031610,0.00042046,0.
 00018306,0.00076500,-0.00011355,0.00009581,-0.00081436,0.00229754,-0.0
 0025618,-0.00221104,-0.00448943,0.00453674,-0.01556344,0.02880576,0.02
 837087,-0.00386135,-0.00246848,0.00365629,-0.00049161,-0.00141975,-0.0
 0006762,0.00049645,0.00035000,-0.00130045,-0.02321217,-0.01808924,-0.0
 2187605,-0.00015836,0.00004314,0.00009592,0.00006951,0.00001359,0.0000
 0928,0.00000550,0.00001693,0.00000894,0.00000341,-0.00000345,-0.000000
 69,0.00002477,0.00003913,0.00001688,-0.00000054,0.00001503,-0.00003320
 ,-0.00019592,0.00037288,0.00018524,0.00276794,0.00230427,-0.00245149,-
 0.00047037,0.00022350,-0.00006314,0.04154345,-0.00004845,0.00001559,-0
 .00000255,-0.00014088,-0.00017593,0.00008168,-0.00032328,0.00071713,0.
 00072159,0.00045295,0.00019072,-0.00011899,0.00005385,-0.00016991,-0.0
 0011684,0.00025150,-0.00008051,0.00004960,0.00015507,-0.00151590,-0.00
 015294,0.00337128,0.00084309,-0.00257307,-0.01158209,-0.01255748,-0.00
 321217,-0.00533602,0.00610244,0.02354616,-0.00421526,-0.00158857,-0.00
 071330,0.00136177,0.00249219,0.00084983,0.02014877,-0.20672934,-0.1497
 3185,0.00022716,0.00002694,-0.00001956,-0.00006961,0.00000237,-0.00001
 092,-0.00000395,-0.00004024,0.00000215,0.00000519,-0.00002795,-0.00001
 596,-0.00001361,-0.00001160,-0.00001294,0.00004269,-0.00001062,-0.0000
 1324,-0.00029023,0.00069241,0.00038770,0.00094477,0.00206716,0.0015705
 1,0.00042047,-0.00003383,-0.00021150,-0.00823709,0.20699363,-0.0000060
 2,0.00000393,-0.00000972,0.00001131,0.00002162,0.00002787,-0.00003005,
 0.00018270,-0.00019265,0.00014553,-0.00002368,0.00012307,0.00000832,-0
 .00007026,-0.00000286,0.00000543,0.00007775,0.00003112,-0.00027399,-0.
 00018424,-0.00047718,0.00104947,0.00012162,0.00157648,-0.00053545,-0.0
 0213114,-0.00083316,0.00057889,-0.01601047,-0.02101587,0.00390958,-0.0
 0022519,0.00037337,-0.00097750,-0.00085166,-0.00153312,0.00910764,-0.1
 1332906,-0.12860733,-0.00001216,0.00001232,0.00002173,0.00000658,0.000
 00398,0.00000101,0.00000062,-0.00000272,0.00000436,0.00000093,-0.00000
 460,-0.00000488,0.00000573,0.00000570,-0.00000047,0.00001152,0.0000040
 7,-0.00001498,-0.00001846,0.00016702,0.00005076,0.00002996,0.00104927,
 0.00019363,-0.00062448,0.00029292,-0.00007736,-0.01080740,0.13127364,0
 .14914302,0.00006249,-0.00001167,-0.00000383,0.00014114,0.00011171,-0.
 00017582,0.00057104,-0.00136008,0.00029937,-0.00072555,-0.00036173,-0.
 00048247,-0.00038188,0.00059900,0.00027441,0.00032799,-0.00017642,-0.0
 0007478,-0.00037472,0.00192170,0.00086470,-0.00116776,0.00041116,-0.00
 481434,0.00447590,0.02276770,0.00585319,-0.04761988,-0.07941945,-0.034
 23955,-0.00317114,-0.01339789,0.00707841,0.00233441,-0.00039649,-0.004
 35892,-0.00373904,-0.01262303,0.00326967,-0.00013016,-0.00000071,0.000
 08212,0.00004055,0.00001116,-0.00000854,0.00000097,0.00002411,0.000007
 01,0.00000553,0.00001218,0.00000886,0.00002252,0.00004101,0.00002075,-
 0.00002061,-0.00000651,0.00004347,-0.00011899,0.00005396,0.00025954,-0
 .00035589,-0.00089898,0.00066786,-0.00042005,0.00080406,-0.00017618,0.
 00153707,0.00280943,-0.00158187,0.04877755,0.00001148,-0.00000548,-0.0
 0000391,0.00000275,-0.00000613,-0.00001502,0.00003887,-0.00003508,-0.0
 0012458,-0.00010859,0.00004139,0.00006130,0.00003244,0.00006585,-0.000
 01278,-0.00002883,0.00013170,0.00017111,-0.00062665,-0.00017136,0.0000
 8886,0.00042866,-0.00034429,0.00018878,-0.00483046,-0.00824464,-0.0006
 7570,-0.07496189,-0.41634640,-0.03929353,0.00153435,-0.00481530,0.0028
 0278,-0.00181425,0.00076128,-0.00128164,0.00023522,-0.00360412,0.00461
 419,-0.00003063,0.00000601,-0.00000018,0.00001580,-0.00000118,0.000002
 07,0.00000131,0.00001249,-0.00000226,-0.00000135,0.00000547,0.00000449
 ,0.00000332,0.00000432,0.00000554,-0.00001603,0.00001308,-0.00001933,0
 .00001811,0.00002551,-0.00003897,-0.00004332,0.00086933,-0.00012866,0.
 00028668,0.00063986,-0.00028339,0.00078700,0.00278643,-0.00038179,0.07
 906644,0.42821706,0.00002188,-0.00000201,0.00000429,0.00007362,0.00007
 363,-0.00004740,0.00037992,-0.00050690,-0.00011816,-0.00023384,-0.0002
 3248,-0.00011689,-0.00012453,0.00023176,0.00008380,0.00010876,0.000043
 23,-0.00009199,-0.00035270,0.00043239,0.00007933,0.00146369,-0.0010148
 7,-0.00101155,0.00378242,0.01288108,-0.00395224,-0.02649993,-0.0274073
 8,-0.04979027,-0.00033701,-0.03511406,0.00265991,-0.00505270,-0.000702
 92,-0.00735609,-0.00062106,0.01628262,-0.00229759,-0.00005689,-0.00004
 434,0.00002045,0.00002205,-0.00000167,0.00000078,0.00000379,0.00000760
 ,0.00000252,-0.00000172,0.00001185,0.00000861,0.00001048,0.00001557,0.
 00000050,-0.00000255,-0.00000600,0.00002523,-0.00015521,0.00004703,0.0
 0003951,-0.00061527,0.00080519,0.00101277,0.00039176,0.00135929,-0.000
 58908,0.00063163,-0.00147093,0.00123003,0.02717955,0.03430123,0.060199
 07,0.00714079,-0.01120067,-0.01237166,-0.00991250,0.01437233,0.0222197
 8,-0.00173166,0.00426778,-0.00199431,-0.00093759,-0.00140299,-0.000348
 11,-0.00040350,0.00088685,0.00078987,0.00076805,-0.00000599,-0.0001400
 1,-0.00076712,-0.00047893,0.00001914,0.00059550,0.00065047,-0.00014731
 ,0.00008414,-0.00009986,-0.00017661,-0.00015351,0.00017540,-0.00020179
 ,0.00012005,0.00016051,0.00019419,-0.00007949,-0.00012299,-0.00005901,
 0.00013745,-0.00008516,-0.00000956,-0.08513870,0.05097317,0.07772759,0
 .00119850,-0.00554604,0.00508165,0.00038003,0.00009462,0.00044671,-0.0
 0116920,-0.00372936,-0.00013456,0.00085908,0.00111498,0.00012312,0.000
 00311,-0.00004356,-0.00002231,0.00040376,0.00096424,0.00011175,-0.0000
 1842,0.00000166,0.00001938,0.00000584,-0.00000787,-0.00003102,-0.00003
 283,-0.00000206,-0.00000112,-0.00006196,-0.00000188,-0.00000707,0.0896
 8842,0.00911301,-0.01384593,-0.01989518,-0.00537489,0.00851498,0.00730
 302,0.00043384,-0.00075725,0.00315799,0.00099529,0.00070433,0.00042036
 ,0.00033638,-0.00042411,-0.00039976,-0.00033939,-0.00000088,-0.0002559
 8,0.00013470,-0.00100007,0.00001343,0.00023591,-0.00260943,0.00062374,
 0.00001208,-0.00033023,0.00019576,-0.00002266,-0.00008701,0.00003075,-
 0.00001773,-0.00007342,-0.00004939,-0.00001110,0.00006165,-0.00000109,
 -0.00004925,0.00005295,0.00002237,0.05441610,-0.14066384,-0.12303427,-
 0.00474886,0.00192704,-0.00336610,0.00054191,0.00074951,0.00062294,-0.
 00348423,-0.00331129,-0.00065091,-0.00050256,0.00075016,-0.00004547,0.
 00001212,0.00002444,-0.00002654,0.00010495,-0.00225150,0.00035743,0.00
 000425,0.00000652,-0.00003191,0.00000094,0.00001325,0.00000179,0.00000
 176,0.00003000,0.00000160,0.00002058,-0.00000826,0.00000900,-0.0517174
 2,0.15202576,0.00259933,-0.00303724,-0.00149105,0.00628289,-0.01311202
 ,-0.00960531,-0.00303138,0.00179881,-0.00280329,-0.00079381,-0.0008943
 3,0.00006465,-0.00056373,0.00049803,0.00063949,0.00058370,0.00038294,0
 .00019356,-0.00045218,0.00064022,0.00044498,0.00118802,-0.00004863,0.0
 0051579,-0.00054307,-0.00009015,-0.00014355,0.00001231,0.00010640,-0.0
 0007429,0.00002045,0.00020548,0.00005395,0.00002765,-0.00019189,0.0000
 5645,0.00010928,-0.00003668,-0.00003996,0.08219537,-0.11797501,-0.1984
 5410,0.00528111,-0.00131636,0.00646303,-0.00046128,-0.00087389,0.00032
 145,-0.00012261,-0.00071894,0.00160142,0.00017563,0.00034353,0.0003458
 3,-0.00001775,0.00002394,-0.00006534,-0.00076251,0.00053952,-0.0000933
 4,0.00004362,-0.00015482,-0.00006431,0.00000942,-0.00004512,-0.0000051
 6,-0.00002309,-0.00006417,-0.00000780,-0.00001819,0.00001941,-0.000009
 17,-0.09180427,0.13423375,0.20318671,-0.00162057,0.00031513,0.00135306
 ,0.00739775,0.01661102,0.00136718,-0.00237317,0.00123135,0.00259199,-0
 .00008755,-0.00105881,-0.00060080,0.00028766,0.00038097,0.00002523,0.0
 0028875,-0.00003966,-0.00017946,0.00038681,0.00023932,0.00017416,0.000
 02328,-0.00000134,0.00002314,-0.00001553,0.00000081,0.00001784,0.00000
 657,-0.00002125,0.00000450,-0.00000622,0.00002127,-0.00000221,0.000005
 84,-0.00001915,-0.00000045,-0.00000323,0.00000613,0.00000734,0.0003297
 4,-0.00045480,-0.00054005,-0.08802778,-0.09680815,-0.01539321,0.000127
 91,-0.00004441,-0.00008866,-0.00246039,-0.00091540,0.00121239,0.000135
 82,-0.00010571,-0.00032973,-0.00000603,-0.00000533,-0.00001349,-0.0000
 0227,-0.00000212,-0.00003410,-0.00000098,0.00000200,-0.00000185,0.0000
 0018,-0.00000514,0.00000305,-0.00000532,-0.00000614,-0.00000339,0.0000
 0261,0.00000311,0.00000306,0.00028990,-0.00017088,-0.00011668,0.095143
 27,-0.00073294,-0.00027104,0.00035500,-0.00596801,-0.01355149,-0.00192
 425,0.00159532,-0.00069397,-0.00180519,0.00053140,0.00032579,-0.000008
 99,0.00027582,0.00008003,-0.00011761,-0.00015831,-0.00070347,-0.000007
 11,-0.00053672,0.00006323,-0.00020715,-0.00017820,0.00002087,-0.000013
 68,0.00005440,0.00014449,-0.00008842,0.00006419,-0.00007407,0.00015156
 ,-0.00008873,-0.00005253,-0.00014231,0.00007228,0.00003422,0.00006320,
 -0.00004893,0.00000347,-0.00001998,-0.00158438,-0.00072525,0.00036279,
 -0.09452469,-0.27166878,-0.03602755,-0.00013386,0.00025963,0.00032519,
 -0.00064929,0.00115491,0.00090018,-0.00012727,0.00035718,0.00034274,-0
 .00002294,-0.00004521,0.00000214,-0.00002486,0.00000239,-0.00001353,-0
 .00000288,0.00000041,0.00000700,-0.00000028,-0.00001330,0.00002115,0.0
 0001467,-0.00003821,-0.00000352,0.00001850,0.00001185,0.00001417,0.000
 04635,0.00013325,0.00003535,0.10700489,0.29484922,0.00039380,0.0001428
 4,-0.00064101,-0.01092065,-0.02060776,-0.00411082,0.00350898,-0.002439
 47,-0.00197661,0.00004498,0.00001256,0.00031582,0.00028325,0.00006024,
 -0.00009836,-0.00007194,-0.00080851,-0.00017750,-0.00087443,-0.0002735
 5,-0.00004052,-0.00011516,-0.00002888,-0.00004093,0.00006136,0.0001018
 7,-0.00006947,0.00003958,-0.00004533,0.00009580,-0.00004385,-0.0000428
 7,-0.00009090,0.00002910,0.00002383,0.00004232,-0.00003181,-0.00000374
 ,-0.00002156,-0.00120971,0.00009566,0.00077756,-0.01382799,-0.03345537
 ,-0.05242150,0.00001249,0.00015950,0.00013270,0.00142475,0.00054280,0.
 00033606,-0.00013618,0.00016753,0.00028091,-0.00002543,-0.00003357,-0.
 00000334,0.00000253,-0.00000879,0.00001460,-0.00000584,0.00000302,0.00
 000570,0.00000211,-0.00000744,0.00001330,0.00001366,-0.00002520,-0.000
 00097,0.00001560,0.00000538,0.00000625,-0.00024298,0.00015694,0.000042
 73,0.01283174,0.03968808,0.05448399,-0.00027058,0.00027183,-0.00019575
 ,-0.01812647,0.00320426,0.00010655,-0.00114539,-0.00119064,0.00010581,
 0.00039176,-0.00172689,-0.00092400,0.00048392,0.00009832,-0.00016953,0
 .00010808,-0.00045032,-0.00011885,-0.00029820,0.00014644,0.00004270,-0
 .00005462,0.00001602,0.00000062,0.00000709,-0.00003232,0.00001452,0.00
 001069,0.00000703,0.00001297,-0.00000425,-0.00004349,-0.00002023,-0.00
 000194,0.00003834,0.00000459,-0.00000536,0.00000836,0.00000226,0.00059
 603,0.00218907,0.00032831,-0.28912930,0.02251116,-0.07342664,-0.000014
 91,-0.00004463,-0.00000485,0.00012472,0.00011887,-0.00001364,-0.000062
 96,0.00000769,0.00012886,-0.00000335,-0.00001497,-0.00000166,0.0000511
 5,-0.00003196,-0.00001173,0.00000285,0.00001826,0.00000699,-0.00000188
 ,0.00000678,0.00000073,0.00000280,0.00000778,0.00000391,0.00000009,-0.
 00000136,-0.00000184,0.00005515,-0.00055833,0.00085034,-0.00931120,0.0
 0138100,-0.00291338,0.31683977,-0.00020127,-0.00050296,-0.00006221,0.0
 1630797,-0.00155684,0.00544274,0.00139823,0.00091509,-0.00005149,0.000
 04162,-0.00091954,-0.00025189,-0.00072288,-0.00047178,-0.00008441,-0.0
 0037086,0.00066458,0.00029616,-0.00035004,0.00036441,-0.00000750,0.000
 30142,0.00006627,0.00006448,-0.00015152,-0.00008900,0.00005642,-0.0000
 5121,0.00006249,-0.00012674,0.00006845,0.00009234,0.00012757,-0.000041
 56,-0.00006732,-0.00005223,0.00006257,-0.00000161,0.00001709,0.0002872
 8,-0.00247033,-0.00173412,0.02131753,-0.04792763,0.00512292,0.00000083
 ,0.00014774,0.00008601,0.00024833,0.00042814,0.00028883,-0.00010524,0.
 00022486,0.00038066,0.00001055,0.00005763,0.00000761,-0.00007565,0.000
 08670,0.00003714,0.00002020,-0.00003443,-0.00001532,0.,0.00000147,-0.0
 0001769,-0.00001989,0.00002377,-0.00000032,-0.00002029,-0.00000714,-0.
 00001097,-0.00040157,0.00091962,-0.00111470,-0.02818768,0.00402740,-0.
 00862922,-0.02557356,0.04822453,0.00044221,-0.00062757,0.00021739,0.02
 639229,-0.00282006,0.00567208,-0.00001898,0.00074233,0.00082301,-0.000
 22312,-0.00050003,-0.00107760,-0.00019621,-0.00020082,-0.00015018,-0.0
 0013686,0.00025781,0.00019350,0.00009513,0.00000142,-0.00003471,0.0000
 6120,0.00004622,0.00005035,-0.00006032,-0.00000972,0.00000341,-0.00001
 360,0.00001169,0.,0.00000926,-0.00000984,-0.00000687,-0.00001935,0.000
 00689,0.00001346,0.00001853,0.00000995,-0.00000059,0.00053427,-0.00260
 665,-0.00185559,-0.07299860,0.00622381,-0.06368640,-0.00003499,0.00007
 100,0.00005410,-0.00008112,0.00004684,0.00015056,0.00011808,0.00011217
 ,-0.00004256,0.00000883,0.00002070,0.00000302,-0.00005069,0.00007893,-
 0.00000132,0.00001145,-0.00002164,-0.00000380,0.00000161,0.00000165,-0
 .00000484,-0.00000696,0.00000429,0.00000047,-0.00000519,-0.00000314,-0
 .00000030,-0.00035291,0.00111832,-0.00175862,-0.00236446,0.00081543,-0
 .00215280,0.07659808,-0.00518316,0.07218823,0.00033077,-0.00014077,0.0
 0044869,-0.00220376,-0.00754302,0.01827004,-0.00049939,-0.00101714,-0.
 00069500,0.00063985,0.00015742,0.00049832,0.00008658,-0.00044240,-0.00
 002403,-0.00019779,0.00006914,0.00003432,-0.00014752,0.00021570,-0.000
 18113,-0.00001711,0.00002751,-0.00001446,-0.00002874,-0.00010126,0.000
 08527,-0.00002693,0.00004236,-0.00015136,0.00005861,0.00012331,0.00015
 882,-0.00001341,-0.00009485,-0.00008815,0.00001836,-0.00001306,0.00002
 771,-0.00027535,0.00160948,0.00146996,-0.04109739,-0.00012834,-0.00331
 554,-0.00016818,-0.00002348,0.00009466,0.00020315,-0.00001402,0.000063
 44,0.00001035,0.00002662,-0.00002403,0.00000298,0.00000866,-0.00000335
 ,0.00001934,0.00001862,0.00003026,-0.00000270,0.00000811,0.00000353,-0
 .00000323,-0.00000257,-0.00001065,-0.00001107,0.00001597,-0.00000352,-
 0.00001224,-0.00000033,-0.00001028,-0.00132327,0.00063346,-0.00066856,
 -0.00050584,-0.00627655,0.01175542,-0.00024369,0.01620825,-0.02772758,
 0.04540763,-0.00033039,0.00008669,-0.00049539,-0.00164913,0.00960354,-
 0.01628402,0.00069742,0.00035820,-0.00078760,0.00001785,0.00021968,0.0
 0024817,-0.00009258,-0.00019906,0.00002843,-0.00006009,0.00020101,-0.0
 0002757,-0.00006495,0.00027905,0.00049709,0.00024170,-0.00011717,-0.00
 000558,-0.00002160,0.00002693,-0.00005854,-0.00000928,0.00000428,0.000
 01098,0.00001182,-0.00000449,-0.00000676,-0.00001800,-0.00000098,0.000
 01178,0.00001313,-0.00000685,-0.00001196,0.00067422,-0.00139570,-0.001
 25757,0.00103410,-0.11140848,0.11122744,-0.00003825,0.00025124,0.00018
 253,0.00019510,0.00033057,0.00016932,-0.00002043,0.00007700,0.00005674
 ,0.00000231,0.00000048,0.00000484,-0.00003295,-0.00001869,0.00000090,0
 .00000645,-0.00001803,-0.00000501,0.00000345,-0.00000037,-0.00000076,0
 .00000118,-0.00000380,0.00000051,0.00000054,-0.00000226,-0.00000110,0.
 00113800,-0.00055022,0.00084657,0.00202994,-0.01363104,0.02524947,-0.0
 0036272,-0.00225844,0.00241318,-0.00336684,0.11817693,-0.00035815,0.00
 016048,-0.00060181,0.00200485,0.00792312,-0.02060898,0.00235641,0.0015
 6042,0.00040860,-0.00115762,-0.00053196,0.00070734,-0.00016394,0.00023
 743,0.00011623,0.00010384,0.00006016,-0.00009203,0.00002134,-0.0002120
 5,0.00004592,0.00018015,-0.00006566,0.00004105,-0.00004444,0.00014169,
 -0.00011463,0.00002683,-0.00005388,0.00015053,-0.00004190,-0.00007268,
 -0.00014602,0.00000396,0.00004654,0.00008758,-0.00000152,0.00000743,-0
 .00003520,-0.00032738,-0.00249931,-0.00122157,-0.00356919,0.11279492,-
 0.24031650,0.00006170,0.00017009,0.00006962,-0.00001653,0.00015352,0.0
 0003776,0.00003394,0.00006434,0.00004006,-0.00001336,-0.00000571,-0.00
 001930,-0.00008328,-0.00000581,0.00001951,0.00001779,-0.00003484,-0.00
 001214,0.00000722,-0.00000792,0.00001122,0.00000673,-0.00002102,0.0000
 0143,0.00001518,-0.00000027,0.00000767,0.00131144,-0.00051261,0.000685
 27,0.00005387,-0.00270469,0.00529855,-0.00040515,0.00541435,-0.0085933
 9,-0.00002280,-0.12200610,0.26403322\\-0.00001551,-0.00000646,0.000004
 27,-0.00001478,-0.00000290,-0.00000321,0.00001468,0.00000152,0.0000132
 3,-0.00000816,-0.00000986,-0.00001204,0.00000118,0.00001231,0.00002520
 ,0.00000258,-0.00000389,-0.00000906,-0.00000495,0.00000707,-0.00000770
 ,-0.00000971,0.00003240,0.00001471,0.00000066,-0.00003231,-0.00000710,
 -0.00000547,-0.00001192,-0.00000265,-0.00000064,0.00002766,0.00002354,
 0.00000294,-0.00001972,-0.00000852,0.00000662,-0.00000521,0.00000194,0
 .00000817,0.00001220,-0.00000079,0.00000308,-0.00000516,-0.00000239,0.
 00000058,-0.00000072,-0.00000190,0.00000160,0.00000046,-0.00000210,0.0
 0000836,-0.00000420,-0.00000153,0.00000029,-0.00000003,-0.00000358,0.0
 0000147,-0.00000082,-0.00000278,-0.00000234,-0.00000216,-0.00000219,0.
 00000123,-0.00000355,-0.00000456,0.00000532,0.00000340,-0.00001591,0.0
 0000240,0.00000925,0.00000557,0.00000291,0.00000088,0.00000025,-0.0000
 0127,0.00000027,-0.00000030,-0.00000112,0.00000114,-0.00000017,-0.0000
 0014,0.00000038,-0.00000023\\\@


 In the beginning the Universe was created.
 This has made a lot of people very angry
 and been widely regarded as a bad move.
                               -D.Adams
 Job cpu time:       0 days  7 hours 57 minutes 46.0 seconds.
 Elapsed time:       0 days  2 hours  0 minutes 13.7 seconds.
 File lengths (MBytes):  RWF=    480 Int=      0 D2E=      0 Chk=     20 Scr=      1
 Normal termination of Gaussian 16 at Thu May 18 22:56:01 2023.
### All Done ###
