### Starting Gaussian ###
 Entering Gaussian System, Link 0=g16
 Initial command:
 /cluster/software/gaussian/gaussian-16-A.03/avx2/g16/l1.exe "/local/scratch/cz9n3/Gau-6043.inp" -scrdir="/local/scratch/cz9n3/"
 Entering Link 1 = /cluster/software/gaussian/gaussian-16-A.03/avx2/g16/l1.exe PID=      6044.
  
 Copyright (c) 1988,1990,1992,1993,1995,1998,2003,2009,2016,
            Gaussian, Inc.  All Rights Reserved.
  
 This is part of the Gaussian(R) 16 program.  It is based on
 the Gaussian(R) 09 system (copyright 2009, Gaussian, Inc.),
 the Gaussian(R) 03 system (copyright 2003, Gaussian, Inc.),
 the Gaussian(R) 98 system (copyright 1998, Gaussian, Inc.),
 the Gaussian(R) 94 system (copyright 1995, Gaussian, Inc.),
 the Gaussian 92(TM) system (copyright 1992, Gaussian, Inc.),
 the Gaussian 90(TM) system (copyright 1990, Gaussian, Inc.),
 the Gaussian 88(TM) system (copyright 1988, Gaussian, Inc.),
 the Gaussian 86(TM) system (copyright 1986, Carnegie Mellon
 University), and the Gaussian 82(TM) system (copyright 1983,
 Carnegie Mellon University). Gaussian is a federally registered
 trademark of Gaussian, Inc.
  
 This software contains proprietary and confidential information,
 including trade secrets, belonging to Gaussian, Inc.
  
 This software is provided under written license and may be
 used, copied, transmitted, or stored only in accord with that
 written license.
  
 The following legend is applicable only to US Government
 contracts under FAR:
  
                    RESTRICTED RIGHTS LEGEND
  
 Use, reproduction and disclosure by the US Government is
 subject to restrictions as set forth in subparagraphs (a)
 and (c) of the Commercial Computer Software - Restricted
 Rights clause in FAR 52.227-19.
  
 Gaussian, Inc.
 340 Quinnipiac St., Bldg. 40, Wallingford CT 06492
  
  
 ---------------------------------------------------------------
 Warning -- This program may not be used in any manner that
 competes with the business of Gaussian, Inc. or will provide
 assistance to any competitor of Gaussian, Inc.  The licensee
 of this program is prohibited from giving any competitor of
 Gaussian, Inc. access to this program.  By using this program,
 the user acknowledges that Gaussian, Inc. is engaged in the
 business of creating and licensing software in the field of
 computational chemistry and represents and warrants to the
 licensee that it is not a competitor of Gaussian, Inc. and that
 it will not use this program in any manner prohibited above.
 ---------------------------------------------------------------
  

 Cite this work as:
 Gaussian 16, Revision A.03,
 M. J. Frisch, G. W. Trucks, H. B. Schlegel, G. E. Scuseria, 
 M. A. Robb, J. R. Cheeseman, G. Scalmani, V. Barone, 
 G. A. Petersson, H. Nakatsuji, X. Li, M. Caricato, A. V. Marenich, 
 J. Bloino, B. G. Janesko, R. Gomperts, B. Mennucci, H. P. Hratchian, 
 J. V. Ortiz, A. F. Izmaylov, J. L. Sonnenberg, D. Williams-Young, 
 F. Ding, F. Lipparini, F. Egidi, J. Goings, B. Peng, A. Petrone, 
 T. Henderson, D. Ranasinghe, V. G. Zakrzewski, J. Gao, N. Rega, 
 G. Zheng, W. Liang, M. Hada, M. Ehara, K. Toyota, R. Fukuda, 
 J. Hasegawa, M. Ishida, T. Nakajima, Y. Honda, O. Kitao, H. Nakai, 
 T. Vreven, K. Throssell, J. A. Montgomery, Jr., J. E. Peralta, 
 F. Ogliaro, M. J. Bearpark, J. J. Heyd, E. N. Brothers, K. N. Kudin, 
 V. N. Staroverov, T. A. Keith, R. Kobayashi, J. Normand, 
 K. Raghavachari, A. P. Rendell, J. C. Burant, S. S. Iyengar, 
 J. Tomasi, M. Cossi, J. M. Millam, M. Klene, C. Adamo, R. Cammi, 
 J. W. Ochterski, R. L. Martin, K. Morokuma, O. Farkas, 
 J. B. Foresman, and D. J. Fox, Gaussian, Inc., Wallingford CT, 2016.
 
 ******************************************
 Gaussian 16:  ES64L-G16RevA.03 25-Dec-2016
                16-May-2023 
 ******************************************
 %chk=CC1d[C]CqdOrC2dCdCdCCdCCqdC1r[N]C2dO.chk
 %NProcShared=20
 Will use up to   20 processors via shared memory.
 -----------------------------
 # opt freq b3lyp/6-31g(2df,p)
 -----------------------------
 1/18=20,19=15,26=3,38=1/1,3;
 2/9=110,12=2,17=6,18=5,40=1/2;
 3/5=1,6=6,7=104,11=2,25=1,30=1,71=1,74=-5/1,2,3;
 4//1;
 5/5=2,38=5/2;
 6/7=2,8=2,9=2,10=2,28=1/1;
 7//1,2,3,16;
 1/18=20,19=15,26=3/3(2);
 2/9=110/2;
 99//99;
 2/9=110/2;
 3/5=1,6=6,7=104,11=2,25=1,30=1,71=1,74=-5/1,2,3;
 4/5=5,16=3,69=1/1;
 5/5=2,38=5/2;
 7//1,2,3,16;
 1/18=20,19=15,26=3/3(-5);
 2/9=110/2;
 6/7=2,8=2,9=2,10=2,19=2,28=1/1;
 99/9=1/99;
 -------------------
 Title Card Required
 -------------------
 Symbolic Z-matrix:
 Charge =  0 Multiplicity = 1
 C                     1.10193  -0.09061   0.04915 
 C                     2.58484  -0.17691   0.14406 
 C                     3.48956  -1.14216   0.16268 
 C                     4.96273  -1.36311  -0.13093 
 O                     5.72679  -1.29529   0.83222 
 C                     5.66498  -1.40951  -1.49723 
 C                     5.68938  -2.60214  -1.96797 
 C                     5.06342  -3.46237  -2.53729 
 C                     4.01796  -3.44761  -3.25971 
 C                     3.3032   -1.95803  -3.34146 
 C                     3.28087  -0.61909  -2.74833 
 C                     3.88911   0.55335  -1.61461 
 C                     3.21262   0.96181  -0.48507 
 N                     5.18812   0.89016  -1.85082 
 C                     5.69238  -0.16352  -2.47807 
 O                     5.86519  -0.19317  -3.69621 
 H                     0.66225  -1.0813   -0.00515 
 H                     0.7714    0.47493  -0.84131 
 H                     0.69847   0.45211   0.91393 
 H                     4.0136   -4.372    -3.90328 
 H                     2.6782   -2.17738  -4.22217 
 H                     3.06712   0.24756  -3.40099 
 H                     3.51072   1.70774   0.29183 
 

 GradGradGradGradGradGradGradGradGradGradGradGradGradGradGradGradGradGrad
 Berny optimization.
 Initialization pass.
                           ----------------------------
                           !    Initial Parameters    !
                           ! (Angstroms and Degrees)  !
 --------------------------                            --------------------------
 ! Name  Definition              Value          Derivative Info.                !
 --------------------------------------------------------------------------------
 ! R1    R(1,2)                  1.4884         estimate D2E/DX2                !
 ! R2    R(1,17)                 1.0852         estimate D2E/DX2                !
 ! R3    R(1,18)                 1.1054         estimate D2E/DX2                !
 ! R4    R(1,19)                 1.0978         estimate D2E/DX2                !
 ! R5    R(2,3)                  1.3231         estimate D2E/DX2                !
 ! R6    R(2,13)                 1.4445         estimate D2E/DX2                !
 ! R7    R(3,4)                  1.5183         estimate D2E/DX2                !
 ! R8    R(4,5)                  1.2313         estimate D2E/DX2                !
 ! R9    R(4,6)                  1.5369         estimate D2E/DX2                !
 ! R10   R(6,7)                  1.2824         estimate D2E/DX2                !
 ! R11   R(6,15)                 1.586          estimate D2E/DX2                !
 ! R12   R(7,8)                  1.2066         estimate D2E/DX2                !
 ! R13   R(8,9)                  1.2709         estimate D2E/DX2                !
 ! R14   R(9,10)                 1.6542         estimate D2E/DX2                !
 ! R15   R(9,20)                 1.1264         estimate D2E/DX2                !
 ! R16   R(10,11)                1.4646         estimate D2E/DX2                !
 ! R17   R(10,21)                1.102          estimate D2E/DX2                !
 ! R18   R(11,12)                1.7407         estimate D2E/DX2                !
 ! R19   R(11,22)                1.1058         estimate D2E/DX2                !
 ! R20   R(12,13)                1.3785         estimate D2E/DX2                !
 ! R21   R(12,14)                1.3626         estimate D2E/DX2                !
 ! R22   R(13,23)                1.1175         estimate D2E/DX2                !
 ! R23   R(14,15)                1.3259         estimate D2E/DX2                !
 ! R24   R(15,16)                1.2307         estimate D2E/DX2                !
 ! A1    A(2,1,17)             110.7262         estimate D2E/DX2                !
 ! A2    A(2,1,18)             112.2665         estimate D2E/DX2                !
 ! A3    A(2,1,19)             110.1563         estimate D2E/DX2                !
 ! A4    A(17,1,18)            107.7932         estimate D2E/DX2                !
 ! A5    A(17,1,19)            109.9876         estimate D2E/DX2                !
 ! A6    A(18,1,19)            105.7676         estimate D2E/DX2                !
 ! A7    A(1,2,3)              136.4226         estimate D2E/DX2                !
 ! A8    A(1,2,13)             111.0697         estimate D2E/DX2                !
 ! A9    A(3,2,13)             106.5027         estimate D2E/DX2                !
 ! A10   A(2,3,4)              140.0771         estimate D2E/DX2                !
 ! A11   A(3,4,5)              116.2833         estimate D2E/DX2                !
 ! A12   A(3,4,6)              128.2904         estimate D2E/DX2                !
 ! A13   A(5,4,6)              114.4264         estimate D2E/DX2                !
 ! A14   A(4,6,7)              111.2907         estimate D2E/DX2                !
 ! A15   A(4,6,15)             122.2743         estimate D2E/DX2                !
 ! A16   A(7,6,15)             120.2179         estimate D2E/DX2                !
 ! A17   A(6,7,8)              145.7247         estimate D2E/DX2                !
 ! A18   A(7,8,9)              133.3685         estimate D2E/DX2                !
 ! A19   A(8,9,10)             113.2036         estimate D2E/DX2                !
 ! A20   A(8,9,20)             108.569          estimate D2E/DX2                !
 ! A21   A(10,9,20)            135.1616         estimate D2E/DX2                !
 ! A22   A(9,10,11)            144.0755         estimate D2E/DX2                !
 ! A23   A(9,10,21)             96.0454         estimate D2E/DX2                !
 ! A24   A(11,10,21)           119.8003         estimate D2E/DX2                !
 ! A25   A(10,11,12)           150.9516         estimate D2E/DX2                !
 ! A26   A(10,11,22)           118.713          estimate D2E/DX2                !
 ! A27   A(12,11,22)            85.6453         estimate D2E/DX2                !
 ! A28   A(11,12,13)           124.1787         estimate D2E/DX2                !
 ! A29   A(11,12,14)           112.7499         estimate D2E/DX2                !
 ! A30   A(13,12,14)           122.4549         estimate D2E/DX2                !
 ! A31   A(2,13,12)            109.6676         estimate D2E/DX2                !
 ! A32   A(2,13,23)            109.8364         estimate D2E/DX2                !
 ! A33   A(12,13,23)           129.5319         estimate D2E/DX2                !
 ! A34   A(12,14,15)           104.3679         estimate D2E/DX2                !
 ! A35   A(6,15,14)            108.9775         estimate D2E/DX2                !
 ! A36   A(6,15,16)            126.5582         estimate D2E/DX2                !
 ! A37   A(14,15,16)           122.7385         estimate D2E/DX2                !
 ! D1    D(17,1,2,3)             0.9898         estimate D2E/DX2                !
 ! D2    D(17,1,2,13)          148.8213         estimate D2E/DX2                !
 ! D3    D(18,1,2,3)          -119.5399         estimate D2E/DX2                !
 ! D4    D(18,1,2,13)           28.2917         estimate D2E/DX2                !
 ! D5    D(19,1,2,3)           122.8741         estimate D2E/DX2                !
 ! D6    D(19,1,2,13)          -89.2944         estimate D2E/DX2                !
 ! D7    D(1,2,3,4)            156.9897         estimate D2E/DX2                !
 ! D8    D(13,2,3,4)             8.1986         estimate D2E/DX2                !
 ! D9    D(1,2,13,12)         -112.2587         estimate D2E/DX2                !
 ! D10   D(1,2,13,23)           99.7993         estimate D2E/DX2                !
 ! D11   D(3,2,13,12)           45.2355         estimate D2E/DX2                !
 ! D12   D(3,2,13,23)         -102.7064         estimate D2E/DX2                !
 ! D13   D(2,3,4,5)             95.5401         estimate D2E/DX2                !
 ! D14   D(2,3,4,6)            -72.2862         estimate D2E/DX2                !
 ! D15   D(3,4,6,7)            -89.9835         estimate D2E/DX2                !
 ! D16   D(3,4,6,15)            62.2642         estimate D2E/DX2                !
 ! D17   D(5,4,6,7)            102.0018         estimate D2E/DX2                !
 ! D18   D(5,4,6,15)          -105.7505         estimate D2E/DX2                !
 ! D19   D(4,6,7,8)             79.4466         estimate D2E/DX2                !
 ! D20   D(15,6,7,8)           -73.4487         estimate D2E/DX2                !
 ! D21   D(4,6,15,14)            7.8868         estimate D2E/DX2                !
 ! D22   D(4,6,15,16)         -157.3469         estimate D2E/DX2                !
 ! D23   D(7,6,15,14)          157.748          estimate D2E/DX2                !
 ! D24   D(7,6,15,16)           -7.4857         estimate D2E/DX2                !
 ! D25   D(6,7,8,9)             19.7862         estimate D2E/DX2                !
 ! D26   D(7,8,9,10)            -5.5159         estimate D2E/DX2                !
 ! D27   D(7,8,9,20)           157.796          estimate D2E/DX2                !
 ! D28   D(8,9,10,11)          -12.6809         estimate D2E/DX2                !
 ! D29   D(8,9,10,21)          163.6546         estimate D2E/DX2                !
 ! D30   D(20,9,10,11)        -169.9714         estimate D2E/DX2                !
 ! D31   D(20,9,10,21)           6.3641         estimate D2E/DX2                !
 ! D32   D(9,10,11,12)           2.6656         estimate D2E/DX2                !
 ! D33   D(9,10,11,22)         146.5613         estimate D2E/DX2                !
 ! D34   D(21,10,11,12)       -173.134          estimate D2E/DX2                !
 ! D35   D(21,10,11,22)        -29.2383         estimate D2E/DX2                !
 ! D36   D(10,11,12,13)       -107.2445         estimate D2E/DX2                !
 ! D37   D(10,11,12,14)         63.9232         estimate D2E/DX2                !
 ! D38   D(22,11,12,13)        103.9736         estimate D2E/DX2                !
 ! D39   D(22,11,12,14)        -84.8588         estimate D2E/DX2                !
 ! D40   D(11,12,13,2)          40.9661         estimate D2E/DX2                !
 ! D41   D(11,12,13,23)       -179.3763         estimate D2E/DX2                !
 ! D42   D(14,12,13,2)        -129.3736         estimate D2E/DX2                !
 ! D43   D(14,12,13,23)         10.284          estimate D2E/DX2                !
 ! D44   D(11,12,14,15)        -25.4792         estimate D2E/DX2                !
 ! D45   D(13,12,14,15)        145.8628         estimate D2E/DX2                !
 ! D46   D(12,14,15,6)         -64.209          estimate D2E/DX2                !
 ! D47   D(12,14,15,16)        101.704          estimate D2E/DX2                !
 --------------------------------------------------------------------------------
 Trust Radius=3.00D-01 FncErr=1.00D-07 GrdErr=1.00D-06 EigMax=2.50D+02 EigMin=1.00D-04
 Number of steps in this run=    118 maximum allowed number of steps=    138.
 GradGradGradGradGradGradGradGradGradGradGradGradGradGradGradGradGradGrad

                          Input orientation:                          
 ---------------------------------------------------------------------
 Center     Atomic      Atomic             Coordinates (Angstroms)
 Number     Number       Type             X           Y           Z
 ---------------------------------------------------------------------
      1          6           0        1.101930   -0.090610    0.049150
      2          6           0        2.584840   -0.176910    0.144060
      3          6           0        3.489560   -1.142160    0.162680
      4          6           0        4.962730   -1.363110   -0.130930
      5          8           0        5.726790   -1.295290    0.832220
      6          6           0        5.664980   -1.409510   -1.497230
      7          6           0        5.689380   -2.602140   -1.967970
      8          6           0        5.063420   -3.462370   -2.537290
      9          6           0        4.017960   -3.447610   -3.259710
     10          6           0        3.303200   -1.958030   -3.341460
     11          6           0        3.280870   -0.619090   -2.748330
     12          6           0        3.889110    0.553350   -1.614610
     13          6           0        3.212620    0.961810   -0.485070
     14          7           0        5.188120    0.890160   -1.850820
     15          6           0        5.692380   -0.163520   -2.478070
     16          8           0        5.865190   -0.193170   -3.696210
     17          1           0        0.662250   -1.081300   -0.005150
     18          1           0        0.771400    0.474930   -0.841310
     19          1           0        0.698470    0.452110    0.913930
     20          1           0        4.013600   -4.372000   -3.903280
     21          1           0        2.678200   -2.177380   -4.222170
     22          1           0        3.067120    0.247560   -3.400990
     23          1           0        3.510720    1.707740    0.291830
 ---------------------------------------------------------------------
                    Distance matrix (angstroms):
                    1          2          3          4          5
     1  C    0.000000
     2  C    1.488448   0.000000
     3  C    2.611403   1.323092   0.000000
     4  C    4.069086   2.671526   1.518307   0.000000
     5  O    4.842911   3.405318   2.340284   1.231278   0.000000
     6  C    4.995219   3.701405   2.749405   1.536907   2.333068
     7  C    5.605466   4.469964   3.392701   2.331937   3.090359
     8  C    5.809633   4.911949   3.892332   3.194933   4.060775
     9  C    5.542674   4.933251   4.160175   3.876467   4.929145
    10  C    4.452986   3.979608   3.602689   3.662714   4.871613
    11  C    3.585103   3.007640   2.964984   3.198906   4.388634
    12  C    3.309253   2.308099   2.488605   2.650808   3.575124
    13  C    2.418262   1.444505   2.218776   2.931476   3.626404
    14  N    4.611805   3.448949   3.327103   2.843598   3.502151
    15  C    5.240648   4.066024   3.575432   2.735045   3.498586
    16  O    6.060271   5.050607   4.629820   3.859328   4.662671
    17  H    1.085234   2.129915   2.832941   4.311539   5.137757
    18  H    1.105443   2.164351   3.318338   4.631444   5.521800
    19  H    1.097802   2.132313   3.300948   4.750860   5.323916
    20  H    6.513818   6.001758   5.219053   4.917814   5.901366
    21  H    5.008334   4.803599   4.577870   4.756086   5.968152
    22  H    3.984946   3.602797   3.848314   4.108636   5.232045
    23  H    3.015829   2.104993   2.852903   3.423036   3.771098
                    6          7          8          9         10
     6  C    0.000000
     7  C    1.282403   0.000000
     8  C    2.378620   1.206626   0.000000
     9  C    3.157984   2.275315   1.270864   0.000000
    10  C    3.046320   2.827580   2.451143   1.654211   0.000000
    11  C    2.806064   3.215955   3.362479   2.967379   1.464603
    12  C    2.649587   3.650062   4.284431   4.327891   3.103600
    13  C    3.558328   4.586401   5.216362   5.271640   4.085662
    14  N    2.375059   3.530035   4.408096   4.708555   3.726542
    15  C    1.585966   2.491401   3.358796   3.768274   3.110288
    16  O    2.520928   2.969993   3.560000   3.767515   3.131193
    17  H    5.230806   5.606929   5.608166   5.239501   4.344449
    18  H    5.284739   5.909674   6.066310   5.636943   4.310459
    19  H    5.826280   6.522497   6.803445   6.606520   5.540915
    20  H    4.158423   3.112245   1.948199   1.126365   2.578286
    21  H    4.115310   3.785372   3.190501   2.082011   1.101993
    22  H    3.622024   4.129235   4.300555   3.818159   2.218987
    23  H    4.190324   5.331822   6.094656   6.280793   5.165436
                   11         12         13         14         15
    11  C    0.000000
    12  C    1.740659   0.000000
    13  C    2.761566   1.378528   0.000000
    14  N    2.592482   1.362594   2.402708   0.000000
    15  C    2.469001   2.123970   3.374556   1.325882   0.000000
    16  O    2.785425   2.965677   4.322213   2.244436   1.230694
    17  H    3.820451   3.959175   3.302879   5.270356   5.679777
    18  H    3.336322   3.213138   2.514660   4.549609   5.225193
    19  H    4.607430   4.072339   2.921976   5.290812   6.068262
    20  H    3.994388   5.432548   6.385551   5.769092   4.749824
    21  H    2.227932   3.965168   4.909790   4.618745   4.022785
    22  H    1.105774   1.990057   3.005647   2.704552   2.812963
    23  H    3.835302   2.260599   1.117519   2.841313   3.991691
                   16         17         18         19         20
    16  O    0.000000
    17  H    6.440752   0.000000
    18  H    5.877373   1.770008   0.000000
    19  H    6.954479   1.788118   1.756903   0.000000
    20  H    4.575356   6.103742   6.586369   7.580741   0.000000
    21  H    3.790861   4.800907   4.701154   6.100252   2.588695
    22  H    2.847910   4.368180   3.445866   4.926548   4.742199
    23  H    5.006141   3.997590   3.210561   3.142032   7.403720
                   21         22         23
    21  H    0.000000
    22  H    2.589581   0.000000
    23  H    6.013605   3.995726   0.000000
 Stoichiometry    C13H7NO2
 Framework group  C1[X(C13H7NO2)]
 Deg. of freedom    63
 Full point group                 C1      NOp   1
 Largest Abelian subgroup         C1      NOp   1
 Largest concise Abelian subgroup C1      NOp   1
                         Standard orientation:                         
 ---------------------------------------------------------------------
 Center     Atomic      Atomic             Coordinates (Angstroms)
 Number     Number       Type             X           Y           Z
 ---------------------------------------------------------------------
      1          6           0       -3.229662    1.565038   -0.239622
      2          6           0       -2.401166    0.340309   -0.410243
      3          6           0       -1.415209   -0.047191   -1.202901
      4          6           0       -0.271868   -1.045647   -1.236239
      5          8           0       -0.497002   -2.113508   -1.806355
      6          6           0        1.043293   -1.014358   -0.441597
      7          6           0        1.958595   -0.383244   -1.080718
      8          6           0        2.400858    0.698959   -1.379358
      9          6           0        2.267090    1.862673   -0.886435
     10          6           0        1.169487    1.924709    0.349621
     11          6           0        0.102648    1.184116    1.026701
     12          6           0       -0.873319   -0.244449    1.217966
     13          6           0       -2.199873   -0.330642    0.853047
     14          7           0       -0.144931   -1.334330    1.589817
     15          6           0        1.077348   -1.081386    1.142586
     16          8           0        1.985038   -0.686137    1.873671
     17          1           0       -2.951695    2.321145   -0.966788
     18          1           0       -3.119888    2.008100    0.767180
     19          1           0       -4.294513    1.318792   -0.342693
     20          1           0        3.144932    2.491235   -1.207373
     21          1           0        1.495865    2.899847    0.745818
     22          1           0       -0.025969    1.315663    2.117063
     23          1           0       -2.907839   -1.190638    0.942709
 ---------------------------------------------------------------------
 Rotational constants (GHZ):           0.8265569           0.5446208           0.5335834
 Standard basis: 6-31G(2df,p) (6D, 7F)
 There are   531 symmetry adapted cartesian basis functions of A   symmetry.
 There are   483 symmetry adapted basis functions of A   symmetry.
   483 basis functions,   753 primitive gaussians,   531 cartesian basis functions
    54 alpha electrons       54 beta electrons
       nuclear repulsion energy      1012.2845844906 Hartrees.
 NAtoms=   23 NActive=   23 NUniq=   23 SFac= 1.00D+00 NAtFMM=   60 NAOKFM=F Big=F
 Integral buffers will be    131072 words long.
 Raffenetti 2 integral format.
 Two-electron integral symmetry is turned on.
 One-electron integrals computed using PRISM.
 PrsmSu:  requested number of processors reduced to:  12 ShMem   1 Linda.
 NBasis=   483 RedAO= T EigKep=  2.01D-04  NBF=   483
 NBsUse=   483 1.00D-06 EigRej= -1.00D+00 NBFU=   483
 ExpMin= 1.61D-01 ExpMax= 5.48D+03 ExpMxC= 8.25D+02 IAcc=3 IRadAn=         5 AccDes= 0.00D+00
 Harris functional with IExCor=  402 and IRadAn=       5 diagonalized for initial guess.
 HarFok:  IExCor=  402 AccDes= 0.00D+00 IRadAn=         5 IDoV= 1 UseB2=F ITyADJ=14
 ICtDFT=  3500011 ScaDFX=  1.000000  1.000000  1.000000  1.000000
 FoFCou: FMM=F IPFlag=           0 FMFlag=      100000 FMFlg1=           0
         NFxFlg=           0 DoJE=T BraDBF=F KetDBF=T FulRan=T
         wScrn=  0.000000 ICntrl=       500 IOpCl=  0 I1Cent=   200000004 NGrid=           0
         NMat0=    1 NMatS0=      1 NMatT0=    0 NMatD0=    1 NMtDS0=    0 NMtDT0=    0
 Petite list used in FoFCou.
 Requested convergence on RMS density matrix=1.00D-08 within 128 cycles.
 Requested convergence on MAX density matrix=1.00D-06.
 Requested convergence on             energy=1.00D-06.
 No special actions if energy rises.
 Integral accuracy reduced to 1.0D-05 until final iterations.
 EnCoef did     3 forward-backward iterations
 EnCoef did     4 forward-backward iterations
 EnCoef did    14 forward-backward iterations
 EnCoef did     4 forward-backward iterations
 EnCoef did     5 forward-backward iterations
 Initial convergence to 1.0D-05 achieved.  Increase integral accuracy.
 SCF Done:  E(RB3LYP) =  -704.206783795     A.U. after   28 cycles
            NFock= 28  Conv=0.91D-08     -V/T= 2.0073

 **********************************************************************

            Population analysis using the SCF density.

 **********************************************************************

 Orbital symmetries:
       Occupied  (A) (A) (A) (A) (A) (A) (A) (A) (A) (A) (A) (A)
                 (A) (A) (A) (A) (A) (A) (A) (A) (A) (A) (A) (A)
                 (A) (A) (A) (A) (A) (A) (A) (A) (A) (A) (A) (A)
                 (A) (A) (A) (A) (A) (A) (A) (A) (A) (A) (A) (A)
                 (A) (A) (A) (A) (A) (A)
       Virtual   (A) (A) (A) (A) (A) (A) (A) (A) (A) (A) (A) (A)
                 (A) (A) (A) (A) (A) (A) (A) (A) (A) (A) (A) (A)
                 (A) (A) (A) (A) (A) (A) (A) (A) (A) (A) (A) (A)
                 (A) (A) (A) (A) (A) (A) (A) (A) (A) (A) (A) (A)
                 (A) (A) (A) (A) (A) (A) (A) (A) (A) (A) (A) (A)
                 (A) (A) (A) (A) (A) (A) (A) (A) (A) (A) (A) (A)
                 (A) (A) (A) (A) (A) (A) (A) (A) (A) (A) (A) (A)
                 (A) (A) (A) (A) (A) (A) (A) (A) (A) (A) (A) (A)
                 (A) (A) (A) (A) (A) (A) (A) (A) (A) (A) (A) (A)
                 (A) (A) (A) (A) (A) (A) (A) (A) (A) (A) (A) (A)
                 (A) (A) (A) (A) (A) (A) (A) (A) (A) (A) (A) (A)
                 (A) (A) (A) (A) (A) (A) (A) (A) (A) (A) (A) (A)
                 (A) (A) (A) (A) (A) (A) (A) (A) (A) (A) (A) (A)
                 (A) (A) (A) (A) (A) (A) (A) (A) (A) (A) (A) (A)
                 (A) (A) (A) (A) (A) (A) (A) (A) (A) (A) (A) (A)
                 (A) (A) (A) (A) (A) (A) (A) (A) (A) (A) (A) (A)
                 (A) (A) (A) (A) (A) (A) (A) (A) (A) (A) (A) (A)
                 (A) (A) (A) (A) (A) (A) (A) (A) (A) (A) (A) (A)
                 (A) (A) (A) (A) (A) (A) (A) (A) (A) (A) (A) (A)
                 (A) (A) (A) (A) (A) (A) (A) (A) (A) (A) (A) (A)
                 (A) (A) (A) (A) (A) (A) (A) (A) (A) (A) (A) (A)
                 (A) (A) (A) (A) (A) (A) (A) (A) (A) (A) (A) (A)
                 (A) (A) (A) (A) (A) (A) (A) (A) (A) (A) (A) (A)
                 (A) (A) (A) (A) (A) (A) (A) (A) (A) (A) (A) (A)
                 (A) (A) (A) (A) (A) (A) (A) (A) (A) (A) (A) (A)
                 (A) (A) (A) (A) (A) (A) (A) (A) (A) (A) (A) (A)
                 (A) (A) (A) (A) (A) (A) (A) (A) (A) (A) (A) (A)
                 (A) (A) (A) (A) (A) (A) (A) (A) (A) (A) (A) (A)
                 (A) (A) (A) (A) (A) (A) (A) (A) (A) (A) (A) (A)
                 (A) (A) (A) (A) (A) (A) (A) (A) (A) (A) (A) (A)
                 (A) (A) (A) (A) (A) (A) (A) (A) (A) (A) (A) (A)
                 (A) (A) (A) (A) (A) (A) (A) (A) (A) (A) (A) (A)
                 (A) (A) (A) (A) (A) (A) (A) (A) (A) (A) (A) (A)
                 (A) (A) (A) (A) (A) (A) (A) (A) (A) (A) (A) (A)
                 (A) (A) (A) (A) (A) (A) (A) (A) (A) (A) (A) (A)
                 (A) (A) (A) (A) (A) (A) (A) (A) (A)
 The electronic state is 1-A.
 Alpha  occ. eigenvalues --  -19.16684 -19.12572 -14.35476 -10.32301 -10.30726
 Alpha  occ. eigenvalues --  -10.30194 -10.26644 -10.26101 -10.25781 -10.25618
 Alpha  occ. eigenvalues --  -10.25443 -10.24070 -10.22405 -10.21464 -10.20646
 Alpha  occ. eigenvalues --  -10.18519  -1.06526  -1.04894  -0.95574  -0.88287
 Alpha  occ. eigenvalues --   -0.87145  -0.79812  -0.76217  -0.75117  -0.73185
 Alpha  occ. eigenvalues --   -0.67774  -0.65719  -0.61914  -0.59804  -0.56037
 Alpha  occ. eigenvalues --   -0.53686  -0.52551  -0.50409  -0.49128  -0.47307
 Alpha  occ. eigenvalues --   -0.46909  -0.45119  -0.44552  -0.43546  -0.43410
 Alpha  occ. eigenvalues --   -0.40905  -0.40676  -0.39218  -0.37681  -0.36379
 Alpha  occ. eigenvalues --   -0.33922  -0.32961  -0.31389  -0.29424  -0.27903
 Alpha  occ. eigenvalues --   -0.27209  -0.25839  -0.23292  -0.18969
 Alpha virt. eigenvalues --   -0.14980  -0.13365  -0.06899  -0.04348  -0.03477
 Alpha virt. eigenvalues --   -0.01679   0.00098   0.02580   0.04329   0.05740
 Alpha virt. eigenvalues --    0.09401   0.10299   0.11520   0.12725   0.13768
 Alpha virt. eigenvalues --    0.14814   0.15572   0.18206   0.19717   0.20318
 Alpha virt. eigenvalues --    0.23669   0.24988   0.28858   0.30106   0.30739
 Alpha virt. eigenvalues --    0.32544   0.32977   0.34595   0.36174   0.37302
 Alpha virt. eigenvalues --    0.37648   0.39242   0.40818   0.42096   0.42839
 Alpha virt. eigenvalues --    0.43653   0.44196   0.45475   0.46475   0.46535
 Alpha virt. eigenvalues --    0.47435   0.49302   0.49866   0.50347   0.50634
 Alpha virt. eigenvalues --    0.51702   0.53498   0.54352   0.54885   0.55597
 Alpha virt. eigenvalues --    0.55765   0.56125   0.56842   0.57864   0.59046
 Alpha virt. eigenvalues --    0.59806   0.60664   0.61320   0.62643   0.62873
 Alpha virt. eigenvalues --    0.63772   0.65701   0.66782   0.67405   0.67877
 Alpha virt. eigenvalues --    0.68600   0.69393   0.70277   0.70501   0.71722
 Alpha virt. eigenvalues --    0.72553   0.73090   0.73990   0.74324   0.74910
 Alpha virt. eigenvalues --    0.75773   0.76412   0.77142   0.78290   0.79218
 Alpha virt. eigenvalues --    0.79530   0.81232   0.82446   0.83360   0.84062
 Alpha virt. eigenvalues --    0.84747   0.85573   0.88275   0.89287   0.90160
 Alpha virt. eigenvalues --    0.92054   0.92980   0.93828   0.94616   0.96982
 Alpha virt. eigenvalues --    0.97470   0.97775   0.99380   0.99848   1.00344
 Alpha virt. eigenvalues --    1.01302   1.02543   1.04694   1.05339   1.05796
 Alpha virt. eigenvalues --    1.07496   1.08800   1.11340   1.12636   1.14043
 Alpha virt. eigenvalues --    1.15443   1.16797   1.18287   1.20060   1.21573
 Alpha virt. eigenvalues --    1.22608   1.24317   1.25569   1.26265   1.27337
 Alpha virt. eigenvalues --    1.29947   1.30502   1.31886   1.32681   1.33554
 Alpha virt. eigenvalues --    1.34714   1.36613   1.38032   1.38903   1.40569
 Alpha virt. eigenvalues --    1.42746   1.44064   1.45032   1.45975   1.46805
 Alpha virt. eigenvalues --    1.47317   1.49327   1.50064   1.51187   1.52289
 Alpha virt. eigenvalues --    1.54237   1.54900   1.55899   1.56973   1.58004
 Alpha virt. eigenvalues --    1.58298   1.60487   1.62109   1.62843   1.64007
 Alpha virt. eigenvalues --    1.65120   1.66657   1.69543   1.71482   1.71730
 Alpha virt. eigenvalues --    1.72836   1.73497   1.74353   1.75014   1.77489
 Alpha virt. eigenvalues --    1.79769   1.83028   1.85032   1.86000   1.87576
 Alpha virt. eigenvalues --    1.89398   1.90529   1.92019   1.93151   1.94985
 Alpha virt. eigenvalues --    1.97620   1.98238   1.98373   2.02197   2.04403
 Alpha virt. eigenvalues --    2.06656   2.08520   2.09120   2.11718   2.15288
 Alpha virt. eigenvalues --    2.17300   2.19454   2.22101   2.24259   2.25163
 Alpha virt. eigenvalues --    2.27477   2.29069   2.31381   2.31957   2.35599
 Alpha virt. eigenvalues --    2.36747   2.39831   2.41556   2.42887   2.44699
 Alpha virt. eigenvalues --    2.51059   2.54465   2.55264   2.57810   2.61699
 Alpha virt. eigenvalues --    2.63101   2.63834   2.67291   2.68353   2.70872
 Alpha virt. eigenvalues --    2.72103   2.74358   2.74469   2.76112   2.78073
 Alpha virt. eigenvalues --    2.78643   2.81617   2.82663   2.84559   2.85213
 Alpha virt. eigenvalues --    2.86369   2.88477   2.89471   2.91473   2.91720
 Alpha virt. eigenvalues --    2.93442   2.94215   2.94555   2.96959   2.98581
 Alpha virt. eigenvalues --    2.99504   3.00703   3.01994   3.03528   3.04737
 Alpha virt. eigenvalues --    3.05665   3.07693   3.09107   3.10503   3.10924
 Alpha virt. eigenvalues --    3.12813   3.14722   3.15300   3.16188   3.16821
 Alpha virt. eigenvalues --    3.18606   3.20360   3.21498   3.22806   3.24536
 Alpha virt. eigenvalues --    3.25661   3.26907   3.28484   3.30537   3.32064
 Alpha virt. eigenvalues --    3.32458   3.34202   3.36056   3.36264   3.38876
 Alpha virt. eigenvalues --    3.40047   3.40814   3.42371   3.43127   3.44573
 Alpha virt. eigenvalues --    3.46075   3.47931   3.49065   3.50206   3.51243
 Alpha virt. eigenvalues --    3.52195   3.53005   3.55265   3.56469   3.60161
 Alpha virt. eigenvalues --    3.61878   3.62114   3.65188   3.65809   3.67586
 Alpha virt. eigenvalues --    3.69235   3.72268   3.72786   3.74417   3.75693
 Alpha virt. eigenvalues --    3.78697   3.79965   3.81907   3.86089   3.87263
 Alpha virt. eigenvalues --    3.90136   3.91901   3.93893   3.96587   3.96928
 Alpha virt. eigenvalues --    4.00167   4.00776   4.01362   4.04501   4.07352
 Alpha virt. eigenvalues --    4.08134   4.10930   4.11362   4.12969   4.13888
 Alpha virt. eigenvalues --    4.15736   4.17299   4.19564   4.19985   4.22155
 Alpha virt. eigenvalues --    4.23316   4.24402   4.25345   4.27143   4.28950
 Alpha virt. eigenvalues --    4.30093   4.33043   4.33473   4.35360   4.36206
 Alpha virt. eigenvalues --    4.37315   4.39107   4.42043   4.42139   4.43588
 Alpha virt. eigenvalues --    4.45071   4.45586   4.47279   4.48214   4.48757
 Alpha virt. eigenvalues --    4.50039   4.51780   4.52483   4.53524   4.55043
 Alpha virt. eigenvalues --    4.56558   4.58739   4.59209   4.60260   4.62308
 Alpha virt. eigenvalues --    4.63899   4.64165   4.64985   4.66927   4.67813
 Alpha virt. eigenvalues --    4.68027   4.70317   4.71020   4.72323   4.73421
 Alpha virt. eigenvalues --    4.75082   4.75385   4.76055   4.78643   4.79774
 Alpha virt. eigenvalues --    4.81925   4.82526   4.83790   4.85129   4.87437
 Alpha virt. eigenvalues --    4.87733   4.88718   4.92927   4.94678   4.96973
 Alpha virt. eigenvalues --    4.97324   4.99804   5.02185   5.03065   5.03517
 Alpha virt. eigenvalues --    5.06783   5.08109   5.09090   5.10067   5.11421
 Alpha virt. eigenvalues --    5.12375   5.13787   5.15395   5.17269   5.21298
 Alpha virt. eigenvalues --    5.22507   5.25548   5.26625   5.28782   5.34727
 Alpha virt. eigenvalues --    5.36051   5.38394   5.39992   5.43049   5.45325
 Alpha virt. eigenvalues --    5.49540   5.53579   5.56900   5.58484   5.58944
 Alpha virt. eigenvalues --    5.59472   5.60502   5.64590   5.68526   5.69979
 Alpha virt. eigenvalues --    5.73491   5.75553   5.83676   5.88856   5.95399
 Alpha virt. eigenvalues --    6.02158   6.12042   6.18345   6.25124   6.32749
 Alpha virt. eigenvalues --    6.34016   6.38894   6.46605   6.65627   6.81174
 Alpha virt. eigenvalues --    7.03009   7.58382   9.91449  10.50294  10.54251
 Alpha virt. eigenvalues --   11.02409  11.05601  11.31622  11.36372  11.63953
 Alpha virt. eigenvalues --   11.83477  11.89003  12.14055  12.25065  12.35988
 Alpha virt. eigenvalues --   12.81268  13.11259  13.24648  19.07401
          Condensed to atoms (all electrons):
               1          2          3          4          5          6
     1  C    5.099437   0.382126  -0.019374   0.003302  -0.000018  -0.000066
     2  C    0.382126   4.539000   0.675663  -0.030785  -0.001103   0.000116
     3  C   -0.019374   0.675663   5.237351   0.349290  -0.066112  -0.065390
     4  C    0.003302  -0.030785   0.349290   4.432479   0.660564   0.368360
     5  O   -0.000018  -0.001103  -0.066112   0.660564   7.728560  -0.050195
     6  C   -0.000066   0.000116  -0.065390   0.368360  -0.050195   5.576513
     7  C   -0.000002   0.000219   0.006452  -0.021905  -0.005561   0.397695
     8  C    0.000019  -0.000077   0.003946  -0.018898  -0.000076  -0.111622
     9  C   -0.000007   0.000069   0.000275   0.001623   0.000000  -0.046685
    10  C    0.000169  -0.000628  -0.001090   0.000881   0.000008   0.007966
    11  C    0.003522  -0.010034   0.001894  -0.007312  -0.000008   0.013893
    12  C   -0.008934  -0.027243  -0.013631  -0.013102  -0.000835   0.004706
    13  C   -0.089168   0.344892   0.021607  -0.000440  -0.003733  -0.003681
    14  N   -0.000095   0.003149  -0.019710  -0.011258   0.001056  -0.107678
    15  C   -0.000031   0.000620  -0.001453  -0.007141  -0.000021   0.287011
    16  O    0.000000   0.000005  -0.000088   0.000907  -0.000005  -0.075762
    17  H    0.349459  -0.017556  -0.001938  -0.000079  -0.000002   0.000007
    18  H    0.380359  -0.028045  -0.000194  -0.000074  -0.000000   0.000012
    19  H    0.353536  -0.022054   0.000742  -0.000050   0.000003  -0.000002
    20  H    0.000000  -0.000000   0.000005  -0.000037   0.000000   0.000420
    21  H    0.000008  -0.000013   0.000015  -0.000000   0.000000  -0.000253
    22  H   -0.000256   0.001714   0.000275   0.000651   0.000000   0.001939
    23  H    0.005958  -0.040095   0.004957   0.001829  -0.000059  -0.000041
               7          8          9         10         11         12
     1  C   -0.000002   0.000019  -0.000007   0.000169   0.003522  -0.008934
     2  C    0.000219  -0.000077   0.000069  -0.000628  -0.010034  -0.027243
     3  C    0.006452   0.003946   0.000275  -0.001090   0.001894  -0.013631
     4  C   -0.021905  -0.018898   0.001623   0.000881  -0.007312  -0.013102
     5  O   -0.005561  -0.000076   0.000000   0.000008  -0.000008  -0.000835
     6  C    0.397695  -0.111622  -0.046685   0.007966   0.013893   0.004706
     7  C    4.819919   0.747087  -0.056128  -0.028077  -0.003674   0.001449
     8  C    0.747087   4.781059   0.589667  -0.036232  -0.013895  -0.000502
     9  C   -0.056128   0.589667   5.039949   0.396363  -0.011186  -0.000722
    10  C   -0.028077  -0.036232   0.396363   4.933925   0.584254  -0.018088
    11  C   -0.003674  -0.013895  -0.011186   0.584254   5.071670   0.339051
    12  C    0.001449  -0.000502  -0.000722  -0.018088   0.339051   4.753083
    13  C    0.000098   0.000076  -0.000009  -0.000381  -0.043551   0.494440
    14  N   -0.000714   0.000647   0.000127   0.000576  -0.072244   0.529393
    15  C    0.006644  -0.004507   0.000901  -0.002315   0.004042  -0.105693
    16  O   -0.007236   0.001961   0.002113  -0.000148  -0.015458  -0.010165
    17  H    0.000002  -0.000005   0.000002   0.000152  -0.000055   0.000404
    18  H   -0.000000  -0.000001   0.000001   0.000153   0.001513   0.000211
    19  H    0.000000   0.000000   0.000000   0.000005   0.000097   0.000577
    20  H    0.001921  -0.032768   0.345650  -0.030832   0.000500  -0.000007
    21  H    0.001937   0.001209  -0.046867   0.343753  -0.027543   0.001617
    22  H   -0.000020  -0.000333   0.001289  -0.027793   0.334174  -0.050249
    23  H    0.000014   0.000002  -0.000000  -0.000019   0.002616  -0.024161
              13         14         15         16         17         18
     1  C   -0.089168  -0.000095  -0.000031   0.000000   0.349459   0.380359
     2  C    0.344892   0.003149   0.000620   0.000005  -0.017556  -0.028045
     3  C    0.021607  -0.019710  -0.001453  -0.000088  -0.001938  -0.000194
     4  C   -0.000440  -0.011258  -0.007141   0.000907  -0.000079  -0.000074
     5  O   -0.003733   0.001056  -0.000021  -0.000005  -0.000002  -0.000000
     6  C   -0.003681  -0.107678   0.287011  -0.075762   0.000007   0.000012
     7  C    0.000098  -0.000714   0.006644  -0.007236   0.000002  -0.000000
     8  C    0.000076   0.000647  -0.004507   0.001961  -0.000005  -0.000001
     9  C   -0.000009   0.000127   0.000901   0.002113   0.000002   0.000001
    10  C   -0.000381   0.000576  -0.002315  -0.000148   0.000152   0.000153
    11  C   -0.043551  -0.072244   0.004042  -0.015458  -0.000055   0.001513
    12  C    0.494440   0.529393  -0.105693  -0.010165   0.000404   0.000211
    13  C    5.161172  -0.042401   0.005444   0.000021   0.007923  -0.000722
    14  N   -0.042401   6.617953   0.359939  -0.059955   0.000010   0.000004
    15  C    0.005444   0.359939   4.418039   0.750489   0.000002   0.000011
    16  O    0.000021  -0.059955   0.750489   7.739461   0.000000   0.000000
    17  H    0.007923   0.000010   0.000002   0.000000   0.579571  -0.028861
    18  H   -0.000722   0.000004   0.000011   0.000000  -0.028861   0.567125
    19  H    0.004079   0.000002   0.000000   0.000000  -0.021939  -0.033155
    20  H    0.000000   0.000000  -0.000062  -0.000000  -0.000000  -0.000000
    21  H   -0.000030  -0.000126   0.000252   0.000040  -0.000003   0.000001
    22  H    0.002219   0.000347   0.003819  -0.000033  -0.000004  -0.000059
    23  H    0.339303  -0.005311  -0.000032  -0.000003  -0.000313   0.000119
              19         20         21         22         23
     1  C    0.353536   0.000000   0.000008  -0.000256   0.005958
     2  C   -0.022054  -0.000000  -0.000013   0.001714  -0.040095
     3  C    0.000742   0.000005   0.000015   0.000275   0.004957
     4  C   -0.000050  -0.000037  -0.000000   0.000651   0.001829
     5  O    0.000003   0.000000   0.000000   0.000000  -0.000059
     6  C   -0.000002   0.000420  -0.000253   0.001939  -0.000041
     7  C    0.000000   0.001921   0.001937  -0.000020   0.000014
     8  C    0.000000  -0.032768   0.001209  -0.000333   0.000002
     9  C    0.000000   0.345650  -0.046867   0.001289  -0.000000
    10  C    0.000005  -0.030832   0.343753  -0.027793  -0.000019
    11  C    0.000097   0.000500  -0.027543   0.334174   0.002616
    12  C    0.000577  -0.000007   0.001617  -0.050249  -0.024161
    13  C    0.004079   0.000000  -0.000030   0.002219   0.339303
    14  N    0.000002   0.000000  -0.000126   0.000347  -0.005311
    15  C    0.000000  -0.000062   0.000252   0.003819  -0.000032
    16  O    0.000000  -0.000000   0.000040  -0.000033  -0.000003
    17  H   -0.021939  -0.000000  -0.000003  -0.000004  -0.000313
    18  H   -0.033155  -0.000000   0.000001  -0.000059   0.000119
    19  H    0.581025   0.000000  -0.000000   0.000005  -0.000064
    20  H    0.000000   0.555368   0.000148  -0.000034   0.000000
    21  H   -0.000000   0.000148   0.580746  -0.005800   0.000001
    22  H    0.000005  -0.000034  -0.005800   0.575541  -0.000246
    23  H   -0.000064   0.000000   0.000001  -0.000246   0.546391
 Mulliken charges:
               1
     1  C   -0.459945
     2  C    0.230058
     3  C   -0.113495
     4  C    0.291197
     5  O   -0.262464
     6  C   -0.197262
     7  C    0.139881
     8  C    0.093242
     9  C   -0.216427
    10  C   -0.122604
    11  C   -0.152268
    12  C    0.148400
    13  C   -0.197158
    14  N   -0.193711
    15  C    0.284042
    16  O   -0.326144
    17  H    0.133223
    18  H    0.141602
    19  H    0.137192
    20  H    0.159727
    21  H    0.150908
    22  H    0.162854
    23  H    0.169152
 Sum of Mulliken charges =  -0.00000
 Mulliken charges with hydrogens summed into heavy atoms:
               1
     1  C   -0.047927
     2  C    0.230058
     3  C   -0.113495
     4  C    0.291197
     5  O   -0.262464
     6  C   -0.197262
     7  C    0.139881
     8  C    0.093242
     9  C   -0.056700
    10  C    0.028304
    11  C    0.010587
    12  C    0.148400
    13  C   -0.028006
    14  N   -0.193711
    15  C    0.284042
    16  O   -0.326144
 Electronic spatial extent (au):  <R**2>=           2590.4166
 Charge=             -0.0000 electrons
 Dipole moment (field-independent basis, Debye):
    X=             -3.0581    Y=              4.5617    Z=             -0.2755  Tot=              5.4989
 Quadrupole moment (field-independent basis, Debye-Ang):
   XX=            -82.4955   YY=            -89.9597   ZZ=            -96.0983
   XY=              4.1267   XZ=             -8.9055   YZ=             -0.9697
 Traceless Quadrupole moment (field-independent basis, Debye-Ang):
   XX=              7.0223   YY=             -0.4419   ZZ=             -6.5805
   XY=              4.1267   XZ=             -8.9055   YZ=             -0.9697
 Octapole moment (field-independent basis, Debye-Ang**2):
  XXX=            -31.6925  YYY=             16.4665  ZZZ=              1.6234  XYY=             14.2542
  XXY=             13.4268  XXZ=             -6.4109  XZZ=             -7.4699  YZZ=             14.5648
  YYZ=              7.8872  XYZ=              1.7767
 Hexadecapole moment (field-independent basis, Debye-Ang**3):
 XXXX=          -1676.8922 YYYY=           -903.0999 ZZZZ=           -829.7530 XXXY=             48.3866
 XXXZ=            -32.7928 YYYX=             25.3937 YYYZ=            -12.7354 ZZZX=             -9.4746
 ZZZY=             14.4846 XXYY=           -393.5861 XXZZ=           -454.2535 YYZZ=           -303.6953
 XXYZ=            -14.3147 YYXZ=             -7.5744 ZZXY=              1.2664
 N-N= 1.012284584491D+03 E-N=-3.663415397390D+03  KE= 6.991107190509D+02
 PrsmSu:  requested number of processors reduced to:  13 ShMem   1 Linda.
 Calling FoFJK, ICntrl=      2127 FMM=F ISym2X=0 I1Cent= 0 IOpClX= 0 NMat=1 NMatS=1 NMatT=0.
 ***** Axes restored to original set *****
 -------------------------------------------------------------------
 Center     Atomic                   Forces (Hartrees/Bohr)
 Number     Number              X              Y              Z
 -------------------------------------------------------------------
      1        6          -0.016133043   -0.014112787    0.021912304
      2        6          -0.047107551   -0.013089452   -0.035272759
      3        6           0.020286626    0.013831411   -0.010927399
      4        6           0.001833265    0.035065969    0.043592700
      5        8          -0.015273224   -0.010141277   -0.022325069
      6        6           0.012926126    0.069998438   -0.000047456
      7        6           0.045164091    0.021593630    0.024801483
      8        6           0.046220414   -0.078400295    0.024188006
      9        6          -0.079842859    0.032953045   -0.036440147
     10        6          -0.021117074   -0.015520743    0.017780929
     11        6           0.011986447   -0.014028603   -0.006720448
     12        6           0.081338488   -0.025016781   -0.054171322
     13        6           0.020599295   -0.004776919    0.059115813
     14        7          -0.084716617    0.031213087    0.038204275
     15        6           0.038832856   -0.043932688   -0.046572178
     16        8           0.018325824   -0.011511787    0.034073350
     17        1          -0.007714023   -0.004784552    0.004150888
     18        1           0.009508704   -0.004427828    0.003723531
     19        1          -0.003945321   -0.002255928    0.000516920
     20        1          -0.027621348    0.035727588   -0.015594328
     21        1           0.001833876    0.025240095    0.002622028
     22        1          -0.013579342   -0.025629097   -0.017632568
     23        1           0.008194390    0.002005472   -0.028978554
 -------------------------------------------------------------------
 Cartesian Forces:  Max     0.084716617 RMS     0.032459637

 GradGradGradGradGradGradGradGradGradGradGradGradGradGradGradGradGradGrad
 Berny optimization.
 FormGI is forming the generalized inverse of G from B-inverse, IUseBI=4.
 Internal  Forces:  Max     0.130099321 RMS     0.027835733
 Search for a local minimum.
 Step number   1 out of a maximum of  118
 All quantities printed in internal units (Hartrees-Bohrs-Radians)
 Mixed Optimization -- RFO/linear search
 Second derivative matrix not updated -- first step.
 ITU=  0
     Eigenvalues ---    0.00426   0.00565   0.00812   0.00919   0.00927
     Eigenvalues ---    0.01038   0.01349   0.01408   0.01517   0.01757
     Eigenvalues ---    0.02011   0.02435   0.02559   0.02904   0.03949
     Eigenvalues ---    0.04162   0.05463   0.06247   0.07230   0.07393
     Eigenvalues ---    0.11168   0.13632   0.15036   0.15465   0.15840
     Eigenvalues ---    0.15991   0.16000   0.16000   0.16000   0.16445
     Eigenvalues ---    0.19638   0.20654   0.21810   0.22124   0.23000
     Eigenvalues ---    0.24010   0.24172   0.24277   0.24529   0.24769
     Eigenvalues ---    0.24787   0.24845   0.28225   0.29726   0.30927
     Eigenvalues ---    0.31817   0.33052   0.33087   0.33463   0.33620
     Eigenvalues ---    0.33926   0.35369   0.35771   0.38164   0.47388
     Eigenvalues ---    0.50178   0.57617   0.59587   0.70440   0.74389
     Eigenvalues ---    0.90556   0.90798   0.99443
 RFO step:  Lambda=-1.66589234D-01 EMin= 4.26230211D-03
 Linear search not attempted -- first point.
 Maximum step size (   0.300) exceeded in Quadratic search.
    -- Step size scaled by   0.546
 Iteration  1 RMS(Cart)=  0.09219688 RMS(Int)=  0.00215685
 Iteration  2 RMS(Cart)=  0.00284212 RMS(Int)=  0.00046530
 Iteration  3 RMS(Cart)=  0.00000343 RMS(Int)=  0.00046529
 Iteration  4 RMS(Cart)=  0.00000000 RMS(Int)=  0.00046529
 Variable       Old X    -DE/DX   Delta X   Delta X   Delta X     New X
                                 (Linear)    (Quad)   (Total)
    R1        2.81276   0.01480   0.00000   0.01607   0.01607   2.82883
    R2        2.05080   0.00729   0.00000   0.00764   0.00764   2.05844
    R3        2.08898  -0.00811   0.00000  -0.00890  -0.00890   2.08009
    R4        2.07455   0.00074   0.00000   0.00080   0.00080   2.07535
    R5        2.50028  -0.01419   0.00000  -0.01112  -0.01072   2.48956
    R6        2.72972   0.03249   0.00000   0.03161   0.03154   2.76126
    R7        2.86918  -0.01591   0.00000  -0.02027  -0.01988   2.84930
    R8        2.32678  -0.02750   0.00000  -0.01400  -0.01400   2.31277
    R9        2.90433   0.00729   0.00000   0.00974   0.01013   2.91447
   R10        2.42339   0.05313   0.00000   0.03641   0.03690   2.46029
   R11        2.99704  -0.03324   0.00000  -0.04051  -0.04030   2.95674
   R12        2.28019   0.10508   0.00000   0.05147   0.05164   2.33183
   R13        2.40158   0.13010   0.00000   0.07884   0.07858   2.48016
   R14        3.12601  -0.05321   0.00000  -0.08369  -0.08426   3.04174
   R15        2.12852  -0.02030   0.00000  -0.02330  -0.02330   2.10523
   R16        2.76770  -0.08051   0.00000  -0.08936  -0.08984   2.67786
   R17        2.08247  -0.00816   0.00000  -0.00889  -0.00889   2.07358
   R18        3.28937  -0.02354   0.00000  -0.05037  -0.05064   3.23873
   R19        2.08961  -0.00705   0.00000  -0.00775  -0.00775   2.08186
   R20        2.60504   0.03310   0.00000   0.02694   0.02650   2.63154
   R21        2.57493  -0.03381   0.00000  -0.02689  -0.02689   2.54804
   R22        2.11180  -0.01662   0.00000  -0.01872  -0.01872   2.09308
   R23        2.50555   0.05030   0.00000   0.03962   0.03978   2.54533
   R24        2.32567  -0.03088   0.00000  -0.01569  -0.01569   2.30999
    A1        1.93254   0.00771   0.00000   0.01295   0.01294   1.94548
    A2        1.95942  -0.01272   0.00000  -0.02137  -0.02132   1.93810
    A3        1.92259   0.00579   0.00000   0.00974   0.00973   1.93232
    A4        1.88135   0.00236   0.00000   0.00384   0.00390   1.88524
    A5        1.91965  -0.00677   0.00000  -0.01112  -0.01118   1.90846
    A6        1.84599   0.00316   0.00000   0.00518   0.00522   1.85122
    A7        2.38102  -0.00633   0.00000  -0.00725  -0.00740   2.37363
    A8        1.93853   0.06018   0.00000   0.08668   0.08646   2.02500
    A9        1.85882  -0.04735   0.00000  -0.06465  -0.06474   1.79408
   A10        2.44481   0.02783   0.00000   0.02971   0.03047   2.47527
   A11        2.02953   0.00035   0.00000   0.00510   0.00431   2.03383
   A12        2.23909   0.00930   0.00000   0.00883   0.00899   2.24808
   A13        1.99712  -0.00627   0.00000  -0.00397  -0.00476   1.99235
   A14        1.94239  -0.01123   0.00000  -0.01440  -0.01476   1.92763
   A15        2.13409   0.01634   0.00000   0.01541   0.01481   2.14889
   A16        2.09820  -0.00879   0.00000  -0.01024  -0.00923   2.08897
   A17        2.54338  -0.04235   0.00000  -0.02947  -0.02853   2.51485
   A18        2.32772  -0.01754   0.00000  -0.00255  -0.00240   2.32532
   A19        1.97578   0.02709   0.00000   0.04142   0.04078   2.01656
   A20        1.89489   0.03050   0.00000   0.05380   0.05455   1.94943
   A21        2.35902  -0.05898   0.00000  -0.09895  -0.09874   2.26028
   A22        2.51459   0.00143   0.00000  -0.01103  -0.01184   2.50275
   A23        1.67631   0.02310   0.00000   0.04501   0.04530   1.72161
   A24        2.09091  -0.02487   0.00000  -0.03512  -0.03486   2.05605
   A25        2.63460   0.01089   0.00000  -0.00469  -0.00494   2.62966
   A26        2.07193  -0.03682   0.00000  -0.05196  -0.05184   2.02010
   A27        1.49479   0.02918   0.00000   0.06087   0.06091   1.55571
   A28        2.16733  -0.04515   0.00000  -0.05830  -0.05841   2.10892
   A29        1.96786   0.05172   0.00000   0.06740   0.06734   2.03520
   A30        2.13724  -0.00556   0.00000  -0.00739  -0.00723   2.13001
   A31        1.91406   0.01533   0.00000   0.01852   0.01786   1.93192
   A32        1.91701   0.01377   0.00000   0.03475   0.03531   1.95231
   A33        2.26076  -0.02229   0.00000  -0.03902  -0.03919   2.22157
   A34        1.82156   0.01335   0.00000   0.03303   0.03352   1.85508
   A35        1.90202  -0.02887   0.00000  -0.03018  -0.03082   1.87120
   A36        2.20886  -0.00407   0.00000  -0.01139  -0.01099   2.19786
   A37        2.14219   0.02988   0.00000   0.03563   0.03571   2.17790
    D1        0.01727  -0.00299   0.00000  -0.00972  -0.01009   0.00719
    D2        2.59742   0.00492   0.00000   0.01614   0.01642   2.61384
    D3       -2.08636  -0.00273   0.00000  -0.00911  -0.00943  -2.09580
    D4        0.49378   0.00519   0.00000   0.01675   0.01708   0.51086
    D5        2.14456  -0.00247   0.00000  -0.00853  -0.00881   2.13575
    D6       -1.55848   0.00545   0.00000   0.01733   0.01770  -1.54078
    D7        2.73999   0.02639   0.00000   0.05278   0.05220   2.79219
    D8        0.14309  -0.00378   0.00000  -0.00396  -0.00348   0.13962
    D9       -1.95928   0.00485   0.00000   0.00531   0.00592  -1.95337
   D10        1.74183   0.00505   0.00000   0.00275   0.00263   1.74445
   D11        0.78951   0.01312   0.00000   0.02712   0.02707   0.81658
   D12       -1.79257   0.01332   0.00000   0.02457   0.02378  -1.76879
   D13        1.66749   0.00993   0.00000   0.03537   0.03538   1.70287
   D14       -1.26163  -0.00956   0.00000  -0.02406  -0.02434  -1.28598
   D15       -1.57051   0.02117   0.00000   0.06038   0.06003  -1.51048
   D16        1.08671   0.01019   0.00000   0.03745   0.03777   1.12448
   D17        1.78027   0.00134   0.00000   0.00097   0.00060   1.78087
   D18       -1.84570  -0.00964   0.00000  -0.02195  -0.02167  -1.86736
   D19        1.38660  -0.01632   0.00000  -0.03360  -0.03354   1.35306
   D20       -1.28192  -0.01354   0.00000  -0.01933  -0.01981  -1.30174
   D21        0.13765  -0.02027   0.00000  -0.05546  -0.05494   0.08271
   D22       -2.74622  -0.01151   0.00000  -0.03569  -0.03623  -2.78245
   D23        2.75322  -0.03195   0.00000  -0.08055  -0.07973   2.67349
   D24       -0.13065  -0.02319   0.00000  -0.06078  -0.06101  -0.19166
   D25        0.34533  -0.02441   0.00000  -0.03580  -0.03524   0.31010
   D26       -0.09627   0.00406   0.00000   0.01046   0.01098  -0.08529
   D27        2.75406  -0.01203   0.00000  -0.02011  -0.01890   2.73516
   D28       -0.22132   0.00974   0.00000   0.02204   0.02276  -0.19856
   D29        2.85631   0.00132   0.00000  -0.00476  -0.00452   2.85179
   D30       -2.96656   0.00310   0.00000   0.01552   0.01633  -2.95023
   D31        0.11107  -0.00533   0.00000  -0.01129  -0.01095   0.10013
   D32        0.04652  -0.00998   0.00000  -0.02922  -0.02850   0.01802
   D33        2.55798   0.00284   0.00000  -0.00103  -0.00080   2.55717
   D34       -3.02176  -0.00155   0.00000  -0.00031   0.00020  -3.02156
   D35       -0.51030   0.01127   0.00000   0.02787   0.02789  -0.48241
   D36       -1.87177  -0.00493   0.00000  -0.00691  -0.00665  -1.87842
   D37        1.11567   0.00273   0.00000   0.00585   0.00617   1.12184
   D38        1.81468  -0.00470   0.00000  -0.01589  -0.01577   1.79891
   D39       -1.48106   0.00296   0.00000  -0.00313  -0.00295  -1.48402
   D40        0.71499  -0.00026   0.00000  -0.00780  -0.00741   0.70758
   D41       -3.13071   0.01932   0.00000   0.03366   0.03316  -3.09755
   D42       -2.25799  -0.01295   0.00000  -0.02739  -0.02689  -2.28488
   D43        0.17949   0.00663   0.00000   0.01407   0.01368   0.19317
   D44       -0.44470  -0.01351   0.00000  -0.03110  -0.03255  -0.47725
   D45        2.54579  -0.01013   0.00000  -0.02391  -0.02462   2.52117
   D46       -1.12066   0.01293   0.00000   0.04085   0.03990  -1.08076
   D47        1.77507  -0.00098   0.00000   0.01416   0.01331   1.78838
         Item               Value     Threshold  Converged?
 Maximum Force            0.130099     0.000450     NO 
 RMS     Force            0.027836     0.000300     NO 
 Maximum Displacement     0.377544     0.001800     NO 
 RMS     Displacement     0.092533     0.001200     NO 
 Predicted change in Energy=-7.676735D-02
 GradGradGradGradGradGradGradGradGradGradGradGradGradGradGradGradGradGrad

                          Input orientation:                          
 ---------------------------------------------------------------------
 Center     Atomic      Atomic             Coordinates (Angstroms)
 Number     Number       Type             X           Y           Z
 ---------------------------------------------------------------------
      1          6           0        1.073913   -0.181189    0.032066
      2          6           0        2.569384   -0.186293    0.098473
      3          6           0        3.513407   -1.104643    0.130761
      4          6           0        4.986438   -1.299762   -0.125209
      5          8           0        5.721898   -1.253721    0.851946
      6          6           0        5.732005   -1.371250   -1.473398
      7          6           0        5.723778   -2.589098   -1.933615
      8          6           0        5.032125   -3.437730   -2.502896
      9          6           0        3.926940   -3.371331   -3.207647
     10          6           0        3.243594   -1.916370   -3.291340
     11          6           0        3.276499   -0.610761   -2.741459
     12          6           0        3.945215    0.538762   -1.660377
     13          6           0        3.242877    0.948107   -0.529732
     14          7           0        5.230883    0.887484   -1.869039
     15          6           0        5.815760   -0.167131   -2.468977
     16          8           0        6.064977   -0.240065   -3.663470
     17          1           0        0.672352   -1.193528    0.010857
     18          1           0        0.720005    0.344375   -0.868017
     19          1           0        0.648957    0.360938    0.887408
     20          1           0        3.821904   -4.244044   -3.892059
     21          1           0        2.580124   -2.094807   -4.146917
     22          1           0        3.038508    0.208266   -3.438769
     23          1           0        3.553297    1.707249    0.214680
 ---------------------------------------------------------------------
                    Distance matrix (angstroms):
                    1          2          3          4          5
     1  C    0.000000
     2  C    1.496954   0.000000
     3  C    2.610295   1.317417   0.000000
     4  C    4.072321   2.670580   1.507784   0.000000
     5  O    4.840072   3.412546   2.328039   1.223868   0.000000
     6  C    5.037906   3.725194   2.750742   1.542269   2.328334
     7  C    5.593136   4.455677   3.369124   2.340169   3.089107
     8  C    5.718263   4.837774   3.832226   3.197873   4.062099
     9  C    5.367728   4.787259   4.056335   3.862041   4.917971
    10  C    4.331673   3.865042   3.527389   3.666347   4.873183
    11  C    3.567682   2.957261   2.923986   3.200528   4.393852
    12  C    3.409849   2.347801   2.468889   2.611716   3.561091
    13  C    2.509050   1.461197   2.173297   2.873423   3.592023
    14  N    4.694323   3.479609   3.304163   2.807978   3.497086
    15  C    5.361019   4.138976   3.596998   2.732009   3.495427
    16  O    6.210570   5.135589   4.653407   3.847791   4.640494
    17  H    1.089280   2.149635   2.844973   4.317539   5.119470
    18  H    1.100735   2.153117   3.301561   4.632214   5.525497
    19  H    1.098226   2.147073   3.305377   4.753637   5.323825
    20  H    6.281480   5.827391   5.112151   4.920782   5.920945
    21  H    4.836787   4.654662   4.488872   4.753587   5.963791
    22  H    4.007244   3.589963   3.832859   4.128954   5.267658
    23  H    3.122001   2.137075   2.813426   3.348363   3.725088
                    6          7          8          9         10
     6  C    0.000000
     7  C    1.301930   0.000000
     8  C    2.412475   1.233954   0.000000
     9  C    3.204091   2.337450   1.312447   0.000000
    10  C    3.129578   2.906423   2.476898   1.609620   0.000000
    11  C    2.866328   3.248940   3.336299   2.874222   1.417063
    12  C    2.622161   3.608526   4.207577   4.205140   3.029849
    13  C    3.530678   4.542860   5.131311   5.128032   3.978907
    14  N    2.347240   3.511943   4.375930   4.650768   3.719389
    15  C    1.564639   2.482136   3.363339   3.792119   3.217477
    16  O    2.487341   2.937137   3.555106   3.818874   3.302829
    17  H    5.275859   5.589767   5.510265   5.068919   4.247150
    18  H    5.331979   5.897331   5.964187   5.437350   4.165568
    19  H    5.866111   6.512657   6.718348   6.437739   5.420351
    20  H    4.213235   3.192409   2.011107   1.114038   2.472524
    21  H    4.195902   3.876286   3.243232   2.079820   1.097290
    22  H    3.689510   4.159496   4.259536   3.695435   2.139596
    23  H    4.132014   5.271125   6.003579   6.135463   5.051604
                   11         12         13         14         15
    11  C    0.000000
    12  C    1.713862   0.000000
    13  C    2.706092   1.392552   0.000000
    14  N    2.612561   1.348365   2.397829   0.000000
    15  C    2.592085   2.156631   3.409422   1.346930   0.000000
    16  O    2.960259   3.018666   4.381361   2.277513   1.222393
    17  H    3.833593   4.062694   3.389165   5.352086   5.801527
    18  H    3.310246   3.326800   2.616068   4.652422   5.365765
    19  H    4.584414   4.169910   3.013549   5.373016   6.183853
    20  H    3.849947   5.279284   6.212805   5.693015   4.756243
    21  H    2.159316   3.870664   4.773112   4.594488   4.123198
    22  H    1.101674   2.023369   3.008593   2.780629   2.965561
    23  H    3.766768   2.243836   1.107613   2.797891   3.979203
                   16         17         18         19         20
    16  O    0.000000
    17  H    6.594708   0.000000
    18  H    6.060104   1.771958   0.000000
    19  H    7.099646   1.784728   1.756940   0.000000
    20  H    4.595158   5.870100   6.310324   7.356409   0.000000
    21  H    3.977184   4.662508   4.490082   5.924907   2.495233
    22  H    3.067736   4.411762   3.464499   4.944600   4.543373
    23  H    5.014042   4.093396   3.325237   3.271132   7.235699
                   21         22         23
    21  H    0.000000
    22  H    2.452699   0.000000
    23  H    5.867387   3.982418   0.000000
 Stoichiometry    C13H7NO2
 Framework group  C1[X(C13H7NO2)]
 Deg. of freedom    63
 Full point group                 C1      NOp   1
 Largest Abelian subgroup         C1      NOp   1
 Largest concise Abelian subgroup C1      NOp   1
                         Standard orientation:                         
 ---------------------------------------------------------------------
 Center     Atomic      Atomic             Coordinates (Angstroms)
 Number     Number       Type             X           Y           Z
 ---------------------------------------------------------------------
      1          6           0       -3.299303    1.460873   -0.080873
      2          6           0       -2.411613    0.275778   -0.300934
      3          6           0       -1.431516   -0.034103   -1.124931
      4          6           0       -0.265269   -0.977419   -1.278022
      5          8           0       -0.455973   -1.976504   -1.958694
      6          6           0        1.093709   -0.960450   -0.548991
      7          6           0        1.933926   -0.184625   -1.171206
      8          6           0        2.253118    0.991481   -1.364940
      9          6           0        1.989011    2.110558   -0.732144
     10          6           0        0.961102    1.985053    0.500142
     11          6           0        0.039071    1.111117    1.127964
     12          6           0       -0.758342   -0.403046    1.221584
     13          6           0       -2.103758   -0.523275    0.883059
     14          7           0        0.015552   -1.478780    1.470526
     15          6           0        1.239570   -1.182238    0.992965
     16          8           0        2.192712   -0.843610    1.679328
     17          1           0       -3.077381    2.261479   -0.785367
     18          1           0       -3.179561    1.860730    0.937653
     19          1           0       -4.356171    1.177127   -0.173704
     20          1           0        2.756868    2.891050   -0.937831
     21          1           0        1.178391    2.940506    0.994047
     22          1           0       -0.031838    1.197408    2.223962
     23          1           0       -2.731304   -1.434154    0.940445
 ---------------------------------------------------------------------
 Rotational constants (GHZ):           0.8130713           0.5575368           0.5309485
 Standard basis: 6-31G(2df,p) (6D, 7F)
 There are   531 symmetry adapted cartesian basis functions of A   symmetry.
 There are   483 symmetry adapted basis functions of A   symmetry.
   483 basis functions,   753 primitive gaussians,   531 cartesian basis functions
    54 alpha electrons       54 beta electrons
       nuclear repulsion energy      1011.4176722419 Hartrees.
 NAtoms=   23 NActive=   23 NUniq=   23 SFac= 1.00D+00 NAtFMM=   60 NAOKFM=F Big=F
 Integral buffers will be    131072 words long.
 Raffenetti 2 integral format.
 Two-electron integral symmetry is turned on.
 One-electron integrals computed using PRISM.
 PrsmSu:  requested number of processors reduced to:  12 ShMem   1 Linda.
 NBasis=   483 RedAO= T EigKep=  2.06D-04  NBF=   483
 NBsUse=   483 1.00D-06 EigRej= -1.00D+00 NBFU=   483
 Initial guess from the checkpoint file:  "CC1d[C]CqdOrC2dCdCdCCdCCqdC1r[N]C2dO.chk"
 B after Tr=     0.000000   -0.000000   -0.000000
         Rot=    0.998278   -0.047031   -0.017556   -0.030333 Ang=  -6.73 deg.
 ExpMin= 1.61D-01 ExpMax= 5.48D+03 ExpMxC= 8.25D+02 IAcc=2 IRadAn=         4 AccDes= 0.00D+00
 Harris functional with IExCor=  402 and IRadAn=       4 diagonalized for initial guess.
 HarFok:  IExCor=  402 AccDes= 0.00D+00 IRadAn=         4 IDoV= 1 UseB2=F ITyADJ=14
 ICtDFT=  3500011 ScaDFX=  1.000000  1.000000  1.000000  1.000000
 FoFCou: FMM=F IPFlag=           0 FMFlag=      100000 FMFlg1=           0
         NFxFlg=           0 DoJE=T BraDBF=F KetDBF=T FulRan=T
         wScrn=  0.000000 ICntrl=       500 IOpCl=  0 I1Cent=   200000004 NGrid=           0
         NMat0=    1 NMatS0=      1 NMatT0=    0 NMatD0=    1 NMtDS0=    0 NMtDT0=    0
 Petite list used in FoFCou.
 Requested convergence on RMS density matrix=1.00D-08 within 128 cycles.
 Requested convergence on MAX density matrix=1.00D-06.
 Requested convergence on             energy=1.00D-06.
 No special actions if energy rises.
 Integral accuracy reduced to 1.0D-05 until final iterations.
 Initial convergence to 1.0D-05 achieved.  Increase integral accuracy.
 SCF Done:  E(RB3LYP) =  -704.284604695     A.U. after   19 cycles
            NFock= 19  Conv=0.86D-08     -V/T= 2.0077
 PrsmSu:  requested number of processors reduced to:  13 ShMem   1 Linda.
 Calling FoFJK, ICntrl=      2127 FMM=F ISym2X=0 I1Cent= 0 IOpClX= 0 NMat=1 NMatS=1 NMatT=0.
 ***** Axes restored to original set *****
 -------------------------------------------------------------------
 Center     Atomic                   Forces (Hartrees/Bohr)
 Number     Number              X              Y              Z
 -------------------------------------------------------------------
      1        6          -0.007335329   -0.010116660    0.018796715
      2        6          -0.043766248   -0.008867153   -0.034430903
      3        6           0.017937444    0.016814043   -0.010618474
      4        6           0.004286587    0.025234928    0.035748093
      5        8          -0.008841705   -0.006636389   -0.014418503
      6        6           0.012505762    0.040844250   -0.006464670
      7        6           0.014753063    0.004619233    0.007144534
      8        6           0.022334533   -0.042685536    0.014910083
      9        6          -0.039018093    0.036501850   -0.011036590
     10        6          -0.012265402   -0.031388524    0.014841814
     11        6           0.020137547    0.007211919   -0.002042998
     12        6           0.065588749   -0.025249489   -0.046688448
     13        6           0.008234272   -0.012239313    0.051219569
     14        7          -0.073275752    0.019759377    0.024116772
     15        6           0.025684569   -0.032987704   -0.032779220
     16        8           0.014099457   -0.005428328    0.028779653
     17        1          -0.003504086   -0.002513745    0.003547982
     18        1           0.007263378   -0.002336938    0.001984832
     19        1          -0.002115938   -0.001912876    0.000082999
     20        1          -0.018888353    0.030124085   -0.009745888
     21        1           0.002245596    0.019250928    0.000002285
     22        1          -0.014741757   -0.018754592   -0.011085769
     23        1           0.008681709    0.000756632   -0.021863869
 -------------------------------------------------------------------
 Cartesian Forces:  Max     0.073275752 RMS     0.023903871

 GradGradGradGradGradGradGradGradGradGradGradGradGradGradGradGradGradGrad
 Berny optimization.
 Using GEDIIS/GDIIS optimizer.
 FormGI is forming the generalized inverse of G from B-inverse, IUseBI=4.
 Internal  Forces:  Max     0.066106242 RMS     0.018829571
 Search for a local minimum.
 Step number   2 out of a maximum of  118
 All quantities printed in internal units (Hartrees-Bohrs-Radians)
 Mixed Optimization -- RFO/linear search
 Update second derivatives using D2CorX and points    1    2
 DE= -7.78D-02 DEPred=-7.68D-02 R= 1.01D+00
 TightC=F SS=  1.41D+00  RLast= 3.58D-01 DXNew= 5.0454D-01 1.0750D+00
 Trust test= 1.01D+00 RLast= 3.58D-01 DXMaxT set to 5.05D-01
 ITU=  1  0
 Use linear search instead of GDIIS.
 Linear search step of   0.601 exceeds DXMaxT=   0.505 but not scaled.
 Quartic linear search produced a step of  2.00000.
 Iteration  1 RMS(Cart)=  0.18570985 RMS(Int)=  0.00871928
 Iteration  2 RMS(Cart)=  0.01117056 RMS(Int)=  0.00269033
 Iteration  3 RMS(Cart)=  0.00004376 RMS(Int)=  0.00269011
 Iteration  4 RMS(Cart)=  0.00000009 RMS(Int)=  0.00269011
 Variable       Old X    -DE/DX   Delta X   Delta X   Delta X     New X
                                 (Linear)    (Quad)   (Total)
    R1        2.82883   0.00455   0.03215   0.00000   0.03215   2.86098
    R2        2.05844   0.00356   0.01529   0.00000   0.01529   2.07373
    R3        2.08009  -0.00507  -0.01779   0.00000  -0.01779   2.06229
    R4        2.07535  -0.00006   0.00160   0.00000   0.00160   2.07695
    R5        2.48956  -0.01062  -0.02145   0.00000  -0.01880   2.47076
    R6        2.76126   0.01559   0.06309   0.00000   0.06270   2.82396
    R7        2.84930  -0.01143  -0.03977   0.00000  -0.03733   2.81197
    R8        2.31277  -0.01707  -0.02801   0.00000  -0.02801   2.28477
    R9        2.91447   0.00543   0.02027   0.00000   0.02267   2.93714
   R10        2.46029   0.03181   0.07380   0.00000   0.07636   2.53665
   R11        2.95674  -0.02395  -0.08061   0.00000  -0.07960   2.87714
   R12        2.33183   0.05109   0.10328   0.00000   0.10384   2.43567
   R13        2.48016   0.06611   0.15716   0.00000   0.15526   2.63542
   R14        3.04174  -0.05227  -0.16853   0.00000  -0.17175   2.87000
   R15        2.10523  -0.01583  -0.04659   0.00000  -0.04659   2.05864
   R16        2.67786  -0.05283  -0.17968   0.00000  -0.18212   2.49574
   R17        2.07358  -0.00449  -0.01778   0.00000  -0.01778   2.05580
   R18        3.23873  -0.03005  -0.10128   0.00000  -0.10238   3.13635
   R19        2.08186  -0.00374  -0.01550   0.00000  -0.01550   2.06637
   R20        2.63154   0.02616   0.05300   0.00000   0.05032   2.68186
   R21        2.54804  -0.03491  -0.05378   0.00000  -0.05399   2.49405
   R22        2.09308  -0.01174  -0.03744   0.00000  -0.03744   2.05564
   R23        2.54533   0.03605   0.07955   0.00000   0.08008   2.62541
   R24        2.30999  -0.02492  -0.03137   0.00000  -0.03137   2.27861
    A1        1.94548   0.00381   0.02589   0.00000   0.02587   1.97135
    A2        1.93810  -0.00939  -0.04263   0.00000  -0.04229   1.89581
    A3        1.93232   0.00392   0.01945   0.00000   0.01938   1.95169
    A4        1.88524   0.00283   0.00780   0.00000   0.00817   1.89341
    A5        1.90846  -0.00406  -0.02236   0.00000  -0.02273   1.88574
    A6        1.85122   0.00280   0.01045   0.00000   0.01072   1.86194
    A7        2.37363  -0.00134  -0.01479   0.00000  -0.01640   2.35723
    A8        2.02500   0.04532   0.17293   0.00000   0.17149   2.19648
    A9        1.79408  -0.03867  -0.12948   0.00000  -0.12942   1.66466
   A10        2.47527   0.02717   0.06093   0.00000   0.06520   2.54047
   A11        2.03383   0.00289   0.00862   0.00000   0.00399   2.03783
   A12        2.24808   0.00118   0.01798   0.00000   0.01868   2.26676
   A13        1.99235  -0.00236  -0.00953   0.00000  -0.01414   1.97822
   A14        1.92763  -0.00704  -0.02952   0.00000  -0.03085   1.89678
   A15        2.14889   0.00989   0.02961   0.00000   0.02578   2.17468
   A16        2.08897  -0.00535  -0.01845   0.00000  -0.01286   2.07611
   A17        2.51485  -0.02401  -0.05705   0.00000  -0.05118   2.46367
   A18        2.32532  -0.01344  -0.00481   0.00000  -0.00467   2.32064
   A19        2.01656   0.02213   0.08157   0.00000   0.07728   2.09384
   A20        1.94943   0.02239   0.10909   0.00000   0.11342   2.06285
   A21        2.26028  -0.04535  -0.19747   0.00000  -0.19605   2.06422
   A22        2.50275  -0.00020  -0.02368   0.00000  -0.02820   2.47455
   A23        1.72161   0.01825   0.09061   0.00000   0.09218   1.81380
   A24        2.05605  -0.01843  -0.06972   0.00000  -0.06848   1.98757
   A25        2.62966   0.00358  -0.00988   0.00000  -0.01048   2.61919
   A26        2.02010  -0.02488  -0.10367   0.00000  -0.10331   1.91679
   A27        1.55571   0.02376   0.12183   0.00000   0.12166   1.67737
   A28        2.10892  -0.03375  -0.11682   0.00000  -0.11739   1.99152
   A29        2.03520   0.03603   0.13468   0.00000   0.13427   2.16947
   A30        2.13001  -0.00154  -0.01445   0.00000  -0.01370   2.11631
   A31        1.93192   0.01310   0.03571   0.00000   0.03162   1.96354
   A32        1.95231   0.01171   0.07062   0.00000   0.07346   2.02577
   A33        2.22157  -0.01977  -0.07837   0.00000  -0.07902   2.14255
   A34        1.85508   0.00780   0.06703   0.00000   0.06954   1.92461
   A35        1.87120  -0.02053  -0.06163   0.00000  -0.06455   1.80665
   A36        2.19786  -0.00107  -0.02199   0.00000  -0.01964   2.17822
   A37        2.17790   0.01964   0.07142   0.00000   0.07145   2.24935
    D1        0.00719  -0.00279  -0.02018   0.00000  -0.02222  -0.01503
    D2        2.61384   0.00449   0.03283   0.00000   0.03430   2.64814
    D3       -2.09580  -0.00255  -0.01886   0.00000  -0.02058  -2.11638
    D4        0.51086   0.00473   0.03415   0.00000   0.03594   0.54680
    D5        2.13575  -0.00260  -0.01761   0.00000  -0.01911   2.11664
    D6       -1.54078   0.00468   0.03540   0.00000   0.03740  -1.50338
    D7        2.79219   0.01937   0.10439   0.00000   0.10070   2.89288
    D8        0.13962  -0.00361  -0.00696   0.00000  -0.00413   0.13549
    D9       -1.95337   0.00314   0.01184   0.00000   0.01499  -1.93837
   D10        1.74445   0.00361   0.00525   0.00000   0.00460   1.74906
   D11        0.81658   0.01081   0.05414   0.00000   0.05390   0.87048
   D12       -1.76879   0.01128   0.04756   0.00000   0.04351  -1.72528
   D13        1.70287   0.00717   0.07076   0.00000   0.07045   1.77332
   D14       -1.28598  -0.00725  -0.04869   0.00000  -0.05030  -1.33628
   D15       -1.51048   0.01562   0.12006   0.00000   0.11764  -1.39284
   D16        1.12448   0.00846   0.07554   0.00000   0.07707   1.20155
   D17        1.78087   0.00111   0.00120   0.00000  -0.00100   1.77987
   D18       -1.86736  -0.00605  -0.04333   0.00000  -0.04157  -1.90893
   D19        1.35306  -0.00911  -0.06709   0.00000  -0.06714   1.28592
   D20       -1.30174  -0.00730  -0.03963   0.00000  -0.04248  -1.34421
   D21        0.08271  -0.01653  -0.10989   0.00000  -0.10645  -0.02374
   D22       -2.78245  -0.01206  -0.07245   0.00000  -0.07579  -2.85824
   D23        2.67349  -0.02420  -0.15946   0.00000  -0.15401   2.51948
   D24       -0.19166  -0.01972  -0.12203   0.00000  -0.12335  -0.31502
   D25        0.31010  -0.01414  -0.07047   0.00000  -0.06740   0.24270
   D26       -0.08529   0.00198   0.02195   0.00000   0.02536  -0.05993
   D27        2.73516  -0.00987  -0.03780   0.00000  -0.03146   2.70370
   D28       -0.19856   0.00767   0.04552   0.00000   0.04948  -0.14908
   D29        2.85179   0.00097  -0.00903   0.00000  -0.00809   2.84371
   D30       -2.95023   0.00328   0.03266   0.00000   0.03781  -2.91242
   D31        0.10013  -0.00342  -0.02190   0.00000  -0.01976   0.08037
   D32        0.01802  -0.00683  -0.05700   0.00000  -0.05283  -0.03481
   D33        2.55717   0.00491  -0.00161   0.00000   0.00000   2.55718
   D34       -3.02156  -0.00062   0.00040   0.00000   0.00319  -3.01837
   D35       -0.48241   0.01112   0.05579   0.00000   0.05602  -0.42639
   D36       -1.87842  -0.00116  -0.01331   0.00000  -0.01187  -1.89029
   D37        1.12184   0.00472   0.01234   0.00000   0.01403   1.13587
[...]
 ! R5    R(2,3)                  1.3091         calculate D2E/DX2 analytically  !
 ! R6    R(2,13)                 1.5045         calculate D2E/DX2 analytically  !
 ! R7    R(3,4)                  1.4576         calculate D2E/DX2 analytically  !
 ! R8    R(4,5)                  1.21           calculate D2E/DX2 analytically  !
 ! R9    R(4,6)                  1.5124         calculate D2E/DX2 analytically  !
 ! R10   R(6,7)                  1.3663         calculate D2E/DX2 analytically  !
 ! R11   R(6,15)                 1.5657         calculate D2E/DX2 analytically  !
 ! R12   R(7,8)                  1.242          calculate D2E/DX2 analytically  !
 ! R13   R(8,9)                  1.3717         calculate D2E/DX2 analytically  !
 ! R14   R(9,10)                 1.4018         calculate D2E/DX2 analytically  !
 ! R15   R(9,20)                 1.0885         calculate D2E/DX2 analytically  !
 ! R16   R(10,11)                1.4039         calculate D2E/DX2 analytically  !
 ! R17   R(10,21)                1.0904         calculate D2E/DX2 analytically  !
 ! R18   R(11,12)                1.4277         calculate D2E/DX2 analytically  !
 ! R19   R(11,22)                1.0888         calculate D2E/DX2 analytically  !
 ! R20   R(12,13)                1.5058         calculate D2E/DX2 analytically  !
 ! R21   R(12,14)                1.3092         calculate D2E/DX2 analytically  !
 ! R22   R(13,23)                1.0902         calculate D2E/DX2 analytically  !
 ! R23   R(14,15)                1.3646         calculate D2E/DX2 analytically  !
 ! R24   R(15,16)                1.1953         calculate D2E/DX2 analytically  !
 ! A1    A(2,1,17)             111.2728         calculate D2E/DX2 analytically  !
 ! A2    A(2,1,18)             110.2692         calculate D2E/DX2 analytically  !
 ! A3    A(2,1,19)             110.3862         calculate D2E/DX2 analytically  !
 ! A4    A(17,1,18)            109.0318         calculate D2E/DX2 analytically  !
 ! A5    A(17,1,19)            108.8633         calculate D2E/DX2 analytically  !
 ! A6    A(18,1,19)            106.9012         calculate D2E/DX2 analytically  !
 ! A7    A(1,2,3)              149.3113         calculate D2E/DX2 analytically  !
 ! A8    A(1,2,13)             145.3059         calculate D2E/DX2 analytically  !
 ! A9    A(3,2,13)              64.7754         calculate D2E/DX2 analytically  !
 ! A10   A(2,3,4)              146.3572         calculate D2E/DX2 analytically  !
 ! A11   A(3,4,5)              126.8787         calculate D2E/DX2 analytically  !
 ! A12   A(3,4,6)              112.7015         calculate D2E/DX2 analytically  !
 ! A13   A(5,4,6)              120.1348         calculate D2E/DX2 analytically  !
 ! A14   A(4,6,7)              116.6694         calculate D2E/DX2 analytically  !
 ! A15   A(4,6,15)             120.0351         calculate D2E/DX2 analytically  !
 ! A16   A(7,6,15)             112.7008         calculate D2E/DX2 analytically  !
 ! A17   A(6,7,8)              142.7053         calculate D2E/DX2 analytically  !
 ! A18   A(7,8,9)              159.5242         calculate D2E/DX2 analytically  !
 ! A19   A(8,9,10)             121.1863         calculate D2E/DX2 analytically  !
 ! A20   A(8,9,20)             119.827          calculate D2E/DX2 analytically  !
 ! A21   A(10,9,20)            118.2238         calculate D2E/DX2 analytically  !
 ! A22   A(9,10,11)            125.8924         calculate D2E/DX2 analytically  !
 ! A23   A(9,10,21)            117.1499         calculate D2E/DX2 analytically  !
 ! A24   A(11,10,21)           116.7705         calculate D2E/DX2 analytically  !
 ! A25   A(10,11,12)           128.4271         calculate D2E/DX2 analytically  !
 ! A26   A(10,11,22)           116.5721         calculate D2E/DX2 analytically  !
 ! A27   A(12,11,22)           114.8867         calculate D2E/DX2 analytically  !
 ! A28   A(11,12,13)           121.7161         calculate D2E/DX2 analytically  !
 ! A29   A(11,12,14)           122.5385         calculate D2E/DX2 analytically  !
 ! A30   A(13,12,14)           115.223          calculate D2E/DX2 analytically  !
 ! A31   A(2,13,12)            119.132          calculate D2E/DX2 analytically  !
 ! A32   A(2,13,23)            122.3866         calculate D2E/DX2 analytically  !
 ! A33   A(12,13,23)           117.232          calculate D2E/DX2 analytically  !
 ! A34   A(12,14,15)           134.6453         calculate D2E/DX2 analytically  !
 ! A35   A(6,15,14)             97.1808         calculate D2E/DX2 analytically  !
 ! A36   A(6,15,16)            130.6942         calculate D2E/DX2 analytically  !
 ! A37   A(14,15,16)           131.5263         calculate D2E/DX2 analytically  !
 ! D1    D(17,1,2,3)             4.4382         calculate D2E/DX2 analytically  !
 ! D2    D(17,1,2,13)          169.6566         calculate D2E/DX2 analytically  !
 ! D3    D(18,1,2,3)          -116.6809         calculate D2E/DX2 analytically  !
 ! D4    D(18,1,2,13)           48.5376         calculate D2E/DX2 analytically  !
 ! D5    D(19,1,2,3)           125.4236         calculate D2E/DX2 analytically  !
 ! D6    D(19,1,2,13)          -69.358          calculate D2E/DX2 analytically  !
 ! D7    D(1,2,3,4)             39.8433         calculate D2E/DX2 analytically  !
 ! D8    D(13,2,3,4)          -130.9191         calculate D2E/DX2 analytically  !
 ! D9    D(1,2,13,12)          -80.5229         calculate D2E/DX2 analytically  !
 ! D10   D(1,2,13,23)           86.3486         calculate D2E/DX2 analytically  !
 ! D11   D(3,2,13,12)           91.2013         calculate D2E/DX2 analytically  !
 ! D12   D(3,2,13,23)         -101.9273         calculate D2E/DX2 analytically  !
 ! D13   D(2,3,4,5)            -69.4385         calculate D2E/DX2 analytically  !
 ! D14   D(2,3,4,6)            104.3766         calculate D2E/DX2 analytically  !
 ! D15   D(3,4,6,7)            -97.0855         calculate D2E/DX2 analytically  !
 ! D16   D(3,4,6,15)            45.0301         calculate D2E/DX2 analytically  !
 ! D17   D(5,4,6,7)             77.1957         calculate D2E/DX2 analytically  !
 ! D18   D(5,4,6,15)          -140.6887         calculate D2E/DX2 analytically  !
 ! D19   D(4,6,7,8)             99.9143         calculate D2E/DX2 analytically  !
 ! D20   D(15,6,7,8)           -44.8983         calculate D2E/DX2 analytically  !
 ! D21   D(4,6,15,14)          -86.7208         calculate D2E/DX2 analytically  !
 ! D22   D(4,6,15,16)          101.5303         calculate D2E/DX2 analytically  !
 ! D23   D(7,6,15,14)           56.7795         calculate D2E/DX2 analytically  !
 ! D24   D(7,6,15,16)         -114.9695         calculate D2E/DX2 analytically  !
 ! D25   D(6,7,8,9)             -0.3225         calculate D2E/DX2 analytically  !
 ! D26   D(7,8,9,10)           -34.7499         calculate D2E/DX2 analytically  !
 ! D27   D(7,8,9,20)           135.0666         calculate D2E/DX2 analytically  !
 ! D28   D(8,9,10,11)           18.9181         calculate D2E/DX2 analytically  !
 ! D29   D(8,9,10,21)         -166.2349         calculate D2E/DX2 analytically  !
 ! D30   D(20,9,10,11)        -151.057          calculate D2E/DX2 analytically  !
 ! D31   D(20,9,10,21)          23.7901         calculate D2E/DX2 analytically  !
 ! D32   D(9,10,11,12)          18.8226         calculate D2E/DX2 analytically  !
 ! D33   D(9,10,11,22)        -165.2914         calculate D2E/DX2 analytically  !
 ! D34   D(21,10,11,12)       -156.0419         calculate D2E/DX2 analytically  !
 ! D35   D(21,10,11,22)         19.8441         calculate D2E/DX2 analytically  !
 ! D36   D(10,11,12,13)       -147.528          calculate D2E/DX2 analytically  !
 ! D37   D(10,11,12,14)         23.7834         calculate D2E/DX2 analytically  !
 ! D38   D(22,11,12,13)         36.528          calculate D2E/DX2 analytically  !
 ! D39   D(22,11,12,14)       -152.1606         calculate D2E/DX2 analytically  !
 ! D40   D(11,12,13,2)          46.4533         calculate D2E/DX2 analytically  !
 ! D41   D(11,12,13,23)       -121.0892         calculate D2E/DX2 analytically  !
 ! D42   D(14,12,13,2)        -125.4542         calculate D2E/DX2 analytically  !
 ! D43   D(14,12,13,23)         67.0034         calculate D2E/DX2 analytically  !
 ! D44   D(11,12,14,15)       -141.3344         calculate D2E/DX2 analytically  !
 ! D45   D(13,12,14,15)         30.4993         calculate D2E/DX2 analytically  !
 ! D46   D(12,14,15,6)          52.1582         calculate D2E/DX2 analytically  !
 ! D47   D(12,14,15,16)       -136.1988         calculate D2E/DX2 analytically  !
 --------------------------------------------------------------------------------
 Trust Radius=3.00D-01 FncErr=1.00D-07 GrdErr=1.00D-07 EigMax=2.50D+02 EigMin=1.00D-04
 Number of steps in this run=      2 maximum allowed number of steps=      2.
 GradGradGradGradGradGradGradGradGradGradGradGradGradGradGradGradGradGrad

                          Input orientation:                          
 ---------------------------------------------------------------------
 Center     Atomic      Atomic             Coordinates (Angstroms)
 Number     Number       Type             X           Y           Z
 ---------------------------------------------------------------------
      1          6           0        1.317843   -0.290634    0.454194
      2          6           0        2.687900    0.024960    0.014020
      3          6           0        3.977065   -0.180732    0.111292
      4          6           0        5.039619   -1.164085    0.280072
      5          8           0        5.284881   -1.804299    1.277162
      6          6           0        5.779297   -1.450949   -1.007480
      7          6           0        5.384226   -2.554936   -1.708782
      8          6           0        4.698372   -2.915730   -2.679295
      9          6           0        3.867649   -2.832420   -3.767687
     10          6           0        2.842364   -1.878324   -3.826944
     11          6           0        2.757346   -0.712151   -3.049913
     12          6           0        3.796465   -0.046642   -2.331779
     13          6           0        3.524781    0.688204   -1.045846
     14          7           0        5.061043   -0.169623   -2.647633
     15          6           0        6.221500   -0.271029   -1.936842
     16          8           0        7.287964    0.248830   -2.082420
     17          1           0        1.322043   -0.998269    1.286453
     18          1           0        0.741831   -0.716965   -0.374254
     19          1           0        0.797572    0.622198    0.767648
     20          1           0        4.098591   -3.396553   -4.669460
     21          1           0        2.083513   -2.010701   -4.598631
     22          1           0        1.793046   -0.206766   -3.033906
     23          1           0        3.769928    1.750076   -1.016699
 ---------------------------------------------------------------------
                    Distance matrix (angstroms):
                    1          2          3          4          5
     1  C    0.000000
     2  C    1.473231   0.000000
     3  C    2.683491   1.309091   0.000000
     4  C    3.826859   2.648621   1.457563   0.000000
     5  O    4.325027   3.418484   2.388641   1.210048   0.000000
     6  C    4.836052   3.574704   2.472477   1.512351   2.364083
     7  C    5.132349   4.110242   3.305998   2.451278   3.080452
     8  C    5.304513   4.465826   3.973396   3.455801   4.151243
     9  C    5.548555   4.884438   4.699990   4.532241   5.340045
    10  C    4.813841   4.289446   4.436110   4.712287   5.658910
    11  C    3.811642   3.152117   3.429773   4.062243   5.128821
    12  C    3.736944   2.595538   2.453405   3.100948   4.281261
    13  C    2.842327   1.504519   1.516107   2.735647   3.834956
    14  N    4.862872   3.571284   2.964254   3.092066   4.257498
    15  C    5.455574   4.047197   3.039818   2.666290   3.682118
    16  O    6.509053   5.060214   3.994865   3.554259   4.417518
    17  H    1.092438   2.128767   3.016374   3.854953   4.043990
    18  H    1.095387   2.118583   3.315123   4.370244   4.954672
    19  H    1.096448   2.120846   3.344350   4.628553   5.126738
    20  H    6.605386   5.969237   5.762974   5.510655   6.269359
    21  H    5.392209   5.077967   5.396082   5.766893   6.694497
    22  H    3.521319   3.185014   3.829215   4.736997   5.773243
    23  H    3.512940   2.282365   2.245727   3.433084   4.493380
                    6          7          8          9         10
     6  C    0.000000
     7  C    1.366270   0.000000
     8  C    2.471629   1.241960   0.000000
     9  C    3.630648   2.572177   1.371728   0.000000
    10  C    4.093605   3.377200   2.416211   1.401792   0.000000
    11  C    3.721498   3.477785   2.959848   2.498703   1.403910
    12  C    2.767213   3.033257   3.027518   3.134877   2.549683
    13  C    3.108100   3.796706   4.127203   4.463269   3.845421
    14  N    2.201770   2.583720   2.770133   3.125572   3.038580
    15  C    1.565717   2.443209   3.140955   3.931073   4.192188
    16  O    2.514125   3.409535   4.132395   4.902324   5.227954
    17  H    5.033305   5.281664   5.550082   5.948828   5.406727
    18  H    5.129890   5.168262   5.079566   5.075557   4.205004
    19  H    5.680370   6.104448   6.294012   6.475262   5.616409
    20  H    4.474399   3.335685   2.133468   1.088473   2.143119
    21  H    5.183484   4.420647   3.367553   2.132798   1.090357
    22  H    4.641615   4.490705   3.988126   3.425853   2.126989
    23  H    3.779446   4.649523   5.039442   5.345723   4.682215
                   11         12         13         14         15
    11  C    0.000000
    12  C    1.427721   0.000000
    13  C    2.562466   1.505800   0.000000
    14  N    2.400663   1.309215   2.379430   0.000000
    15  C    3.665225   2.467208   2.997714   1.364613   0.000000
    16  O    4.731387   3.512840   3.927986   2.335326   1.195321
    17  H    4.576684   4.485528   3.624344   5.490338   5.909584
    18  H    3.349847   3.689448   3.189098   4.911560   5.715532
    19  H    4.493882   4.364305   3.275789   5.519811   6.126265
    20  H    3.409968   4.096087   5.490453   3.927744   4.662922
    21  H    2.130448   3.454033   4.688669   4.007698   5.218669
    22  H    1.088827   2.128923   2.784288   3.290956   4.562772
    23  H    3.349902   2.226733   1.090193   2.830577   3.307829
                   16         17         18         19         20
    16  O    0.000000
    17  H    6.963962   0.000000
    18  H    6.833919   1.781495   0.000000
    19  H    7.098414   1.780489   1.760796   0.000000
    20  H    5.491238   6.995276   6.074276   7.523910   0.000000
    21  H    6.206698   6.019889   4.617275   6.114143   2.446658
    22  H    5.595267   4.417445   2.905013   4.016212   4.262079
    23  H    3.970651   4.341665   3.958333   3.645670   6.319689
                   21         22         23
    21  H    0.000000
    22  H    2.405601   0.000000
    23  H    5.460557   3.436047   0.000000
 Stoichiometry    C13H7NO2
 Framework group  C1[X(C13H7NO2)]
 Deg. of freedom    63
 Full point group                 C1      NOp   1
 Largest Abelian subgroup         C1      NOp   1
 Largest concise Abelian subgroup C1      NOp   1
                         Standard orientation:                         
 ---------------------------------------------------------------------
 Center     Atomic      Atomic             Coordinates (Angstroms)
 Number     Number       Type             X           Y           Z
 ---------------------------------------------------------------------
      1          6           0       -3.332326    1.321794   -0.213123
      2          6           0       -2.327306    0.380754    0.311080
      3          6           0       -1.623787   -0.713164    0.162336
      4          6           0       -0.864005   -1.551726   -0.756378
      5          8           0       -1.303608   -2.207870   -1.673133
      6          6           0        0.630333   -1.428698   -0.558839
      7          6           0        1.290464   -0.570488   -1.392143
      8          6           0        1.770438    0.573313   -1.453860
      9          6           0        2.125550    1.840519   -1.066922
     10          6           0        1.310679    2.592839   -0.209588
     11          6           0        0.306358    2.083333    0.628689
     12          6           0        0.124766    0.741636    1.081745
     13          6           0       -1.245186    0.170173    1.334921
     14          7           0        1.108942   -0.119402    1.145410
     15          6           0        1.234565   -1.453108    0.885383
     16          8           0        1.780735   -2.329777    1.486999
     17          1           0       -3.757722    0.964080   -1.153601
     18          1           0       -2.881231    2.306478   -0.376776
     19          1           0       -4.142434    1.458980    0.512896
     20          1           0        3.123594    2.214398   -1.288050
     21          1           0        1.526577    3.658320   -0.125826
     22          1           0       -0.395866    2.805535    1.042029
     23          1           0       -1.455788   -0.193860    2.340727
 ---------------------------------------------------------------------
 Rotational constants (GHZ):           0.6943088           0.6337908           0.4775501
 Standard basis: 6-31G(2df,p) (6D, 7F)
 There are   531 symmetry adapted cartesian basis functions of A   symmetry.
 There are   483 symmetry adapted basis functions of A   symmetry.
   483 basis functions,   753 primitive gaussians,   531 cartesian basis functions
    54 alpha electrons       54 beta electrons
       nuclear repulsion energy      1006.0843582991 Hartrees.
 NAtoms=   23 NActive=   23 NUniq=   23 SFac= 1.00D+00 NAtFMM=   60 NAOKFM=F Big=F
 Integral buffers will be    131072 words long.
 Raffenetti 2 integral format.
 Two-electron integral symmetry is turned on.
 One-electron integrals computed using PRISM.
 PrsmSu:  requested number of processors reduced to:  12 ShMem   1 Linda.
 NBasis=   483 RedAO= T EigKep=  1.86D-04  NBF=   483
 NBsUse=   483 1.00D-06 EigRej= -1.00D+00 NBFU=   483
 Initial guess from the checkpoint file:  "CC1d[C]CqdOrC2dCdCdCCdCCqdC1r[N]C2dO.chk"
 B after Tr=    -0.000000   -0.000000    0.000000
         Rot=    1.000000    0.000000    0.000000    0.000000 Ang=   0.00 deg.
 Requested convergence on RMS density matrix=1.00D-08 within 128 cycles.
 Requested convergence on MAX density matrix=1.00D-06.
 Requested convergence on             energy=1.00D-06.
 No special actions if energy rises.
 SCF Done:  E(RB3LYP) =  -704.526892362     A.U. after    1 cycles
            NFock=  1  Conv=0.58D-08     -V/T= 2.0074
 DoSCS=F DFT=T ScalE2(SS,OS)=  1.000000  1.000000
 Range of M.O.s used for correlation:     1   483
 NBasis=   483 NAE=    54 NBE=    54 NFC=     0 NFV=     0
 NROrb=    483 NOA=    54 NOB=    54 NVA=   429 NVB=   429

 **** Warning!!: The largest alpha MO coefficient is  0.58584816D+02


 **** Warning!!: The smallest alpha delta epsilon is  0.85080600D-01

 PrsmSu:  requested number of processors reduced to:  12 ShMem   1 Linda.
 PrsmSu:  requested number of processors reduced to:   7 ShMem   1 Linda.
 Symmetrizing basis deriv contribution to polar:
 IMax=3 JMax=2 DiffMx= 0.00D+00
 G2DrvN: will do     2 centers at a time, making   12 passes.
 Calling FoFCou, ICntrl=  3107 FMM=F I1Cent=   0 AccDes= 0.00D+00.
 Calling FoFCou, ICntrl=  3107 FMM=F I1Cent=   0 AccDes= 0.00D+00.
 Calling FoFCou, ICntrl=  3107 FMM=F I1Cent=   0 AccDes= 0.00D+00.
 Calling FoFCou, ICntrl=  3107 FMM=F I1Cent=   0 AccDes= 0.00D+00.
 Calling FoFCou, ICntrl=  3107 FMM=F I1Cent=   0 AccDes= 0.00D+00.
 Calling FoFCou, ICntrl=  3107 FMM=F I1Cent=   0 AccDes= 0.00D+00.
 Calling FoFCou, ICntrl=  3107 FMM=F I1Cent=   0 AccDes= 0.00D+00.
slurmstepd: error: *** JOB 27447104 ON lewis4-r630-hpc4-node538 CANCELLED AT 2023-05-16T16:15:05 DUE TO TIME LIMIT ***
