### Starting Gaussian ###
 Entering Gaussian System, Link 0=g16
 Initial command:
 /cluster/software/gaussian/gaussian-16-A.03/avx2/g16/l1.exe "/local/scratch/yxie/Gau-9466.inp" -scrdir="/local/scratch/yxie/"
 Entering Link 1 = /cluster/software/gaussian/gaussian-16-A.03/avx2/g16/l1.exe PID=      9467.
  
 Copyright (c) 1988,1990,1992,1993,1995,1998,2003,2009,2016,
            Gaussian, Inc.  All Rights Reserved.
  
 This is part of the Gaussian(R) 16 program.  It is based on
 the Gaussian(R) 09 system (copyright 2009, Gaussian, Inc.),
 the Gaussian(R) 03 system (copyright 2003, Gaussian, Inc.),
 the Gaussian(R) 98 system (copyright 1998, Gaussian, Inc.),
 the Gaussian(R) 94 system (copyright 1995, Gaussian, Inc.),
 the Gaussian 92(TM) system (copyright 1992, Gaussian, Inc.),
 the Gaussian 90(TM) system (copyright 1990, Gaussian, Inc.),
 the Gaussian 88(TM) system (copyright 1988, Gaussian, Inc.),
 the Gaussian 86(TM) system (copyright 1986, Carnegie Mellon
 University), and the Gaussian 82(TM) system (copyright 1983,
 Carnegie Mellon University). Gaussian is a federally registered
 trademark of Gaussian, Inc.
  
 This software contains proprietary and confidential information,
 including trade secrets, belonging to Gaussian, Inc.
  
 This software is provided under written license and may be
 used, copied, transmitted, or stored only in accord with that
 written license.
  
 The following legend is applicable only to US Government
 contracts under FAR:
  
                    RESTRICTED RIGHTS LEGEND
  
 Use, reproduction and disclosure by the US Government is
 subject to restrictions as set forth in subparagraphs (a)
 and (c) of the Commercial Computer Software - Restricted
 Rights clause in FAR 52.227-19.
  
 Gaussian, Inc.
 340 Quinnipiac St., Bldg. 40, Wallingford CT 06492
  
  
 ---------------------------------------------------------------
 Warning -- This program may not be used in any manner that
 competes with the business of Gaussian, Inc. or will provide
 assistance to any competitor of Gaussian, Inc.  The licensee
 of this program is prohibited from giving any competitor of
 Gaussian, Inc. access to this program.  By using this program,
 the user acknowledges that Gaussian, Inc. is engaged in the
 business of creating and licensing software in the field of
 computational chemistry and represents and warrants to the
 licensee that it is not a competitor of Gaussian, Inc. and that
 it will not use this program in any manner prohibited above.
 ---------------------------------------------------------------
  

 Cite this work as:
 Gaussian 16, Revision A.03,
 M. J. Frisch, G. W. Trucks, H. B. Schlegel, G. E. Scuseria, 
 M. A. Robb, J. R. Cheeseman, G. Scalmani, V. Barone, 
 G. A. Petersson, H. Nakatsuji, X. Li, M. Caricato, A. V. Marenich, 
 J. Bloino, B. G. Janesko, R. Gomperts, B. Mennucci, H. P. Hratchian, 
 J. V. Ortiz, A. F. Izmaylov, J. L. Sonnenberg, D. Williams-Young, 
 F. Ding, F. Lipparini, F. Egidi, J. Goings, B. Peng, A. Petrone, 
 T. Henderson, D. Ranasinghe, V. G. Zakrzewski, J. Gao, N. Rega, 
 G. Zheng, W. Liang, M. Hada, M. Ehara, K. Toyota, R. Fukuda, 
 J. Hasegawa, M. Ishida, T. Nakajima, Y. Honda, O. Kitao, H. Nakai, 
 T. Vreven, K. Throssell, J. A. Montgomery, Jr., J. E. Peralta, 
 F. Ogliaro, M. J. Bearpark, J. J. Heyd, E. N. Brothers, K. N. Kudin, 
 V. N. Staroverov, T. A. Keith, R. Kobayashi, J. Normand, 
 K. Raghavachari, A. P. Rendell, J. C. Burant, S. S. Iyengar, 
 J. Tomasi, M. Cossi, J. M. Millam, M. Klene, C. Adamo, R. Cammi, 
 J. W. Ochterski, R. L. Martin, K. Morokuma, O. Farkas, 
 J. B. Foresman, and D. J. Fox, Gaussian, Inc., Wallingford CT, 2016.
 
 ******************************************
 Gaussian 16:  ES64L-G16RevA.03 25-Dec-2016
                16-May-2023 
 ******************************************
 %chk=CC1dCCdc2ccccc2dNCdCC1dS.chk
 %NProcShared=20
 Will use up to   20 processors via shared memory.
 -----------------------------
 # opt freq b3lyp/6-31g(2df,p)
 -----------------------------
 1/18=20,19=15,26=3,38=1/1,3;
 2/9=110,12=2,17=6,18=5,40=1/2;
 3/5=1,6=6,7=104,11=2,25=1,30=1,71=1,74=-5/1,2,3;
 4//1;
 5/5=2,38=5/2;
 6/7=2,8=2,9=2,10=2,28=1/1;
 7//1,2,3,16;
 1/18=20,19=15,26=3/3(2);
 2/9=110/2;
 99//99;
 2/9=110/2;
 3/5=1,6=6,7=104,11=2,25=1,30=1,71=1,74=-5/1,2,3;
 4/5=5,16=3,69=1/1;
 5/5=2,38=5/2;
 7//1,2,3,16;
 1/18=20,19=15,26=3/3(-5);
 2/9=110/2;
 6/7=2,8=2,9=2,10=2,19=2,28=1/1;
 99/9=1/99;
 -------------------
 Title Card Required
 -------------------
 Symbolic Z-matrix:
 Charge =  0 Multiplicity = 1
 C                     0.65208   0.59885   0.12718 
 C                     2.20144   0.39732   0.40326 
 C                     3.29628   0.47644   1.23604 
 C                     4.69147  -0.16576   1.02901 
 C                     5.30098  -1.0901    1.8505 
 C                     6.72291  -1.4191    1.76782 
 C                     7.31749  -2.2335    2.71027 
 C                     6.55788  -2.74862   3.81227 
 C                     5.24543  -2.50103   3.98387 
 C                     4.44934  -1.88416   2.85517 
 N                     3.20302  -2.28128   2.66855 
 C                     2.91389  -2.4177    1.31338 
 C                     1.8968   -1.91054   0.58456 
 C                     2.42735  -0.803    -0.39612 
 S                     2.7945   -0.56202  -2.02336 
 H                    -0.05306   0.06995   0.78886 
 H                     0.38733   0.05098  -0.81738 
 H                     0.31083   1.59997  -0.11641 
 H                     3.19733   0.80784   2.26567 
 H                     5.25707   0.14914   0.1459 
 H                     7.36354  -0.96138   1.03459 
 H                     8.38342  -2.41697   2.68702 
 H                     7.11086  -3.35963   4.53299 
 H                     4.70815  -2.91933   4.82373 
 H                     3.75284  -2.74435   0.72947 
 H                     1.06586  -1.56954   1.2177 
 

 GradGradGradGradGradGradGradGradGradGradGradGradGradGradGradGradGradGrad
 Berny optimization.
 Initialization pass.
                           ----------------------------
                           !    Initial Parameters    !
                           ! (Angstroms and Degrees)  !
 --------------------------                            --------------------------
 ! Name  Definition              Value          Derivative Info.                !
 --------------------------------------------------------------------------------
 ! R1    R(1,2)                  1.5866         estimate D2E/DX2                !
 ! R2    R(1,16)                 1.1022         estimate D2E/DX2                !
 ! R3    R(1,17)                 1.1236         estimate D2E/DX2                !
 ! R4    R(1,18)                 1.0854         estimate D2E/DX2                !
 ! R5    R(2,3)                  1.3778         estimate D2E/DX2                !
 ! R6    R(2,14)                 1.4597         estimate D2E/DX2                !
 ! R7    R(3,4)                  1.5498         estimate D2E/DX2                !
 ! R8    R(3,19)                 1.0862         estimate D2E/DX2                !
 ! R9    R(4,5)                  1.3787         estimate D2E/DX2                !
 ! R10   R(4,20)                 1.095          estimate D2E/DX2                !
 ! R11   R(5,6)                  1.4618         estimate D2E/DX2                !
 ! R12   R(5,10)                 1.5379         estimate D2E/DX2                !
 ! R13   R(6,7)                  1.3802         estimate D2E/DX2                !
 ! R14   R(6,21)                 1.0759         estimate D2E/DX2                !
 ! R15   R(7,8)                  1.4341         estimate D2E/DX2                !
 ! R16   R(7,22)                 1.0819         estimate D2E/DX2                !
 ! R17   R(8,9)                  1.3466         estimate D2E/DX2                !
 ! R18   R(8,23)                 1.0948         estimate D2E/DX2                !
 ! R19   R(9,10)                 1.5127         estimate D2E/DX2                !
 ! R20   R(9,24)                 1.0812         estimate D2E/DX2                !
 ! R21   R(10,11)                1.3213         estimate D2E/DX2                !
 ! R22   R(11,12)                1.3924         estimate D2E/DX2                !
 ! R23   R(12,13)                1.3501         estimate D2E/DX2                !
 ! R24   R(12,25)                1.0731         estimate D2E/DX2                !
 ! R25   R(13,14)                1.5716         estimate D2E/DX2                !
 ! R26   R(13,26)                1.0989         estimate D2E/DX2                !
 ! R27   R(14,15)                1.6855         estimate D2E/DX2                !
 ! A1    A(2,1,16)             117.3443         estimate D2E/DX2                !
 ! A2    A(2,1,17)             108.3271         estimate D2E/DX2                !
 ! A3    A(2,1,18)             117.5962         estimate D2E/DX2                !
 ! A4    A(16,1,17)             96.8891         estimate D2E/DX2                !
 ! A5    A(16,1,18)            112.0989         estimate D2E/DX2                !
 ! A6    A(17,1,18)            100.778          estimate D2E/DX2                !
 ! A7    A(1,2,3)              150.9058         estimate D2E/DX2                !
 ! A8    A(1,2,14)              99.2234         estimate D2E/DX2                !
 ! A9    A(3,2,14)             104.7873         estimate D2E/DX2                !
 ! A10   A(2,3,4)              127.6476         estimate D2E/DX2                !
 ! A11   A(2,3,19)             121.2035         estimate D2E/DX2                !
 ! A12   A(4,3,19)             109.5772         estimate D2E/DX2                !
 ! A13   A(3,4,5)              126.5998         estimate D2E/DX2                !
 ! A14   A(3,4,20)             116.9741         estimate D2E/DX2                !
 ! A15   A(5,4,20)             116.4245         estimate D2E/DX2                !
 ! A16   A(4,5,6)              123.1765         estimate D2E/DX2                !
 ! A17   A(4,5,10)             119.3803         estimate D2E/DX2                !
 ! A18   A(6,5,10)             117.3478         estimate D2E/DX2                !
 ! A19   A(5,6,7)              120.8776         estimate D2E/DX2                !
 ! A20   A(5,6,21)             121.4655         estimate D2E/DX2                !
 ! A21   A(7,6,21)             117.379          estimate D2E/DX2                !
 ! A22   A(6,7,8)              120.561          estimate D2E/DX2                !
 ! A23   A(6,7,22)             120.6532         estimate D2E/DX2                !
 ! A24   A(8,7,22)             118.52           estimate D2E/DX2                !
 ! A25   A(7,8,9)              123.238          estimate D2E/DX2                !
 ! A26   A(7,8,23)             116.0264         estimate D2E/DX2                !
 ! A27   A(9,8,23)             120.7322         estimate D2E/DX2                !
 ! A28   A(8,9,10)             119.5267         estimate D2E/DX2                !
 ! A29   A(8,9,24)             120.8095         estimate D2E/DX2                !
 ! A30   A(10,9,24)            118.4144         estimate D2E/DX2                !
 ! A31   A(5,10,9)             113.9889         estimate D2E/DX2                !
 ! A32   A(5,10,11)            125.8207         estimate D2E/DX2                !
 ! A33   A(9,10,11)            118.635          estimate D2E/DX2                !
 ! A34   A(10,11,12)           111.2711         estimate D2E/DX2                !
 ! A35   A(11,12,13)           130.167          estimate D2E/DX2                !
 ! A36   A(11,12,25)           113.3962         estimate D2E/DX2                !
 ! A37   A(13,12,25)           114.178          estimate D2E/DX2                !
 ! A38   A(12,13,14)           110.3196         estimate D2E/DX2                !
 ! A39   A(12,13,26)           112.035          estimate D2E/DX2                !
 ! A40   A(14,13,26)           113.3352         estimate D2E/DX2                !
 ! A41   A(2,14,13)            100.6918         estimate D2E/DX2                !
 ! A42   A(2,14,15)            116.4137         estimate D2E/DX2                !
 ! A43   A(13,14,15)           140.9641         estimate D2E/DX2                !
 ! D1    D(16,1,2,3)           -58.0897         estimate D2E/DX2                !
 ! D2    D(16,1,2,14)           87.3561         estimate D2E/DX2                !
 ! D3    D(17,1,2,3)          -166.3626         estimate D2E/DX2                !
 ! D4    D(17,1,2,14)          -20.9168         estimate D2E/DX2                !
 ! D5    D(18,1,2,3)            80.3449         estimate D2E/DX2                !
 ! D6    D(18,1,2,14)         -134.2094         estimate D2E/DX2                !
 ! D7    D(1,2,3,4)            166.757          estimate D2E/DX2                !
 ! D8    D(1,2,3,19)             2.5966         estimate D2E/DX2                !
 ! D9    D(14,2,3,4)            22.1393         estimate D2E/DX2                !
 ! D10   D(14,2,3,19)         -142.0211         estimate D2E/DX2                !
 ! D11   D(1,2,14,13)          -80.427          estimate D2E/DX2                !
 ! D12   D(1,2,14,15)           87.0991         estimate D2E/DX2                !
 ! D13   D(3,2,14,13)           82.9999         estimate D2E/DX2                !
 ! D14   D(3,2,14,15)         -109.4741         estimate D2E/DX2                !
 ! D15   D(2,3,4,5)           -119.0601         estimate D2E/DX2                !
 ! D16   D(2,3,4,20)            61.4214         estimate D2E/DX2                !
 ! D17   D(19,3,4,5)            46.5935         estimate D2E/DX2                !
 ! D18   D(19,3,4,20)         -132.925          estimate D2E/DX2                !
 ! D19   D(3,4,5,6)           -165.3897         estimate D2E/DX2                !
 ! D20   D(3,4,5,10)            18.2574         estimate D2E/DX2                !
 ! D21   D(20,4,5,6)            14.1311         estimate D2E/DX2                !
 ! D22   D(20,4,5,10)         -162.2218         estimate D2E/DX2                !
 ! D23   D(4,5,6,7)            172.4222         estimate D2E/DX2                !
 ! D24   D(4,5,6,21)            -1.3641         estimate D2E/DX2                !
 ! D25   D(10,5,6,7)           -11.1556         estimate D2E/DX2                !
 ! D26   D(10,5,6,21)          175.0581         estimate D2E/DX2                !
 ! D27   D(4,5,10,9)          -160.6636         estimate D2E/DX2                !
 ! D28   D(4,5,10,11)           33.8517         estimate D2E/DX2                !
 ! D29   D(6,5,10,9)            22.7728         estimate D2E/DX2                !
 ! D30   D(6,5,10,11)         -142.7119         estimate D2E/DX2                !
 ! D31   D(5,6,7,8)             -1.561          estimate D2E/DX2                !
 ! D32   D(5,6,7,22)          -175.5509         estimate D2E/DX2                !
 ! D33   D(21,6,7,8)           172.4713         estimate D2E/DX2                !
 ! D34   D(21,6,7,22)           -1.5186         estimate D2E/DX2                !
 ! D35   D(6,7,8,9)              1.2695         estimate D2E/DX2                !
 ! D36   D(6,7,8,23)          -178.0638         estimate D2E/DX2                !
 ! D37   D(22,7,8,9)           175.3856         estimate D2E/DX2                !
 ! D38   D(22,7,8,23)           -3.9477         estimate D2E/DX2                !
 ! D39   D(7,8,9,10)            12.2514         estimate D2E/DX2                !
 ! D40   D(7,8,9,24)           179.2819         estimate D2E/DX2                !
 ! D41   D(23,8,9,10)         -168.4455         estimate D2E/DX2                !
 ! D42   D(23,8,9,24)           -1.4151         estimate D2E/DX2                !
 ! D43   D(8,9,10,5)           -23.6131         estimate D2E/DX2                !
 ! D44   D(8,9,10,11)          142.9984         estimate D2E/DX2                !
 ! D45   D(24,9,10,5)          169.0468         estimate D2E/DX2                !
 ! D46   D(24,9,10,11)         -24.3417         estimate D2E/DX2                !
 ! D47   D(5,10,11,12)          25.403          estimate D2E/DX2                !
 ! D48   D(9,10,11,12)        -139.4736         estimate D2E/DX2                !
 ! D49   D(10,11,12,13)       -128.1533         estimate D2E/DX2                !
 ! D50   D(10,11,12,25)         33.5029         estimate D2E/DX2                !
 ! D51   D(11,12,13,14)        109.924          estimate D2E/DX2                !
 ! D52   D(11,12,13,26)        -17.3447         estimate D2E/DX2                !
 ! D53   D(25,12,13,14)        -51.6177         estimate D2E/DX2                !
 ! D54   D(25,12,13,26)       -178.8864         estimate D2E/DX2                !
 ! D55   D(12,13,14,2)         -94.0717         estimate D2E/DX2                !
 ! D56   D(12,13,14,15)        103.8161         estimate D2E/DX2                !
 ! D57   D(26,13,14,2)          32.4734         estimate D2E/DX2                !
 ! D58   D(26,13,14,15)       -129.6389         estimate D2E/DX2                !
 --------------------------------------------------------------------------------
 Trust Radius=3.00D-01 FncErr=1.00D-07 GrdErr=1.00D-06 EigMax=2.50D+02 EigMin=1.00D-04
 Number of steps in this run=    138 maximum allowed number of steps=    156.
 GradGradGradGradGradGradGradGradGradGradGradGradGradGradGradGradGradGrad

                          Input orientation:                          
 ---------------------------------------------------------------------
 Center     Atomic      Atomic             Coordinates (Angstroms)
 Number     Number       Type             X           Y           Z
 ---------------------------------------------------------------------
      1          6           0        0.652080    0.598850    0.127180
      2          6           0        2.201440    0.397320    0.403260
      3          6           0        3.296280    0.476440    1.236040
      4          6           0        4.691470   -0.165760    1.029010
      5          6           0        5.300980   -1.090100    1.850500
      6          6           0        6.722910   -1.419100    1.767820
      7          6           0        7.317490   -2.233500    2.710270
      8          6           0        6.557880   -2.748620    3.812270
      9          6           0        5.245430   -2.501030    3.983870
     10          6           0        4.449340   -1.884160    2.855170
     11          7           0        3.203020   -2.281280    2.668550
     12          6           0        2.913890   -2.417700    1.313380
     13          6           0        1.896800   -1.910540    0.584560
     14          6           0        2.427350   -0.803000   -0.396120
     15         16           0        2.794500   -0.562020   -2.023360
     16          1           0       -0.053060    0.069950    0.788860
     17          1           0        0.387330    0.050980   -0.817380
     18          1           0        0.310830    1.599970   -0.116410
     19          1           0        3.197330    0.807840    2.265670
     20          1           0        5.257070    0.149140    0.145900
     21          1           0        7.363540   -0.961380    1.034590
     22          1           0        8.383420   -2.416970    2.687020
     23          1           0        7.110860   -3.359630    4.532990
     24          1           0        4.708150   -2.919330    4.823730
     25          1           0        3.752840   -2.744350    0.729470
     26          1           0        1.065860   -1.569540    1.217700
 ---------------------------------------------------------------------
                    Distance matrix (angstroms):
                    1          2          3          4          5
     1  C    0.000000
     2  C    1.586616   0.000000
     3  C    2.869904   1.377845   0.000000
     4  C    4.208871   2.628473   1.549786   0.000000
     5  C    5.237810   3.730157   2.617333   1.378678   0.000000
     6  C    6.604453   5.060148   3.951918   2.498690   1.461835
     7  C    7.689099   6.198183   5.068260   3.741412   2.472424
     8  C    7.724242   6.363714   5.260799   4.230980   2.859900
     9  C    6.751457   5.521510   4.496119   3.806778   2.558335
    10  C    5.294001   4.033617   3.086027   2.519203   1.537915
    11  N    4.610966   3.648232   3.108987   3.062515   2.547460
    12  C    3.952522   3.043064   2.920317   2.883035   2.783742
    13  C    2.838232   2.334929   2.842647   3.324451   3.723462
    14  C    2.321769   1.459730   2.248544   2.750147   3.658890
    15  S    3.249985   2.675918   3.457437   3.615588   4.644147
    16  H    1.102170   2.310547   3.403422   4.756448   5.580192
    17  H    1.123587   2.213800   3.586020   4.688470   5.706453
    18  H    1.085370   2.300180   3.464730   4.860020   6.000567
    19  H    3.330933   2.151487   1.086165   2.170180   2.863544
    20  H    4.626934   3.076476   2.267207   1.094965   2.107915
    21  H    6.949921   5.375120   4.318624   2.788010   2.221808
    22  H    8.684559   7.166077   6.029607   4.631138   3.458582
    23  H    8.763365   7.434497   6.335324   5.322793   3.952491
    24  H    7.133504   6.068304   5.137718   4.688531   3.540851
    25  H    4.599397   3.518998   3.292195   2.760412   2.527843
    26  H    2.462187   2.412756   3.026738   3.892461   4.308891
                    6          7          8          9         10
     6  C    0.000000
     7  C    1.380212   0.000000
     8  C    2.444306   1.434141   0.000000
     9  C    2.874786   2.446847   1.346578   0.000000
    10  C    2.562759   2.892978   2.471694   1.512697   0.000000
    11  N    3.734206   4.114959   3.575135   2.439220   1.321304
    12  C    3.963881   4.623519   4.430872   3.546060   2.240399
    13  C    4.993291   5.831537   5.731157   4.808046   3.416405
    14  C    4.849129   5.967366   6.209449   5.478065   3.978472
    15  S    5.526304   6.757110   7.280029   6.771531   5.318515
    16  H    7.006383   7.957557   7.796786   6.700151   5.325391
    17  H    6.998855   8.104954   8.206528   7.291495   5.807953
    18  H    7.333476   8.472243   8.565652   7.614511   6.172254
    19  H    4.199623   5.140344   5.131635   4.253886   3.026864
    20  H    2.690481   4.061810   4.850916   4.664070   3.482367
    21  H    1.075891   2.104356   3.399827   3.944004   3.557892
    22  H    2.144287   1.081854   2.169971   3.396449   3.973556
    23  H    3.400342   2.152481   1.094786   2.125689   3.475022
    24  H    3.955823   3.427205   2.115111   1.081207   2.239149
    25  H    3.414055   4.109899   4.167964   3.588614   2.396589
    26  H    5.685726   6.461539   6.187431   5.097860   3.772033
                   11         12         13         14         15
    11  N    0.000000
    12  C    1.392369   0.000000
    13  C    2.487302   1.350134   0.000000
    14  C    3.489868   2.401326   1.571579   0.000000
    15  S    5.013658   3.819900   3.070117   1.685462   0.000000
    16  H    4.434363   3.907213   2.786760   2.884208   4.051736
    17  H    5.051659   4.125291   2.844556   2.251316   2.761272
    18  H    5.584341   4.996188   3.915398   3.214368   3.805164
    19  H    3.115286   3.375100   3.450666   3.205121   4.520461
    20  H    4.060767   3.666356   3.965617   3.034415   3.357929
    21  H    4.660675   4.690200   5.566748   5.141788   5.512411
    22  H    5.182210   5.639383   6.837620   6.898219   7.540858
    23  H    4.462083   5.372865   6.698984   7.264141   8.333265
    24  H    2.705055   3.974111   5.185741   6.076820   7.490101
    25  H    2.068035   1.073074   2.039883   2.606284   3.641298
    26  H    2.679364   2.035619   1.098912   2.246253   3.808906
                   16         17         18         19         20
    16  H    0.000000
    17  H    1.665626   0.000000
    18  H    1.814632   1.701935   0.000000
    19  H    3.645612   4.239591   3.825396   0.000000
    20  H    5.349500   4.965069   5.161299   3.028174   0.000000
    21  H    7.491994   7.288496   7.591181   4.690736   2.541700
    22  H    8.997887   9.072434   9.442549   6.121476   4.776639
    23  H    8.780790   9.244705   9.615350   6.150143   5.915620
    24  H    6.919905   7.701581   8.010336   4.766345   5.621291
    25  H    4.733781   4.640396   5.606787   3.909803   3.312936
    26  H    2.030717   2.688501   3.520755   3.360557   4.654982
                   21         22         23         24         25
    21  H    0.000000
    22  H    2.426813   0.000000
    23  H    4.249030   2.432205   0.000000
    24  H    5.024166   4.280830   2.459961   0.000000
    25  H    4.038469   5.038001   5.110933   4.207874   0.000000
    26  H    6.329626   7.511573   7.123033   5.300157   2.972946
                   26
    26  H    0.000000
 Stoichiometry    C13H11NS
 Framework group  C1[X(C13H11NS)]
 Deg. of freedom    72
 Full point group                 C1      NOp   1
 Largest Abelian subgroup         C1      NOp   1
 Largest concise Abelian subgroup C1      NOp   1
                         Standard orientation:                         
 ---------------------------------------------------------------------
 Center     Atomic      Atomic             Coordinates (Angstroms)
 Number     Number       Type             X           Y           Z
 ---------------------------------------------------------------------
      1          6           0       -3.484889   -1.174538    0.934813
      2          6           0       -2.158431   -0.305757    0.990303
      3          6           0       -0.893053   -0.070359    1.482098
      4          6           0        0.168205    0.915795    0.931579
      5          6           0        1.422341    0.593666    0.458158
      6          6           0        2.475960    1.584450    0.245563
      7          6           0        3.759144    1.194905   -0.081052
      8          6           0        4.094566   -0.195471   -0.186439
      9          6           0        3.200925   -1.186180   -0.004299
     10          6           0        1.725263   -0.858177    0.051248
     11          7           0        0.867712   -1.704010   -0.491908
     12          6           0       -0.143758   -1.030881   -1.171995
     13          6           0       -1.485280   -1.151661   -1.079288
     14          6           0       -2.102791    0.125584   -0.403132
     15         16           0       -2.952558    1.529355   -0.787973
     16          1           0       -3.384407   -2.234276    0.649091
     17          1           0       -4.082675   -0.849938    0.040533
     18          1           0       -4.212409   -1.032609    1.727656
     19          1           0       -0.423870   -0.757451    2.180329
     20          1           0       -0.098038    1.977860    0.922654
     21          1           0        2.308996    2.630727    0.432560
     22          1           0        4.552268    1.925595   -0.167390
     23          1           0        5.140736   -0.421106   -0.417034
     24          1           0        3.494317   -2.221972   -0.104629
     25          1           0        0.184743   -0.116914   -1.628326
     26          1           0       -1.781926   -2.089779   -0.589855
 ---------------------------------------------------------------------
 Rotational constants (GHZ):           1.2278080           0.3475409           0.3150382
 Standard basis: 6-31G(2df,p) (6D, 7F)
 There are   524 symmetry adapted cartesian basis functions of A   symmetry.
 There are   479 symmetry adapted basis functions of A   symmetry.
   479 basis functions,   761 primitive gaussians,   524 cartesian basis functions
    56 alpha electrons       56 beta electrons
       nuclear repulsion energy       999.0295612398 Hartrees.
 NAtoms=   26 NActive=   26 NUniq=   26 SFac= 1.00D+00 NAtFMM=   60 NAOKFM=F Big=F
 Integral buffers will be    131072 words long.
 Raffenetti 2 integral format.
 Two-electron integral symmetry is turned on.
 One-electron integrals computed using PRISM.
 PrsmSu:  requested number of processors reduced to:  12 ShMem   1 Linda.
 NBasis=   479 RedAO= T EigKep=  1.89D-04  NBF=   479
 NBsUse=   479 1.00D-06 EigRej= -1.00D+00 NBFU=   479
 ExpMin= 1.17D-01 ExpMax= 2.19D+04 ExpMxC= 3.30D+03 IAcc=3 IRadAn=         5 AccDes= 0.00D+00
 Harris functional with IExCor=  402 and IRadAn=       5 diagonalized for initial guess.
 HarFok:  IExCor=  402 AccDes= 0.00D+00 IRadAn=         5 IDoV= 1 UseB2=F ITyADJ=14
 ICtDFT=  3500011 ScaDFX=  1.000000  1.000000  1.000000  1.000000
 FoFCou: FMM=F IPFlag=           0 FMFlag=      100000 FMFlg1=           0
         NFxFlg=           0 DoJE=T BraDBF=F KetDBF=T FulRan=T
         wScrn=  0.000000 ICntrl=       500 IOpCl=  0 I1Cent=   200000004 NGrid=           0
         NMat0=    1 NMatS0=      1 NMatT0=    0 NMatD0=    1 NMtDS0=    0 NMtDT0=    0
 Petite list used in FoFCou.
 Requested convergence on RMS density matrix=1.00D-08 within 128 cycles.
 Requested convergence on MAX density matrix=1.00D-06.
 Requested convergence on             energy=1.00D-06.
 No special actions if energy rises.
 Integral accuracy reduced to 1.0D-05 until final iterations.
 Initial convergence to 1.0D-05 achieved.  Increase integral accuracy.
 SCF Done:  E(RB3LYP) =  -954.719539473     A.U. after   18 cycles
            NFock= 18  Conv=0.64D-08     -V/T= 2.0067

 **********************************************************************

            Population analysis using the SCF density.

 **********************************************************************

 Orbital symmetries:
       Occupied  (A) (A) (A) (A) (A) (A) (A) (A) (A) (A) (A) (A)
                 (A) (A) (A) (A) (A) (A) (A) (A) (A) (A) (A) (A)
                 (A) (A) (A) (A) (A) (A) (A) (A) (A) (A) (A) (A)
                 (A) (A) (A) (A) (A) (A) (A) (A) (A) (A) (A) (A)
                 (A) (A) (A) (A) (A) (A) (A) (A)
       Virtual   (A) (A) (A) (A) (A) (A) (A) (A) (A) (A) (A) (A)
                 (A) (A) (A) (A) (A) (A) (A) (A) (A) (A) (A) (A)
                 (A) (A) (A) (A) (A) (A) (A) (A) (A) (A) (A) (A)
                 (A) (A) (A) (A) (A) (A) (A) (A) (A) (A) (A) (A)
                 (A) (A) (A) (A) (A) (A) (A) (A) (A) (A) (A) (A)
                 (A) (A) (A) (A) (A) (A) (A) (A) (A) (A) (A) (A)
                 (A) (A) (A) (A) (A) (A) (A) (A) (A) (A) (A) (A)
                 (A) (A) (A) (A) (A) (A) (A) (A) (A) (A) (A) (A)
                 (A) (A) (A) (A) (A) (A) (A) (A) (A) (A) (A) (A)
                 (A) (A) (A) (A) (A) (A) (A) (A) (A) (A) (A) (A)
                 (A) (A) (A) (A) (A) (A) (A) (A) (A) (A) (A) (A)
                 (A) (A) (A) (A) (A) (A) (A) (A) (A) (A) (A) (A)
                 (A) (A) (A) (A) (A) (A) (A) (A) (A) (A) (A) (A)
                 (A) (A) (A) (A) (A) (A) (A) (A) (A) (A) (A) (A)
                 (A) (A) (A) (A) (A) (A) (A) (A) (A) (A) (A) (A)
                 (A) (A) (A) (A) (A) (A) (A) (A) (A) (A) (A) (A)
                 (A) (A) (A) (A) (A) (A) (A) (A) (A) (A) (A) (A)
                 (A) (A) (A) (A) (A) (A) (A) (A) (A) (A) (A) (A)
                 (A) (A) (A) (A) (A) (A) (A) (A) (A) (A) (A) (A)
                 (A) (A) (A) (A) (A) (A) (A) (A) (A) (A) (A) (A)
                 (A) (A) (A) (A) (A) (A) (A) (A) (A) (A) (A) (A)
                 (A) (A) (A) (A) (A) (A) (A) (A) (A) (A) (A) (A)
                 (A) (A) (A) (A) (A) (A) (A) (A) (A) (A) (A) (A)
                 (A) (A) (A) (A) (A) (A) (A) (A) (A) (A) (A) (A)
                 (A) (A) (A) (A) (A) (A) (A) (A) (A) (A) (A) (A)
                 (A) (A) (A) (A) (A) (A) (A) (A) (A) (A) (A) (A)
                 (A) (A) (A) (A) (A) (A) (A) (A) (A) (A) (A) (A)
                 (A) (A) (A) (A) (A) (A) (A) (A) (A) (A) (A) (A)
                 (A) (A) (A) (A) (A) (A) (A) (A) (A) (A) (A) (A)
                 (A) (A) (A) (A) (A) (A) (A) (A) (A) (A) (A) (A)
                 (A) (A) (A) (A) (A) (A) (A) (A) (A) (A) (A) (A)
                 (A) (A) (A) (A) (A) (A) (A) (A) (A) (A) (A) (A)
                 (A) (A) (A) (A) (A) (A) (A) (A) (A) (A) (A) (A)
                 (A) (A) (A) (A) (A) (A) (A) (A) (A) (A) (A) (A)
                 (A) (A) (A) (A) (A) (A) (A) (A) (A) (A) (A) (A)
                 (A) (A) (A)
 The electronic state is 1-A.
 Alpha  occ. eigenvalues --  -88.85295 -14.34711 -10.27565 -10.26485 -10.23373
 Alpha  occ. eigenvalues --  -10.23366 -10.22879 -10.22839 -10.22263 -10.21479
 Alpha  occ. eigenvalues --  -10.21169 -10.20786 -10.20677 -10.20648 -10.19534
 Alpha  occ. eigenvalues --   -7.91665  -5.88079  -5.87832  -5.87217  -0.94716
 Alpha  occ. eigenvalues --   -0.86970  -0.85275  -0.79952  -0.77076  -0.73972
 Alpha  occ. eigenvalues --   -0.73082  -0.71552  -0.67335  -0.61660  -0.60279
 Alpha  occ. eigenvalues --   -0.59785  -0.54998  -0.52019  -0.51174  -0.50581
 Alpha  occ. eigenvalues --   -0.46923  -0.46181  -0.45343  -0.45122  -0.43745
 Alpha  occ. eigenvalues --   -0.42559  -0.40643  -0.39841  -0.39167  -0.37938
 Alpha  occ. eigenvalues --   -0.37454  -0.37216  -0.35585  -0.31621  -0.31129
 Alpha  occ. eigenvalues --   -0.29737  -0.27486  -0.26296  -0.23670  -0.20826
 Alpha  occ. eigenvalues --   -0.20509
 Alpha virt. eigenvalues --   -0.10701  -0.07104  -0.05381  -0.02112   0.02091
 Alpha virt. eigenvalues --    0.02544   0.08580   0.08774   0.09083   0.10742
 Alpha virt. eigenvalues --    0.11447   0.11697   0.13133   0.14174   0.14946
 Alpha virt. eigenvalues --    0.15623   0.16086   0.16857   0.17777   0.20220
 Alpha virt. eigenvalues --    0.21324   0.21761   0.22264   0.24133   0.26739
 Alpha virt. eigenvalues --    0.27255   0.28473   0.30261   0.31287   0.32677
 Alpha virt. eigenvalues --    0.33999   0.35865   0.36886   0.37622   0.38829
 Alpha virt. eigenvalues --    0.39577   0.39885   0.40730   0.41231   0.41837
 Alpha virt. eigenvalues --    0.43139   0.44483   0.45247   0.45960   0.46335
 Alpha virt. eigenvalues --    0.46706   0.47329   0.48227   0.49279   0.49392
 Alpha virt. eigenvalues --    0.51553   0.51970   0.52514   0.52766   0.53131
 Alpha virt. eigenvalues --    0.54198   0.55904   0.56086   0.56861   0.57783
 Alpha virt. eigenvalues --    0.58447   0.60542   0.61123   0.62203   0.62672
 Alpha virt. eigenvalues --    0.64842   0.64879   0.66217   0.66401   0.68878
 Alpha virt. eigenvalues --    0.69299   0.69773   0.70652   0.71332   0.72350
 Alpha virt. eigenvalues --    0.72887   0.73761   0.74088   0.75082   0.75499
 Alpha virt. eigenvalues --    0.75914   0.76717   0.77718   0.78340   0.79402
 Alpha virt. eigenvalues --    0.79555   0.80359   0.81822   0.83236   0.83882
 Alpha virt. eigenvalues --    0.84942   0.85870   0.86315   0.86709   0.87043
 Alpha virt. eigenvalues --    0.88011   0.89779   0.90320   0.91683   0.92901
 Alpha virt. eigenvalues --    0.93683   0.95897   0.96314   0.97800   1.00801
 Alpha virt. eigenvalues --    1.01647   1.03649   1.07087   1.07464   1.08266
 Alpha virt. eigenvalues --    1.10457   1.11268   1.12575   1.13619   1.15800
 Alpha virt. eigenvalues --    1.17029   1.19886   1.21085   1.21958   1.23429
 Alpha virt. eigenvalues --    1.25379   1.26390   1.28235   1.28979   1.29279
 Alpha virt. eigenvalues --    1.32272   1.32614   1.33360   1.36110   1.37329
 Alpha virt. eigenvalues --    1.37913   1.38838   1.40389   1.41472   1.43275
 Alpha virt. eigenvalues --    1.44687   1.45048   1.46443   1.46946   1.47626
 Alpha virt. eigenvalues --    1.49070   1.50595   1.52334   1.53756   1.55304
 Alpha virt. eigenvalues --    1.56528   1.57738   1.59454   1.60038   1.61575
 Alpha virt. eigenvalues --    1.62083   1.63011   1.64938   1.66414   1.67897
 Alpha virt. eigenvalues --    1.68083   1.69050   1.69841   1.71011   1.71977
 Alpha virt. eigenvalues --    1.73795   1.74392   1.75208   1.77136   1.77784
 Alpha virt. eigenvalues --    1.78794   1.81887   1.82744   1.84329   1.84764
 Alpha virt. eigenvalues --    1.87060   1.87426   1.88730   1.89507   1.91355
 Alpha virt. eigenvalues --    1.95724   1.97752   2.00324   2.02067   2.04458
 Alpha virt. eigenvalues --    2.05492   2.05893   2.09238   2.10663   2.12259
 Alpha virt. eigenvalues --    2.14865   2.16840   2.17621   2.18211   2.18924
 Alpha virt. eigenvalues --    2.19634   2.23207   2.24694   2.26166   2.26797
 Alpha virt. eigenvalues --    2.28610   2.31061   2.33711   2.34691   2.37087
 Alpha virt. eigenvalues --    2.38730   2.39261   2.40568   2.43773   2.46459
 Alpha virt. eigenvalues --    2.47560   2.48550   2.52795   2.56047   2.57355
 Alpha virt. eigenvalues --    2.58702   2.61092   2.63118   2.66439   2.67437
 Alpha virt. eigenvalues --    2.70283   2.71411   2.75616   2.78016   2.78623
 Alpha virt. eigenvalues --    2.78903   2.80866   2.82533   2.83998   2.84935
 Alpha virt. eigenvalues --    2.86650   2.87244   2.87740   2.89372   2.90134
 Alpha virt. eigenvalues --    2.90596   2.92329   2.94093   2.94395   2.95003
 Alpha virt. eigenvalues --    2.98363   2.99841   2.99926   3.00266   3.01890
 Alpha virt. eigenvalues --    3.05206   3.05552   3.07176   3.07579   3.08601
 Alpha virt. eigenvalues --    3.09235   3.10165   3.11705   3.13864   3.14563
 Alpha virt. eigenvalues --    3.15630   3.16577   3.17422   3.18776   3.19579
 Alpha virt. eigenvalues --    3.20865   3.22108   3.22483   3.23352   3.24725
 Alpha virt. eigenvalues --    3.25854   3.26674   3.27951   3.29921   3.30488
 Alpha virt. eigenvalues --    3.30826   3.32402   3.33814   3.36032   3.37039
 Alpha virt. eigenvalues --    3.38837   3.39497   3.42020   3.42612   3.44805
 Alpha virt. eigenvalues --    3.46495   3.47840   3.49417   3.50239   3.52098
 Alpha virt. eigenvalues --    3.52888   3.55002   3.56390   3.57952   3.58250
 Alpha virt. eigenvalues --    3.59437   3.61118   3.65358   3.65857   3.68293
 Alpha virt. eigenvalues --    3.69465   3.70655   3.71662   3.73917   3.74484
 Alpha virt. eigenvalues --    3.76332   3.77851   3.79273   3.80515   3.83025
 Alpha virt. eigenvalues --    3.86562   3.88854   3.91652   3.92039   3.92699
 Alpha virt. eigenvalues --    3.96231   3.97068   3.98988   4.00697   4.02739
 Alpha virt. eigenvalues --    4.05659   4.08192   4.09561   4.10696   4.16344
 Alpha virt. eigenvalues --    4.17487   4.20302   4.21764   4.25747   4.25839
 Alpha virt. eigenvalues --    4.27482   4.29648   4.32203   4.33664   4.34388
 Alpha virt. eigenvalues --    4.36214   4.37597   4.37902   4.38713   4.40636
 Alpha virt. eigenvalues --    4.42369   4.43659   4.45425   4.46142   4.46538
 Alpha virt. eigenvalues --    4.47837   4.48197   4.50128   4.51600   4.52051
 Alpha virt. eigenvalues --    4.53759   4.54554   4.56200   4.56820   4.57793
 Alpha virt. eigenvalues --    4.58061   4.59531   4.61216   4.63240   4.64059
 Alpha virt. eigenvalues --    4.64476   4.66542   4.67144   4.68716   4.71493
 Alpha virt. eigenvalues --    4.72035   4.72677   4.74472   4.76022   4.77820
 Alpha virt. eigenvalues --    4.79197   4.80817   4.81704   4.82984   4.83755
 Alpha virt. eigenvalues --    4.86050   4.87003   4.88541   4.90054   4.91845
 Alpha virt. eigenvalues --    4.94704   4.97759   4.99175   5.01192   5.03464
 Alpha virt. eigenvalues --    5.04830   5.09631   5.12052   5.14906   5.15462
 Alpha virt. eigenvalues --    5.17488   5.18339   5.24562   5.26093   5.28060
 Alpha virt. eigenvalues --    5.28965   5.32388   5.33973   5.37252   5.38175
 Alpha virt. eigenvalues --    5.42712   5.45588   5.46898   5.48394   5.59087
 Alpha virt. eigenvalues --    5.60367   5.62739   5.64745   5.67657   5.70638
 Alpha virt. eigenvalues --    5.73506   5.78857   5.82676   5.90289   5.96037
 Alpha virt. eigenvalues --    6.15574   6.39639   7.09648   9.69858  10.39371
 Alpha virt. eigenvalues --   10.48223  10.75047  11.04174  11.30787  11.37707
 Alpha virt. eigenvalues --   11.49690  11.65824  11.87270  12.05711  12.20208
 Alpha virt. eigenvalues --   12.38098  12.55728  16.59763
          Condensed to atoms (all electrons):
               1          2          3          4          5          6
     1  C    5.132745   0.390284  -0.031082   0.003488  -0.000019   0.000000
     2  C    0.390284   4.609518   0.582940  -0.014721   0.001363  -0.000077
     3  C   -0.031082   0.582940   5.106712   0.389848  -0.019199   0.004339
     4  C    0.003488  -0.014721   0.389848   5.121952   0.521241  -0.039534
     5  C   -0.000019   0.001363  -0.019199   0.521241   4.575560   0.440152
     6  C    0.000000  -0.000077   0.004339  -0.039534   0.440152   4.928182
     7  C   -0.000000   0.000000  -0.000109   0.001257   0.014879   0.587018
     8  C   -0.000000   0.000001  -0.000032   0.001540  -0.028113   0.003134
     9  C    0.000000  -0.000036   0.000394   0.001788  -0.032565  -0.034719
    10  C   -0.000000   0.000546  -0.004532  -0.036181   0.412070  -0.037009
    11  N   -0.000018  -0.002774   0.005269  -0.017280  -0.050109   0.003316
    12  C    0.001584  -0.017509  -0.019822   0.001950  -0.006326  -0.000222
    13  C   -0.005967  -0.026271  -0.020656  -0.011680  -0.000970  -0.000017
    14  C   -0.080716   0.368705  -0.050066  -0.019521   0.001510  -0.000053
    15  S   -0.011450  -0.062113  -0.009399   0.008775   0.000436  -0.000035
    16  H    0.363459  -0.019036  -0.001941  -0.000034   0.000006  -0.000000
    17  H    0.378159  -0.025726   0.002967  -0.000012  -0.000002  -0.000000
    18  H    0.361656  -0.011764   0.000596  -0.000059  -0.000000   0.000000
    19  H   -0.004466  -0.033763   0.354664  -0.048086  -0.009308  -0.000164
    20  H   -0.000084  -0.006577  -0.037310   0.361199  -0.034345  -0.010105
    21  H   -0.000000  -0.000004   0.000001  -0.006021  -0.042376   0.363361
    22  H    0.000000  -0.000000   0.000001  -0.000166   0.003642  -0.039232
    23  H   -0.000000  -0.000000  -0.000000   0.000004   0.000548   0.003927
    24  H    0.000000   0.000000  -0.000011  -0.000118   0.002776   0.001140
    25  H   -0.000006  -0.000545  -0.002243   0.004499   0.010783  -0.000129
    26  H   -0.000390  -0.004184  -0.002487   0.000165   0.000129  -0.000000
               7          8          9         10         11         12
     1  C   -0.000000  -0.000000   0.000000  -0.000000  -0.000018   0.001584
     2  C    0.000000   0.000001  -0.000036   0.000546  -0.002774  -0.017509
     3  C   -0.000109  -0.000032   0.000394  -0.004532   0.005269  -0.019822
     4  C    0.001257   0.001540   0.001788  -0.036181  -0.017280   0.001950
     5  C    0.014879  -0.028113  -0.032565   0.412070  -0.050109  -0.006326
     6  C    0.587018   0.003134  -0.034719  -0.037009   0.003316  -0.000222
     7  C    4.745755   0.485481   0.006381  -0.028218   0.000148  -0.000162
     8  C    0.485481   4.697312   0.612290   0.001800  -0.000884   0.000143
     9  C    0.006381   0.612290   4.909475   0.414170  -0.038623   0.002134
    10  C   -0.028218   0.001800   0.414170   4.671436   0.574123  -0.097611
    11  N    0.000148  -0.000884  -0.038623   0.574123   6.401201   0.498255
    12  C   -0.000162   0.000143   0.002134  -0.097611   0.498255   4.716085
    13  C    0.000001  -0.000002  -0.000406   0.001848  -0.040879   0.556315
    14  C   -0.000002  -0.000000   0.000001   0.000047   0.002090  -0.007193
    15  S    0.000000  -0.000000   0.000001   0.000072   0.000025  -0.002473
    16  H   -0.000000   0.000000   0.000000  -0.000008   0.000057   0.000621
    17  H    0.000000   0.000000  -0.000000  -0.000000  -0.000010   0.000258
    18  H   -0.000000   0.000000  -0.000000   0.000000  -0.000001  -0.000072
    19  H    0.000028  -0.000014   0.000067   0.003873   0.003041  -0.001344
    20  H    0.000399  -0.000056  -0.000058   0.004363  -0.000004  -0.001243
    21  H   -0.039983   0.003520   0.000804   0.002874  -0.000080  -0.000004
    22  H    0.369130  -0.045304   0.004735   0.000478  -0.000004  -0.000002
    23  H   -0.045301   0.369450  -0.043863   0.003902  -0.000040   0.000005
    24  H    0.003678  -0.034677   0.354485  -0.035092   0.001810   0.000101
    25  H    0.000036   0.000154   0.001584  -0.006479  -0.070335   0.372351
    26  H   -0.000000   0.000000   0.000008   0.000520  -0.006751  -0.039537
              13         14         15         16         17         18
     1  C   -0.005967  -0.080716  -0.011450   0.363459   0.378159   0.361656
     2  C   -0.026271   0.368705  -0.062113  -0.019036  -0.025726  -0.011764
     3  C   -0.020656  -0.050066  -0.009399  -0.001941   0.002967   0.000596
     4  C   -0.011680  -0.019521   0.008775  -0.000034  -0.000012  -0.000059
     5  C   -0.000970   0.001510   0.000436   0.000006  -0.000002  -0.000000
     6  C   -0.000017  -0.000053  -0.000035  -0.000000  -0.000000   0.000000
     7  C    0.000001  -0.000002   0.000000  -0.000000   0.000000  -0.000000
     8  C   -0.000002  -0.000000  -0.000000   0.000000   0.000000   0.000000
     9  C   -0.000406   0.000001   0.000001   0.000000  -0.000000  -0.000000
    10  C    0.001848   0.000047   0.000072  -0.000008  -0.000000   0.000000
    11  N   -0.040879   0.002090   0.000025   0.000057  -0.000010  -0.000001
    12  C    0.556315  -0.007193  -0.002473   0.000621   0.000258  -0.000072
    13  C    5.199755   0.367191  -0.033283  -0.002733   0.001189   0.000371
    14  C    0.367191   4.797517   0.474045   0.005486  -0.012996   0.002871
    15  S   -0.033283   0.474045  15.963862   0.000484   0.006234   0.000958
    16  H   -0.002733   0.005486   0.000484   0.558758  -0.041108  -0.023586
    17  H    0.001189  -0.012996   0.006234  -0.041108   0.547353  -0.032377
    18  H    0.000371   0.002871   0.000958  -0.023586  -0.032377   0.553568
    19  H   -0.001711   0.007362  -0.000278   0.000257  -0.000145   0.000198
    20  H    0.000511   0.001216   0.003429  -0.000003   0.000006   0.000003
    21  H    0.000008   0.000007  -0.000012  -0.000000   0.000000   0.000000
    22  H   -0.000000   0.000000   0.000000  -0.000000  -0.000000  -0.000000
    23  H   -0.000000  -0.000000  -0.000000   0.000000  -0.000000  -0.000000
    24  H    0.000022   0.000000  -0.000000  -0.000000   0.000000   0.000000
    25  H   -0.065104  -0.006999   0.003245  -0.000001  -0.000001   0.000001
    26  H    0.342613  -0.044729   0.002901   0.000504  -0.000096   0.000246
              19         20         21         22         23         24
     1  C   -0.004466  -0.000084  -0.000000   0.000000  -0.000000   0.000000
     2  C   -0.033763  -0.006577  -0.000004  -0.000000  -0.000000   0.000000
     3  C    0.354664  -0.037310   0.000001   0.000001  -0.000000  -0.000011
     4  C   -0.048086   0.361199  -0.006021  -0.000166   0.000004  -0.000118
     5  C   -0.009308  -0.034345  -0.042376   0.003642   0.000548   0.002776
     6  C   -0.000164  -0.010105   0.363361  -0.039232   0.003927   0.001140
     7  C    0.000028   0.000399  -0.039983   0.369130  -0.045301   0.003678
     8  C   -0.000014  -0.000056   0.003520  -0.045304   0.369450  -0.034677
     9  C    0.000067  -0.000058   0.000804   0.004735  -0.043863   0.354485
    10  C    0.003873   0.004363   0.002874   0.000478   0.003902  -0.035092
    11  N    0.003041  -0.000004  -0.000080  -0.000004  -0.000040   0.001810
    12  C   -0.001344  -0.001243  -0.000004  -0.000002   0.000005   0.000101
    13  C   -0.001711   0.000511   0.000008  -0.000000  -0.000000   0.000022
    14  C    0.007362   0.001216   0.000007   0.000000  -0.000000   0.000000
    15  S   -0.000278   0.003429  -0.000012   0.000000  -0.000000  -0.000000
    16  H    0.000257  -0.000003  -0.000000  -0.000000   0.000000  -0.000000
    17  H   -0.000145   0.000006   0.000000  -0.000000  -0.000000   0.000000
    18  H    0.000198   0.000003   0.000000  -0.000000  -0.000000   0.000000
    19  H    0.599636   0.003693  -0.000004  -0.000000   0.000000   0.000003
    20  H    0.003693   0.567944   0.004236  -0.000004  -0.000000   0.000003
    21  H   -0.000004   0.004236   0.608567  -0.006638  -0.000260   0.000025
    22  H   -0.000000  -0.000004  -0.006638   0.610465  -0.006008  -0.000183
    23  H    0.000000  -0.000000  -0.000260  -0.006008   0.617626  -0.008345
    24  H    0.000003   0.000003   0.000025  -0.000183  -0.008345   0.593090
    25  H    0.000238   0.000036   0.000036   0.000002  -0.000002   0.000065
    26  H   -0.000128  -0.000005   0.000000   0.000000  -0.000000   0.000002
              25         26
     1  C   -0.000006  -0.000390
     2  C   -0.000545  -0.004184
     3  C   -0.002243  -0.002487
     4  C    0.004499   0.000165
     5  C    0.010783   0.000129
     6  C   -0.000129  -0.000000
     7  C    0.000036  -0.000000
     8  C    0.000154   0.000000
     9  C    0.001584   0.000008
    10  C   -0.006479   0.000520
    11  N   -0.070335  -0.006751
    12  C    0.372351  -0.039537
    13  C   -0.065104   0.342613
    14  C   -0.006999  -0.044729
    15  S    0.003245   0.002901
    16  H   -0.000001   0.000504
    17  H   -0.000001  -0.000096
    18  H    0.000001   0.000246
    19  H    0.000238  -0.000128
    20  H    0.000036  -0.000005
    21  H    0.000036   0.000000
    22  H    0.000002   0.000000
    23  H   -0.000002  -0.000000
    24  H    0.000065   0.000002
    25  H    0.631109   0.009399
    26  H    0.009399   0.628395
 Mulliken charges:
               1
     1  C   -0.497176
     2  C    0.271742
     3  C   -0.248842
     4  C   -0.224291
     5  C    0.238239
     6  C   -0.173275
     7  C   -0.100417
     8  C   -0.065744
     9  C   -0.158049
    10  C    0.153009
    11  N   -0.261544
    12  C    0.043719
    13  C   -0.260145
    14  C    0.194226
    15  S   -0.345425
    16  H    0.158818
    17  H    0.176306
    18  H    0.147391
    19  H    0.126352
    20  H    0.142757
    21  H    0.111943
    22  H    0.109088
    23  H    0.108359
    24  H    0.121227
    25  H    0.118306
    26  H    0.113424
 Sum of Mulliken charges =  -0.00000
 Mulliken charges with hydrogens summed into heavy atoms:
               1
     1  C   -0.014660
     2  C    0.271742
     3  C   -0.122490
     4  C   -0.081534
     5  C    0.238239
     6  C   -0.061331
     7  C    0.008671
     8  C    0.042615
     9  C   -0.036823
    10  C    0.153009
    11  N   -0.261544
    12  C    0.162025
    13  C   -0.146721
    14  C    0.194226
    15  S   -0.345425
 Electronic spatial extent (au):  <R**2>=           3583.8902
 Charge=             -0.0000 electrons
 Dipole moment (field-independent basis, Debye):
    X=              2.4923    Y=             -0.5119    Z=              1.9266  Tot=              3.1915
 Quadrupole moment (field-independent basis, Debye-Ang):
   XX=            -83.7731   YY=            -94.5063   ZZ=            -98.5483
   XY=             10.2997   XZ=             -5.4522   YZ=             -0.1486
 Traceless Quadrupole moment (field-independent basis, Debye-Ang):
   XX=              8.5028   YY=             -2.2304   ZZ=             -6.2724
   XY=             10.2997   XZ=             -5.4522   YZ=             -0.1486
 Octapole moment (field-independent basis, Debye-Ang**2):
  XXX=             41.7949  YYY=              9.2847  ZZZ=              5.8514  XYY=             11.0603
  XXY=            -22.6580  XXZ=              6.5187  XZZ=              1.9903  YZZ=             -3.6853
  YYZ=              6.7201  XYZ=             -0.6220
 Hexadecapole moment (field-independent basis, Debye-Ang**3):
 XXXX=          -3282.5683 YYYY=           -844.1628 ZZZZ=           -480.3300 XXXY=             92.5681
 XXXZ=            -86.1715 YYYX=             36.6864 YYYZ=              1.4249 ZZZX=            -22.3325
 ZZZY=             -6.1411 XXYY=           -712.4427 XXZZ=           -725.2768 YYZZ=           -234.0412
 XXYZ=             -2.3286 YYXZ=             -0.0930 ZZXY=              4.4125
 N-N= 9.990295612398D+02 E-N=-4.233495859479D+03  KE= 9.483805886398D+02
 PrsmSu:  requested number of processors reduced to:  13 ShMem   1 Linda.
 Calling FoFJK, ICntrl=      2127 FMM=F ISym2X=0 I1Cent= 0 IOpClX= 0 NMat=1 NMatS=1 NMatT=0.
 ***** Axes restored to original set *****
 -------------------------------------------------------------------
 Center     Atomic                   Forces (Hartrees/Bohr)
 Number     Number              X              Y              Z
 -------------------------------------------------------------------
      1        6          -0.003389096   -0.002487680   -0.006515354
      2        6           0.003106121   -0.033576472    0.004599982
      3        6           0.007715789    0.004648092    0.013207188
      4        6          -0.031051173    0.009315717   -0.004631576
      5        6          -0.017142943   -0.014349662    0.006286179
      6        6           0.000417448   -0.010772189    0.024481923
      7        6          -0.016189542    0.017282495   -0.014689909
      8        6           0.014770978   -0.000943192    0.005426993
      9        6          -0.029656232    0.014707183   -0.017972850
     10        6           0.035862125   -0.014007116    0.017779093
     11        7           0.006945995   -0.009608775   -0.020271988
     12        6           0.021109594    0.007704109    0.004891250
     13        6          -0.004552853    0.024342570   -0.002194539
     14        6          -0.027394858   -0.025610202   -0.048964137
     15       16           0.009419807   -0.025244305    0.026657269
     16        1           0.009760904    0.014529711    0.012307320
     17        1           0.015530404    0.009686918    0.010838485
     18        1           0.004068572    0.009721703    0.012346602
     19        1          -0.000881948    0.013904488   -0.000652312
     20        1          -0.004141673    0.003444302    0.004123265
     21        1          -0.002201159    0.004777587   -0.008731677
     22        1           0.001089374   -0.001264511   -0.002877767
     23        1          -0.006220137    0.003104673   -0.000895767
     24        1          -0.003924598   -0.001075444   -0.000415440
     25        1           0.013650852   -0.001715981   -0.005797145
     26        1           0.003298251    0.003485983   -0.008335088
 -------------------------------------------------------------------
 Cartesian Forces:  Max     0.048964137 RMS     0.014716614

 GradGradGradGradGradGradGradGradGradGradGradGradGradGradGradGradGradGrad
 Berny optimization.
 FormGI is forming the generalized inverse of G from B-inverse, IUseBI=4.
 Internal  Forces:  Max     0.066758202 RMS     0.014493635
 Search for a local minimum.
 Step number   1 out of a maximum of  138
 All quantities printed in internal units (Hartrees-Bohrs-Radians)
 Mixed Optimization -- RFO/linear search
 Second derivative matrix not updated -- first step.
 ITU=  0
     Eigenvalues ---    0.00230   0.00651   0.00835   0.00937   0.01253
     Eigenvalues ---    0.01423   0.01476   0.01518   0.01696   0.01755
     Eigenvalues ---    0.01838   0.01935   0.02008   0.02053   0.02128
     Eigenvalues ---    0.02378   0.02396   0.02596   0.03581   0.04934
     Eigenvalues ---    0.05133   0.07232   0.10088   0.10744   0.12773
     Eigenvalues ---    0.15304   0.15610   0.15804   0.15890   0.15942
     Eigenvalues ---    0.15999   0.15999   0.16000   0.16000   0.16000
     Eigenvalues ---    0.16644   0.20447   0.21545   0.21983   0.22142
     Eigenvalues ---    0.22636   0.23459   0.23828   0.24386   0.24572
     Eigenvalues ---    0.24758   0.25787   0.27027   0.27961   0.30386
     Eigenvalues ---    0.31203   0.33443   0.33803   0.34245   0.34265
     Eigenvalues ---    0.35260   0.35353   0.35718   0.35771   0.35849
     Eigenvalues ---    0.36059   0.36495   0.36844   0.37699   0.39332
     Eigenvalues ---    0.44812   0.47487   0.47615   0.49060   0.53845
     Eigenvalues ---    0.54030   0.60186
 RFO step:  Lambda=-9.45071120D-02 EMin= 2.30000000D-03
 Linear search not attempted -- first point.
 Maximum step size (   0.300) exceeded in Quadratic search.
    -- Step size scaled by   0.675
 Iteration  1 RMS(Cart)=  0.13395249 RMS(Int)=  0.00760478
 Iteration  2 RMS(Cart)=  0.01153449 RMS(Int)=  0.00144793
 Iteration  3 RMS(Cart)=  0.00011271 RMS(Int)=  0.00144656
 Iteration  4 RMS(Cart)=  0.00000052 RMS(Int)=  0.00144656
 Variable       Old X    -DE/DX   Delta X   Delta X   Delta X     New X
                                 (Linear)    (Quad)   (Total)
    R1        2.99827  -0.02641   0.00000  -0.05215  -0.05215   2.94612
    R2        2.08280  -0.00583   0.00000  -0.00918  -0.00918   2.07362
    R3        2.12327  -0.01749   0.00000  -0.02907  -0.02907   2.09420
    R4        2.05105   0.00492   0.00000   0.00741   0.00741   2.05847
    R5        2.60375  -0.02159   0.00000  -0.02426  -0.02471   2.57904
    R6        2.75849   0.04645   0.00000   0.07286   0.07230   2.83079
    R7        2.92867  -0.04143   0.00000  -0.08044  -0.08045   2.84822
    R8        2.05255   0.00370   0.00000   0.00560   0.00560   2.05815
    R9        2.60532  -0.00563   0.00000  -0.00744  -0.00744   2.59788
   R10        2.06918  -0.00447   0.00000  -0.00692  -0.00692   2.06227
   R11        2.76247  -0.01644   0.00000  -0.02505  -0.02508   2.73739
   R12        2.90624  -0.02790   0.00000  -0.04815  -0.04798   2.85825
   R13        2.60822  -0.02133   0.00000  -0.02502  -0.02504   2.58318
   R14        2.03314   0.00667   0.00000   0.00981   0.00981   2.04295
   R15        2.71013   0.00472   0.00000   0.00683   0.00684   2.71697
   R16        2.04441   0.00135   0.00000   0.00202   0.00202   2.04642
   R17        2.54466   0.00578   0.00000   0.00669   0.00672   2.55139
   R18        2.06885  -0.00546   0.00000  -0.00844  -0.00844   2.06040
   R19        2.85858  -0.03715   0.00000  -0.06087  -0.06081   2.79777
   R20        2.04319   0.00204   0.00000   0.00305   0.00305   2.04623
   R21        2.49690  -0.01484   0.00000  -0.01374  -0.01326   2.48365
   R22        2.63120  -0.00951   0.00000  -0.01424  -0.01383   2.61736
   R23        2.55138   0.01670   0.00000   0.01829   0.01849   2.56988
   R24        2.02782   0.01435   0.00000   0.02094   0.02094   2.04875
   R25        2.96985  -0.03460   0.00000  -0.06681  -0.06703   2.90282
   R26        2.07664  -0.00621   0.00000  -0.00970  -0.00970   2.06694
   R27        3.18506  -0.02729   0.00000  -0.03910  -0.03910   3.14596
    A1        2.04804  -0.00748   0.00000  -0.02369  -0.02500   2.02305
    A2        1.89066  -0.00688   0.00000  -0.00624  -0.00606   1.88460
    A3        2.05244  -0.00925   0.00000  -0.03152  -0.03285   2.01959
    A4        1.69103   0.01792   0.00000   0.06285   0.06303   1.75407
    A5        1.95650   0.00230   0.00000  -0.00715  -0.00911   1.94739
    A6        1.75891   0.01206   0.00000   0.03908   0.03922   1.79813
    A7        2.63380  -0.06676   0.00000  -0.15251  -0.15301   2.48079
    A8        1.73178   0.04198   0.00000   0.08983   0.09449   1.82627
    A9        1.82888   0.01774   0.00000   0.05752   0.05745   1.88633
   A10        2.22787   0.00190   0.00000   0.00337   0.00083   2.22870
   A11        2.11540  -0.00511   0.00000  -0.00780  -0.00755   2.10785
   A12        1.91248   0.00569   0.00000   0.01774   0.01825   1.93073
   A13        2.20958   0.00658   0.00000   0.00873   0.00795   2.21753
   A14        2.04158  -0.00765   0.00000  -0.01595  -0.01595   2.02563
   A15        2.03199   0.00101   0.00000   0.00692   0.00696   2.03895
   A16        2.14984  -0.00752   0.00000  -0.01426  -0.01362   2.13622
   A17        2.08358   0.00891   0.00000   0.01971   0.01880   2.10238
   A18        2.04811  -0.00131   0.00000  -0.00518  -0.00494   2.04317
   A19        2.10971  -0.00129   0.00000  -0.00470  -0.00490   2.10481
   A20        2.11997  -0.00676   0.00000  -0.01743  -0.01735   2.10263
   A21        2.04865   0.00794   0.00000   0.02167   0.02178   2.07043
   A22        2.10419   0.00114   0.00000   0.00281   0.00265   2.10684
   A23        2.10579  -0.00239   0.00000  -0.00615  -0.00608   2.09971
   A24        2.06856   0.00139   0.00000   0.00397   0.00404   2.07261
   A25        2.15091  -0.00612   0.00000  -0.01043  -0.01056   2.14035
   A26        2.02504   0.00757   0.00000   0.01718   0.01721   2.04226
   A27        2.10717  -0.00142   0.00000  -0.00662  -0.00659   2.10058
   A28        2.08613  -0.00824   0.00000  -0.01327  -0.01325   2.07288
   A29        2.10852   0.00671   0.00000   0.01478   0.01481   2.12334
   A30        2.06672   0.00143   0.00000  -0.00117  -0.00119   2.06553
   A31        1.98948   0.01544   0.00000   0.02890   0.02898   2.01846
   A32        2.19599  -0.01849   0.00000  -0.03384  -0.03442   2.16156
   A33        2.07057   0.00340   0.00000   0.00754   0.00805   2.07863
   A34        1.94205   0.01653   0.00000   0.03294   0.03337   1.97542
   A35        2.27184  -0.01404   0.00000  -0.03196  -0.03294   2.23890
   A36        1.97914   0.00659   0.00000   0.01596   0.01633   1.99547
   A37        1.99278   0.00884   0.00000   0.02412   0.02425   2.01703
   A38        1.92544  -0.00143   0.00000  -0.00080  -0.00361   1.92183
   A39        1.95538   0.00553   0.00000   0.03013   0.03007   1.98545
   A40        1.97807   0.00234   0.00000   0.00768   0.00829   1.98636
   A41        1.75740   0.00386   0.00000   0.02445   0.02084   1.77824
   A42        2.03180   0.02903   0.00000   0.06011   0.05941   2.09121
   A43        2.46029  -0.02836   0.00000  -0.05415  -0.05629   2.40400
    D1       -1.01386   0.00465   0.00000   0.01615   0.01733  -0.99652
    D2        1.52465   0.01726   0.00000   0.08461   0.08204   1.60669
    D3       -2.90358  -0.00918   0.00000  -0.04539  -0.04349  -2.94707
    D4       -0.36507   0.00343   0.00000   0.02308   0.02122  -0.34385
    D5        1.40228  -0.01420   0.00000  -0.07217  -0.06961   1.33267
    D6       -2.34240  -0.00159   0.00000  -0.00370  -0.00490  -2.34730
    D7        2.91046   0.01890   0.00000   0.08387   0.08241   2.99286
    D8        0.04532   0.00590   0.00000   0.01548   0.01529   0.06061
    D9        0.38640   0.00438   0.00000   0.01368   0.01390   0.40031
   D10       -2.47874  -0.00862   0.00000  -0.05470  -0.05321  -2.53195
   D11       -1.40372   0.01357   0.00000  -0.00947  -0.01872  -1.42243
   D12        1.52017   0.02232   0.00000   0.07571   0.07504   1.59520
   D13        1.44862  -0.01807   0.00000  -0.06597  -0.06687   1.38176
   D14       -1.91068  -0.00932   0.00000   0.01921   0.02689  -1.88379
   D15       -2.07799  -0.00398   0.00000  -0.02183  -0.02026  -2.09825
   D16        1.07201   0.00503   0.00000   0.02250   0.02308   1.09508
   D17        0.81321   0.00643   0.00000   0.03699   0.03817   0.85138
   D18       -2.31998   0.01544   0.00000   0.08133   0.08151  -2.23847
   D19       -2.88660   0.01725   0.00000   0.07356   0.07327  -2.81332
   D20        0.31865   0.01578   0.00000   0.06850   0.06854   0.38719
   D21        0.24663   0.00824   0.00000   0.02935   0.02955   0.27618
   D22       -2.83131   0.00678   0.00000   0.02428   0.02482  -2.80648
   D23        3.00934  -0.00407   0.00000  -0.02093  -0.02042   2.98891
   D24       -0.02381  -0.00332   0.00000  -0.01708  -0.01678  -0.04059
   D25       -0.19470  -0.00227   0.00000  -0.01509  -0.01502  -0.20972
   D26        3.05534  -0.00152   0.00000  -0.01125  -0.01138   3.04396
   D27       -2.80411   0.00670   0.00000   0.02246   0.02233  -2.78178
   D28        0.59082   0.00397   0.00000   0.00839   0.00805   0.59888
   D29        0.39746   0.00557   0.00000   0.01809   0.01822   0.41568
   D30       -2.49079   0.00285   0.00000   0.00402   0.00395  -2.48685
   D31       -0.02725   0.00187   0.00000   0.00718   0.00722  -0.02002
   D32       -3.06394   0.00011   0.00000  -0.00013  -0.00015  -3.06410
   D33        3.01019   0.00028   0.00000   0.00121   0.00132   3.01151
   D34       -0.02650  -0.00147   0.00000  -0.00611  -0.00605  -0.03256
   D35        0.02216   0.00158   0.00000   0.01016   0.01008   0.03224
   D36       -3.10780  -0.00150   0.00000  -0.00298  -0.00308  -3.11088
   D37        3.06106   0.00307   0.00000   0.01672   0.01675   3.07780
   D38       -0.06890  -0.00001   0.00000   0.00358   0.00358  -0.06532
   D39        0.21383  -0.00447   0.00000  -0.01796  -0.01793   0.19590
   D40        3.12906  -0.00482   0.00000  -0.01640  -0.01624   3.11282
   D41       -2.93993  -0.00120   0.00000  -0.00407  -0.00419  -2.94412
   D42       -0.02470  -0.00154   0.00000  -0.00252  -0.00250  -0.02720
   D43       -0.41213  -0.00044   0.00000   0.00038   0.00036  -0.41176
   D44        2.49579  -0.00155   0.00000   0.00652   0.00703   2.50282
   D45        2.95042  -0.00082   0.00000  -0.00326  -0.00342   2.94700
   D46       -0.42484  -0.00194   0.00000   0.00288   0.00324  -0.42160
   D47        0.44337  -0.00126   0.00000  -0.04641  -0.04632   0.39705
   D48       -2.43427  -0.00546   0.00000  -0.06345  -0.06349  -2.49776
   D49       -2.23670  -0.00151   0.00000  -0.01744  -0.01573  -2.25243
   D50        0.58474   0.00623   0.00000   0.02060   0.02144   0.60618
   D51        1.91854   0.01760   0.00000   0.08467   0.08408   2.00262
   D52       -0.30272   0.01134   0.00000   0.05180   0.05180  -0.25092
   D53       -0.90090   0.01018   0.00000   0.04769   0.04784  -0.85306
   D54       -3.12216   0.00393   0.00000   0.01482   0.01556  -3.10660
   D55       -1.64186   0.01108   0.00000   0.04384   0.04367  -1.59819
   D56        1.81193  -0.01763   0.00000  -0.11162  -0.10834   1.70359
   D57        0.56677   0.01916   0.00000   0.08957   0.08809   0.65485
   D58       -2.26263  -0.00955   0.00000  -0.06590  -0.06392  -2.32655
         Item               Value     Threshold  Converged?
 Maximum Force            0.066758     0.000450     NO 
 RMS     Force            0.014494     0.000300     NO 
 Maximum Displacement     0.481156     0.001800     NO 
 RMS     Displacement     0.133533     0.001200     NO 
 Predicted change in Energy=-5.118261D-02
 GradGradGradGradGradGradGradGradGradGradGradGradGradGradGradGradGradGrad

                          Input orientation:                          
 ---------------------------------------------------------------------
 Center     Atomic      Atomic             Coordinates (Angstroms)
 Number     Number       Type             X           Y           Z
 ---------------------------------------------------------------------
      1          6           0        0.714607    0.693805    0.252095
      2          6           0        2.227865    0.330255    0.343916
      3          6           0        3.307365    0.412870    1.174848
      4          6           0        4.659663   -0.228064    0.995431
      5          6           0        5.270494   -1.123904    1.840571
      6          6           0        6.696066   -1.378224    1.803090
      7          6           0        7.293010   -2.137679    2.770287
      8          6           0        6.523837   -2.679243    3.857591
      9          6           0        5.189393   -2.503618    3.963797
     10          6           0        4.449780   -1.947123    2.808281
     11          7           0        3.241396   -2.393592    2.547842
     12          6           0        2.975974   -2.489315    1.191838
     13          6           0        1.909420   -1.998683    0.505453
     14          6           0        2.369088   -0.913177   -0.479438
     15         16           0        2.745861   -0.796674   -2.096821
     16          1           0        0.074194    0.284317    1.043477
     17          1           0        0.292713    0.180617   -0.634902
     18          1           0        0.491319    1.742234    0.058446
     19          1           0        3.207810    0.823954    2.178489
     20          1           0        5.229515    0.091534    0.121318
     21          1           0        7.321458   -0.887293    1.070554
     22          1           0        8.368312   -2.265656    2.778432
     23          1           0        7.065972   -3.251348    4.610971
     24          1           0        4.621469   -2.940721    4.775525
     25          1           0        3.830982   -2.772063    0.588180
     26          1           0        1.077466   -1.690730    1.145269
 ---------------------------------------------------------------------
                    Distance matrix (angstroms):
                    1          2          3          4          5
     1  C    0.000000
     2  C    1.559022   0.000000
     3  C    2.766368   1.364769   0.000000
     4  C    4.118963   2.578727   1.507214   0.000000
     5  C    5.155913   3.689465   2.580453   1.374738   0.000000
     6  C    6.517418   5.001291   3.884069   2.474291   1.448564
     7  C    7.591705   6.134629   4.993605   3.705572   2.445952
     8  C    7.623924   6.313349   5.206147   4.204211   2.838718
     9  C    6.635056   5.468550   4.452659   3.777560   2.533433
    10  C    5.240240   4.024483   3.089139   2.507118   1.512523
    11  N    4.602950   3.647449   3.125010   3.018439   2.495913
    12  C    4.016112   3.037863   2.921093   2.826064   2.747731
    13  C    2.956563   2.356153   2.866693   3.307417   3.720833
    14  C    2.419678   1.497991   2.318496   2.809154   3.720887
    15  S    3.444550   2.737788   3.533002   3.680757   4.688699
    16  H    1.097312   2.264905   3.238391   4.614256   5.442424
    17  H    1.108205   2.173772   3.523813   4.679236   5.710345
    18  H    1.089293   2.256273   3.308123   4.704796   5.850746
    19  H    3.153410   2.137684   1.089127   2.148079   2.857097
    20  H    4.556778   3.019344   2.215365   1.091305   2.105895
    21  H    6.842531   5.287260   4.220692   2.743243   2.203489
    22  H    8.586034   7.097233   5.946357   4.591835   3.432150
    23  H    8.654702   7.378545   6.273799   5.291758   3.927451
    24  H    6.995339   6.005646   5.092967   4.652857   3.512267
    25  H    4.673007   3.500575   3.280572   2.706381   2.521330
    26  H    2.572049   2.459668   3.065690   3.872206   4.287916
                    6          7          8          9         10
     6  C    0.000000
     7  C    1.366962   0.000000
     8  C    2.437886   1.437758   0.000000
     9  C    2.864478   2.446136   1.350135   0.000000
    10  C    2.525837   2.849861   2.436958   1.480517   0.000000
    11  N    3.677005   4.065778   3.545625   2.410752   1.314289
    12  C    3.930297   4.609984   4.441807   3.547279   2.253656
    13  C    4.998081   5.842246   5.743939   4.793050   3.429156
    14  C    4.914157   6.025373   6.260252   5.497814   4.025844
    15  S    5.581363   6.794380   7.298780   6.753932   5.318543
    16  H    6.869515   7.807640   7.635432   6.516603   5.219159
    17  H    7.026856   8.122436   8.196841   7.233991   5.802068
    18  H    7.161000   8.286785   8.388936   7.439821   6.069791
    19  H    4.142275   5.080389   5.107623   4.264591   3.101289
    20  H    2.671949   4.030439   4.828272   4.636924   3.461774
    21  H    1.081082   2.110300   3.408058   3.940693   3.519868
    22  H    2.129609   1.082921   2.176631   3.401064   3.931570
    23  H    3.395530   2.163312   1.090319   2.121198   3.434407
    24  H    3.947242   3.435548   2.128375   1.082820   2.210602
    25  H    3.409911   4.141216   4.236642   3.648580   2.447915
    26  H    5.665603   6.439987   6.164155   5.051023   3.768800
                   11         12         13         14         15
    11  N    0.000000
    12  C    1.385048   0.000000
    13  C    2.470115   1.359920   0.000000
    14  C    3.480945   2.376065   1.536109   0.000000
    15  S    4.936456   3.705841   2.986015   1.664770   0.000000
    16  H    4.411970   4.016886   2.978190   3.003298   4.262372
    17  H    5.044913   4.203023   2.943383   2.351996   3.018318
    18  H    5.555635   5.036278   4.025579   3.296444   4.021715
    19  H    3.238850   3.464820   3.528760   3.284152   4.595444
    20  H    4.002060   3.589601   3.942030   3.090694   3.446388
    21  H    4.593280   4.632970   5.553799   5.189327   5.565659
    22  H    5.133693   5.625354   6.852371   6.959425   7.585377
    23  H    4.429404   5.385095   6.709283   7.310268   8.347649
    24  H    2.677036   3.969160   5.145499   6.066200   7.439353
    25  H    2.081136   1.084153   2.073008   2.594687   3.505549
    26  H    2.672793   2.060155   1.093777   2.216427   3.754201
                   16         17         18         19         20
    16  H    0.000000
    17  H    1.695718   0.000000
    18  H    1.808259   1.720123   0.000000
    19  H    3.376242   4.102053   3.566111   0.000000
    20  H    5.240694   4.995179   5.017894   2.975850   0.000000
    21  H    7.341405   7.311105   7.388476   4.591077   2.497073
    22  H    8.849001   9.102219   9.247081   6.044534   4.740110
    23  H    8.608885   9.229008   9.428011   6.116409   5.891045
    24  H    6.708708   7.599579   7.825537   4.787045   5.588016
    25  H    4.864382   4.767976   5.640288   3.981050   3.220875
    26  H    2.217595   2.699405   3.648286   3.453917   4.632974
                   21         22         23         24         25
    21  H    0.000000
    22  H    2.431591   0.000000
    23  H    4.264807   2.454766   0.000000
    24  H    5.023278   4.299178   2.469649   0.000000
    25  H    3.996056   5.063695   5.184372   4.264642   0.000000
    26  H    6.295914   7.493610   7.092871   5.225054   3.010230
                   26
    26  H    0.000000
 Stoichiometry    C13H11NS
 Framework group  C1[X(C13H11NS)]
 Deg. of freedom    72
 Full point group                 C1      NOp   1
 Largest Abelian subgroup         C1      NOp   1
 Largest concise Abelian subgroup C1      NOp   1
                         Standard orientation:                         
 ---------------------------------------------------------------------
 Center     Atomic      Atomic             Coordinates (Angstroms)
 Number     Number       Type             X           Y           Z
 ---------------------------------------------------------------------
      1          6           0       -3.351962   -1.273713    1.151576
      2          6           0       -2.121545   -0.327929    1.002869
      3          6           0       -0.857971   -0.121356    1.475420
      4          6           0        0.171900    0.850197    0.958560
      5          6           0        1.422082    0.550904    0.471349
      6          6           0        2.473939    1.541872    0.371771
      7          6           0        3.750413    1.171891    0.051903
      8          6           0        4.081117   -0.209894   -0.168213
      9          6           0        3.161729   -1.196872   -0.109333
     10          6           0        1.727640   -0.832607   -0.058046
     11          7           0        0.854483   -1.583364   -0.691541
     12          6           0       -0.173686   -0.855895   -1.267750
     13          6           0       -1.513971   -1.056088   -1.154003
     14          6           0       -2.164795    0.128074   -0.423374
     15         16           0       -2.978338    1.524880   -0.821547
     16          1           0       -3.162821   -2.338987    0.968514
     17          1           0       -4.057579   -1.049263    0.327048
     18          1           0       -3.959614   -1.122122    2.042833
     19          1           0       -0.410026   -0.811824    2.188718
     20          1           0       -0.091768    1.907262    1.022116
     21          1           0        2.286761    2.569821    0.649301
     22          1           0        4.547340    1.905113    0.048819
     23          1           0        5.123276   -0.440251   -0.391004
     24          1           0        3.423251   -2.229510   -0.303662
     25          1           0        0.123859    0.115670   -1.645794
     26          1           0       -1.779994   -2.031941   -0.737721
 ---------------------------------------------------------------------
 Rotational constants (GHZ):           1.2091068           0.3462473           0.3205765
 Standard basis: 6-31G(2df,p) (6D, 7F)
 There are   524 symmetry adapted cartesian basis functions of A   symmetry.
 There are   479 symmetry adapted basis functions of A   symmetry.
   479 basis functions,   761 primitive gaussians,   524 cartesian basis functions
    56 alpha electrons       56 beta electrons
       nuclear repulsion energy      1001.0850467926 Hartrees.
 NAtoms=   26 NActive=   26 NUniq=   26 SFac= 1.00D+00 NAtFMM=   60 NAOKFM=F Big=F
 Integral buffers will be    131072 words long.
 Raffenetti 2 integral format.
 Two-electron integral symmetry is turned on.
 One-electron integrals computed using PRISM.
 PrsmSu:  requested number of processors reduced to:  12 ShMem   1 Linda.
 NBasis=   479 RedAO= T EigKep=  1.78D-04  NBF=   479
 NBsUse=   479 1.00D-06 EigRej= -1.00D+00 NBFU=   479
 Initial guess from the checkpoint file:  "CC1dCCdc2ccccc2dNCdCC1dS.chk"
 B after Tr=     0.000000   -0.000000   -0.000000
         Rot=    0.999748   -0.021985   -0.004011   -0.001978 Ang=  -2.57 deg.
 ExpMin= 1.17D-01 ExpMax= 2.19D+04 ExpMxC= 3.30D+03 IAcc=2 IRadAn=         4 AccDes= 0.00D+00
 Harris functional with IExCor=  402 and IRadAn=       4 diagonalized for initial guess.
 HarFok:  IExCor=  402 AccDes= 0.00D+00 IRadAn=         4 IDoV= 1 UseB2=F ITyADJ=14
 ICtDFT=  3500011 ScaDFX=  1.000000  1.000000  1.000000  1.000000
 FoFCou: FMM=F IPFlag=           0 FMFlag=      100000 FMFlg1=           0
         NFxFlg=           0 DoJE=T BraDBF=F KetDBF=T FulRan=T
         wScrn=  0.000000 ICntrl=       500 IOpCl=  0 I1Cent=   200000004 NGrid=           0
         NMat0=    1 NMatS0=      1 NMatT0=    0 NMatD0=    1 NMtDS0=    0 NMtDT0=    0
 Petite list used in FoFCou.
 Requested convergence on RMS density matrix=1.00D-08 within 128 cycles.
 Requested convergence on MAX density matrix=1.00D-06.
 Requested convergence on             energy=1.00D-06.
 No special actions if energy rises.
 Integral accuracy reduced to 1.0D-05 until final iterations.
 Initial convergence to 1.0D-05 achieved.  Increase integral accuracy.
 SCF Done:  E(RB3LYP) =  -954.772778011     A.U. after   15 cycles
            NFock= 15  Conv=0.33D-08     -V/T= 2.0065
 PrsmSu:  requested number of processors reduced to:  13 ShMem   1 Linda.
 Calling FoFJK, ICntrl=      2127 FMM=F ISym2X=0 I1Cent= 0 IOpClX= 0 NMat=1 NMatS=1 NMatT=0.
 ***** Axes restored to original set *****
 -------------------------------------------------------------------
 Center     Atomic                   Forces (Hartrees/Bohr)
 Number     Number              X              Y              Z
 -------------------------------------------------------------------
      1        6           0.003687550   -0.001466682   -0.004604027
      2        6          -0.000876308   -0.035914088    0.001665566
      3        6           0.001861526    0.006896948    0.012762350
      4        6          -0.019521432    0.008541173   -0.004420711
      5        6          -0.010322466   -0.009811761    0.002403446
      6        6           0.002712148   -0.004020112    0.012898521
      7        6          -0.008230377    0.008203577   -0.006202010
      8        6           0.010368611    0.000985017    0.004730165
      9        6          -0.018702736    0.007598014   -0.011268086
     10        6           0.023202468   -0.006948468    0.010626328
     11        7          -0.000561330   -0.010976525   -0.017238738
     12        6           0.012113277    0.007009506    0.002101561
     13        6           0.001385168    0.018943461   -0.000081397
     14        6          -0.022637351   -0.011274422   -0.031680953
     15       16           0.005025401   -0.015305016    0.022001909
     16        1           0.008119872    0.009139458    0.008492006
     17        1           0.009944208    0.004259900    0.003047706
     18        1           0.004416666    0.005055070    0.009031014
     19        1          -0.001519390    0.010797414   -0.002334122
     20        1          -0.001016269    0.002245443    0.002048269
     21        1          -0.002316201    0.001919180   -0.005327063
     22        1           0.000678395   -0.001479807   -0.001505993
     23        1          -0.003477062    0.001909434   -0.000212208
     24        1          -0.001843300   -0.001172197   -0.000883977
     25        1           0.006203421    0.001473679   -0.002311576
[...]
 188,-0.00218929,0.00186827,-0.00203119,0.00118238,0.00012849,-0.000222
 67,-0.00039299,0.00026095,-0.00033396,-0.00019752,-0.00033414,0.000061
 57,0.00035698,0.00024442,0.00016101,-0.00085807,-0.00024972,-0.0006144
 9,0.00058037,-0.00027255,0.00038324,-0.00049635,0.00050899,-0.00027860
 ,0.00054070,0.00034193,-0.00032004,-0.00329907,-0.00025240,-0.00510816
 ,-0.00049616,-0.00135586,-0.00043687,-0.00035051,0.00039589,-0.0003564
 1,0.00024992,0.00023752,-0.00001367,-0.00078375,0.00114890,-0.00056849
 ,0.07962775,0.00349609,0.00071236,-0.00015745,-0.00482942,-0.01316701,
 0.00033969,-0.04784987,-0.30774909,0.01047436,-0.00045495,-0.01735099,
 0.00334843,0.00190290,0.00135858,-0.00090740,-0.00026083,-0.00035846,0
 .00056474,0.00025798,0.00012675,0.00008504,-0.00000398,0.00004201,-0.0
 0001008,-0.00000373,-0.00002915,0.00005279,-0.00009712,-0.00002671,-0.
 00048372,0.00023497,-0.00024336,0.00057005,-0.00038847,0.00063878,-0.0
 0008683,-0.00044892,-0.00080196,-0.00056709,-0.00117350,0.00079219,0.0
 0158866,-0.00008546,0.00010766,-0.00041377,0.00049881,0.00029384,0.000
 21688,0.00010522,0.00020429,0.00005911,0.00019933,0.00136042,0.0001163
 3,0.04784186,0.33216206,0.00207746,-0.00172466,-0.00610290,-0.01383447
 ,-0.01099206,0.00183333,0.01057087,0.01228931,-0.03693868,-0.00727321,
 0.01504928,-0.00141560,-0.00000812,-0.00045560,0.00420933,-0.00121956,
 0.00018599,-0.00089343,0.00017821,-0.00084457,0.00052662,0.00037921,0.
 00038441,0.00003576,-0.00006707,0.00000946,-0.00033948,0.00034883,0.00
 056156,-0.00003861,-0.00038429,-0.00046615,-0.00015441,0.00066986,0.00
 056387,0.00060832,-0.00004114,-0.00113234,-0.00069413,-0.00402413,0.00
 091152,0.00908278,0.00119245,0.00068433,-0.00064716,0.00092725,-0.0002
 6683,0.00057958,-0.00097800,0.00054072,0.00007057,-0.00033605,0.000506
 66,0.00042450,0.01240596,-0.01523980,0.03096557,-0.00012476,-0.0006241
 5,-0.00050412,-0.00280855,0.00197840,-0.00082267,-0.02770206,-0.016005
 62,-0.00283877,-0.17663495,-0.13524839,0.02335380,0.00535197,0.0047383
 0,-0.00260917,-0.00482212,0.00911250,-0.00467201,0.00025288,0.00000719
 ,-0.00029155,0.00019642,0.00001287,-0.00018607,0.00002997,0.00043841,0
 .00004124,0.00010506,0.00159741,-0.00367289,-0.00045185,-0.00058289,0.
 00107339,-0.00029298,0.00035814,-0.00052613,-0.00054175,-0.00058739,0.
 00017801,0.00030235,0.00053456,0.00010328,-0.00006519,-0.00018162,-0.0
 0030269,-0.00004700,0.00004240,-0.00000103,-0.00021672,0.00017161,-0.0
 0008470,0.00004475,0.00010260,0.00004477,-0.00132320,0.00068070,-0.000
 33579,0.21039393,-0.00030407,0.00011421,-0.00018161,0.00279845,0.00212
 454,0.00215685,0.00961733,0.00232402,0.00210307,-0.13448499,-0.1817538
 7,0.02371171,-0.01534148,-0.02696400,0.00969347,-0.00231398,-0.0026239
 4,-0.00300955,0.00074533,0.00091138,-0.00000317,-0.00012815,0.00004037
 ,-0.00011039,-0.00041332,-0.00141666,-0.00043912,0.00140870,0.00224602
 ,0.00553425,0.00056481,-0.00100201,-0.00125928,-0.00018511,0.00061002,
 0.00060297,-0.00065263,0.00011078,-0.00056890,0.00024096,-0.00100750,0
 .00096843,0.00002517,0.00017867,-0.00011698,0.00000830,0.00004092,0.00
 000117,0.00001663,0.00003416,0.00006884,-0.00004599,-0.00000224,-0.000
 03477,0.00452912,0.00190374,-0.00063188,0.13187882,0.20244452,-0.00031
 687,-0.00014353,-0.00121930,0.00052541,0.00328180,0.00358939,-0.016688
 75,-0.00495788,0.00482424,0.02063937,0.01911817,-0.04413965,0.00545154
 ,0.01591048,0.00143708,0.00134400,0.00197810,-0.00821544,-0.00046428,-
 0.00095873,0.00080962,0.00045570,0.00073166,-0.00006084,0.00003234,0.0
 0004705,-0.00099777,-0.00439758,0.00304761,0.00814615,0.00170771,-0.00
 058098,-0.00367685,0.00004304,0.00037050,0.00189311,0.00070693,0.00119
 260,-0.00064147,-0.00032815,-0.00084204,-0.00048747,0.00023992,0.00012
 161,0.00056236,0.00012718,-0.00006683,0.00009944,-0.00012182,0.0003802
 0,0.00000244,-0.00002262,0.00001059,-0.00000110,0.00005979,0.00047058,
 -0.00133793,-0.00630224,-0.03962192,0.03878897,-0.00000347,-0.00000112
 ,0.00004672,0.00001791,-0.00021834,-0.00011761,0.00086992,0.00012914,0
 .00006759,-0.00230676,-0.00276941,0.00118430,-0.00763971,-0.02140692,0
 .00836414,-0.08790958,-0.09066891,0.03055630,0.00907251,0.01511492,-0.
 00767161,0.00049875,-0.00030913,-0.00490684,-0.00064761,0.00021627,-0.
 00053248,-0.00369540,0.00053737,-0.00319297,-0.00020602,-0.00174827,-0
 .00018755,0.00040512,-0.00027585,0.00047271,-0.00014368,0.00010757,0.0
 0005027,0.00008121,0.00008808,0.00017706,-0.00006155,-0.00003557,-0.00
 008952,-0.00000422,0.00002609,-0.00000640,0.00000883,-0.00000713,-0.00
 000086,-0.00000527,0.00002195,-0.00000536,-0.00001179,0.00009243,0.000
 01731,-0.00179311,0.00173388,-0.00185578,0.09336710,-0.00002023,0.0000
 3423,0.00002531,0.00022379,-0.00010352,0.00017355,0.00017091,0.0007741
 6,-0.00043906,0.00475938,-0.00095200,0.00112888,-0.00342371,-0.0080891
 4,0.00410906,-0.09188910,-0.25711556,0.09296535,-0.00844075,-0.0104011
 6,0.00447020,0.00048829,0.00177438,0.00499136,0.00091207,0.00027759,0.
 00005719,-0.00249725,0.00207742,-0.00040589,0.00000544,-0.00044468,0.0
 0038555,0.00028556,-0.00010440,0.00007766,-0.00011385,0.00015703,-0.00
 003498,0.00010155,-0.00004434,0.00020288,-0.00004505,-0.00002683,-0.00
 012332,-0.00000146,0.00001811,-0.00000179,0.00001474,-0.00000397,0.000
 01147,-0.00000219,0.00001618,-0.00000287,-0.00007213,0.00002436,-0.000
 04597,0.00155737,0.00176052,0.00055456,0.09675287,0.27190052,0.0000141
 4,0.00001851,-0.00003134,0.00007868,0.00017326,0.00016403,-0.00015361,
 -0.00010934,-0.00004910,-0.00189625,-0.00293399,-0.00083347,-0.0075868
 4,-0.00639056,0.00284881,0.03344911,0.09130480,-0.07508038,0.00729781,
 0.02171086,-0.00512118,-0.00660948,0.00354525,0.00236276,0.00038571,-0
 .00067603,0.00056492,-0.00242535,0.00075102,0.00069139,-0.00010112,0.0
 0026907,0.00039380,0.00003059,-0.00027554,-0.00014951,0.00016789,0.000
 08264,0.00007175,0.00001144,-0.00011625,-0.00009442,0.00002822,0.00003
 278,0.00005132,0.00001265,-0.00001135,0.00000583,0.00000233,0.00000470
 ,0.00000581,-0.00000721,-0.00000281,0.00000157,0.00003618,0.00002650,0
 .00001574,-0.00134276,0.00045983,-0.00017338,-0.02438034,-0.10593755,0
 .07781022,0.00004977,-0.00000674,-0.00012676,0.00002589,0.00006551,0.0
 0000824,-0.00021969,0.00037724,0.00047221,-0.00016144,-0.00060349,-0.0
 0008732,0.00268578,0.00015294,-0.00449420,-0.01237325,-0.00717139,-0.0
 0420312,-0.27292512,-0.09430652,-0.08137039,-0.00598884,-0.00078454,-0
 .00426727,0.00132891,-0.00223710,0.00085755,0.00025166,-0.00005453,0.0
 0033574,0.00001310,0.00023471,0.00002315,-0.00008568,-0.00008869,-0.00
 000376,-0.00010012,-0.00001624,-0.00006427,0.00010053,-0.00004893,0.00
 026707,-0.00004606,-0.00001077,-0.00012229,0.00000953,-0.00001845,0.00
 001068,-0.00002051,0.00001455,0.00000156,0.00000420,0.00000770,0.00000
 316,-0.00008899,0.00006863,-0.00002104,0.00005440,-0.00004376,-0.00026
 172,-0.00032584,0.00153823,0.00213699,0.28782611,-0.00002884,0.0000217
 7,0.00016314,-0.00007429,-0.00001966,-0.00003841,0.00024572,-0.0004551
 0,-0.00057208,0.00010410,0.00094117,-0.00000216,-0.00071201,0.00063880
 ,0.00571236,0.01643890,0.00755135,0.00655942,-0.09545197,-0.08521851,-
 0.02149437,-0.02383193,-0.00552413,-0.00984036,-0.00112051,-0.00345142
 ,0.00375778,0.00077802,-0.00030353,0.00082800,-0.00047993,0.00011848,-
 0.00079009,0.00032176,-0.00020202,0.00019250,-0.00021935,0.00020012,-0
 .00003307,0.00006086,-0.00007684,0.00000812,0.00000702,0.00001189,-0.0
 0002686,-0.00001508,0.00001344,-0.00001285,0.00002122,-0.00002945,-0.0
 0000095,-0.00000578,0.00000470,-0.00000423,0.00010576,-0.00006965,0.00
 002359,-0.00009639,0.00005969,0.00029536,0.00152862,-0.00060189,-0.002
 50818,0.10266728,0.08625676,-0.00010437,-0.00000568,0.00013715,0.00002
 954,0.00007943,0.00003830,0.00011622,-0.00028259,-0.00088122,-0.001215
 39,0.00007923,0.00007314,-0.00327585,0.00534545,0.00356234,-0.02014242
 ,-0.00986875,-0.00297814,-0.08142121,-0.01995118,-0.07023455,0.0126382
 1,0.00436296,0.00614876,-0.00023551,0.00345941,0.00013400,0.00010949,0
 .00091416,-0.00064442,-0.00005372,-0.00040006,-0.00007918,0.00010663,0
 .00000841,0.00009612,-0.00008453,-0.00000792,-0.00001597,0.00004574,0.
 00001761,-0.00011459,-0.00001023,-0.00001982,0.00001340,-0.00003001,0.
 00002915,-0.00001717,0.00001458,-0.00000543,-0.00000380,0.00000156,-0.
 00000294,-0.00000389,0.00001550,0.00001072,0.00002236,-0.00000844,0.00
 022345,0.00025347,0.00212559,-0.00220615,-0.00273959,0.09061835,0.0189
 7402,0.06697424,-0.00001539,-0.00000489,-0.00000157,0.00007189,0.00000
 849,0.00000868,-0.00007700,-0.00000076,-0.00007495,0.00010972,0.000034
 76,0.00025855,-0.00063554,-0.00003861,-0.00006283,-0.00015981,-0.00308
 668,0.00007637,0.00905533,-0.00645394,0.00906446,-0.12831119,0.0632340
 6,-0.10833912,-0.00943914,0.01546015,-0.02125914,0.00101007,-0.0055139
 6,-0.00302133,-0.00143441,0.00018438,-0.00168483,-0.00052761,0.0001040
 3,0.00029956,-0.00017080,-0.00003152,-0.00016757,0.00007620,0.00003298
 ,0.00013844,-0.00003089,-0.00003231,-0.00006317,-0.00000834,0.00001105
 ,-0.00000157,-0.00000164,0.00000675,-0.00000346,0.00000007,0.00000832,
 -0.00000162,-0.00000326,0.00001063,0.00000503,-0.00001055,0.00007887,-
 0.00003504,0.00041539,-0.00049681,0.00041351,0.00020694,0.00097799,0.0
 0029363,0.13058354,0.00003439,0.00002420,-0.00000266,0.00003508,0.0000
 5605,0.00003056,-0.00013145,0.00012817,-0.00005445,0.00047311,-0.00027
 819,0.00004270,-0.00062515,0.00000317,-0.00069945,-0.00384173,-0.00294
 272,0.00206015,0.01562848,-0.00767586,0.01851251,0.06458910,-0.1159376
 5,0.10246609,-0.00867259,0.00925154,-0.00926662,-0.00522208,0.00154668
 ,0.00317681,-0.00008895,0.00073629,0.00035341,0.00061164,-0.00056823,-
 0.00091433,0.00007541,0.00009784,0.00013072,-0.00000514,-0.00019429,0.
 00006225,-0.00000012,0.00004903,-0.00003945,0.00001091,-0.00001764,0.0
 0000222,0.00000494,-0.00001191,0.00000821,-0.00000311,0.00000135,-0.00
 000042,-0.00000064,-0.00000593,0.00001190,0.00002329,0.00014383,-0.000
 01710,0.00082003,-0.00062858,0.00089455,0.00033139,0.00042592,-0.00117
 048,-0.06593480,0.11646178,-0.00001722,-0.00001521,-0.00005050,-0.0000
 1329,-0.00003729,0.00006311,-0.00006351,-0.00001862,0.00003358,0.00015
 122,-0.00015401,-0.00022968,0.00024381,-0.00031275,-0.00015202,0.00117
 465,0.00285045,0.00161565,-0.00754085,0.00338628,-0.00466962,-0.108677
 47,0.10163141,-0.18978417,-0.00545867,0.00627469,-0.00354128,-0.004788
 17,0.00232055,0.00610803,-0.00027128,0.00054420,0.00059623,0.00097106,
 -0.00069801,-0.00109258,0.00008743,0.00008643,0.00021972,0.00005151,-0
 .00001690,0.00005324,-0.00007433,-0.00001782,-0.00008962,-0.00000311,0
 .00000679,0.00000351,-0.00000546,0.00001624,0.00000015,0.00000521,0.00
 000448,0.00000252,-0.00001390,0.00000699,-0.00000271,0.00005749,-0.000
 00745,0.00006644,-0.00041735,0.00032906,-0.00033775,0.00070238,-0.0007
 0291,-0.00029632,0.12157262,-0.11329363,0.19398008,0.00002098,0.000001
 92,-0.00004825,-0.00001571,0.00001253,0.00002219,-0.00003742,0.0000690
 3,0.00002459,0.00047174,0.00044895,0.00007020,-0.00117629,-0.00027248,
 -0.00315382,0.00003711,0.00040644,-0.00011433,-0.00165845,-0.00232659,
 -0.00604772,-0.00639827,-0.02531697,0.00953211,-0.08343518,-0.09554110
 ,0.02883584,0.00537360,0.01567057,-0.01020958,0.00041416,0.00118828,0.
 00222208,-0.00082193,0.00045332,-0.00025794,0.00028646,-0.00045065,-0.
 00002710,-0.00001124,0.00013655,-0.00018093,-0.00001281,0.00001340,0.0
 0007980,0.00000406,-0.00001500,0.00000097,-0.00000143,0.00001145,0.000
 00039,-0.00000269,-0.00000516,-0.00000359,-0.00003095,0.00000316,-0.00
 000096,-0.00003418,0.00016117,-0.00007404,-0.00006254,0.00016072,0.000
 47590,-0.00028012,-0.00118718,0.00046509,-0.00074999,0.00199536,0.0024
 6345,0.08802694,0.00000235,0.00000489,0.00008481,-0.00002577,0.0000496
 6,-0.00006260,0.00017503,-0.00000120,0.00001624,-0.00084959,-0.0000840
 2,-0.00026304,0.00164895,0.00036661,0.00253452,0.00019756,0.00052382,-
 0.00044559,-0.00352474,0.00288696,0.00151788,-0.00079195,-0.00498715,0
 .00543114,-0.09617054,-0.26997334,0.08905812,-0.00572051,-0.01122017,0
 .00537903,-0.00135843,0.00101246,-0.00336960,0.00114074,-0.00011947,0.
 00003730,-0.00041307,0.00048943,0.00006034,-0.00000135,-0.00030058,0.0
 0010167,0.00004714,0.00004054,-0.00004494,-0.00000096,0.00000870,-0.00
 000301,0.00000195,-0.00002845,0.00000127,-0.00000468,-0.00000070,0.000
 00565,0.00001642,0.00000018,-0.00000594,-0.00002226,-0.00018184,0.0001
 3782,0.00016642,-0.00028606,-0.00025485,-0.00011163,-0.00027346,0.0004
 0889,0.00142785,-0.00073642,-0.00227826,0.10429545,0.28293272,-0.00003
 100,-0.00000759,0.00000394,-0.00003074,0.00001310,-0.00005023,0.000110
 33,0.00008335,-0.00001236,0.00080427,0.00087175,-0.00012944,-0.0032959
 0,0.00060674,-0.00115600,-0.00116972,-0.00009529,-0.00085175,-0.004864
 76,0.00189670,0.00433488,-0.00404085,-0.00961052,0.00786487,0.02479881
 ,0.08747340,-0.07776152,0.00852059,0.02097493,-0.00354738,0.00111004,-
 0.00138351,0.00042796,-0.00019626,-0.00018764,0.00001402,0.00020810,-0
 .00027898,-0.00004257,0.00000267,0.00017385,-0.00017515,0.00002222,0.0
 0001478,0.00012789,-0.00000558,0.00001471,0.00000043,-0.00000567,0.000
 00552,-0.00000131,0.00000255,-0.00000880,0.00000320,-0.00009045,0.0000
 1449,-0.00004561,-0.00019199,0.00043557,0.00010113,0.00038331,-0.00029
 394,-0.00038629,-0.00039976,-0.00045976,0.00058735,0.00260645,-0.00223
 755,-0.00240679,-0.02411352,-0.09798883,0.07316931,-0.00050233,-0.0002
 7507,0.00050751,0.00103718,-0.00033030,0.00010781,0.00080984,-0.000248
 26,0.00020654,-0.00052059,0.00051785,-0.00056308,0.00119569,-0.0015138
 9,0.00060745,-0.00051407,0.00024699,-0.00015133,-0.00000230,-0.0005377
 9,0.00048250,0.00062991,0.00113601,-0.00002919,-0.00303328,0.00028957,
 -0.00041015,0.00230532,0.00555110,-0.00087632,-0.00515152,-0.01048335,
 -0.02770825,-0.03978939,0.00489918,0.00465375,0.00201050,0.01433112,0.
 02113415,-0.00187518,-0.00233405,-0.00045145,-0.00038398,-0.00031453,-
 0.00062574,-0.00004863,0.00015335,-0.00003968,0.00000046,-0.00005508,-
 0.00007955,0.00004494,-0.00011843,0.00004782,-0.00006331,0.00001947,-0
 .00008708,-0.00000037,-0.00003601,-0.00015427,0.00006013,-0.00002025,-
 0.00002131,0.00001575,-0.00004608,-0.00000998,0.00003453,-0.00014745,-
 0.00019334,0.00009806,-0.00014870,-0.00008972,0.04250556,-0.00052535,-
 0.00013362,0.00040094,0.00148953,0.00051393,-0.00036378,-0.00033097,-0
 .00002350,-0.00010204,0.00028244,-0.00002713,0.00001728,0.00051029,-0.
 00047947,0.00071247,-0.00015878,0.00017219,-0.00014723,-0.00002771,-0.
 00024750,0.00018019,0.00047670,0.00034817,0.00027482,-0.00048042,0.000
 33445,-0.00115603,0.00263082,0.00363097,0.00294705,-0.00236327,0.00804
 318,0.00508789,0.01097723,-0.10731058,-0.10581728,0.00228809,-0.003114
 67,-0.01737677,-0.00422132,-0.00146044,-0.00426041,-0.00019229,0.00108
 084,0.00075174,-0.00009521,0.00018729,-0.00005003,0.00000632,-0.000084
 66,0.00001592,0.00005958,-0.00007130,0.00007687,-0.00009213,0.00004824
 ,0.00000247,0.00006137,-0.00008689,-0.00033889,0.00010759,-0.00001174,
 -0.00003731,0.00003133,-0.00002539,-0.00000359,0.00001054,0.00005218,0
 .00007334,0.00007173,-0.00012846,-0.00000199,-0.01629611,0.09780781,0.
 00054276,0.00014658,-0.00000406,-0.00158788,-0.00065715,-0.00017058,0.
 00084341,-0.00014944,0.00059001,-0.00091568,0.00053728,-0.00069434,0.0
 0024848,-0.00128985,0.00030687,-0.00047575,0.00005039,0.00006443,0.000
 08394,-0.00048348,0.00038185,0.00044366,0.00085243,-0.00011463,-0.0015
 4286,-0.00022777,-0.00044708,0.00330835,0.00219821,-0.00166228,-0.0106
 0225,-0.00840012,-0.01876112,0.00797493,-0.10834944,-0.26560127,-0.003
 02567,-0.00521759,-0.00591514,0.00154069,0.00282453,0.00240395,0.00035
 468,-0.00034635,-0.00005280,0.00007411,-0.00009848,-0.00002880,-0.0000
 5084,-0.00012965,-0.00013944,-0.00004971,0.00009037,-0.00005491,0.0000
 5007,-0.00002079,-0.00003486,-0.00002117,0.00003279,0.00011433,-0.0000
 6500,0.00000849,0.00002191,-0.00000468,-0.00002630,-0.00001269,-0.0000
 1960,-0.00006231,-0.00008116,0.00003734,-0.00003191,-0.00006008,0.0043
 0737,0.12081675,0.28902959,-0.00049178,0.00016410,-0.00030094,-0.00144
 790,-0.00216166,0.00099619,0.00065415,-0.00148329,0.00164919,-0.000115
 00,-0.00027240,0.00012408,-0.00108525,0.00006131,0.00074950,-0.0003189
 4,0.00000859,-0.00039168,-0.00009533,-0.00027184,0.00011512,0.00009562
 ,-0.00003283,0.00021183,0.00049129,-0.00021014,-0.00043259,-0.00209641
 ,0.00132288,-0.00052107,0.00006632,-0.00658478,0.00439037,0.00228699,0
 .01577451,0.01768664,-0.03254700,-0.00048691,-0.01707931,-0.00231424,-
 0.00295343,-0.01729752,0.00037841,0.00143637,-0.00117010,-0.00004622,0
 .00020905,-0.00003867,0.00004471,0.00017359,0.00009422,-0.00001113,0.0
 0001423,0.00000955,0.00000733,0.00018407,-0.00016153,0.00013760,0.0001
 4195,-0.00030977,0.00001968,0.00005187,-0.00001686,0.00004310,0.000012
 05,0.00001156,0.00001185,0.00004007,0.00005715,-0.00000393,0.00002431,
 -0.00004341,0.00113709,0.00578000,-0.00144869,0.03519900,-0.00033733,0
 .00014221,-0.00017064,-0.00039408,-0.00185483,0.00241067,0.00011055,-0
 .00155708,0.00159791,-0.00030588,-0.00013760,-0.00008733,0.00006555,0.
 00034267,0.00019909,-0.00025191,-0.00001696,-0.00016171,-0.00004346,-0
 .00017710,0.00009063,0.00005434,-0.00008194,0.00006054,0.00048420,-0.0
 0009404,0.00006484,-0.00068293,0.00135180,0.00009890,-0.00423108,-0.00
 252526,0.00038295,0.00112420,-0.00853402,-0.02412621,0.00720650,-0.095
 33200,-0.10706725,0.00055166,0.00753130,0.01298290,0.00162483,-0.00088
 016,0.00175971,0.00009583,0.00002571,0.00001544,0.00010319,0.00014320,
 0.00006353,-0.00001352,0.00000310,-0.00001087,-0.00006165,0.00002684,0
 .00008075,0.00005278,-0.00000844,-0.00012079,-0.00000258,-0.00000064,-
 0.00001999,0.00001324,0.00000696,0.00001170,0.00000343,0.00001937,0.00
 002195,0.00001509,0.00000536,-0.00002449,0.00576070,0.00098611,-0.0020
 6719,-0.01094170,0.10061543,0.00022602,0.00030326,0.00011421,-0.001447
 93,-0.00091972,-0.00040541,-0.00011238,0.00019551,0.00019372,0.0003371
 1,-0.00017430,0.00009024,0.00018055,-0.00040987,-0.00012751,0.00008286
 ,-0.00001449,0.00007713,-0.00004920,-0.00004573,-0.00000085,0.00005791
 ,0.00010184,0.00004176,-0.00006447,0.00017072,-0.00015558,0.00155210,-
 0.00028749,0.00054840,-0.00086878,0.00351968,0.00104570,-0.00419778,-0
 .00285992,-0.00467081,-0.00502570,-0.10447768,-0.28319996,-0.00222230,
 -0.00913012,-0.01583417,-0.00082820,0.00189571,-0.00163450,0.00001536,
 0.00000104,-0.00007619,0.00001248,-0.00019570,0.00001864,-0.00001825,0
 .00010095,0.00000441,-0.00001805,-0.00005843,0.00027106,-0.00013780,-0
 .00000737,0.00026300,-0.00001563,0.00000097,-0.00001346,-0.00001053,-0
 .00000169,-0.00001911,-0.00000150,0.00000636,-0.00000803,0.00000184,-0
 .00002610,-0.00000851,-0.00056445,-0.00170240,0.00092232,0.01311673,0.
 11401495,0.30256348\\0.00000575,-0.00002053,-0.00003311,0.00000518,-0.
 00002124,-0.00000253,0.00000347,-0.00000287,-0.00001478,-0.00002939,0.
 00004599,0.00000781,0.00005596,-0.00004567,0.00002024,-0.00002475,0.00
 002340,-0.00002396,0.00000890,-0.00001781,0.00001831,-0.00000786,0.000
 00884,-0.00000890,0.00001594,-0.00000932,0.00001315,-0.00002048,0.0000
 0772,-0.00000617,-0.00000962,0.00001055,-0.00003202,0.00003036,-0.0000
 2418,0.00003443,-0.00002476,0.00001976,-0.00000557,0.00000206,0.000009
 73,0.00000797,-0.00000010,0.00000092,-0.00001390,-0.00000754,0.0000151
 8,0.00001532,0.00000088,-0.00000126,0.00000602,-0.00001031,0.00000872,
 0.00000973,0.00000253,-0.00000506,-0.00000274,-0.00000359,-0.00000193,
 0.00000131,0.00000597,-0.00000761,0.00000421,0.00000132,-0.00000210,0.
 00000323,0.00000759,0.00000510,0.00000289,0.00000069,0.00000336,-0.000
 00349,-0.00001166,0.00000305,-0.00000196,0.00000346,-0.00000273,0.0000
 0450\\\@


 BLACK HOLES SUCK.
 Job cpu time:       0 days  8 hours 17 minutes 51.0 seconds.
 Elapsed time:       0 days  2 hours  5 minutes 57.1 seconds.
 File lengths (MBytes):  RWF=    457 Int=      0 D2E=      0 Chk=     19 Scr=      1
 Normal termination of Gaussian 16 at Tue May 16 15:27:35 2023.
### All Done ###
