### Starting Gaussian ###
 Entering Gaussian System, Link 0=g16
 Initial command:
 /cluster/software/gaussian/gaussian-16-A.03/avx2/g16/l1.exe "/local/scratch/cz9n3/Gau-2638.inp" -scrdir="/local/scratch/cz9n3/"
 Entering Link 1 = /cluster/software/gaussian/gaussian-16-A.03/avx2/g16/l1.exe PID=      2639.
  
 Copyright (c) 1988,1990,1992,1993,1995,1998,2003,2009,2016,
            Gaussian, Inc.  All Rights Reserved.
  
 This is part of the Gaussian(R) 16 program.  It is based on
 the Gaussian(R) 09 system (copyright 2009, Gaussian, Inc.),
 the Gaussian(R) 03 system (copyright 2003, Gaussian, Inc.),
 the Gaussian(R) 98 system (copyright 1998, Gaussian, Inc.),
 the Gaussian(R) 94 system (copyright 1995, Gaussian, Inc.),
 the Gaussian 92(TM) system (copyright 1992, Gaussian, Inc.),
 the Gaussian 90(TM) system (copyright 1990, Gaussian, Inc.),
 the Gaussian 88(TM) system (copyright 1988, Gaussian, Inc.),
 the Gaussian 86(TM) system (copyright 1986, Carnegie Mellon
 University), and the Gaussian 82(TM) system (copyright 1983,
 Carnegie Mellon University). Gaussian is a federally registered
 trademark of Gaussian, Inc.
  
 This software contains proprietary and confidential information,
 including trade secrets, belonging to Gaussian, Inc.
  
 This software is provided under written license and may be
 used, copied, transmitted, or stored only in accord with that
 written license.
  
 The following legend is applicable only to US Government
 contracts under FAR:
  
                    RESTRICTED RIGHTS LEGEND
  
 Use, reproduction and disclosure by the US Government is
 subject to restrictions as set forth in subparagraphs (a)
 and (c) of the Commercial Computer Software - Restricted
 Rights clause in FAR 52.227-19.
  
 Gaussian, Inc.
 340 Quinnipiac St., Bldg. 40, Wallingford CT 06492
  
  
 ---------------------------------------------------------------
 Warning -- This program may not be used in any manner that
 competes with the business of Gaussian, Inc. or will provide
 assistance to any competitor of Gaussian, Inc.  The licensee
 of this program is prohibited from giving any competitor of
 Gaussian, Inc. access to this program.  By using this program,
 the user acknowledges that Gaussian, Inc. is engaged in the
 business of creating and licensing software in the field of
 computational chemistry and represents and warrants to the
 licensee that it is not a competitor of Gaussian, Inc. and that
 it will not use this program in any manner prohibited above.
 ---------------------------------------------------------------
  

 Cite this work as:
 Gaussian 16, Revision A.03,
 M. J. Frisch, G. W. Trucks, H. B. Schlegel, G. E. Scuseria, 
 M. A. Robb, J. R. Cheeseman, G. Scalmani, V. Barone, 
 G. A. Petersson, H. Nakatsuji, X. Li, M. Caricato, A. V. Marenich, 
 J. Bloino, B. G. Janesko, R. Gomperts, B. Mennucci, H. P. Hratchian, 
 J. V. Ortiz, A. F. Izmaylov, J. L. Sonnenberg, D. Williams-Young, 
 F. Ding, F. Lipparini, F. Egidi, J. Goings, B. Peng, A. Petrone, 
 T. Henderson, D. Ranasinghe, V. G. Zakrzewski, J. Gao, N. Rega, 
 G. Zheng, W. Liang, M. Hada, M. Ehara, K. Toyota, R. Fukuda, 
 J. Hasegawa, M. Ishida, T. Nakajima, Y. Honda, O. Kitao, H. Nakai, 
 T. Vreven, K. Throssell, J. A. Montgomery, Jr., J. E. Peralta, 
 F. Ogliaro, M. J. Bearpark, J. J. Heyd, E. N. Brothers, K. N. Kudin, 
 V. N. Staroverov, T. A. Keith, R. Kobayashi, J. Normand, 
 K. Raghavachari, A. P. Rendell, J. C. Burant, S. S. Iyengar, 
 J. Tomasi, M. Cossi, J. M. Millam, M. Klene, C. Adamo, R. Cammi, 
 J. W. Ochterski, R. L. Martin, K. Morokuma, O. Farkas, 
 J. B. Foresman, and D. J. Fox, Gaussian, Inc., Wallingford CT, 2016.
 
 ******************************************
 Gaussian 16:  ES64L-G16RevA.03 25-Dec-2016
                19-May-2023 
 ******************************************
 %chk=CC1dCCdNC2dCC2dCSCdC1.chk
 %NProcShared=20
 Will use up to   20 processors via shared memory.
 -----------------------------
 # opt freq b3lyp/6-31g(2df,p)
 -----------------------------
 1/18=20,19=15,26=3,38=1/1,3;
 2/9=110,12=2,17=6,18=5,40=1/2;
 3/5=1,6=6,7=104,11=2,25=1,30=1,71=1,74=-5/1,2,3;
 4//1;
 5/5=2,38=5/2;
 6/7=2,8=2,9=2,10=2,28=1/1;
 7//1,2,3,16;
 1/18=20,19=15,26=3/3(2);
 2/9=110/2;
 99//99;
 2/9=110/2;
 3/5=1,6=6,7=104,11=2,25=1,30=1,71=1,74=-5/1,2,3;
 4/5=5,16=3,69=1/1;
 5/5=2,38=5/2;
 7//1,2,3,16;
 1/18=20,19=15,26=3/3(-5);
 2/9=110/2;
 6/7=2,8=2,9=2,10=2,19=2,28=1/1;
 99/9=1/99;
 -------------------
 Title Card Required
 -------------------
 Symbolic Z-matrix:
 Charge =  0 Multiplicity = 1
 C                     1.332     0.27765  -0.29742 
 C                     2.90639   0.22686  -0.24795 
 C                     3.16055  -0.73272   0.68667 
 C                     4.5231   -0.97594   0.92357 
 N                     5.22571  -1.7288    1.65685 
 C                     6.54872  -1.55384   1.48644 
 C                     7.68711  -1.93011   1.85292 
 C                     7.717    -0.89464   0.84438 
 C                     7.2092   -0.00898  -0.01825 
 S                     7.25693   1.19403  -1.18997 
 C                     5.32977   1.53017  -1.51737 
 C                     3.99056   1.16464  -1.16135 
 H                     0.89415  -0.4606    0.42163 
 H                     0.88255  -0.05657  -1.23696 
 H                     0.88255   1.20806   0.06143 
 H                     2.48589  -1.3331    1.27144 
 H                     4.92619  -0.30067   0.26586 
 H                     7.99454  -2.66163   2.56542 
 H                     6.2221    0.06155  -0.08694 
 H                     5.43991   2.32076  -2.2874 
 H                     3.27995   1.77327  -1.75414 
 

 GradGradGradGradGradGradGradGradGradGradGradGradGradGradGradGradGradGrad
 Berny optimization.
 Initialization pass.
                           ----------------------------
                           !    Initial Parameters    !
                           ! (Angstroms and Degrees)  !
 --------------------------                            --------------------------
 ! Name  Definition              Value          Derivative Info.                !
 --------------------------------------------------------------------------------
 ! R1    R(1,2)                  1.576          estimate D2E/DX2                !
 ! R2    R(1,13)                 1.1197         estimate D2E/DX2                !
 ! R3    R(1,14)                 1.0938         estimate D2E/DX2                !
 ! R4    R(1,15)                 1.0938         estimate D2E/DX2                !
 ! R5    R(2,3)                  1.3634         estimate D2E/DX2                !
 ! R6    R(2,12)                 1.6998         estimate D2E/DX2                !
 ! R7    R(3,4)                  1.4042         estimate D2E/DX2                !
 ! R8    R(3,16)                 1.0759         estimate D2E/DX2                !
 ! R9    R(4,5)                  1.2642         estimate D2E/DX2                !
 ! R10   R(4,17)                 1.0252         estimate D2E/DX2                !
 ! R11   R(5,6)                  1.3454         estimate D2E/DX2                !
 ! R12   R(6,7)                  1.2537         estimate D2E/DX2                !
 ! R13   R(6,8)                  1.4872         estimate D2E/DX2                !
 ! R14   R(7,8)                  1.4458         estimate D2E/DX2                !
 ! R15   R(7,18)                 1.0664         estimate D2E/DX2                !
 ! R16   R(8,9)                  1.3366         estimate D2E/DX2                !
 ! R17   R(9,10)                 1.68           estimate D2E/DX2                !
 ! R18   R(9,19)                 0.992          estimate D2E/DX2                !
 ! R19   R(10,11)                1.9835         estimate D2E/DX2                !
 ! R20   R(11,12)                1.4331         estimate D2E/DX2                !
 ! R21   R(11,20)                1.1091         estimate D2E/DX2                !
 ! R22   R(12,21)                1.1076         estimate D2E/DX2                !
 ! A1    A(2,1,13)             110.4406         estimate D2E/DX2                !
 ! A2    A(2,1,14)             115.3152         estimate D2E/DX2                !
 ! A3    A(2,1,15)             115.3152         estimate D2E/DX2                !
 ! A4    A(13,1,14)            100.9214         estimate D2E/DX2                !
 ! A5    A(13,1,15)            100.9217         estimate D2E/DX2                !
 ! A6    A(14,1,15)            111.8924         estimate D2E/DX2                !
 ! A7    A(1,2,3)              103.3221         estimate D2E/DX2                !
 ! A8    A(1,2,12)             127.0525         estimate D2E/DX2                !
 ! A9    A(3,2,12)             129.6255         estimate D2E/DX2                !
 ! A10   A(2,3,4)              114.7358         estimate D2E/DX2                !
 ! A11   A(2,3,16)             130.4228         estimate D2E/DX2                !
 ! A12   A(4,3,16)             114.8414         estimate D2E/DX2                !
 ! A13   A(3,4,5)              137.7568         estimate D2E/DX2                !
 ! A14   A(3,4,17)              99.1602         estimate D2E/DX2                !
 ! A15   A(5,4,17)             123.083          estimate D2E/DX2                !
 ! A16   A(4,5,6)              113.3052         estimate D2E/DX2                !
 ! A17   A(5,6,7)              144.7722         estimate D2E/DX2                !
 ! A18   A(5,6,8)              152.2332         estimate D2E/DX2                !
 ! A19   A(6,7,18)             131.5233         estimate D2E/DX2                !
 ! A20   A(8,7,18)             162.0605         estimate D2E/DX2                !
 ! A21   A(6,8,9)              105.8967         estimate D2E/DX2                !
 ! A22   A(7,8,9)              156.4859         estimate D2E/DX2                !
 ! A23   A(8,9,10)             156.0425         estimate D2E/DX2                !
 ! A24   A(8,9,19)             118.0252         estimate D2E/DX2                !
 ! A25   A(10,9,19)             85.9323         estimate D2E/DX2                !
 ! A26   A(9,10,11)            102.0564         estimate D2E/DX2                !
 ! A27   A(10,11,12)           145.4581         estimate D2E/DX2                !
 ! A28   A(10,11,20)            97.9852         estimate D2E/DX2                !
 ! A29   A(12,11,20)           116.5567         estimate D2E/DX2                !
 ! A30   A(2,12,11)            150.4885         estimate D2E/DX2                !
 ! A31   A(2,12,21)            100.4599         estimate D2E/DX2                !
 ! A32   A(11,12,21)           109.0516         estimate D2E/DX2                !
 ! D1    D(13,1,2,3)             0.0001         estimate D2E/DX2                !
 ! D2    D(13,1,2,12)          179.9997         estimate D2E/DX2                !
 ! D3    D(14,1,2,3)          -113.5762         estimate D2E/DX2                !
 ! D4    D(14,1,2,12)           66.4234         estimate D2E/DX2                !
 ! D5    D(15,1,2,3)           113.5768         estimate D2E/DX2                !
 ! D6    D(15,1,2,12)          -66.4236         estimate D2E/DX2                !
 ! D7    D(1,2,3,4)           -179.9998         estimate D2E/DX2                !
 ! D8    D(1,2,3,16)            -0.0004         estimate D2E/DX2                !
 ! D9    D(12,2,3,4)             0.0006         estimate D2E/DX2                !
 ! D10   D(12,2,3,16)         -179.9999         estimate D2E/DX2                !
 ! D11   D(1,2,12,11)          179.9996         estimate D2E/DX2                !
 ! D12   D(1,2,12,21)            0.0007         estimate D2E/DX2                !
 ! D13   D(3,2,12,11)           -0.0009         estimate D2E/DX2                !
 ! D14   D(3,2,12,21)         -179.9999         estimate D2E/DX2                !
 ! D15   D(2,3,4,5)            180.0            estimate D2E/DX2                !
 ! D16   D(2,3,4,17)            -0.0003         estimate D2E/DX2                !
 ! D17   D(16,3,4,5)             0.0004         estimate D2E/DX2                !
 ! D18   D(16,3,4,17)         -179.9999         estimate D2E/DX2                !
 ! D19   D(3,4,5,6)            179.9998         estimate D2E/DX2                !
 ! D20   D(17,4,5,6)             0.0001         estimate D2E/DX2                !
 ! D21   D(4,5,6,7)           -179.9998         estimate D2E/DX2                !
 ! D22   D(4,5,6,8)             -0.0002         estimate D2E/DX2                !
 ! D23   D(5,6,7,18)            -0.0006         estimate D2E/DX2                !
 ! D24   D(5,6,8,9)              0.0001         estimate D2E/DX2                !
 ! D25   D(6,7,8,18)           179.9992         estimate D2E/DX2                !
 ! D26   D(18,7,8,9)          -179.9997         estimate D2E/DX2                !
 ! D27   D(6,8,9,10)           179.9995         estimate D2E/DX2                !
 ! D28   D(6,8,9,19)             0.0002         estimate D2E/DX2                !
 ! D29   D(7,8,9,10)           179.9998         estimate D2E/DX2                !
 ! D30   D(7,8,9,19)             0.0006         estimate D2E/DX2                !
 ! D31   D(8,9,10,11)         -179.9996         estimate D2E/DX2                !
 ! D32   D(19,9,10,11)          -0.0003         estimate D2E/DX2                !
 ! D33   D(9,10,11,12)           0.0            estimate D2E/DX2                !
 ! D34   D(9,10,11,20)        -179.9999         estimate D2E/DX2                !
 ! D35   D(10,11,12,2)           0.0007         estimate D2E/DX2                !
 ! D36   D(10,11,12,21)        179.9996         estimate D2E/DX2                !
 ! D37   D(20,11,12,2)        -179.9995         estimate D2E/DX2                !
 ! D38   D(20,11,12,21)         -0.0006         estimate D2E/DX2                !
 --------------------------------------------------------------------------------
 Trust Radius=3.00D-01 FncErr=1.00D-07 GrdErr=1.00D-06 EigMax=2.50D+02 EigMin=1.00D-04
 Number of steps in this run=    102 maximum allowed number of steps=    126.
 GradGradGradGradGradGradGradGradGradGradGradGradGradGradGradGradGradGrad

                          Input orientation:                          
 ---------------------------------------------------------------------
 Center     Atomic      Atomic             Coordinates (Angstroms)
 Number     Number       Type             X           Y           Z
 ---------------------------------------------------------------------
      1          6           0        1.332000    0.277650   -0.297420
      2          6           0        2.906390    0.226860   -0.247950
      3          6           0        3.160550   -0.732720    0.686670
      4          6           0        4.523100   -0.975940    0.923570
      5          7           0        5.225710   -1.728800    1.656850
      6          6           0        6.548720   -1.553840    1.486440
      7          6           0        7.687110   -1.930110    1.852920
      8          6           0        7.717000   -0.894640    0.844380
      9          6           0        7.209200   -0.008980   -0.018250
     10         16           0        7.256930    1.194030   -1.189970
     11          6           0        5.329770    1.530170   -1.517370
     12          6           0        3.990560    1.164640   -1.161350
     13          1           0        0.894150   -0.460600    0.421630
     14          1           0        0.882550   -0.056570   -1.236960
     15          1           0        0.882550    1.208060    0.061430
     16          1           0        2.485890   -1.333100    1.271440
     17          1           0        4.926190   -0.300670    0.265860
     18          1           0        7.994540   -2.661630    2.565420
     19          1           0        6.222100    0.061550   -0.086940
     20          1           0        5.439910    2.320760   -2.287400
     21          1           0        3.279950    1.773270   -1.754140
 ---------------------------------------------------------------------
                    Distance matrix (angstroms):
                    1          2          3          4          5
     1  C    0.000000
     2  C    1.575986   0.000000
     3  C    2.309302   1.363417   0.000000
     4  C    3.639426   2.330866   1.404215   0.000000
     5  N    4.796456   3.582194   2.489641   1.264183   0.000000
     6  C    5.809534   4.409713   3.576809   2.180350   1.345365
     7  C    7.062973   5.649908   4.825311   3.432942   2.477390
     8  C    6.591373   5.058944   4.562053   3.195916   2.749992
     9  C    5.890804   4.315386   4.172802   3.006189   3.114157
    10  S    6.061451   4.555219   4.900456   4.080398   4.557760
    11  C    4.363399   3.030316   3.831968   3.590194   4.550537
    12  C    2.932758   1.699752   2.775621   3.035222   4.223724
    13  H    1.119714   2.229361   2.298013   3.699567   4.679371
    14  H    1.093821   2.270331   3.057256   4.332059   5.480285
    15  H    1.093820   2.270330   3.057260   4.332060   5.480287
    16  H    2.527311   2.217846   1.075908   2.097332   2.794948
    17  H    3.683740   2.149856   1.865806   1.025209   2.015966
    18  H    7.824619   6.492126   5.533340   4.193819   3.059753
    19  H    4.899396   3.323730   3.256137   2.232514   2.690530
    20  H    5.000924   3.868139   4.833665   4.692451   5.657024
    21  H    2.855420   2.190785   3.500257   4.034068   5.261685
                    6          7          8          9         10
     6  C    0.000000
     7  C    1.253722   0.000000
     8  C    1.487166   1.445768   0.000000
     9  C    2.255420   2.724044   1.336557   0.000000
    10  S    3.900708   4.382292   2.951743   1.680012   0.000000
    11  C    4.474353   5.374890   4.142033   2.854575   1.983463
    12  C    4.576583   5.685753   4.706372   3.611607   3.266628
    13  H    5.856890   7.095939   6.849700   6.346441   6.769049
    14  H    6.462523   7.704515   7.193333   6.443137   6.496070
    15  H    6.462525   7.704517   7.193335   6.443139   6.496070
    16  H    4.074499   5.267564   5.266796   5.072105   5.933612
    17  H    2.385970   3.577221   2.911375   2.319038   3.128245
    18  H    2.117024   1.066438   2.482189   3.785322   5.432599
    19  H    2.278528   3.142614   2.004091   0.991998   1.889460
    20  H    5.521218   6.345239   5.033089   3.702312   2.403213
    21  H    5.679426   6.793303   5.792880   4.650670   4.058347
                   11         12         13         14         15
    11  C    0.000000
    12  C    1.433125   0.000000
    13  H    5.234273   3.838618   0.000000
    14  H    4.730131   3.340179   1.707131   0.000000
    15  H    4.730130   3.340180   1.707134   1.812486   0.000000
    16  H    4.905449   3.797526   2.004263   3.239182   3.239185
    17  H    2.587424   2.249326   4.038216   4.320773   4.320773
    18  H    6.429725   6.675404   7.736660   8.474953   8.474955
    19  H    2.235895   2.711261   5.377577   5.463268   5.463268
    20  H    1.109103   2.169151   5.978189   5.246394   5.246392
    21  H    2.077720   1.107609   3.926346   3.059954   3.059948
                   16         17         18         19         20
    16  H    0.000000
    17  H    2.834108   0.000000
    18  H    5.812452   4.502986   0.000000
    19  H    4.213017   1.391062   4.194314   0.000000
    20  H    5.894257   3.695259   7.409467   3.249288   0.000000
    21  H    4.408424   3.330425   7.781664   3.790223   2.291187
                   21
    21  H    0.000000
 Stoichiometry    C10H9NS
 Framework group  C1[X(C10H9NS)]
 Deg. of freedom    57
 Full point group                 C1      NOp   1
 Largest Abelian subgroup         C1      NOp   1
 Largest concise Abelian subgroup C1      NOp   1
                         Standard orientation:                         
 ---------------------------------------------------------------------
 Center     Atomic      Atomic             Coordinates (Angstroms)
 Number     Number       Type             X           Y           Z
 ---------------------------------------------------------------------
      1          6           0        3.985173   -0.443612   -0.000001
      2          6           0        2.440635   -0.130349   -0.000002
      3          6           0        1.869021   -1.368154    0.000002
      4          6           0        0.464807   -1.366892   -0.000002
      5          7           0       -0.471829   -2.215933   -0.000001
      6          6           0       -1.696029   -1.657954   -0.000001
      7          6           0       -2.927852   -1.891259    0.000002
      8          6           0       -2.606089   -0.481751    0.000001
      9          6           0       -1.813455    0.594407    0.000002
     10         16           0       -1.452247    2.235129   -0.000001
     11          6           0        0.531177    2.222689    0.000000
     12          6           0        1.706539    1.402706    0.000004
     13          1           0        4.159859   -1.549616    0.000000
     14          1           0        4.522167   -0.148991    0.906244
     15          1           0        4.522168   -0.148987   -0.906242
     16          1           0        2.320141   -2.344919   -0.000000
     17          1           0        0.302508   -0.354611   -0.000001
     18          1           0       -3.473891   -2.807301   -0.000001
     19          1           0       -0.831968    0.450384   -0.000002
     20          1           0        0.692136    3.320050    0.000000
     21          1           0        2.602077    2.054480   -0.000005
 ---------------------------------------------------------------------
 Rotational constants (GHZ):           1.0639389           0.6661871           0.4107734
 Standard basis: 6-31G(2df,p) (6D, 7F)
 There are   421 symmetry adapted cartesian basis functions of A   symmetry.
 There are   385 symmetry adapted basis functions of A   symmetry.
   385 basis functions,   615 primitive gaussians,   421 cartesian basis functions
    46 alpha electrons       46 beta electrons
       nuclear repulsion energy       695.5424795314 Hartrees.
 NAtoms=   21 NActive=   21 NUniq=   21 SFac= 1.00D+00 NAtFMM=   60 NAOKFM=F Big=F
 Integral buffers will be    131072 words long.
 Raffenetti 2 integral format.
 Two-electron integral symmetry is turned on.
 One-electron integrals computed using PRISM.
 PrsmSu:  requested number of processors reduced to:  13 ShMem   1 Linda.
 NBasis=   385 RedAO= T EigKep=  1.32D-04  NBF=   385
 NBsUse=   385 1.00D-06 EigRej= -1.00D+00 NBFU=   385
 ExpMin= 1.17D-01 ExpMax= 2.19D+04 ExpMxC= 3.30D+03 IAcc=3 IRadAn=         5 AccDes= 0.00D+00
 Harris functional with IExCor=  402 and IRadAn=       5 diagonalized for initial guess.
 HarFok:  IExCor=  402 AccDes= 0.00D+00 IRadAn=         5 IDoV= 1 UseB2=F ITyADJ=14
 ICtDFT=  3500011 ScaDFX=  1.000000  1.000000  1.000000  1.000000
 FoFCou: FMM=F IPFlag=           0 FMFlag=      100000 FMFlg1=           0
         NFxFlg=           0 DoJE=T BraDBF=F KetDBF=T FulRan=T
         wScrn=  0.000000 ICntrl=       500 IOpCl=  0 I1Cent=   200000004 NGrid=           0
         NMat0=    1 NMatS0=      1 NMatT0=    0 NMatD0=    1 NMtDS0=    0 NMtDT0=    0
 Petite list used in FoFCou.
 Requested convergence on RMS density matrix=1.00D-08 within 128 cycles.
 Requested convergence on MAX density matrix=1.00D-06.
 Requested convergence on             energy=1.00D-06.
 No special actions if energy rises.
 Integral accuracy reduced to 1.0D-05 until final iterations.
 Initial convergence to 1.0D-05 achieved.  Increase integral accuracy.
 SCF Done:  E(RB3LYP) =  -839.035523468     A.U. after   16 cycles
            NFock= 16  Conv=0.30D-08     -V/T= 2.0054

 **********************************************************************

            Population analysis using the SCF density.

 **********************************************************************

 Orbital symmetries:
       Occupied  (A) (A) (A) (A) (A) (A) (A) (A) (A) (A) (A) (A)
                 (A) (A) (A) (A) (A) (A) (A) (A) (A) (A) (A) (A)
                 (A) (A) (A) (A) (A) (A) (A) (A) (A) (A) (A) (A)
                 (A) (A) (A) (A) (A) (A) (A) (A) (A) (A)
       Virtual   (A) (A) (A) (A) (A) (A) (A) (A) (A) (A) (A) (A)
                 (A) (A) (A) (A) (A) (A) (A) (A) (A) (A) (A) (A)
                 (A) (A) (A) (A) (A) (A) (A) (A) (A) (A) (A) (A)
                 (A) (A) (A) (A) (A) (A) (A) (A) (A) (A) (A) (A)
                 (A) (A) (A) (A) (A) (A) (A) (A) (A) (A) (A) (A)
                 (A) (A) (A) (A) (A) (A) (A) (A) (A) (A) (A) (A)
                 (A) (A) (A) (A) (A) (A) (A) (A) (A) (A) (A) (A)
                 (A) (A) (A) (A) (A) (A) (A) (A) (A) (A) (A) (A)
                 (A) (A) (A) (A) (A) (A) (A) (A) (A) (A) (A) (A)
                 (A) (A) (A) (A) (A) (A) (A) (A) (A) (A) (A) (A)
                 (A) (A) (A) (A) (A) (A) (A) (A) (A) (A) (A) (A)
                 (A) (A) (A) (A) (A) (A) (A) (A) (A) (A) (A) (A)
                 (A) (A) (A) (A) (A) (A) (A) (A) (A) (A) (A) (A)
                 (A) (A) (A) (A) (A) (A) (A) (A) (A) (A) (A) (A)
                 (A) (A) (A) (A) (A) (A) (A) (A) (A) (A) (A) (A)
                 (A) (A) (A) (A) (A) (A) (A) (A) (A) (A) (A) (A)
                 (A) (A) (A) (A) (A) (A) (A) (A) (A) (A) (A) (A)
                 (A) (A) (A) (A) (A) (A) (A) (A) (A) (A) (A) (A)
                 (A) (A) (A) (A) (A) (A) (A) (A) (A) (A) (A) (A)
                 (A) (A) (A) (A) (A) (A) (A) (A) (A) (A) (A) (A)
                 (A) (A) (A) (A) (A) (A) (A) (A) (A) (A) (A) (A)
                 (A) (A) (A) (A) (A) (A) (A) (A) (A) (A) (A) (A)
                 (A) (A) (A) (A) (A) (A) (A) (A) (A) (A) (A) (A)
                 (A) (A) (A) (A) (A) (A) (A) (A) (A) (A) (A) (A)
                 (A) (A) (A) (A) (A) (A) (A) (A) (A) (A) (A) (A)
                 (A) (A) (A) (A) (A) (A) (A) (A) (A) (A) (A) (A)
                 (A) (A) (A) (A) (A) (A) (A) (A) (A) (A) (A) (A)
                 (A) (A) (A) (A) (A) (A) (A) (A) (A) (A) (A) (A)
                 (A) (A) (A)
 The electronic state is 1-A.
 Alpha  occ. eigenvalues --  -88.89812 -14.34258 -10.26554 -10.26282 -10.24834
 Alpha  occ. eigenvalues --  -10.22680 -10.22194 -10.21851 -10.21195 -10.21096
 Alpha  occ. eigenvalues --  -10.20427 -10.18187  -7.95788  -5.92267  -5.91897
 Alpha  occ. eigenvalues --   -5.91403  -0.97082  -0.90080  -0.83994  -0.81508
 Alpha  occ. eigenvalues --   -0.75556  -0.73466  -0.67796  -0.64237  -0.60020
 Alpha  occ. eigenvalues --   -0.57823  -0.55737  -0.53344  -0.50637  -0.46320
 Alpha  occ. eigenvalues --   -0.44532  -0.44100  -0.43323  -0.42493  -0.40123
 Alpha  occ. eigenvalues --   -0.40080  -0.37113  -0.35954  -0.35933  -0.33143
 Alpha  occ. eigenvalues --   -0.32379  -0.30040  -0.28076  -0.26484  -0.21391
 Alpha  occ. eigenvalues --   -0.17395
 Alpha virt. eigenvalues --   -0.09268  -0.01591  -0.01437   0.03664   0.04660
 Alpha virt. eigenvalues --    0.05412   0.06418   0.08248   0.09391   0.09969
 Alpha virt. eigenvalues --    0.11267   0.12689   0.13417   0.15976   0.16599
 Alpha virt. eigenvalues --    0.18183   0.19264   0.21769   0.22971   0.24176
 Alpha virt. eigenvalues --    0.26539   0.27370   0.29633   0.31937   0.33993
 Alpha virt. eigenvalues --    0.35640   0.36128   0.38387   0.39151   0.39766
 Alpha virt. eigenvalues --    0.41059   0.43460   0.45653   0.46221   0.46649
 Alpha virt. eigenvalues --    0.46737   0.48654   0.49950   0.50167   0.50273
 Alpha virt. eigenvalues --    0.51495   0.53244   0.53704   0.54713   0.56792
 Alpha virt. eigenvalues --    0.57508   0.58118   0.59518   0.60117   0.61357
 Alpha virt. eigenvalues --    0.62380   0.63012   0.63879   0.65057   0.67022
 Alpha virt. eigenvalues --    0.67524   0.68313   0.68625   0.71376   0.71843
 Alpha virt. eigenvalues --    0.72973   0.73206   0.73917   0.74358   0.75170
 Alpha virt. eigenvalues --    0.75732   0.76566   0.77450   0.78461   0.79273
 Alpha virt. eigenvalues --    0.80394   0.80536   0.82340   0.83461   0.84963
 Alpha virt. eigenvalues --    0.86463   0.87607   0.88123   0.90850   0.92053
 Alpha virt. eigenvalues --    0.93248   0.94884   0.96917   0.97439   0.99426
 Alpha virt. eigenvalues --    1.00599   1.01716   1.01915   1.03535   1.03870
 Alpha virt. eigenvalues --    1.08792   1.11242   1.12039   1.14449   1.15960
 Alpha virt. eigenvalues --    1.16716   1.17405   1.22165   1.25572   1.26931
 Alpha virt. eigenvalues --    1.27475   1.29600   1.30713   1.31805   1.32589
 Alpha virt. eigenvalues --    1.34064   1.36590   1.37036   1.38493   1.39918
 Alpha virt. eigenvalues --    1.41768   1.44973   1.47218   1.47747   1.49850
 Alpha virt. eigenvalues --    1.51365   1.53161   1.55040   1.55513   1.57913
 Alpha virt. eigenvalues --    1.58760   1.59113   1.60792   1.62728   1.64339
 Alpha virt. eigenvalues --    1.66690   1.67284   1.68844   1.72237   1.72241
 Alpha virt. eigenvalues --    1.72687   1.74832   1.75634   1.78191   1.81425
 Alpha virt. eigenvalues --    1.86973   1.91426   1.92334   1.93997   1.94794
 Alpha virt. eigenvalues --    1.97410   1.97783   1.98488   1.99298   2.05260
 Alpha virt. eigenvalues --    2.06125   2.07573   2.11119   2.12474   2.15916
 Alpha virt. eigenvalues --    2.17969   2.19231   2.21679   2.22141   2.23066
 Alpha virt. eigenvalues --    2.25798   2.26057   2.29317   2.29652   2.33125
 Alpha virt. eigenvalues --    2.33750   2.34413   2.39143   2.40144   2.41133
 Alpha virt. eigenvalues --    2.44458   2.44554   2.46745   2.48050   2.51548
 Alpha virt. eigenvalues --    2.58198   2.58283   2.63422   2.66908   2.70532
 Alpha virt. eigenvalues --    2.71000   2.73909   2.74320   2.75402   2.76220
 Alpha virt. eigenvalues --    2.78700   2.79567   2.81177   2.83875   2.86889
 Alpha virt. eigenvalues --    2.87168   2.89528   2.90115   2.91169   2.91426
 Alpha virt. eigenvalues --    2.93297   2.96084   2.97672   2.99073   3.00246
 Alpha virt. eigenvalues --    3.01621   3.06414   3.07517   3.08258   3.10559
 Alpha virt. eigenvalues --    3.11766   3.12580   3.14182   3.15982   3.18230
 Alpha virt. eigenvalues --    3.20995   3.22674   3.22787   3.23756   3.24954
 Alpha virt. eigenvalues --    3.25596   3.26127   3.27789   3.31720   3.33753
 Alpha virt. eigenvalues --    3.33760   3.36352   3.38533   3.38665   3.39735
 Alpha virt. eigenvalues --    3.41866   3.43175   3.45203   3.46294   3.46790
 Alpha virt. eigenvalues --    3.48758   3.50222   3.51411   3.53098   3.55670
 Alpha virt. eigenvalues --    3.55834   3.59758   3.60359   3.61990   3.64136
 Alpha virt. eigenvalues --    3.65269   3.65359   3.69052   3.70868   3.74166
 Alpha virt. eigenvalues --    3.76703   3.81790   3.83007   3.87117   3.87645
 Alpha virt. eigenvalues --    3.88065   3.88840   3.89453   3.94458   3.95938
 Alpha virt. eigenvalues --    3.99336   4.01068   4.02819   4.06132   4.07962
 Alpha virt. eigenvalues --    4.09552   4.11570   4.19257   4.20795   4.23627
 Alpha virt. eigenvalues --    4.24006   4.27103   4.29663   4.29842   4.31802
 Alpha virt. eigenvalues --    4.33377   4.35632   4.36355   4.36992   4.37678
 Alpha virt. eigenvalues --    4.41182   4.42379   4.44629   4.47683   4.48604
 Alpha virt. eigenvalues --    4.49894   4.52343   4.52886   4.53509   4.54360
 Alpha virt. eigenvalues --    4.56810   4.57250   4.58917   4.61695   4.63962
 Alpha virt. eigenvalues --    4.66180   4.68121   4.69619   4.72049   4.72079
 Alpha virt. eigenvalues --    4.75870   4.75877   4.76009   4.79902   4.80023
 Alpha virt. eigenvalues --    4.83937   4.84934   4.86631   4.90735   4.92399
 Alpha virt. eigenvalues --    4.95975   4.99101   5.04056   5.05826   5.09657
 Alpha virt. eigenvalues --    5.10300   5.15194   5.15886   5.18981   5.23691
 Alpha virt. eigenvalues --    5.33743   5.36751   5.41325   5.44980   5.50615
 Alpha virt. eigenvalues --    5.51301   5.56002   5.63016   5.70124   5.76517
 Alpha virt. eigenvalues --    5.78107   5.85949   5.92335   6.00164   6.24977
 Alpha virt. eigenvalues --    6.42084   6.58213   9.88297   9.94731  10.37094
 Alpha virt. eigenvalues --   10.75172  11.03617  11.38105  11.39433  11.61320
 Alpha virt. eigenvalues --   11.76602  11.97872  12.10925  22.54834
          Condensed to atoms (all electrons):
               1          2          3          4          5          6
     1  C    5.099729   0.343458  -0.037591  -0.003549  -0.000190  -0.000009
     2  C    0.343458   4.741269   0.576443   0.031498   0.004037   0.000221
     3  C   -0.037591   0.576443   4.888724   0.456715  -0.004983   0.000475
     4  C   -0.003549   0.031498   0.456715   4.573611   0.641917  -0.046943
     5  N   -0.000190   0.004037  -0.004983   0.641917   6.471570   0.499713
     6  C   -0.000009   0.000221   0.000475  -0.046943   0.499713   4.320522
     7  C   -0.000000   0.000009  -0.001068  -0.004968  -0.042198   0.512626
     8  C    0.000000  -0.000034   0.000091   0.004098  -0.076109   0.303335
     9  C   -0.000003   0.000749   0.001780  -0.018462   0.017696  -0.038738
    10  S   -0.000007  -0.001432   0.000138   0.002908  -0.000717   0.009024
    11  C    0.001327  -0.011866  -0.002701  -0.002799  -0.000002   0.000196
    12  C   -0.029210   0.372219  -0.024504  -0.015876   0.000630  -0.000106
    13  H    0.387839  -0.029225  -0.009038   0.000231   0.000003  -0.000000
    14  H    0.363541  -0.014712  -0.001467   0.000045   0.000003   0.000000
    15  H    0.363541  -0.014712  -0.001467   0.000045   0.000003   0.000000
    16  H   -0.012528  -0.051567   0.356837  -0.034623  -0.004702   0.000284
    17  H    0.001670  -0.042922  -0.070730   0.293410  -0.141518   0.009289
    18  H    0.000000  -0.000000   0.000006   0.000516  -0.004756  -0.041504
    19  H   -0.000014  -0.000337  -0.001340   0.007148   0.032529  -0.057664
    20  H   -0.000032   0.001888   0.000007  -0.000089  -0.000001  -0.000002
    21  H   -0.002526  -0.043319   0.001895   0.001636  -0.000005   0.000003
               7          8          9         10         11         12
     1  C   -0.000000   0.000000  -0.000003  -0.000007   0.001327  -0.029210
     2  C    0.000009  -0.000034   0.000749  -0.001432  -0.011866   0.372219
     3  C   -0.001068   0.000091   0.001780   0.000138  -0.002701  -0.024504
     4  C   -0.004968   0.004098  -0.018462   0.002908  -0.002799  -0.015876
     5  N   -0.042198  -0.076109   0.017696  -0.000717  -0.000002   0.000630
     6  C    0.512626   0.303335  -0.038738   0.009024   0.000196  -0.000106
     7  C    5.296156   0.348439  -0.033496   0.002296   0.000028  -0.000002
     8  C    0.348439   5.123044   0.553364  -0.024482   0.003283  -0.000038
     9  C   -0.033496   0.553364   4.913184   0.277995  -0.018618   0.000324
    10  S    0.002296  -0.024482   0.277995  15.700654   0.300318  -0.025961
    11  C    0.000028   0.003283  -0.018618   0.300318   5.039581   0.589927
    12  C   -0.000002  -0.000038   0.000324  -0.025961   0.589927   4.943605
    13  H   -0.000000   0.000000   0.000000   0.000000  -0.000028   0.000978
    14  H    0.000000   0.000000  -0.000000   0.000000   0.000007   0.000629
    15  H    0.000000   0.000000  -0.000000   0.000000   0.000007   0.000629
    16  H    0.000017   0.000025  -0.000044   0.000008  -0.000021   0.002610
    17  H    0.004866   0.026724  -0.019817  -0.002267   0.001600   0.017955
    18  H    0.348143  -0.025047  -0.003210   0.000145   0.000000  -0.000000
    19  H   -0.014168  -0.148792   0.437322  -0.114070  -0.029162   0.001475
    20  H    0.000000  -0.000072   0.001764  -0.043283   0.355017  -0.023855
    21  H    0.000000   0.000003  -0.000177   0.003266  -0.036615   0.347803
              13         14         15         16         17         18
     1  C    0.387839   0.363541   0.363541  -0.012528   0.001670   0.000000
     2  C   -0.029225  -0.014712  -0.014712  -0.051567  -0.042922  -0.000000
     3  C   -0.009038  -0.001467  -0.001467   0.356837  -0.070730   0.000006
     4  C    0.000231   0.000045   0.000045  -0.034623   0.293410   0.000516
     5  N    0.000003   0.000003   0.000003  -0.004702  -0.141518  -0.004756
     6  C   -0.000000   0.000000   0.000000   0.000284   0.009289  -0.041504
     7  C   -0.000000   0.000000   0.000000   0.000017   0.004866   0.348143
     8  C    0.000000   0.000000   0.000000   0.000025   0.026724  -0.025047
     9  C    0.000000  -0.000000  -0.000000  -0.000044  -0.019817  -0.003210
    10  S    0.000000   0.000000   0.000000   0.000008  -0.002267   0.000145
    11  C   -0.000028   0.000007   0.000007  -0.000021   0.001600   0.000000
    12  C    0.000978   0.000629   0.000629   0.002610   0.017955  -0.000000
    13  H    0.571263  -0.035419  -0.035419   0.000688   0.000049   0.000000
    14  H   -0.035419   0.569707  -0.027085   0.000588  -0.000022   0.000000
    15  H   -0.035419  -0.027085   0.569707   0.000588  -0.000022   0.000000
    16  H    0.000688   0.000588   0.000588   0.610806   0.014471   0.000001
    17  H    0.000049  -0.000022  -0.000022   0.014471   0.811160   0.000116
    18  H    0.000000   0.000000   0.000000   0.000001   0.000116   0.573787
    19  H   -0.000003   0.000001   0.000001  -0.000185  -0.041391  -0.000764
    20  H    0.000000  -0.000000  -0.000000   0.000001   0.000476  -0.000000
    21  H   -0.000176   0.001029   0.001029  -0.000059  -0.002232   0.000000
              19         20         21
     1  C   -0.000014  -0.000032  -0.002526
     2  C   -0.000337   0.001888  -0.043319
     3  C   -0.001340   0.000007   0.001895
     4  C    0.007148  -0.000089   0.001636
     5  N    0.032529  -0.000001  -0.000005
     6  C   -0.057664  -0.000002   0.000003
     7  C   -0.014168   0.000000   0.000000
     8  C   -0.148792  -0.000072   0.000003
     9  C    0.437322   0.001764  -0.000177
    10  S   -0.114070  -0.043283   0.003266
    11  C   -0.029162   0.355017  -0.036615
    12  C    0.001475  -0.023855   0.347803
    13  H   -0.000003   0.000000  -0.000176
    14  H    0.000001  -0.000000   0.001029
    15  H    0.000001  -0.000000   0.001029
    16  H   -0.000185   0.000001  -0.000059
    17  H   -0.041391   0.000476  -0.002232
    18  H   -0.000764  -0.000000   0.000000
    19  H    0.826147  -0.000725   0.000368
    20  H   -0.000725   0.567630  -0.012512
    21  H    0.000368  -0.012512   0.616268
 Mulliken charges:
               1
     1  C   -0.475446
     2  C    0.138333
     3  C   -0.128222
     4  C    0.113532
     5  N   -0.392918
     6  C    0.529278
     7  C   -0.416680
     8  C   -0.087833
     9  C   -0.071613
    10  S   -0.084534
    11  C   -0.189477
    12  C   -0.159232
    13  H    0.148256
    14  H    0.143157
    15  H    0.143157
    16  H    0.116806
    17  H    0.139134
    18  H    0.152568
    19  H    0.103624
    20  H    0.153788
    21  H    0.124322
 Sum of Mulliken charges =  -0.00000
 Mulliken charges with hydrogens summed into heavy atoms:
               1
     1  C   -0.040876
     2  C    0.138333
     3  C   -0.011416
     4  C    0.252665
     5  N   -0.392918
     6  C    0.529278
     7  C   -0.264111
     8  C   -0.087833
     9  C    0.032012
    10  S   -0.084534
    11  C   -0.035689
    12  C   -0.034910
 Electronic spatial extent (au):  <R**2>=           2575.7363
 Charge=             -0.0000 electrons
 Dipole moment (field-independent basis, Debye):
    X=              3.4848    Y=             -0.6232    Z=             -0.0000  Tot=              3.5401
 Quadrupole moment (field-independent basis, Debye-Ang):
   XX=            -66.7895   YY=            -77.3970   ZZ=            -80.0147
   XY=              4.0357   XZ=             -0.0000   YZ=             -0.0000
 Traceless Quadrupole moment (field-independent basis, Debye-Ang):
   XX=              7.9442   YY=             -2.6633   ZZ=             -5.2809
   XY=              4.0357   XZ=             -0.0000   YZ=             -0.0000
 Octapole moment (field-independent basis, Debye-Ang**2):
  XXX=             32.9276  YYY=              7.8026  ZZZ=             -0.0000  XYY=              8.1856
  XXY=            -24.2775  XXZ=             -0.0001  XZZ=              3.2662  YZZ=             -4.6635
  YYZ=             -0.0001  XYZ=             -0.0001
 Hexadecapole moment (field-independent basis, Debye-Ang**3):
 XXXX=          -2015.4018 YYYY=          -1296.6636 ZZZZ=            -92.0816 XXXY=             11.4308
 XXXZ=              0.0001 YYYX=             51.6434 YYYZ=             -0.0001 ZZZX=              0.0000
 ZZZY=             -0.0000 XXYY=           -518.6577 XXZZ=           -381.8386 YYZZ=           -249.5306
 XXYZ=             -0.0002 YYXZ=              0.0000 ZZXY=             -0.1600
 N-N= 6.955424795314D+02 E-N=-3.358880217853D+03  KE= 8.345654669642D+02
 PrsmSu:  requested number of processors reduced to:  13 ShMem   1 Linda.
 Calling FoFJK, ICntrl=      2127 FMM=F ISym2X=0 I1Cent= 0 IOpClX= 0 NMat=1 NMatS=1 NMatT=0.
 ***** Axes restored to original set *****
 -------------------------------------------------------------------
 Center     Atomic                   Forces (Hartrees/Bohr)
 Number     Number              X              Y              Z
 -------------------------------------------------------------------
      1        6          -0.001723893    0.002675672   -0.002606937
      2        6          -0.008079628   -0.003298137    0.003210956
      3        6           0.024600066   -0.010180988    0.009917275
      4        6          -0.013204422    0.014896939   -0.014510374
      5        7          -0.006875778   -0.022930059    0.022333986
      6        6          -0.029059531   -0.005848612    0.005696323
      7        6           0.041188151   -0.030580575    0.029785515
      8        6          -0.041673137    0.013168968   -0.012826532
      9        6           0.054944585   -0.010897178    0.010613727
     10       16          -0.013368143    0.053170491   -0.051788007
     11        6          -0.009774601   -0.019190486    0.018691155
     12        6          -0.010707506    0.000125136   -0.000120141
     13        1           0.015739718    0.008776681   -0.008548014
     14        1           0.004138738    0.011505167   -0.007679111
     15        1           0.004138331    0.007979810   -0.011298498
     16        1          -0.016329623    0.004369771   -0.004256290
     17        1           0.034860741    0.021639699   -0.021076709
     18        1           0.032321596   -0.002170283    0.002113664
     19        1          -0.063161538   -0.019232751    0.018732863
     20        1          -0.008836871   -0.010010237    0.009749969
     21        1           0.010862746   -0.003969028    0.003865181
 -------------------------------------------------------------------
 Cartesian Forces:  Max     0.063161538 RMS     0.021229010

 GradGradGradGradGradGradGradGradGradGradGradGradGradGradGradGradGradGrad
 Berny optimization.
 FormGI is forming the generalized inverse of G from B-inverse, IUseBI=4.
 Internal  Forces:  Max     0.072306551 RMS     0.024530988
 Search for a local minimum.
 Step number   1 out of a maximum of  102
 All quantities printed in internal units (Hartrees-Bohrs-Radians)
 Mixed Optimization -- RFO/linear search
 Second derivative matrix not updated -- first step.
 ITU=  0
     Eigenvalues ---    0.00230   0.00413   0.00815   0.00982   0.01186
     Eigenvalues ---    0.01283   0.01539   0.01911   0.02067   0.02167
     Eigenvalues ---    0.02413   0.02602   0.02619   0.02679   0.02772
     Eigenvalues ---    0.03139   0.05575   0.07036   0.15828   0.16000
     Eigenvalues ---    0.16000   0.16000   0.16000   0.16000   0.16000
     Eigenvalues ---    0.16000   0.16000   0.16000   0.18102   0.22000
     Eigenvalues ---    0.22000   0.22646   0.23182   0.23968   0.25000
     Eigenvalues ---    0.25000   0.25000   0.25555   0.30877   0.31593
     Eigenvalues ---    0.32695   0.32855   0.34375   0.34375   0.36493
     Eigenvalues ---    0.37084   0.37684   0.38194   0.40301   0.43517
     Eigenvalues ---    0.44635   0.49123   0.51837   0.55583   0.57541
     Eigenvalues ---    0.75598   0.77561
 RFO step:  Lambda=-1.30024513D-01 EMin= 2.30000000D-03
 Linear search not attempted -- first point.
 Maximum step size (   0.300) exceeded in Quadratic search.
    -- Step size scaled by   0.520
 Iteration  1 RMS(Cart)=  0.10220873 RMS(Int)=  0.00300965
 Iteration  2 RMS(Cart)=  0.00463419 RMS(Int)=  0.00011068
 Iteration  3 RMS(Cart)=  0.00000632 RMS(Int)=  0.00011060
 Iteration  4 RMS(Cart)=  0.00000000 RMS(Int)=  0.00011060
 Variable       Old X    -DE/DX   Delta X   Delta X   Delta X     New X
                                 (Linear)    (Quad)   (Total)
    R1        2.97818  -0.02033   0.00000  -0.02740  -0.02740   2.95078
    R2        2.11595  -0.01743   0.00000  -0.02031  -0.02031   2.09564
    R3        2.06702   0.00138   0.00000   0.00151   0.00151   2.06854
    R4        2.06702   0.00138   0.00000   0.00151   0.00151   2.06853
    R5        2.57648   0.01450   0.00000   0.01197   0.01196   2.58845
    R6        3.21206  -0.06222   0.00000  -0.10404  -0.10412   3.10795
    R7        2.65358   0.03463   0.00000   0.03149   0.03157   2.68516
    R8        2.03317   0.00549   0.00000   0.00576   0.00576   2.03893
    R9        2.38896   0.04897   0.00000   0.02824   0.02827   2.41723
   R10        1.93736   0.04148   0.00000   0.03814   0.03814   1.97551
   R11        2.54237   0.01787   0.00000   0.01366   0.01376   2.55613
   R12        2.36919   0.06973   0.00000   0.04099   0.04100   2.41019
   R13        2.81034   0.00001   0.00000  -0.00403  -0.00394   2.80639
   R14        2.73211   0.01868   0.00000   0.01805   0.01805   2.75016
   R15        2.01528   0.01222   0.00000   0.01253   0.01253   2.02781
   R16        2.52573   0.00985   0.00000   0.00680   0.00678   2.53251
   R17        3.17476   0.06108   0.00000   0.06128   0.06131   3.23608
   R18        1.87460   0.06019   0.00000   0.05035   0.05035   1.92495
   R19        3.74820  -0.04230   0.00000  -0.07740  -0.07749   3.67072
   R20        2.70821  -0.06449   0.00000  -0.06276  -0.06286   2.64535
   R21        2.09590  -0.01478   0.00000  -0.01681  -0.01681   2.07909
   R22        2.09308  -0.01122   0.00000  -0.01272  -0.01272   2.08036
    A1        1.92755  -0.00746   0.00000  -0.00872  -0.00870   1.91885
    A2        2.01263  -0.00506   0.00000  -0.01133  -0.01157   2.00106
    A3        2.01263  -0.00506   0.00000  -0.01133  -0.01157   2.00106
    A4        1.76141   0.01216   0.00000   0.02612   0.02615   1.78756
    A5        1.76142   0.01216   0.00000   0.02612   0.02615   1.78757
    A6        1.95289  -0.00222   0.00000  -0.01020  -0.01058   1.94231
    A7        1.80331   0.06826   0.00000   0.09315   0.09323   1.89654
    A8        2.21748  -0.07231   0.00000  -0.09910  -0.09902   2.11846
    A9        2.26239   0.00404   0.00000   0.00595   0.00579   2.26818
   A10        2.00252   0.01888   0.00000   0.02917   0.02919   2.03171
   A11        2.27631  -0.02626   0.00000  -0.04473  -0.04474   2.23157
   A12        2.00436   0.00738   0.00000   0.01556   0.01555   2.01991
   A13        2.40431  -0.01314   0.00000  -0.01969  -0.01980   2.38451
   A14        1.73067   0.02611   0.00000   0.04487   0.04492   1.77559
   A15        2.14820  -0.01297   0.00000  -0.02518  -0.02512   2.12308
   A16        1.97755  -0.03645   0.00000  -0.04946  -0.04906   1.92849
   A17        2.52675   0.04680   0.00000   0.06085   0.06073   2.58749
   A18        2.65697  -0.04255   0.00000  -0.06279  -0.06249   2.59448
   A19        2.29551   0.04061   0.00000   0.06239   0.06226   2.35778
   A20        2.82849  -0.02000   0.00000  -0.04623  -0.04635   2.78214
   A21        1.84825   0.02106   0.00000   0.03684   0.03701   1.88526
   A22        2.73119   0.04592   0.00000   0.05106   0.05117   2.78236
   A23        2.72346  -0.02464   0.00000  -0.03350  -0.03353   2.68993
   A24        2.05993  -0.01860   0.00000  -0.03865  -0.03864   2.02129
   A25        1.49980   0.04324   0.00000   0.07215   0.07217   1.57197
   A26        1.78122  -0.01170   0.00000  -0.02190  -0.02218   1.75904
   A27        2.53872   0.00734   0.00000   0.00800   0.00769   2.54642
   A28        1.71016   0.00409   0.00000   0.00991   0.01006   1.72023
   A29        2.03430  -0.01143   0.00000  -0.01791  -0.01775   2.01654
   A30        2.62652   0.00161   0.00000   0.00100   0.00072   2.62724
   A31        1.75336   0.00420   0.00000   0.00846   0.00860   1.76196
   A32        1.90331  -0.00580   0.00000  -0.00946  -0.00932   1.89399
    D1        0.00000   0.00000   0.00000   0.00000   0.00000   0.00000
    D2        3.14159   0.00000   0.00000   0.00000   0.00000   3.14159
    D3       -1.98228  -0.00721   0.00000  -0.02017  -0.02004  -2.00232
    D4        1.15931  -0.00721   0.00000  -0.02017  -0.02004   1.13927
    D5        1.98229   0.00721   0.00000   0.02017   0.02004   2.00233
    D6       -1.15931   0.00721   0.00000   0.02017   0.02004  -1.13927
    D7       -3.14159  -0.00000   0.00000  -0.00000  -0.00000  -3.14159
    D8       -0.00001  -0.00000   0.00000   0.00000   0.00000  -0.00001
    D9        0.00001  -0.00000   0.00000  -0.00000  -0.00000   0.00001
   D10       -3.14159   0.00000   0.00000   0.00000   0.00000  -3.14159
   D11        3.14159  -0.00000   0.00000  -0.00000  -0.00000   3.14159
   D12        0.00001  -0.00000   0.00000  -0.00000  -0.00000   0.00001
   D13       -0.00002   0.00000   0.00000   0.00000   0.00000  -0.00002
   D14       -3.14159   0.00000   0.00000  -0.00000  -0.00000  -3.14159
   D15        3.14159  -0.00000   0.00000  -0.00000  -0.00000   3.14159
   D16       -0.00001   0.00000   0.00000   0.00000   0.00000  -0.00000
   D17        0.00001  -0.00000   0.00000  -0.00000  -0.00000   0.00001
   D18       -3.14159   0.00000   0.00000   0.00000   0.00000  -3.14159
   D19        3.14159   0.00000   0.00000   0.00000   0.00000   3.14159
   D20        0.00000  -0.00000   0.00000  -0.00000  -0.00000   0.00000
   D21       -3.14159  -0.00000   0.00000  -0.00000  -0.00000  -3.14159
   D22       -0.00000   0.00000   0.00000   0.00000   0.00000  -0.00000
   D23       -0.00001  -0.00000   0.00000  -0.00000  -0.00000  -0.00001
   D24        0.00000  -0.00000   0.00000  -0.00000  -0.00000   0.00000
   D25        3.14158   0.00000   0.00000   0.00000   0.00000   3.14158
   D26       -3.14159  -0.00000   0.00000  -0.00000  -0.00000  -3.14159
   D27        3.14158   0.00000   0.00000   0.00000   0.00000   3.14158
   D28        0.00000  -0.00000   0.00000  -0.00000  -0.00000   0.00000
   D29        3.14159   0.00000   0.00000   0.00000   0.00000   3.14159
   D30        0.00001  -0.00000   0.00000  -0.00000  -0.00000   0.00001
   D31       -3.14159  -0.00000   0.00000  -0.00000  -0.00000  -3.14159
   D32       -0.00001  -0.00000   0.00000   0.00000   0.00000  -0.00001
   D33       -0.00000  -0.00000   0.00000  -0.00000  -0.00000  -0.00000
   D34       -3.14159   0.00000   0.00000   0.00000   0.00000  -3.14159
   D35        0.00001  -0.00000   0.00000  -0.00000  -0.00000   0.00001
   D36        3.14159   0.00000   0.00000   0.00000   0.00000   3.14159
   D37       -3.14158  -0.00000   0.00000  -0.00000  -0.00000  -3.14158
   D38       -0.00001   0.00000   0.00000   0.00000   0.00000  -0.00001
         Item               Value     Threshold  Converged?
 Maximum Force            0.072307     0.000450     NO 
 RMS     Force            0.024531     0.000300     NO 
 Maximum Displacement     0.399544     0.001800     NO 
 RMS     Displacement     0.103410     0.001200     NO 
 Predicted change in Energy=-5.596824D-02
 GradGradGradGradGradGradGradGradGradGradGradGradGradGradGradGradGradGrad

                          Input orientation:                          
 ---------------------------------------------------------------------
 Center     Atomic      Atomic             Coordinates (Angstroms)
 Number     Number       Type             X           Y           Z
 ---------------------------------------------------------------------
      1          6           0        1.372369    0.348080   -0.366019
      2          6           0        2.921592    0.208166   -0.229742
      3          6           0        3.194163   -0.753445    0.706856
      4          6           0        4.567117   -1.015694    0.962290
      5          7           0        5.239125   -1.795380    1.721698
      6          6           0        6.566020   -1.607200    1.538412
      7          6           0        7.760278   -1.927916    1.850783
      8          6           0        7.660141   -0.887853    0.837769
      9          6           0        7.103798   -0.014461   -0.012912
     10         16           0        7.144155    1.211937   -1.207411
     11          6           0        5.245106    1.504472   -1.492340
     12          6           0        3.946863    1.129377   -1.127004
     13          1           0        0.866709   -0.358945    0.322619
     14          1           0        0.971421    0.054221   -1.341254
     15          1           0        0.971421    1.315236   -0.046575
     16          1           0        2.491115   -1.339754    1.277921
     17          1           0        5.036250   -0.346457    0.310456
     18          1           0        8.205970   -2.627176    2.531863
     19          1           0        6.085412    0.001886   -0.028827
     20          1           0        5.313694    2.291083   -2.258495
     21          1           0        3.232151    1.729213   -1.711229
 ---------------------------------------------------------------------
                    Distance matrix (angstroms):
                    1          2          3          4          5
     1  C    0.000000
     2  C    1.561486   0.000000
     3  C    2.383978   1.369747   0.000000
     4  C    3.718965   2.372030   1.420924   0.000000
     5  N    4.889251   3.632254   2.509462   1.279142   0.000000
     6  C    5.867196   4.438894   3.576283   2.162732   1.352648
     7  C    7.134406   5.683689   4.851531   3.437709   2.527933
     8  C    6.520177   4.979426   4.469917   3.098168   2.732445
     9  C    5.753728   4.193736   4.043440   2.896244   3.107660
    10  S    5.896414   4.448981   4.809322   4.038696   4.610073
    11  C    4.195704   2.945044   3.760455   3.582752   4.606419
    12  C    2.795987   1.644655   2.733975   3.057971   4.282434
    13  H    1.108964   2.202105   2.391717   3.812286   4.810279
    14  H    1.094622   2.249961   3.128524   4.402280   5.569200
    15  H    1.094621   2.249961   3.128528   4.402281   5.569203
    16  H    2.608240   2.203274   1.078958   2.124717   2.820654
    17  H    3.789989   2.251932   1.927707   1.045394   2.032766
    18  H    7.996747   6.602293   5.653293   4.278047   3.185973
    19  H    4.737754   3.176897   3.077511   2.079182   2.647773
    20  H    4.784430   3.765174   4.749197   4.676067   5.704969
    21  H    2.678788   2.145888   3.465858   4.057629   5.313726
                    6          7          8          9         10
     6  C    0.000000
     7  C    1.275416   0.000000
     8  C    1.485080   1.455320   0.000000
     9  C    2.287494   2.750570   1.340145   0.000000
    10  S    3.977603   4.426154   2.976259   1.712457   0.000000
    11  C    4.540130   5.411456   4.121288   2.819681   1.942459
    12  C    4.631768   5.723320   4.660255   3.537768   3.199368
    13  H    5.959735   7.233136   6.833436   6.255600   6.649436
    14  H    6.507867   7.759288   7.097508   6.274971   6.281788
    15  H    6.507869   7.759291   7.097510   6.274972   6.281788
    16  H    4.091972   5.332747   5.207377   4.969858   5.859930
    17  H    2.331855   3.506273   2.730563   2.118854   3.029155
    18  H    2.171803   1.073068   2.488600   3.810111   5.463370
    19  H    2.297038   3.172105   2.005591   1.018642   1.993545
    20  H    5.584034   6.377452   5.019790   3.682750   2.370637
    21  H    5.727697   6.823962   5.740516   4.573219   3.978088
                   11         12         13         14         15
    11  C    0.000000
    12  C    1.399858   0.000000
    13  H    5.092815   3.715355   0.000000
    14  H    4.515578   3.170981   1.717599   0.000000
    15  H    4.515577   3.170983   1.717601   1.807306   0.000000
    16  H    4.832022   3.741587   2.124449   3.333574   3.333577
    17  H    2.592226   2.330481   4.169577   4.405851   4.405852
    18  H    6.483166   6.755663   7.993146   8.633054   8.633056
    19  H    2.259590   2.655300   5.242955   5.279972   5.279973
    20  H    1.100206   2.120863   5.784504   4.969932   4.969930
    21  H    2.037256   1.100880   3.753966   2.837848   2.837843
                   16         17         18         19         20
    16  H    0.000000
    17  H    2.898333   0.000000
    18  H    5.990775   4.492600   0.000000
    19  H    4.052969   1.156372   4.238616   0.000000
    20  H    5.801393   3.692303   7.449971   3.287459   0.000000
    21  H    4.347725   3.413267   7.856261   3.735670   2.224415
                   21
    21  H    0.000000
 Stoichiometry    C10H9NS
 Framework group  C1[X(C10H9NS)]
 Deg. of freedom    57
 Full point group                 C1      NOp   1
 Largest Abelian subgroup         C1      NOp   1
 Largest concise Abelian subgroup C1      NOp   1
                         Standard orientation:                         
 ---------------------------------------------------------------------
 Center     Atomic      Atomic             Coordinates (Angstroms)
 Number     Number       Type             X           Y           Z
 ---------------------------------------------------------------------
      1          6           0        3.914745   -0.630388   -0.000001
      2          6           0        2.383741   -0.323360   -0.000002
      3          6           0        1.698800   -1.509557    0.000002
      4          6           0        0.280672   -1.420460   -0.000002
      5          7           0       -0.702321   -2.238952   -0.000001
      6          6           0       -1.877001   -1.568293   -0.000001
      7          6           0       -3.151621   -1.613353    0.000001
      8          6           0       -2.595383   -0.268527    0.000001
      9          6           0       -1.680499    0.710746    0.000002
     10         16           0       -1.174833    2.346842   -0.000001
     11          6           0        0.755561    2.130680    0.000000
     12          6           0        1.820173    1.221722    0.000003
     13          1           0        4.080624   -1.726875    0.000000
     14          1           0        4.444228   -0.312185    0.903654
     15          1           0        4.444230   -0.312182   -0.903652
     16          1           0        2.105378   -2.508979   -0.000000
     17          1           0        0.132669   -0.385596   -0.000001
     18          1           0       -3.884356   -2.397301   -0.000002
     19          1           0       -0.707632    0.408816   -0.000002
     20          1           0        1.039406    3.193641    0.000000
     21          1           0        2.763890    1.788587   -0.000005
 ---------------------------------------------------------------------
 Rotational constants (GHZ):           1.0646273           0.6760280           0.4145918
 Standard basis: 6-31G(2df,p) (6D, 7F)
 There are   421 symmetry adapted cartesian basis functions of A   symmetry.
 There are   385 symmetry adapted basis functions of A   symmetry.
   385 basis functions,   615 primitive gaussians,   421 cartesian basis functions
    46 alpha electrons       46 beta electrons
       nuclear repulsion energy       697.0302747683 Hartrees.
 NAtoms=   21 NActive=   21 NUniq=   21 SFac= 1.00D+00 NAtFMM=   60 NAOKFM=F Big=F
 Integral buffers will be    131072 words long.
 Raffenetti 2 integral format.
 Two-electron integral symmetry is turned on.
 One-electron integrals computed using PRISM.
 PrsmSu:  requested number of processors reduced to:  13 ShMem   1 Linda.
 NBasis=   385 RedAO= T EigKep=  1.31D-04  NBF=   385
 NBsUse=   385 1.00D-06 EigRej= -1.00D+00 NBFU=   385
 Initial guess from the checkpoint file:  "CC1dCCdNC2dCC2dCSCdC1.chk"
 B after Tr=    -0.000000    0.000000   -0.000000
         Rot=    0.999071    0.000000   -0.000000    0.043084 Ang=   4.94 deg.
 ExpMin= 1.17D-01 ExpMax= 2.19D+04 ExpMxC= 3.30D+03 IAcc=2 IRadAn=         4 AccDes= 0.00D+00
 Harris functional with IExCor=  402 and IRadAn=       4 diagonalized for initial guess.
 HarFok:  IExCor=  402 AccDes= 0.00D+00 IRadAn=         4 IDoV= 1 UseB2=F ITyADJ=14
 ICtDFT=  3500011 ScaDFX=  1.000000  1.000000  1.000000  1.000000
 FoFCou: FMM=F IPFlag=           0 FMFlag=      100000 FMFlg1=           0
         NFxFlg=           0 DoJE=T BraDBF=F KetDBF=T FulRan=T
         wScrn=  0.000000 ICntrl=       500 IOpCl=  0 I1Cent=   200000004 NGrid=           0
         NMat0=    1 NMatS0=      1 NMatT0=    0 NMatD0=    1 NMtDS0=    0 NMtDT0=    0
 Petite list used in FoFCou.
 Requested convergence on RMS density matrix=1.00D-08 within 128 cycles.
 Requested convergence on MAX density matrix=1.00D-06.
 Requested convergence on             energy=1.00D-06.
 No special actions if energy rises.
 Integral accuracy reduced to 1.0D-05 until final iterations.
 Initial convergence to 1.0D-05 achieved.  Increase integral accuracy.
 SCF Done:  E(RB3LYP) =  -839.088684808     A.U. after   14 cycles
            NFock= 14  Conv=0.24D-08     -V/T= 2.0056
 PrsmSu:  requested number of processors reduced to:  13 ShMem   1 Linda.
 Calling FoFJK, ICntrl=      2127 FMM=F ISym2X=0 I1Cent= 0 IOpClX= 0 NMat=1 NMatS=1 NMatT=0.
 ***** Axes restored to original set *****
 -------------------------------------------------------------------
 Center     Atomic                   Forces (Hartrees/Bohr)
 Number     Number              X              Y              Z
 -------------------------------------------------------------------
      1        6           0.004828250   -0.001649073    0.001605588
      2        6           0.002093090    0.000311213   -0.000304510
      3        6           0.020214787   -0.006456109    0.006289219
      4        6          -0.021478950    0.014449511   -0.014074458
      5        7          -0.008104063   -0.013152158    0.012810307
      6        6          -0.008350029   -0.009906703    0.009648790
      7        6           0.021948888   -0.018143432    0.017671912
      8        6          -0.042189934    0.007506961   -0.007311773
      9        6           0.037733856   -0.002017358    0.001964990
     10       16          -0.018601556    0.034255741   -0.033365138
     11        6           0.008976323   -0.012952108    0.012614989
     12        6          -0.022399150   -0.006261044    0.006099872
     13        1           0.011578932    0.003926864   -0.003824394
     14        1           0.004998076    0.009257721   -0.005583277
     15        1           0.004997786    0.005825406   -0.009107151
     16        1          -0.013543338    0.004313365   -0.004201337
     17        1           0.005639833    0.003815741   -0.003716306
     18        1           0.025054692    0.003057894   -0.002978538
     19        1          -0.014608640   -0.008253198    0.008038684
     20        1          -0.006145737   -0.006328764    0.006164258
     21        1           0.007356883   -0.001600470    0.001558273
 -------------------------------------------------------------------
 Cartesian Forces:  Max     0.042189934 RMS     0.013808701

 GradGradGradGradGradGradGradGradGradGradGradGradGradGradGradGradGradGrad
 Berny optimization.
 Using GEDIIS/GDIIS optimizer.
 FormGI is forming the generalized inverse of G from B-inverse, IUseBI=4.
 Internal  Forces:  Max     0.052578008 RMS     0.015295233
 Search for a local minimum.
 Step number   2 out of a maximum of  102
 All quantities printed in internal units (Hartrees-Bohrs-Radians)
 Mixed Optimization -- RFO/linear search
 Update second derivatives using D2CorX and points    1    2
 DE= -5.32D-02 DEPred=-5.60D-02 R= 9.50D-01
 TightC=F SS=  1.41D+00  RLast= 3.03D-01 DXNew= 5.0454D-01 9.0801D-01
 Trust test= 9.50D-01 RLast= 3.03D-01 DXMaxT set to 5.05D-01
 ITU=  1  0
 Use linear search instead of GDIIS.
     Eigenvalues ---    0.00230   0.00407   0.00894   0.00979   0.01192
     Eigenvalues ---    0.01276   0.01556   0.01960   0.02079   0.02162
     Eigenvalues ---    0.02407   0.02596   0.02617   0.02718   0.02847
     Eigenvalues ---    0.03148   0.05781   0.07073   0.11840   0.15878
     Eigenvalues ---    0.16000   0.16000   0.16000   0.16000   0.16000
     Eigenvalues ---    0.16000   0.16000   0.16738   0.17254   0.20604
     Eigenvalues ---    0.22002   0.22020   0.23001   0.23920   0.24737
     Eigenvalues ---    0.25000   0.25501   0.29913   0.31395   0.32297
     Eigenvalues ---    0.32785   0.33185   0.34375   0.34378   0.36486
     Eigenvalues ---    0.37126   0.37694   0.38600   0.41434   0.44143
     Eigenvalues ---    0.46957   0.51730   0.54237   0.57446   0.68853
     Eigenvalues ---    0.77291   0.78496
 RFO step:  Lambda=-6.07834572D-02 EMin= 2.30000000D-03
 Quartic linear search produced a step of  1.01002.
 Iteration  1 RMS(Cart)=  0.23097393 RMS(Int)=  0.02014492
 Iteration  2 RMS(Cart)=  0.04995052 RMS(Int)=  0.00089120
 Iteration  3 RMS(Cart)=  0.00097882 RMS(Int)=  0.00071548
 Iteration  4 RMS(Cart)=  0.00000151 RMS(Int)=  0.00071548
 Iteration  5 RMS(Cart)=  0.00000000 RMS(Int)=  0.00071548
 Variable       Old X    -DE/DX   Delta X   Delta X   Delta X     New X
                                 (Linear)    (Quad)   (Total)
    R1        2.95078  -0.02316  -0.02767  -0.09213  -0.11981   2.83097
    R2        2.09564  -0.01016  -0.02052  -0.02042  -0.04094   2.05470
    R3        2.06854   0.00066   0.00153   0.00088   0.00241   2.07095
    R4        2.06853   0.00066   0.00153   0.00089   0.00241   2.07095
    R5        2.58845   0.00477   0.01208   0.00160   0.01412   2.60257
    R6        3.10795  -0.04213  -0.10516  -0.13482  -0.23969   2.86825
    R7        2.68516   0.00442   0.03189  -0.02255   0.00955   2.69471
    R8        2.03893   0.00426   0.00582   0.01055   0.01638   2.05531
    R9        2.41723   0.03211   0.02855   0.04053   0.06949   2.48672
   R10        1.97551   0.00729   0.03853  -0.02200   0.01652   1.99203
   R11        2.55613   0.02678   0.01390   0.06428   0.07815   2.63428
   R12        2.41019   0.04147   0.04141   0.04818   0.08990   2.50008
   R13        2.80639   0.01363  -0.00398   0.06565   0.06131   2.86770
   R14        2.75016   0.00669   0.01823  -0.00219   0.01584   2.76599
   R15        2.02781   0.00652   0.01265   0.01054   0.02319   2.05100
   R16        2.53251   0.00275   0.00685  -0.00123   0.00518   2.53769
   R17        3.23608   0.03224   0.06193   0.05024   0.11173   3.34781
   R18        1.92495   0.01435   0.05085  -0.01440   0.03646   1.96141
   R19        3.67072  -0.03034  -0.07826  -0.11236  -0.19074   3.47998
   R20        2.64535  -0.02717  -0.06349  -0.02576  -0.08914   2.55621
   R21        2.07909  -0.00920  -0.01698  -0.01981  -0.03679   2.04230
   R22        2.08036  -0.00648  -0.01284  -0.01259  -0.02544   2.05493
    A1        1.91885  -0.00557  -0.00878  -0.01422  -0.02290   1.89595
    A2        2.00106  -0.00494  -0.01168  -0.02686  -0.04075   1.96031
    A3        2.00106  -0.00494  -0.01168  -0.02686  -0.04075   1.96031
    A4        1.78756   0.01010   0.02641   0.04945   0.07596   1.86352
    A5        1.78757   0.01010   0.02641   0.04944   0.07595   1.86352
    A6        1.94231  -0.00138  -0.01068  -0.01278  -0.02734   1.91498
    A7        1.89654   0.03659   0.09416   0.06853   0.16208   2.05862
    A8        2.11846  -0.05258  -0.10001  -0.15694  -0.25757   1.86090
    A9        2.26818   0.01599   0.00585   0.08841   0.09549   2.36367
   A10        2.03171  -0.00506   0.02948  -0.07480  -0.04402   1.98768
   A11        2.23157  -0.01194  -0.04518  -0.02629  -0.07212   2.15945
   A12        2.01991   0.01700   0.01570   0.10109   0.11614   2.13605
   A13        2.38451   0.01355  -0.02000   0.11668   0.09608   2.48059
   A14        1.77559  -0.00416   0.04537  -0.10293  -0.05726   1.71833
   A15        2.12308  -0.00939  -0.02538  -0.01375  -0.03882   2.08426
   A16        1.92849  -0.01257  -0.04955   0.01289  -0.03619   1.89230
   A17        2.58749   0.02614   0.06134   0.04395   0.10532   2.69280
   A18        2.59448  -0.01747  -0.06312  -0.01517  -0.07895   2.51553
   A19        2.35778   0.02707   0.06289   0.09444   0.15755   2.51533
   A20        2.78214  -0.02274  -0.04682  -0.11548  -0.16207   2.62006
   A21        1.88526   0.03137   0.03738   0.14980   0.18645   2.07171
   A22        2.78236   0.04436   0.05168   0.15754   0.20830   2.99067
   A23        2.68993   0.00372  -0.03386   0.08522   0.05230   2.74223
   A24        2.02129  -0.01326  -0.03903  -0.03271  -0.07221   1.94908
   A25        1.57197   0.00954   0.07289  -0.05251   0.01990   1.59187
   A26        1.75904  -0.02098  -0.02240  -0.10418  -0.12828   1.63076
   A27        2.54642   0.01342   0.00777   0.06717   0.07480   2.62121
   A28        1.72023  -0.00091   0.01016  -0.01150  -0.00127   1.71896
   A29        2.01654  -0.01252  -0.01793  -0.05567  -0.07353   1.94302
   A30        2.62724   0.01258   0.00073   0.07777   0.07909   2.70633
   A31        1.76196  -0.00198   0.00869  -0.01988  -0.01148   1.75047
   A32        1.89399  -0.01060  -0.00942  -0.05790  -0.06761   1.82638
    D1        0.00000   0.00000   0.00000  -0.00000   0.00000   0.00000
    D2        3.14159   0.00000   0.00000   0.00000   0.00000   3.14159
    D3       -2.00232  -0.00594  -0.02024  -0.03626  -0.05500  -2.05732
    D4        1.13927  -0.00594  -0.02024  -0.03626  -0.05500   1.08427
    D5        2.00233   0.00594   0.02024   0.03626   0.05500   2.05733
    D6       -1.13927   0.00594   0.02024   0.03626   0.05500  -1.08427
    D7       -3.14159  -0.00000  -0.00000  -0.00000  -0.00000  -3.14159
    D8       -0.00001  -0.00000   0.00000   0.00000   0.00000  -0.00001
    D9        0.00001  -0.00000  -0.00000  -0.00000  -0.00000   0.00001
   D10       -3.14159   0.00000   0.00000   0.00000   0.00000  -3.14159
   D11        3.14159  -0.00000  -0.00000  -0.00000  -0.00000   3.14159
   D12        0.00001  -0.00000  -0.00000  -0.00000  -0.00000   0.00001
   D13       -0.00002   0.00000   0.00000   0.00000   0.00000  -0.00001
   D14       -3.14159  -0.00000  -0.00000  -0.00000  -0.00000  -3.14159
   D15        3.14159   0.00000  -0.00000   0.00000   0.00000  -3.14159
   D16       -0.00000   0.00000   0.00000   0.00000   0.00000  -0.00000
   D17        0.00001  -0.00000  -0.00000  -0.00000  -0.00000   0.00001
   D18       -3.14159   0.00000   0.00000   0.00000   0.00000  -3.14159
   D19        3.14159   0.00000   0.00000   0.00000   0.00000   3.14159
   D20        0.00000  -0.00000  -0.00000  -0.00000  -0.00000   0.00000
   D21       -3.14159  -0.00000  -0.00000  -0.00000  -0.00000  -3.14159
   D22       -0.00000   0.00000   0.00000   0.00000   0.00000  -0.00000
   D23       -0.00001  -0.00000  -0.00000  -0.00000  -0.00000  -0.00001
   D24        0.00000  -0.00000  -0.00000   0.00000  -0.00000   0.00000
   D25        3.14158   0.00000   0.00000   0.00000   0.00000   3.14158
   D26       -3.14159  -0.00000  -0.00000  -0.00000  -0.00000  -3.14159
   D27        3.14158   0.00000   0.00000   0.00000   0.00000   3.14159
   D28        0.00000   0.00000  -0.00000   0.00000   0.00000   0.00001
   D29        3.14159   0.00000   0.00000  -0.00000   0.00000   3.14159
   D30        0.00001  -0.00000  -0.00000   0.00000   0.00000   0.00001
   D31       -3.14159   0.00000  -0.00000   0.00000   0.00000  -3.14159
   D32       -0.00001   0.00000   0.00000  -0.00000  -0.00000  -0.00001
   D33       -0.00000  -0.00000  -0.00000  -0.00000  -0.00000  -0.00000
   D34       -3.14159  -0.00000   0.00000  -0.00000  -0.00000  -3.14159
   D35        0.00001  -0.00000  -0.00000  -0.00000  -0.00000   0.00001
   D36        3.14159   0.00000   0.00000   0.00000   0.00000   3.14159
   D37       -3.14158  -0.00000  -0.00000  -0.00000  -0.00000  -3.14158
   D38       -0.00001   0.00000   0.00000   0.00000   0.00000  -0.00001
         Item               Value     Threshold  Converged?
 Maximum Force            0.052578     0.000450     NO 
 RMS     Force            0.015295     0.000300     NO 
 Maximum Displacement     0.797915     0.001800     NO 
 RMS     Displacement     0.264051     0.001200     NO 
 Predicted change in Energy=-6.747282D-02
 GradGradGradGradGradGradGradGradGradGradGradGradGradGradGradGradGradGrad

                          Input orientation:                          
 ---------------------------------------------------------------------
 Center     Atomic      Atomic             Coordinates (Angstroms)
 Number     Number       Type             X           Y           Z
 ---------------------------------------------------------------------
      1          6           0        1.579902    0.500165   -0.514149
      2          6           0        2.971562    0.102894   -0.127209
      3          6           0        3.120853   -0.877881    0.828056
      4          6           0        4.479610   -1.187820    1.129938
      5          7           0        5.224287   -1.965026    1.886930
      6          6           0        6.563990   -1.689031    1.618113
      7          6           0        7.868182   -1.848219    1.773160
      8          6           0        7.500047   -0.833387    0.784719
      9          6           0        6.970717    0.050717   -0.076395
     10         16           0        6.960428    1.319790   -1.312461
     11          6           0        5.121602    1.391197   -1.382010
     12          6           0        3.913282    0.955609   -0.957752
     13          1           0        0.875822   -0.093374    0.063955
     14          1           0        1.368783    0.300679   -1.570855
     15          1           0        1.368783    1.551250   -0.286896
     16          1           0        2.287085   -1.378180    1.315348
     17          1           0        4.943632   -0.509774    0.469526
     18          1           0        8.628208   -2.403256    2.313770
     19          1           0        5.933159    0.030735   -0.056926
     20          1           0        5.020158    2.161975   -2.132743
     21          1           0        3.194776    1.540328   -1.527257
 ---------------------------------------------------------------------
                    Distance matrix (angstroms):
                    1          2          3          4          5
     1  C    0.000000
     2  C    1.498086   0.000000
     3  C    2.464762   1.377221   0.000000
     4  C    3.736392   2.349590   1.425979   0.000000
     5  N    5.012373   3.661669   2.593748   1.315913   0.000000
     6  C    5.846388   4.377521   3.624548   2.198674   1.394002
     7  C    7.091484   5.603136   4.936791   3.511734   2.648919
     8  C    6.205927   4.713323   4.379634   3.060692   2.770299
     9  C    5.427202   3.999819   4.062238   3.032298   3.311779
    10  S    5.500832   4.335518   4.914662   4.290441   4.903091
    11  C    3.753766   2.803021   3.746478   3.656961   4.686229
    12  C    2.418445   1.517815   2.679317   3.045237   4.282646
    13  H    1.087300   2.113573   2.497893   3.914259   5.073013
    14  H    1.095899   2.166133   3.195860   4.380315   5.652840
    15  H    1.095899   2.166133   3.195864   4.380317   5.652842
    16  H    2.715759   2.177856   1.087623   2.208570   3.049303
    17  H    3.647228   2.149539   1.893824   1.054139   2.050746
    18  H    8.130534   6.651076   5.904665   4.482143   3.458456
    19  H    4.402302   2.963310   3.085099   2.237482   2.874741
    20  H    4.149316   3.529693   4.649130   4.707272   5.764683
    21  H    2.171669   2.018954   3.376492   4.019239   5.297461
                    6          7          8          9         10
     6  C    0.000000
     7  C    1.322988   0.000000
     8  C    1.517522   1.463701   0.000000
     9  C    2.462419   2.798616   1.342888   0.000000
    10  S    4.218819   4.514571   3.053773   1.771585   0.000000
    11  C    4.535308   5.290804   3.911584   2.630731   1.841526
    12  C    4.544827   5.564222   4.370537   3.308101   3.089263
    13  H    6.108747   7.409046   6.704288   6.098214   6.396404
    14  H    6.412381   7.618555   6.665375   5.803237   5.689627
    15  H    6.412383   7.618557   6.665377   5.803239   5.689627
    16  H    4.298862   5.619535   5.268144   5.090689   6.002047
    17  H    2.309861   3.470430   2.596021   2.172844   3.254266
    18  H    2.292390   1.085341   2.464798   3.805541   5.458215
    19  H    2.482196   3.259447   1.977425   1.037934   2.072032
    20  H    5.593084   6.280842   4.861443   3.534213   2.268653
    21  H    5.627941   6.649490   5.432781   4.310646   3.778215
                   11         12         13         14         15
    11  C    0.000000
    12  C    1.352689   0.000000
    13  H    4.724554   3.372004   0.000000
    14  H    3.912613   2.698018   1.752396   0.000000
    15  H    3.912613   2.698020   1.752397   1.792339   0.000000
    16  H    4.793712   3.641164   2.282186   3.462948   3.462950
    17  H    2.659614   2.290435   4.109131   4.195180   4.195181
    18  H    6.352396   6.649463   8.396232   8.666073   8.666074
    19  H    2.065267   2.397245   5.060303   4.816469   4.816470
    20  H    1.080736   2.015216   5.204575   4.136747   4.136747
    21  H    1.938039   1.087420   3.252458   2.207460   2.207457
                   16         17         18         19         20
    16  H    0.000000
    17  H    2.920067   0.000000
    18  H    6.500575   4.534601   0.000000
    19  H    4.142709   1.244373   4.336796   0.000000
    20  H    5.647276   3.730402   7.323308   3.112037   0.000000
    21  H    4.173966   3.353887   7.734825   3.455356   2.021157
                   21
    21  H    0.000000
 Stoichiometry    C10H9NS
 Framework group  C1[X(C10H9NS)]
 Deg. of freedom    57
 Full point group                 C1      NOp   1
 Largest Abelian subgroup         C1      NOp   1
 Largest concise Abelian subgroup C1      NOp   1
                         Standard orientation:                         
 ---------------------------------------------------------------------
 Center     Atomic      Atomic             Coordinates (Angstroms)
 Number     Number       Type             X           Y           Z
 ---------------------------------------------------------------------
      1          6           0        3.711695   -0.630231   -0.000001
      2          6           0        2.214085   -0.592476   -0.000001
      3          6           0        1.538122   -1.792398    0.000002
      4          6           0        0.118728   -1.655516   -0.000001
      5          7           0       -0.992777   -2.359919    0.000000
      6          6           0       -2.072815   -1.478579   -0.000001
      7          6           0       -3.359240   -1.169699    0.000000
      8          6           0       -2.463379   -0.012178    0.000001
      9          6           0       -1.491132    0.914150    0.000002
     10         16           0       -0.784604    2.538751   -0.000001
     11          6           0        0.945113    1.906851   -0.000000
     12          6           0        1.816706    0.872397    0.000002
     13          1           0        4.032964   -1.668983   -0.000000
     14          1           0        4.139665   -0.166856    0.896170
     15          1           0        4.139666   -0.166855   -0.896169
     16          1           0        2.029831   -2.762524   -0.000000
     17          1           0        0.064571   -0.602769   -0.000001
     18          1           0       -4.362827   -1.582951   -0.000006
     19          1           0       -0.548247    0.480244   -0.000003
     20          1           0        1.461743    2.856105   -0.000000
     21          1           0        2.798422    1.340068   -0.000004
[...]
 69,0.00282742,0.00334256,-0.00685836,0.00258569,-0.01942802,0.03750101
 ,-0.03956153,-0.14507973,0.04623231,-0.03038293,0.25349701,0.00060784,
 -0.00013341,-0.00125858,-0.00172315,-0.00840423,0.00194098,-0.00432931
 ,0.00337905,-0.00263070,0.00630144,-0.00441284,0.00767721,-0.01317599,
 0.00532734,-0.00576706,0.01493285,0.00555710,0.00244809,-0.00485964,-0
 .00380454,0.00955570,-0.00086739,0.02295016,-0.04205176,0.01744795,0.0
 4626002,-0.02714295,-0.04847400,-0.07804954,0.08821202,0.00294452,-0.0
 0410127,-0.00040825,-0.02484663,-0.03484691,0.01580224,-0.01200475,0.0
 1643935,-0.01291566,0.01924713,-0.00693754,0.01004028,-0.01477075,0.00
 864360,-0.00860545,0.01574154,0.00173545,0.00205636,-0.00113411,-0.000
 58799,0.00674304,-0.01225832,-0.00704282,-0.01129954,0.01202183,0.0005
 2842,0.00899407,-0.13432821,0.04174973,0.02468881,0.57116016,-0.000417
 00,-0.00256453,0.00262862,-0.01963186,-0.00145033,0.00562186,-0.001747
 30,0.00173541,-0.00139588,-0.00075297,-0.00113219,0.00043702,-0.001077
 79,0.00015505,-0.00026512,0.00338280,0.00218467,0.00140642,-0.00146385
 ,-0.00122291,0.00371536,-0.00246961,-0.00043435,-0.01189892,0.02441330
 ,-0.02216497,0.00752849,0.02217022,-0.06010138,0.00227321,0.04701834,0
 .46353611,-0.00179797,0.00164895,0.00144749,0.00728347,0.00215024,-0.0
 0411793,0.00163641,-0.00232954,0.00056840,-0.00128148,0.00334555,-0.00
 242432,0.00354444,-0.00272315,0.00200406,-0.00406309,-0.00178539,-0.00
 109369,0.00199473,-0.00034497,-0.00079516,-0.00047713,0.00430643,0.002
 50257,-0.01515954,0.00278337,0.00309738,0.03734605,0.00253975,-0.04493
 651,-0.15985892,-0.12422881,0.19148962,-0.03332370,-0.02040647,0.01124
 372,-0.13186418,-0.02302315,0.01612508,0.02273303,-0.01663620,0.010173
 84,-0.01764336,0.00858168,-0.00924775,0.01198011,-0.00720235,0.0074160
 8,-0.01148216,-0.00083529,-0.00036564,0.00057414,0.00028061,-0.0040471
 9,0.00836546,0.00414000,0.00598674,-0.00020031,-0.00090753,-0.00749702
 ,-0.03419312,0.00364661,0.01470091,-0.35083118,-0.06169358,0.11704723,
 0.67358836,-0.01068831,0.00503421,0.00199944,-0.06232083,-0.14462457,0
 .03433924,-0.00038000,-0.02823459,0.02121322,-0.01357477,0.00357370,-0
 .00772724,0.00921986,-0.00563204,0.00395534,-0.00853060,-0.00067400,0.
 00208281,0.00050072,-0.00011849,-0.00172683,0.00513555,0.00298398,-0.0
 0090277,-0.00392900,0.00036871,-0.00191539,0.01272040,0.00413828,-0.00
 198525,-0.01950800,-0.09440971,0.02352423,-0.00289791,0.49097189,-0.00
 306715,-0.00694785,0.00504010,0.02811489,0.03835969,-0.08451875,0.0078
 8025,0.02324630,-0.00621699,0.00890964,-0.00490859,-0.00066818,-0.0040
 4513,0.00334646,-0.00137207,0.00352696,0.00044477,0.00051301,-0.000457
 50,-0.00008992,0.00113757,-0.00266303,-0.00174700,-0.00223062,0.000739
 32,0.00008546,0.00183804,0.00947569,-0.00097079,0.00224785,0.09477256,
 0.03181718,-0.08418710,-0.12402949,-0.13263615,0.20301375,-0.14361445,
 -0.11020517,0.06189709,-0.01730671,-0.02120226,0.01222156,0.00106753,-
 0.00180899,0.00136190,0.00018933,0.00045207,-0.00004611,0.00032354,-0.
 00006787,-0.00001942,-0.00033614,-0.00001998,0.00003722,-0.00002609,0.
 00003479,-0.00020160,0.00033009,0.00010005,0.00025351,-0.00015528,-0.0
 0004555,-0.00032405,-0.00031040,-0.00000541,0.00052310,0.00050865,-0.0
 0115892,-0.00055490,-0.00594252,0.00123918,-0.00219450,0.15750748,-0.1
 1372963,-0.17699558,0.07342613,0.00341432,0.00055077,-0.00081308,0.001
 83707,0.00022498,-0.00009711,0.00022898,0.00014849,-0.00021740,-0.0001
 1423,0.00007100,-0.00012862,0.00009308,0.00001463,0.00003495,-0.000030
 05,0.00000435,-0.00002036,-0.00000860,-0.00003635,0.00013098,0.0000002
 8,0.00008438,-0.00004942,-0.00003556,-0.00011991,0.00002927,-0.0002253
 5,0.00037196,-0.00000055,-0.00024592,0.00008382,0.00099595,0.12246004,
 0.18967268,0.06532878,0.07544094,-0.09048850,-0.00766668,-0.00963508,0
 .00384375,-0.00077147,-0.00068662,-0.00016712,-0.00000704,-0.00021394,
 -0.00001609,0.00011168,-0.00006721,-0.00000117,-0.00001882,-0.00001438
 ,0.00002181,0.00002583,-0.00000167,0.00001964,-0.00003901,0.00000006,-
 0.00004991,0.00001896,-0.00001487,0.00005859,0.00014581,-0.00009738,-0
 .00008952,-0.00089634,-0.00019477,0.00060042,-0.00181354,0.00078403,0.
 00052363,-0.06715976,-0.08313505,0.09441292,-0.04500574,-0.00273084,0.
 00437858,-0.00124877,-0.00341455,-0.03218355,-0.00307998,-0.00109372,-
 0.00051634,-0.00036795,0.00246637,0.00126947,-0.00044919,-0.00006073,-
 0.00043610,0.00005055,-0.00005285,-0.00000089,-0.00011836,0.00006466,-
 0.00001676,0.00005935,0.00003202,-0.00020815,-0.00020206,-0.00000998,0
 .00021130,0.00015525,-0.00003493,-0.00007740,-0.00030042,0.00023641,0.
 00064936,0.00091301,0.00112470,-0.00046985,-0.00035147,0.00346881,0.01
 852675,0.05019455,-0.00343069,-0.04623605,-0.02653636,0.00208012,-0.00
 025989,0.00480303,0.00137469,-0.00000519,0.00021492,0.00018536,-0.0004
 1856,-0.00052631,0.00035675,-0.00015218,-0.00004603,-0.00015667,0.0000
 0015,0.00022417,0.00001116,-0.00001377,-0.00002811,0.00010076,0.000054
 09,-0.00003229,-0.00008009,-0.00004374,-0.00005330,-0.00016693,0.00001
 024,0.00004594,0.00055805,0.00015392,-0.00005063,-0.00145549,-0.000391
 38,0.00024189,0.00051067,0.00295485,0.02292551,-0.00041752,0.04791265,
 0.00599983,-0.02677316,-0.30288814,-0.00281071,0.00006361,-0.01088973,
 -0.00191469,-0.00094915,-0.00005555,0.00019581,0.00082810,0.00068483,-
 0.00050146,0.00008921,-0.00018516,0.00026689,0.00001508,0.00001952,-0.
 00009356,0.00001008,0.00009275,-0.00016613,-0.00007131,-0.00032068,-0.
 00002684,0.00001496,0.00030890,0.00037330,0.00002695,-0.00021687,-0.00
 128460,-0.00027093,0.00054344,0.00183980,0.00157761,0.00061168,0.00017
 480,-0.00210509,-0.01080879,-0.00260773,0.02901317,0.33072672,-0.08220
 841,0.08765636,0.02147447,-0.01296844,0.02854577,0.00477165,-0.0028780
 3,-0.00154610,-0.00091349,0.00082871,0.00001831,-0.00135181,0.00019716
 ,-0.00012290,-0.00054525,-0.00023046,0.00017942,0.00088192,-0.00007211
 ,-0.00006832,0.00007873,0.00010453,0.00003896,-0.00062669,-0.00032510,
 -0.00019251,0.00018735,0.00000896,0.00024374,0.00010773,0.00105663,-0.
 00035292,-0.00025617,-0.00005087,0.00027981,-0.00098994,0.00787742,-0.
 01743583,-0.00495047,-0.00038387,0.00064781,0.00064941,0.08961367,0.08
 552667,-0.25619982,-0.04803189,0.00298279,-0.00261475,0.00249165,0.000
 65629,0.00041524,-0.00047064,0.00020032,0.00008274,0.00039279,-0.00009
 162,0.00012380,0.00007581,0.00006647,-0.00005452,-0.00010571,0.0000209
 3,-0.00001311,0.00002559,-0.00001401,0.00007355,-0.00011458,0.00005361
 ,-0.00013649,0.00008119,-0.00021665,0.00005920,-0.00006173,0.00026779,
 0.00057075,0.00003944,-0.00164191,-0.00062556,0.00065404,0.00844236,-0
 .01817253,-0.00530916,0.00096464,-0.00382466,-0.00059186,-0.09705164,0
 .27965464,0.02137677,-0.04675507,-0.05109441,-0.00758108,0.01363142,0.
 00081319,-0.00105189,-0.00024130,-0.00072938,-0.00008474,-0.00051776,-
 0.00138257,0.00012977,-0.00000608,0.00001765,-0.00014109,0.00008458,0.
 00025888,0.00000357,-0.00004239,0.00002551,0.00004388,0.00000289,-0.00
 004216,-0.00009287,0.00001630,-0.00003633,-0.00005480,0.00002075,0.000
 10819,0.00011264,-0.00010633,-0.00013007,0.00061208,0.00010225,0.00011
 718,-0.00584241,0.01198202,0.00219924,0.01232243,-0.03048079,-0.006978
 89,-0.01962691,0.05190356,0.05600531,0.00021949,0.00309678,0.00069872,
 0.00511336,0.00358031,-0.00182065,-0.19189075,-0.13790466,0.03004815,-
 0.01390262,-0.02462478,0.00726081,0.00172862,0.00225285,-0.00014262,0.
 00076886,0.00049615,0.00030020,0.00014257,0.00005163,0.00017193,-0.000
 19069,-0.00025532,-0.00059962,-0.00023658,-0.00000597,0.00039414,0.000
 80600,0.00001585,-0.00058489,-0.00145503,0.00035004,0.00034046,0.00227
 685,0.00006859,-0.00387559,0.00010770,0.00037085,-0.00045343,0.0001729
 5,-0.00017521,0.00011957,-0.00017529,0.00021426,-0.00042651,0.19980750
 ,-0.00109385,-0.00163213,-0.00297608,-0.01677334,-0.01122369,0.0029674
 0,-0.13463751,-0.18547051,0.04596211,0.00047114,0.00599693,-0.00216918
 ,0.00010618,-0.00107397,0.00042319,-0.00116734,-0.00024395,-0.00059944
 ,-0.00005228,-0.00001204,-0.00030402,0.00070418,0.00041200,0.00036934,
 -0.00003806,-0.00010073,-0.00037005,-0.00081886,0.00005143,0.00082359,
 0.00169354,-0.00091392,-0.00033501,-0.00132263,0.00179393,0.00497522,0
 .00125720,0.00043293,0.00028996,-0.00013353,0.00047638,-0.00042516,0.0
 0048286,0.00016534,0.00022925,0.15193963,0.19081232,0.00260022,-0.0025
 5973,-0.00351156,0.01405311,0.01767068,-0.00395389,0.03237345,0.039316
 93,-0.04631954,-0.01372965,-0.00828582,0.00230754,0.00333436,-0.001353
 60,0.00026706,-0.00121203,-0.00079624,-0.00033099,0.00000811,0.0001432
 0,-0.00027425,0.00050754,0.00052037,0.00014566,0.00007599,-0.00011099,
 -0.00011851,-0.00061381,0.00014020,0.00050169,0.00111767,-0.00031610,-
 0.00036899,-0.00573604,0.00464851,0.00377921,-0.00069517,0.00024408,0.
 00016665,-0.00064619,0.00049676,-0.00040847,0.00044653,-0.00041959,0.0
 0051780,-0.02906829,-0.05092656,0.04690175,-0.00021080,0.00023134,0.00
 013123,-0.00099068,-0.00125770,0.00173976,-0.01825904,-0.02556167,-0.0
 0011652,-0.13456068,-0.12022835,-0.00151958,0.00748144,0.01595365,-0.0
 0514772,0.00203741,0.00858551,0.00177017,0.00124034,-0.00167150,-0.001
 35400,-0.00079844,0.00195147,0.00271302,-0.00270370,0.00090921,0.00132
 382,-0.00078705,0.00044569,0.00073178,0.00148620,-0.00012276,-0.000773
 88,0.00030248,0.00020570,0.00020401,0.00021130,0.00009812,-0.00007564,
 -0.00001468,-0.00003780,-0.00001818,-0.00003577,0.00017463,-0.00009505
 ,-0.00356080,-0.00018493,-0.00381399,0.14898926,-0.00003139,0.00001917
 ,-0.00005780,0.00107389,-0.00037642,0.00059820,-0.00109394,0.00143086,
 0.00279867,-0.11579852,-0.22743819,0.00840578,-0.00377629,-0.03092103,
 0.00952471,-0.00475589,-0.00200296,0.00128543,0.00192043,-0.00005318,-
 0.00010947,0.00070390,0.00004693,-0.00011008,-0.00054961,0.00066634,0.
 00005730,0.00035729,0.00038924,-0.00036871,-0.00117338,-0.00015548,0.0
 0036799,0.00170393,0.00022936,0.00010913,0.00002320,0.00001831,0.00003
 441,0.00007468,0.00008657,-0.00007306,-0.00005979,-0.00006779,0.000019
 85,0.00057302,0.00090920,0.00050722,0.12069669,0.25708203,0.00036383,-
 0.00036552,-0.00024266,0.00015716,-0.00013382,-0.00196717,-0.00719960,
 -0.00909834,0.01054199,0.00432362,0.00952235,-0.05002778,-0.00861544,0
 .01653549,0.01675194,0.00687419,0.00505497,-0.00732778,-0.00109079,-0.
 00031862,-0.00033525,0.00113526,-0.00121882,-0.00114255,0.00348956,-0.
 00100166,-0.00232570,0.00106829,-0.00076794,-0.00094823,-0.00053061,0.
 00072951,-0.00044933,-0.00111808,0.00099999,-0.00126481,0.00013347,0.0
 0004573,0.00004344,-0.00000223,0.00008113,-0.00006546,0.00008305,0.000
 02358,0.00004655,-0.00299401,0.00248619,0.00199787,0.00440040,-0.02324
 837,0.03596947,0.00001105,0.00007371,-0.00007312,-0.00021985,-0.000906
 02,0.00035547,-0.00048669,0.00062732,-0.00049946,-0.00034136,-0.001173
 81,0.00118914,0.00108040,0.00376382,-0.00118106,-0.00261749,-0.0078368
 0,-0.01503350,-0.17008901,-0.08974390,-0.12197932,-0.00487899,-0.00268
 872,-0.00444689,0.00183921,0.00022937,0.00435372,-0.00008556,0.0013204
 2,-0.00052232,-0.00099243,0.00014090,-0.00037877,0.00077348,0.00012350
 ,-0.00017413,0.00001139,0.00000274,-0.00000371,-0.00002352,-0.00000042
 ,-0.00002690,-0.00005015,-0.00001897,0.00000311,-0.00005238,0.00003350
 ,0.00004813,-0.00004973,-0.00016191,-0.00037930,0.17490172,0.00004865,
 -0.00002489,-0.00009984,0.00003487,0.00064991,-0.00009615,0.00021426,0
 .00004155,0.00073835,-0.00074857,0.00046647,-0.00156249,-0.00066007,-0
 .00187691,-0.00263364,0.00113156,0.00142777,-0.00063847,-0.10068414,-0
 .08541657,-0.08111570,0.00365945,0.00772223,0.01034081,0.00044317,0.00
 290579,-0.00464832,0.00063169,-0.00071709,-0.00069637,0.00063097,-0.00
 032516,0.00045343,-0.00066357,-0.00035897,0.00015424,-0.00002769,-0.00
 000406,0.00000742,-0.00008490,-0.00000738,-0.00001606,-0.00002166,0.00
 003887,0.00000160,-0.00003505,-0.00000851,-0.00003892,-0.00004492,0.00
 023828,0.00028980,0.09721420,0.07429977,-0.00002500,0.00012017,0.00013
 050,-0.00001957,0.00020773,0.00000830,0.00016061,-0.00021523,-0.000526
 37,0.00031622,0.00043144,-0.00084213,0.00144195,-0.00108277,0.00370037
 ,0.00194379,0.00409468,0.00162747,-0.13556979,-0.07071802,-0.16737019,
 -0.00315036,-0.00928053,0.00000036,-0.00331545,-0.00225947,0.00084340,
 0.00062456,-0.00006415,0.00003735,0.00054945,-0.00021819,-0.00000445,-
 0.00040634,-0.00027677,0.00004762,-0.00002178,-0.00000519,0.00000197,0
 .00001135,-0.00001967,0.00001125,-0.00005054,0.00002231,-0.00001957,0.
 00001243,0.00000555,0.00001877,-0.00011493,0.00000503,0.00035402,0.139
 08301,0.07802881,0.16239499,0.00003611,-0.00005471,-0.00002126,-0.0004
 0895,-0.00040597,0.00091123,-0.00175597,0.00104220,0.00107164,-0.00038
 422,-0.00099580,0.00046342,-0.00034338,0.00067605,-0.00079635,0.002304
 27,0.00469555,0.00406892,-0.00272077,-0.00537962,0.00140718,-0.0119124
 4,-0.00025518,-0.01432199,-0.22690677,-0.13496368,-0.07131893,-0.00078
 467,0.00237676,-0.00036192,0.00260068,-0.00005779,-0.00015786,-0.00016
 243,-0.00049215,0.00002218,0.00002360,0.00001071,0.00001322,0.00001259
 ,0.00001437,-0.00002194,0.00001475,-0.00001228,0.00000567,0.00003554,0
 .00002578,0.00002121,0.00016331,-0.00000016,-0.00021142,0.00107107,-0.
 00109120,-0.00141345,0.23894940,0.00014437,0.00008172,-0.00007688,-0.0
 0045250,-0.00176710,0.00079970,-0.00043658,0.00123799,-0.00086677,0.00
 114411,0.00090647,-0.00176061,0.00235044,-0.00094607,0.00024807,-0.002
 10093,-0.00399978,0.00060445,0.00223317,0.00309112,0.00155497,0.008305
 70,0.00382037,0.00513967,-0.12912488,-0.10556888,-0.03848549,-0.014617
 79,-0.02442220,0.00302453,-0.00349063,0.00234973,0.00017839,0.00236082
 ,0.00031592,-0.00087154,0.00002179,-0.00000244,-0.00001401,-0.00004546
 ,-0.00002395,-0.00006034,-0.00007953,0.00005032,-0.00001154,-0.0001135
 4,0.00007581,0.00006719,-0.00028891,-0.00008537,0.00045731,-0.00112621
 ,0.00108753,0.00127027,0.13521941,0.12293409,-0.00000980,0.00001682,0.
 00011645,0.00002047,0.00028958,0.00030703,0.00049822,-0.00023308,-0.00
 001170,0.00079540,0.00066096,-0.00197980,0.00321046,-0.00066542,0.0010
 9611,-0.00344775,-0.00499005,0.00271070,-0.00162033,0.00140749,0.00008
 385,-0.02454259,-0.01066101,-0.01574903,-0.06592912,-0.02632620,-0.055
 02826,0.01246015,0.01232167,0.00205427,-0.00085214,-0.00173148,0.00019
 431,-0.00044811,-0.00015407,0.00000723,-0.00002915,-0.00000980,-0.0000
 0833,-0.00003762,0.00001543,-0.00003367,-0.00002124,0.00000659,-0.0000
 3095,0.00003204,-0.00009063,-0.00008419,-0.00036398,-0.00011498,0.0001
 1405,-0.00077560,0.00196619,-0.00023379,0.08107470,0.02831339,0.066581
 45,0.00012619,-0.00062795,0.00021545,-0.00151804,0.00073083,0.00364115
 ,-0.00102644,-0.00032480,0.00009798,-0.00058567,0.00043114,-0.00062479
 ,0.00090661,-0.00036480,0.00069737,-0.00136728,-0.00090939,-0.00130492
 ,0.00058904,0.00041227,-0.00156574,0.00072194,0.00049828,0.00547790,-0
 .00538797,0.00442229,-0.00088882,0.00033311,0.02096633,-0.00780213,-0.
 04808171,-0.03038690,0.01471318,-0.01224512,-0.02596336,0.01248824,-0.
 00017410,-0.00004362,-0.00009906,-0.00003126,0.00005039,-0.00006576,0.
 00010481,0.00006436,-0.00001118,0.00023524,-0.00047417,-0.00007838,-0.
 00003541,0.00000824,0.00010785,0.00007818,0.00012167,-0.00000184,0.000
 09470,-0.00000721,0.00015470,0.06885478,0.00014252,-0.00006012,-0.0000
 6599,0.00043718,0.00214902,0.00272523,-0.00053516,-0.00002304,-0.00031
 642,0.00033041,-0.00005017,0.00034424,-0.00067828,-0.00006391,-0.00013
 945,0.00091356,0.00078469,0.00000296,-0.00021555,-0.00005204,0.0008502
 7,-0.00000980,-0.00061083,-0.00211077,0.00343485,-0.00057693,0.0010626
 4,0.00208472,-0.01506601,0.00508767,-0.04198579,-0.28691164,0.08879734
 ,0.00145087,-0.00426882,0.00240256,0.00002239,-0.00003742,-0.00005197,
 -0.00007809,0.00000465,-0.00003821,0.00000254,0.00003799,-0.00000086,0
 .00013737,-0.00021866,-0.00022216,0.00006032,-0.00005005,-0.00005386,0
 .00003667,-0.00014075,-0.00004692,-0.00022006,0.00060444,-0.00002502,0
 .03456181,0.30282943,0.00076683,0.00068214,-0.00080983,0.00286265,0.00
 046611,0.00996703,-0.00147438,-0.00020031,-0.00030570,-0.00006244,-0.0
 0012128,0.00019533,-0.00040616,-0.00022924,-0.00002120,0.00012593,0.00
 116254,-0.00097819,0.00014686,0.00042472,-0.00041446,0.00061061,-0.001
 89370,0.00403039,0.00160798,0.00373698,-0.00136115,-0.00039503,-0.0059
 9666,0.00319318,0.01850280,0.08808232,-0.06638670,0.00220940,0.0126255
 4,-0.00093060,0.00040584,-0.00012895,0.00006232,-0.00009143,0.00007819
 ,-0.00003747,0.00012958,0.00003502,-0.00000543,0.00042451,-0.00049329,
 -0.00049904,0.00006940,0.00011509,0.00016491,0.00030837,-0.00029607,-0
 .00012290,-0.00017584,0.00015888,-0.00005794,-0.02464773,-0.09532622,0
 .06037869,-0.00034965,-0.00284022,0.00049450,0.00792458,-0.01271505,0.
 00275483,-0.00066970,-0.00256831,0.00266872,-0.00186996,-0.00004057,-0
 .00130849,0.00116581,-0.00034941,0.00080256,-0.00119066,-0.00018520,-0
 .00028680,0.00002354,0.00010271,-0.00072802,0.00079947,0.00022255,0.00
 165140,0.00057070,0.00041884,-0.00131290,-0.00247731,-0.00183699,0.002
 73572,-0.02576377,0.02362124,0.00020439,-0.12356797,0.11766690,-0.0241
 6745,0.00005913,-0.00011619,-0.00021607,0.00001902,0.00003069,-0.00008
 092,-0.00042812,-0.00058804,0.00039858,0.00004947,-0.00001752,0.001007
 21,0.00009504,0.00026561,0.00000480,0.00012066,-0.00006871,-0.00005433
 ,0.00007359,0.00010437,-0.00016872,-0.00159160,0.00010753,-0.00091776,
 0.14700774,0.00158666,0.00021809,0.00002077,0.01249704,-0.02218672,0.0
 0761850,-0.00230354,-0.00240489,0.00138086,-0.00225297,0.00026369,-0.0
 0164090,0.00109394,-0.00053555,0.00114092,-0.00104335,-0.00022106,-0.0
 0042675,0.00009784,0.00002997,-0.00050069,0.00073796,0.00030886,0.0010
 6088,0.00011270,0.00044222,-0.00088784,-0.00209890,0.00171132,0.003158
 74,0.00063443,0.00072899,0.00166295,0.11676748,-0.23015565,0.04133896,
 -0.00002188,0.00073513,-0.00004623,-0.00027519,-0.00027673,-0.00026444
 ,-0.00116437,0.00043678,0.00016764,-0.00003281,-0.00022814,0.00127456,
 0.00008621,0.00003419,-0.00001912,0.00009064,0.00000214,0.00000092,-0.
 00013224,0.00026029,0.00000361,-0.00316541,0.00172018,-0.00288181,-0.1
 2121424,0.24911689,-0.00099466,-0.00022033,-0.00031662,-0.00050556,0.0
 1998653,-0.00482678,0.00388326,-0.00081541,0.00476595,-0.00349507,0.00
 063233,-0.00154734,0.00190563,-0.00075172,0.00118082,-0.00179351,-0.00
 019521,0.00024717,-0.00015273,0.00008843,-0.00071787,0.00162175,0.0003
 5299,0.00064594,0.00069544,0.00039608,-0.00129797,0.00131966,0.0002925
 8,0.00706566,0.01327155,-0.00361344,0.00244655,-0.03264569,0.03947225,
 -0.03748775,0.00008037,-0.00017848,-0.00032496,-0.00007500,-0.00036665
 ,-0.00011020,0.00052206,-0.00064639,0.00034026,0.00016266,0.00015760,-
 0.00073456,0.00030988,0.00025367,0.00011248,0.00013313,-0.00013860,-0.
 00005694,-0.00025841,0.00033036,-0.00004778,-0.00050349,-0.00287507,-0
 .00606126,0.01651874,-0.05216154,0.03672522\\0.00001569,-0.00000553,0.
 00000160,-0.00001317,-0.00000287,0.00001428,0.00001918,0.00000234,0.00
 000569,-0.00003237,0.00001555,-0.00004770,0.00006209,-0.00005633,0.000
 04718,0.00000287,0.00003192,0.00002307,-0.00006329,-0.00003525,-0.0000
 4355,-0.00002382,0.00005189,-0.00005095,0.00004101,-0.00002089,0.00006
 117,-0.00001564,0.00000033,0.00000948,0.00003300,0.00001467,-0.0000052
 8,-0.00001939,-0.00000599,-0.00000503,-0.00000604,-0.00000373,0.000002
 23,0.00000149,0.00000174,0.00000375,0.00000446,-0.00000148,0.00000117,
 -0.00001200,0.00000405,-0.00001011,0.00002225,0.00003208,0.00001092,-0
 .00003454,-0.00000718,-0.00003037,0.00001278,-0.00000448,0.00001488,0.
 00000229,-0.00000745,-0.00000452,0.00000313,-0.00000340,0.00000210\\\@


 SILVERMAN'S PARADOX - IF MURPHY'S LAW CAN GO WRONG, IT WILL.
 Job cpu time:       0 days  3 hours 26 minutes 40.6 seconds.
 Elapsed time:       0 days  0 hours 51 minutes 40.8 seconds.
 File lengths (MBytes):  RWF=    247 Int=      0 D2E=      0 Chk=     13 Scr=      1
 Normal termination of Gaussian 16 at Sat May 20 08:55:43 2023.
### All Done ###
