### Starting Gaussian ###
 Entering Gaussian System, Link 0=g16
 Initial command:
 /cluster/software/gaussian/gaussian-16-A.03/avx2/g16/l1.exe "/local/scratch/yxie/Gau-11769.inp" -scrdir="/local/scratch/yxie/"
 Entering Link 1 = /cluster/software/gaussian/gaussian-16-A.03/avx2/g16/l1.exe PID=     11770.
  
 Copyright (c) 1988,1990,1992,1993,1995,1998,2003,2009,2016,
            Gaussian, Inc.  All Rights Reserved.
  
 This is part of the Gaussian(R) 16 program.  It is based on
 the Gaussian(R) 09 system (copyright 2009, Gaussian, Inc.),
 the Gaussian(R) 03 system (copyright 2003, Gaussian, Inc.),
 the Gaussian(R) 98 system (copyright 1998, Gaussian, Inc.),
 the Gaussian(R) 94 system (copyright 1995, Gaussian, Inc.),
 the Gaussian 92(TM) system (copyright 1992, Gaussian, Inc.),
 the Gaussian 90(TM) system (copyright 1990, Gaussian, Inc.),
 the Gaussian 88(TM) system (copyright 1988, Gaussian, Inc.),
 the Gaussian 86(TM) system (copyright 1986, Carnegie Mellon
 University), and the Gaussian 82(TM) system (copyright 1983,
 Carnegie Mellon University). Gaussian is a federally registered
 trademark of Gaussian, Inc.
  
 This software contains proprietary and confidential information,
 including trade secrets, belonging to Gaussian, Inc.
  
 This software is provided under written license and may be
 used, copied, transmitted, or stored only in accord with that
 written license.
  
 The following legend is applicable only to US Government
 contracts under FAR:
  
                    RESTRICTED RIGHTS LEGEND
  
 Use, reproduction and disclosure by the US Government is
 subject to restrictions as set forth in subparagraphs (a)
 and (c) of the Commercial Computer Software - Restricted
 Rights clause in FAR 52.227-19.
  
 Gaussian, Inc.
 340 Quinnipiac St., Bldg. 40, Wallingford CT 06492
  
  
 ---------------------------------------------------------------
 Warning -- This program may not be used in any manner that
 competes with the business of Gaussian, Inc. or will provide
 assistance to any competitor of Gaussian, Inc.  The licensee
 of this program is prohibited from giving any competitor of
 Gaussian, Inc. access to this program.  By using this program,
 the user acknowledges that Gaussian, Inc. is engaged in the
 business of creating and licensing software in the field of
 computational chemistry and represents and warrants to the
 licensee that it is not a competitor of Gaussian, Inc. and that
 it will not use this program in any manner prohibited above.
 ---------------------------------------------------------------
  

 Cite this work as:
 Gaussian 16, Revision A.03,
 M. J. Frisch, G. W. Trucks, H. B. Schlegel, G. E. Scuseria, 
 M. A. Robb, J. R. Cheeseman, G. Scalmani, V. Barone, 
 G. A. Petersson, H. Nakatsuji, X. Li, M. Caricato, A. V. Marenich, 
 J. Bloino, B. G. Janesko, R. Gomperts, B. Mennucci, H. P. Hratchian, 
 J. V. Ortiz, A. F. Izmaylov, J. L. Sonnenberg, D. Williams-Young, 
 F. Ding, F. Lipparini, F. Egidi, J. Goings, B. Peng, A. Petrone, 
 T. Henderson, D. Ranasinghe, V. G. Zakrzewski, J. Gao, N. Rega, 
 G. Zheng, W. Liang, M. Hada, M. Ehara, K. Toyota, R. Fukuda, 
 J. Hasegawa, M. Ishida, T. Nakajima, Y. Honda, O. Kitao, H. Nakai, 
 T. Vreven, K. Throssell, J. A. Montgomery, Jr., J. E. Peralta, 
 F. Ogliaro, M. J. Bearpark, J. J. Heyd, E. N. Brothers, K. N. Kudin, 
 V. N. Staroverov, T. A. Keith, R. Kobayashi, J. Normand, 
 K. Raghavachari, A. P. Rendell, J. C. Burant, S. S. Iyengar, 
 J. Tomasi, M. Cossi, J. M. Millam, M. Klene, C. Adamo, R. Cammi, 
 J. W. Ochterski, R. L. Martin, K. Morokuma, O. Farkas, 
 J. B. Foresman, and D. J. Fox, Gaussian, Inc., Wallingford CT, 2016.
 
 ******************************************
 Gaussian 16:  ES64L-G16RevA.03 25-Dec-2016
                17-May-2023 
 ******************************************
 %chk=CC1dCdNC2dNCdC3C2dNN3C1C1d[SH]C1.chk
 %NProcShared=20
 Will use up to   20 processors via shared memory.
 -----------------------------
 # opt freq b3lyp/6-31g(2df,p)
 -----------------------------
 1/18=20,19=15,26=3,38=1/1,3;
 2/9=110,12=2,17=6,18=5,40=1/2;
 3/5=1,6=6,7=104,11=2,25=1,30=1,71=1,74=-5/1,2,3;
 4//1;
 5/5=2,38=5/2;
 6/7=2,8=2,9=2,10=2,28=1/1;
 7//1,2,3,16;
 1/18=20,19=15,26=3/3(2);
 2/9=110/2;
 99//99;
 2/9=110/2;
 3/5=1,6=6,7=104,11=2,25=1,30=1,71=1,74=-5/1,2,3;
 4/5=5,16=3,69=1/1;
 5/5=2,38=5/2;
 7//1,2,3,16;
 1/18=20,19=15,26=3/3(-5);
 2/9=110/2;
 6/7=2,8=2,9=2,10=2,19=2,28=1/1;
 99/9=1/99;
 -------------------
 Title Card Required
 -------------------
 Symbolic Z-matrix:
 Charge =  0 Multiplicity = 1
 C                     1.13074   0.36381  -0.14594 
 C                     2.653     0.62721  -0.26333 
 C                     3.0554    1.82894  -0.29464 
 N                     3.46675   2.88527  -0.73103 
 C                     3.73214   2.67811  -2.0655 
 N                     2.77295   2.51984  -2.94855 
 C                     3.31907   1.62736  -3.83618 
 C                     4.33958   0.92669  -3.27404 
 C                     5.08119   2.06796  -2.47621 
 N                     5.7097    1.04874  -1.96999 
 N                     4.57149   0.16009  -2.16911 
 C                     3.64746  -0.43818  -0.7256 
 C                     2.71252  -1.82412  -0.40089 
 S                     2.83103  -3.29233   0.72733 
 C                     1.47295  -2.14655   0.54668 
 H                     0.54539   1.23677  -0.41484 
 H                     0.82973   0.162     0.89437 
 H                     0.72148  -0.42632  -0.79842 
 H                     2.98299   1.57353  -4.87721 
 H                     4.52669  -0.59917  -0.07941 
 H                     2.96359  -3.22908   2.06834 
 H                     1.04942  -1.68794   1.48477 
 H                     0.50348  -2.38697   0.06398 
 

 GradGradGradGradGradGradGradGradGradGradGradGradGradGradGradGradGradGrad
 Berny optimization.
 Initialization pass.
                           ----------------------------
                           !    Initial Parameters    !
                           ! (Angstroms and Degrees)  !
 --------------------------                            --------------------------
 ! Name  Definition              Value          Derivative Info.                !
 --------------------------------------------------------------------------------
 ! R1    R(1,2)                  1.5493         estimate D2E/DX2                !
 ! R2    R(1,16)                 1.0849         estimate D2E/DX2                !
 ! R3    R(1,17)                 1.1016         estimate D2E/DX2                !
 ! R4    R(1,18)                 1.1034         estimate D2E/DX2                !
 ! R5    R(2,3)                  1.2677         estimate D2E/DX2                !
 ! R6    R(2,12)                 1.529          estimate D2E/DX2                !
 ! R7    R(3,4)                  1.2147         estimate D2E/DX2                !
 ! R8    R(4,5)                  1.3763         estimate D2E/DX2                !
 ! R9    R(5,6)                  1.3133         estimate D2E/DX2                !
 ! R10   R(5,9)                  1.5365         estimate D2E/DX2                !
 ! R11   R(6,7)                  1.3721         estimate D2E/DX2                !
 ! R12   R(7,8)                  1.3596         estimate D2E/DX2                !
 ! R13   R(7,19)                 1.0953         estimate D2E/DX2                !
 ! R14   R(8,9)                  1.5777         estimate D2E/DX2                !
 ! R15   R(8,11)                 1.3647         estimate D2E/DX2                !
 ! R16   R(9,10)                 1.3            estimate D2E/DX2                !
 ! R17   R(10,11)                1.4577         estimate D2E/DX2                !
 ! R18   R(12,13)                1.703          estimate D2E/DX2                !
 ! R19   R(12,20)                1.103          estimate D2E/DX2                !
 ! R20   R(13,14)                1.8554         estimate D2E/DX2                !
 ! R21   R(13,15)                1.5932         estimate D2E/DX2                !
 ! R22   R(14,15)                1.786          estimate D2E/DX2                !
 ! R23   R(14,21)                1.349          estimate D2E/DX2                !
 ! R24   R(15,22)                1.1268         estimate D2E/DX2                !
 ! R25   R(15,23)                1.1094         estimate D2E/DX2                !
 ! A1    A(2,1,16)             111.9958         estimate D2E/DX2                !
 ! A2    A(2,1,17)             111.7873         estimate D2E/DX2                !
 ! A3    A(2,1,18)             116.1905         estimate D2E/DX2                !
 ! A4    A(16,1,17)            103.5352         estimate D2E/DX2                !
 ! A5    A(16,1,18)            103.268          estimate D2E/DX2                !
 ! A6    A(17,1,18)            109.0194         estimate D2E/DX2                !
 ! A7    A(1,2,3)              118.3536         estimate D2E/DX2                !
 ! A8    A(1,2,12)             122.922          estimate D2E/DX2                !
 ! A9    A(3,2,12)             116.5272         estimate D2E/DX2                !
 ! A10   A(2,3,4)              160.1764         estimate D2E/DX2                !
 ! A11   A(3,4,5)              106.4243         estimate D2E/DX2                !
 ! A12   A(4,5,6)              121.9546         estimate D2E/DX2                !
 ! A13   A(4,5,9)              119.2258         estimate D2E/DX2                !
 ! A14   A(6,5,9)              114.4347         estimate D2E/DX2                !
 ! A15   A(5,6,7)              102.8653         estimate D2E/DX2                !
 ! A16   A(6,7,8)              111.4999         estimate D2E/DX2                !
 ! A17   A(6,7,19)             121.6494         estimate D2E/DX2                !
 ! A18   A(8,7,19)             126.7269         estimate D2E/DX2                !
 ! A19   A(7,8,9)              100.9018         estimate D2E/DX2                !
 ! A20   A(7,8,11)             138.7503         estimate D2E/DX2                !
 ! A21   A(9,8,11)              85.2406         estimate D2E/DX2                !
 ! A22   A(5,9,8)               90.5567         estimate D2E/DX2                !
 ! A23   A(5,9,10)             129.1763         estimate D2E/DX2                !
 ! A24   A(8,9,10)              81.7807         estimate D2E/DX2                !
 ! A25   A(9,10,11)             92.7086         estimate D2E/DX2                !
 ! A26   A(8,11,10)             84.309          estimate D2E/DX2                !
 ! A27   A(2,12,13)             98.7632         estimate D2E/DX2                !
 ! A28   A(2,12,20)            116.2991         estimate D2E/DX2                !
 ! A29   A(13,12,20)           101.9545         estimate D2E/DX2                !
 ! A30   A(12,13,14)           136.4555         estimate D2E/DX2                !
 ! A31   A(12,13,15)           134.8464         estimate D2E/DX2                !
 ! A32   A(13,14,21)           125.0037         estimate D2E/DX2                !
 ! A33   A(15,14,21)            98.3481         estimate D2E/DX2                !
 ! A34   A(13,15,22)           134.8458         estimate D2E/DX2                !
 ! A35   A(13,15,23)           117.7096         estimate D2E/DX2                !
 ! A36   A(14,15,22)           117.5616         estimate D2E/DX2                !
 ! A37   A(14,15,23)           124.7149         estimate D2E/DX2                !
 ! A38   A(22,15,23)            97.0062         estimate D2E/DX2                !
 ! D1    D(16,1,2,3)            18.1212         estimate D2E/DX2                !
 ! D2    D(16,1,2,12)         -144.4344         estimate D2E/DX2                !
 ! D3    D(17,1,2,3)           -97.5556         estimate D2E/DX2                !
 ! D4    D(17,1,2,12)           99.8889         estimate D2E/DX2                !
 ! D5    D(18,1,2,3)           136.4495         estimate D2E/DX2                !
 ! D6    D(18,1,2,12)          -26.106          estimate D2E/DX2                !
 ! D7    D(1,2,3,4)           -101.7987         estimate D2E/DX2                !
 ! D8    D(12,2,3,4)            61.8666         estimate D2E/DX2                !
 ! D9    D(1,2,12,13)          -20.9077         estimate D2E/DX2                !
 ! D10   D(1,2,12,20)         -128.9646         estimate D2E/DX2                !
 ! D11   D(3,2,12,13)          176.2414         estimate D2E/DX2                !
 ! D12   D(3,2,12,20)           68.1845         estimate D2E/DX2                !
 ! D13   D(2,3,4,5)             -5.9681         estimate D2E/DX2                !
 ! D14   D(3,4,5,6)             71.3532         estimate D2E/DX2                !
 ! D15   D(3,4,5,9)            -83.8263         estimate D2E/DX2                !
 ! D16   D(4,5,6,7)           -145.7925         estimate D2E/DX2                !
 ! D17   D(9,5,6,7)             10.4803         estimate D2E/DX2                !
 ! D18   D(4,5,9,8)            125.265          estimate D2E/DX2                !
 ! D19   D(4,5,9,10)            45.4315         estimate D2E/DX2                !
 ! D20   D(6,5,9,8)            -31.7054         estimate D2E/DX2                !
 ! D21   D(6,5,9,10)          -111.5389         estimate D2E/DX2                !
 ! D22   D(5,6,7,8)             21.1928         estimate D2E/DX2                !
 ! D23   D(5,6,7,19)          -155.0201         estimate D2E/DX2                !
 ! D24   D(6,7,8,9)            -41.9119         estimate D2E/DX2                !
 ! D25   D(6,7,8,11)            53.3364         estimate D2E/DX2                !
 ! D26   D(19,7,8,9)           134.0653         estimate D2E/DX2                !
 ! D27   D(19,7,8,11)         -130.6864         estimate D2E/DX2                !
 ! D28   D(7,8,9,5)             39.7431         estimate D2E/DX2                !
 ! D29   D(7,8,9,10)           169.3035         estimate D2E/DX2                !
 ! D30   D(11,8,9,5)           -99.0447         estimate D2E/DX2                !
 ! D31   D(11,8,9,10)           30.5157         estimate D2E/DX2                !
 ! D32   D(7,8,11,10)         -127.8926         estimate D2E/DX2                !
 ! D33   D(9,8,11,10)          -26.7709         estimate D2E/DX2                !
 ! D34   D(5,9,10,11)           55.659          estimate D2E/DX2                !
 ! D35   D(8,9,10,11)          -28.3113         estimate D2E/DX2                !
 ! D36   D(9,10,11,8)           33.0477         estimate D2E/DX2                !
 ! D37   D(2,12,13,14)        -116.0174         estimate D2E/DX2                !
 ! D38   D(2,12,13,15)         -21.4296         estimate D2E/DX2                !
 ! D39   D(20,12,13,14)          3.3801         estimate D2E/DX2                !
 ! D40   D(20,12,13,15)         97.9679         estimate D2E/DX2                !
 ! D41   D(12,13,14,21)         55.6558         estimate D2E/DX2                !
 ! D42   D(12,13,15,22)        -22.7864         estimate D2E/DX2                !
 ! D43   D(12,13,15,23)        112.9988         estimate D2E/DX2                !
 ! D44   D(21,14,15,22)         -1.3095         estimate D2E/DX2                !
 ! D45   D(21,14,15,23)       -123.2468         estimate D2E/DX2                !
 --------------------------------------------------------------------------------
 Trust Radius=3.00D-01 FncErr=1.00D-07 GrdErr=1.00D-06 EigMax=2.50D+02 EigMin=1.00D-04
 Number of steps in this run=    118 maximum allowed number of steps=    138.
 GradGradGradGradGradGradGradGradGradGradGradGradGradGradGradGradGradGrad

                          Input orientation:                          
 ---------------------------------------------------------------------
 Center     Atomic      Atomic             Coordinates (Angstroms)
 Number     Number       Type             X           Y           Z
 ---------------------------------------------------------------------
      1          6           0        1.130740    0.363810   -0.145940
      2          6           0        2.653000    0.627210   -0.263330
      3          6           0        3.055400    1.828940   -0.294640
      4          7           0        3.466750    2.885270   -0.731030
      5          6           0        3.732140    2.678110   -2.065500
      6          7           0        2.772950    2.519840   -2.948550
      7          6           0        3.319070    1.627360   -3.836180
      8          6           0        4.339580    0.926690   -3.274040
      9          6           0        5.081190    2.067960   -2.476210
     10          7           0        5.709700    1.048740   -1.969990
     11          7           0        4.571490    0.160090   -2.169110
     12          6           0        3.647460   -0.438180   -0.725600
     13          6           0        2.712520   -1.824120   -0.400890
     14         16           0        2.831030   -3.292330    0.727330
     15          6           0        1.472950   -2.146550    0.546680
     16          1           0        0.545390    1.236770   -0.414840
     17          1           0        0.829730    0.162000    0.894370
     18          1           0        0.721480   -0.426320   -0.798420
     19          1           0        2.982990    1.573530   -4.877210
     20          1           0        4.526690   -0.599170   -0.079410
     21          1           0        2.963590   -3.229080    2.068340
     22          1           0        1.049420   -1.687940    1.484770
     23          1           0        0.503480   -2.386970    0.063980
 ---------------------------------------------------------------------
                    Distance matrix (angstroms):
                    1          2          3          4          5
     1  C    0.000000
     2  C    1.549334   0.000000
     3  C    2.423434   1.267699   0.000000
     4  N    3.486694   2.445356   1.214693   0.000000
     5  C    3.975925   2.935737   2.077261   1.376284   0.000000
     6  N    3.898710   3.287376   2.756875   2.352083   1.313344
     7  C    4.472496   3.769510   3.557058   3.353521   2.100002
     8  C    4.516470   3.463902   3.367491   3.326375   2.212922
     9  C    4.892887   3.587298   2.986671   2.513974   1.536523
    10  N    4.976260   3.526158   3.234319   3.152569   2.564120
    11  N    3.996684   2.744231   2.932103   3.273397   2.656251
    12  C    2.704269   1.528954   2.382456   3.328364   3.393194
    13  C    2.711838   2.455908   3.670654   4.780817   4.907201
    14  S    4.125645   4.046714   5.227061   6.379161   6.652673
    15  C    2.626545   3.121278   4.360790   5.561204   5.933361
    16  H    1.084897   2.199213   2.581717   3.369254   3.867495
    17  H    1.101626   2.209299   3.024242   4.124560   4.849291
    18  H    1.103417   2.264292   3.284383   4.302055   4.506335
    19  H    5.222946   4.721473   4.590253   4.375556   3.112400
    20  H    3.530472   2.246898   2.847233   3.699919   3.913621
    21  H    4.601221   4.517092   5.583518   6.743509   7.250807
    22  H    2.622119   3.314701   4.422522   5.627389   6.234083
    23  H    2.829189   3.716564   4.941134   6.099961   6.372909
                    6          7          8          9         10
     6  N    0.000000
     7  C    1.372099   0.000000
     8  C    2.257964   1.359552   0.000000
     9  C    2.399015   2.269078   1.577661   0.000000
    10  N    3.427275   3.087487   1.895434   1.300036   0.000000
    11  N    3.067685   2.549619   1.364671   1.998518   1.457693
    12  C    3.802125   3.748333   2.972616   3.376530   2.830596
    13  C    5.036289   4.907325   4.297589   5.006579   4.438298
    14  S    6.877266   6.728087   6.007230   6.637665   5.865762
    15  C    5.973427   6.071245   5.679813   6.318177   5.873122
    16  H    3.609429   4.421700   4.760993   5.051099   5.396661
    17  H    4.909536   5.542761   5.502676   5.750513   5.727563
    18  H    4.184668   4.493669   4.588026   5.295610   5.332046
    19  H    2.158552   1.095258   2.197474   3.226717   4.020234
    20  H    4.586479   4.530905   3.545267   3.628457   2.772979
    21  H    7.632536   7.653413   6.906866   7.293545   6.492224
    22  H    6.350614   6.667461   6.348836   6.786112   6.414280
    23  H    6.188911   6.265273   6.069463   6.874183   6.560935
                   11         12         13         14         15
    11  N    0.000000
    12  C    1.815346   0.000000
    13  C    3.243372   1.703050   0.000000
    14  S    4.830918   3.305108   1.855415   0.000000
    15  C    4.721976   3.043964   1.593231   1.786009   0.000000
    16  H    4.521746   3.539049   3.750426   5.200139   3.637546
    17  H    4.835874   3.305166   3.027750   3.995685   2.421575
    18  H    4.128589   2.926910   2.464978   3.871967   2.309371
    19  H    3.443102   4.660940   5.626244   7.423648   6.748170
    20  H    2.223810   1.102962   2.212479   3.283170   3.480187
    21  H    5.659311   4.007855   2.852025   1.349029   2.389420
    22  H    5.401021   3.632829   2.517967   2.514342   1.126816
    23  H    5.293667   3.782305   2.326534   2.584028   1.109357
                   16         17         18         19         20
    16  H    0.000000
    17  H    1.717559   0.000000
    18  H    1.715812   1.795376   0.000000
    19  H    5.095885   6.319817   5.074481   0.000000
    20  H    4.397037   3.898094   3.876400   5.488399   0.000000
    21  H    5.653113   4.175043   4.593564   8.444294   3.737986
    22  H    3.523704   1.954255   2.629104   7.406124   3.965285
    23  H    3.655478   2.700599   2.152999   6.800654   4.404885
                   21         22         23
    21  H    0.000000
    22  H    2.525809   0.000000
    23  H    3.283101   1.674914   0.000000
 Stoichiometry    C10H8N4S
 Framework group  C1[X(C10H8N4S)]
 Deg. of freedom    63
 Full point group                 C1      NOp   1
 Largest Abelian subgroup         C1      NOp   1
 Largest concise Abelian subgroup C1      NOp   1
                         Standard orientation:                         
 ---------------------------------------------------------------------
 Center     Atomic      Atomic             Coordinates (Angstroms)
 Number     Number       Type             X           Y           Z
 ---------------------------------------------------------------------
      1          6           0        0.985777    2.060853    0.341930
      2          6           0        0.276537    0.950471   -0.473218
      3          6           0       -0.806999    1.237291   -1.065456
      4          7           0       -1.996623    1.308892   -1.300289
      5          6           0       -2.629024    0.552258   -0.340221
      6          7           0       -2.704624    0.940289    0.912212
      7          6           0       -2.634249   -0.242905    1.603409
      8          6           0       -2.069700   -1.225749    0.852621
      9          6           0       -2.755468   -0.965414   -0.544147
     10          7           0       -1.856356   -1.819276   -0.934802
     11          7           0       -0.933470   -1.438274    0.127266
     12          6           0        0.584430   -0.536518   -0.294985
     13          6           0        2.125096   -0.398881    0.417603
     14         16           0        3.861710   -0.873551   -0.031204
     15          6           0        3.247776    0.730897    0.457324
     16          1           0        0.318063    2.883769    0.574241
     17          1           0        1.793330    2.539043   -0.234933
     18          1           0        1.376589    1.765020    1.330504
     19          1           0       -3.056807   -0.347370    2.608458
     20          1           0        0.807849   -1.102955   -1.214636
     21          1           0        4.497167   -0.504004   -1.162358
     22          1           0        3.512749    1.611104   -0.194396
     23          1           0        3.456168    1.216975    1.432503
 ---------------------------------------------------------------------
 Rotational constants (GHZ):           1.2196259           0.3613441           0.3251584
 Standard basis: 6-31G(2df,p) (6D, 7F)
 There are   509 symmetry adapted cartesian basis functions of A   symmetry.
 There are   464 symmetry adapted basis functions of A   symmetry.
   464 basis functions,   740 primitive gaussians,   509 cartesian basis functions
    56 alpha electrons       56 beta electrons
       nuclear repulsion energy      1028.7669103069 Hartrees.
 NAtoms=   23 NActive=   23 NUniq=   23 SFac= 1.00D+00 NAtFMM=   60 NAOKFM=F Big=F
 Integral buffers will be    131072 words long.
 Raffenetti 2 integral format.
 Two-electron integral symmetry is turned on.
 One-electron integrals computed using PRISM.
 PrsmSu:  requested number of processors reduced to:  12 ShMem   1 Linda.
 NBasis=   464 RedAO= T EigKep=  1.72D-04  NBF=   464
 NBsUse=   464 1.00D-06 EigRej= -1.00D+00 NBFU=   464
 ExpMin= 1.17D-01 ExpMax= 2.19D+04 ExpMxC= 3.30D+03 IAcc=3 IRadAn=         5 AccDes= 0.00D+00
 Harris functional with IExCor=  402 and IRadAn=       5 diagonalized for initial guess.
 HarFok:  IExCor=  402 AccDes= 0.00D+00 IRadAn=         5 IDoV= 1 UseB2=F ITyADJ=14
 ICtDFT=  3500011 ScaDFX=  1.000000  1.000000  1.000000  1.000000
 FoFCou: FMM=F IPFlag=           0 FMFlag=      100000 FMFlg1=           0
         NFxFlg=           0 DoJE=T BraDBF=F KetDBF=T FulRan=T
         wScrn=  0.000000 ICntrl=       500 IOpCl=  0 I1Cent=   200000004 NGrid=           0
         NMat0=    1 NMatS0=      1 NMatT0=    0 NMatD0=    1 NMtDS0=    0 NMtDT0=    0
 Petite list used in FoFCou.
 Requested convergence on RMS density matrix=1.00D-08 within 128 cycles.
 Requested convergence on MAX density matrix=1.00D-06.
 Requested convergence on             energy=1.00D-06.
 No special actions if energy rises.
 Integral accuracy reduced to 1.0D-05 until final iterations.
 Initial convergence to 1.0D-05 achieved.  Increase integral accuracy.
 SCF Done:  E(RB3LYP) =  -1002.39817397     A.U. after   31 cycles
            NFock= 31  Conv=0.81D-08     -V/T= 2.0054

 **********************************************************************

            Population analysis using the SCF density.

 **********************************************************************

 Orbital symmetries:
       Occupied  (A) (A) (A) (A) (A) (A) (A) (A) (A) (A) (A) (A)
                 (A) (A) (A) (A) (A) (A) (A) (A) (A) (A) (A) (A)
                 (A) (A) (A) (A) (A) (A) (A) (A) (A) (A) (A) (A)
                 (A) (A) (A) (A) (A) (A) (A) (A) (A) (A) (A) (A)
                 (A) (A) (A) (A) (A) (A) (A) (A)
       Virtual   (A) (A) (A) (A) (A) (A) (A) (A) (A) (A) (A) (A)
                 (A) (A) (A) (A) (A) (A) (A) (A) (A) (A) (A) (A)
                 (A) (A) (A) (A) (A) (A) (A) (A) (A) (A) (A) (A)
                 (A) (A) (A) (A) (A) (A) (A) (A) (A) (A) (A) (A)
                 (A) (A) (A) (A) (A) (A) (A) (A) (A) (A) (A) (A)
                 (A) (A) (A) (A) (A) (A) (A) (A) (A) (A) (A) (A)
                 (A) (A) (A) (A) (A) (A) (A) (A) (A) (A) (A) (A)
                 (A) (A) (A) (A) (A) (A) (A) (A) (A) (A) (A) (A)
                 (A) (A) (A) (A) (A) (A) (A) (A) (A) (A) (A) (A)
                 (A) (A) (A) (A) (A) (A) (A) (A) (A) (A) (A) (A)
                 (A) (A) (A) (A) (A) (A) (A) (A) (A) (A) (A) (A)
                 (A) (A) (A) (A) (A) (A) (A) (A) (A) (A) (A) (A)
                 (A) (A) (A) (A) (A) (A) (A) (A) (A) (A) (A) (A)
                 (A) (A) (A) (A) (A) (A) (A) (A) (A) (A) (A) (A)
                 (A) (A) (A) (A) (A) (A) (A) (A) (A) (A) (A) (A)
                 (A) (A) (A) (A) (A) (A) (A) (A) (A) (A) (A) (A)
                 (A) (A) (A) (A) (A) (A) (A) (A) (A) (A) (A) (A)
                 (A) (A) (A) (A) (A) (A) (A) (A) (A) (A) (A) (A)
                 (A) (A) (A) (A) (A) (A) (A) (A) (A) (A) (A) (A)
                 (A) (A) (A) (A) (A) (A) (A) (A) (A) (A) (A) (A)
                 (A) (A) (A) (A) (A) (A) (A) (A) (A) (A) (A) (A)
                 (A) (A) (A) (A) (A) (A) (A) (A) (A) (A) (A) (A)
                 (A) (A) (A) (A) (A) (A) (A) (A) (A) (A) (A) (A)
                 (A) (A) (A) (A) (A) (A) (A) (A) (A) (A) (A) (A)
                 (A) (A) (A) (A) (A) (A) (A) (A) (A) (A) (A) (A)
                 (A) (A) (A) (A) (A) (A) (A) (A) (A) (A) (A) (A)
                 (A) (A) (A) (A) (A) (A) (A) (A) (A) (A) (A) (A)
                 (A) (A) (A) (A) (A) (A) (A) (A) (A) (A) (A) (A)
                 (A) (A) (A) (A) (A) (A) (A) (A) (A) (A) (A) (A)
                 (A) (A) (A) (A) (A) (A) (A) (A) (A) (A) (A) (A)
                 (A) (A) (A) (A) (A) (A) (A) (A) (A) (A) (A) (A)
                 (A) (A) (A) (A) (A) (A) (A) (A) (A) (A) (A) (A)
                 (A) (A) (A) (A) (A) (A) (A) (A) (A) (A) (A) (A)
                 (A) (A) (A) (A) (A) (A) (A) (A) (A) (A) (A) (A)
 The electronic state is 1-A.
 Alpha  occ. eigenvalues --  -88.95817 -14.42664 -14.37106 -14.35220 -14.34422
 Alpha  occ. eigenvalues --  -10.29314 -10.28081 -10.28031 -10.26145 -10.26037
 Alpha  occ. eigenvalues --  -10.25344 -10.24098 -10.22526 -10.20718 -10.19945
 Alpha  occ. eigenvalues --   -8.01714  -5.98102  -5.97758  -5.97513  -1.07484
 Alpha  occ. eigenvalues --   -1.01250  -0.95121  -0.88299  -0.83891  -0.78608
 Alpha  occ. eigenvalues --   -0.75188  -0.71696  -0.70321  -0.68196  -0.66203
 Alpha  occ. eigenvalues --   -0.60536  -0.58773  -0.55407  -0.53318  -0.49663
 Alpha  occ. eigenvalues --   -0.49151  -0.47190  -0.46425  -0.45761  -0.45205
 Alpha  occ. eigenvalues --   -0.44260  -0.42874  -0.40963  -0.40564  -0.39687
 Alpha  occ. eigenvalues --   -0.38987  -0.35396  -0.34666  -0.32309  -0.31817
 Alpha  occ. eigenvalues --   -0.30262  -0.27251  -0.25355  -0.21875  -0.20500
 Alpha  occ. eigenvalues --   -0.16650
 Alpha virt. eigenvalues --   -0.13043  -0.07527  -0.06502  -0.03889  -0.01039
 Alpha virt. eigenvalues --    0.00916   0.02761   0.03127   0.04582   0.07496
 Alpha virt. eigenvalues --    0.08847   0.10036   0.11537   0.12802   0.13084
 Alpha virt. eigenvalues --    0.14123   0.15995   0.17458   0.19064   0.20517
 Alpha virt. eigenvalues --    0.21751   0.21945   0.24813   0.25579   0.26549
 Alpha virt. eigenvalues --    0.27818   0.28700   0.31642   0.32062   0.32350
 Alpha virt. eigenvalues --    0.33110   0.34372   0.35610   0.37039   0.38283
 Alpha virt. eigenvalues --    0.40246   0.40818   0.41699   0.42198   0.43241
 Alpha virt. eigenvalues --    0.44167   0.44993   0.46720   0.47111   0.48083
 Alpha virt. eigenvalues --    0.48827   0.49917   0.50660   0.51152   0.52255
 Alpha virt. eigenvalues --    0.52873   0.53762   0.54897   0.55565   0.56822
 Alpha virt. eigenvalues --    0.57000   0.59216   0.59411   0.60615   0.61068
 Alpha virt. eigenvalues --    0.62060   0.63153   0.63973   0.65065   0.65892
 Alpha virt. eigenvalues --    0.66946   0.68938   0.69410   0.69530   0.70738
 Alpha virt. eigenvalues --    0.71740   0.72481   0.72979   0.73669   0.74178
 Alpha virt. eigenvalues --    0.74791   0.76428   0.77167   0.77857   0.78313
 Alpha virt. eigenvalues --    0.79833   0.80186   0.82031   0.82687   0.83189
 Alpha virt. eigenvalues --    0.84187   0.84492   0.86186   0.87507   0.89264
 Alpha virt. eigenvalues --    0.89775   0.91562   0.91835   0.93421   0.94828
 Alpha virt. eigenvalues --    0.96281   0.97125   0.99677   1.00903   1.01811
 Alpha virt. eigenvalues --    1.03243   1.04533   1.07943   1.09656   1.10988
 Alpha virt. eigenvalues --    1.12708   1.14299   1.15782   1.16630   1.17648
 Alpha virt. eigenvalues --    1.18276   1.20833   1.23186   1.23458   1.24994
 Alpha virt. eigenvalues --    1.25812   1.29204   1.30148   1.30846   1.32644
 Alpha virt. eigenvalues --    1.33860   1.33888   1.35254   1.36304   1.38312
 Alpha virt. eigenvalues --    1.39424   1.41089   1.42810   1.43189   1.44936
 Alpha virt. eigenvalues --    1.45174   1.46549   1.47418   1.48568   1.49770
 Alpha virt. eigenvalues --    1.51070   1.52822   1.53112   1.55001   1.55035
 Alpha virt. eigenvalues --    1.56629   1.57704   1.58810   1.60165   1.60533
 Alpha virt. eigenvalues --    1.60978   1.62394   1.64393   1.65258   1.67180
 Alpha virt. eigenvalues --    1.68376   1.70084   1.72417   1.73602   1.74595
 Alpha virt. eigenvalues --    1.76360   1.76926   1.77460   1.79608   1.81273
 Alpha virt. eigenvalues --    1.82633   1.83970   1.85139   1.86808   1.89175
 Alpha virt. eigenvalues --    1.90652   1.91568   1.91961   1.93044   1.96453
 Alpha virt. eigenvalues --    1.98431   1.99356   2.02114   2.02600   2.04540
 Alpha virt. eigenvalues --    2.04946   2.06692   2.08360   2.10205   2.13011
 Alpha virt. eigenvalues --    2.14826   2.17589   2.18661   2.23261   2.24270
 Alpha virt. eigenvalues --    2.25641   2.30115   2.32426   2.33169   2.35194
 Alpha virt. eigenvalues --    2.37633   2.40353   2.41304   2.42463   2.46585
 Alpha virt. eigenvalues --    2.48049   2.50489   2.52961   2.54202   2.56152
 Alpha virt. eigenvalues --    2.60996   2.62432   2.65233   2.66262   2.67020
 Alpha virt. eigenvalues --    2.68837   2.72242   2.74026   2.74492   2.76959
 Alpha virt. eigenvalues --    2.77973   2.79271   2.79724   2.80833   2.84062
 Alpha virt. eigenvalues --    2.85876   2.87936   2.88261   2.88827   2.89768
 Alpha virt. eigenvalues --    2.92359   2.92949   2.93624   2.96260   2.97506
 Alpha virt. eigenvalues --    2.99036   3.00481   3.01117   3.02583   3.04953
 Alpha virt. eigenvalues --    3.06811   3.07930   3.10259   3.11827   3.12081
 Alpha virt. eigenvalues --    3.14233   3.15622   3.17448   3.18910   3.19910
 Alpha virt. eigenvalues --    3.21832   3.22343   3.26531   3.27413   3.28970
 Alpha virt. eigenvalues --    3.29272   3.32125   3.32867   3.34981   3.35561
 Alpha virt. eigenvalues --    3.36837   3.38468   3.39872   3.41770   3.43230
 Alpha virt. eigenvalues --    3.45913   3.46325   3.49105   3.50699   3.52619
 Alpha virt. eigenvalues --    3.53089   3.56347   3.57236   3.58205   3.59859
 Alpha virt. eigenvalues --    3.60925   3.63786   3.64780   3.66333   3.67804
 Alpha virt. eigenvalues --    3.69061   3.70338   3.70875   3.73525   3.77885
 Alpha virt. eigenvalues --    3.78611   3.81094   3.81928   3.84365   3.87304
 Alpha virt. eigenvalues --    3.87745   3.88234   3.89065   3.91505   3.92777
 Alpha virt. eigenvalues --    3.96709   3.97293   3.98880   4.02287   4.03795
 Alpha virt. eigenvalues --    4.04403   4.07174   4.08623   4.08767   4.12623
 Alpha virt. eigenvalues --    4.14061   4.16026   4.18802   4.19516   4.21798
 Alpha virt. eigenvalues --    4.23321   4.25335   4.27017   4.27963   4.31062
 Alpha virt. eigenvalues --    4.32416   4.34120   4.34933   4.36307   4.37002
 Alpha virt. eigenvalues --    4.37573   4.38974   4.40884   4.42272   4.43309
 Alpha virt. eigenvalues --    4.44956   4.45734   4.47391   4.47862   4.51008
 Alpha virt. eigenvalues --    4.51632   4.51879   4.54305   4.54409   4.55087
 Alpha virt. eigenvalues --    4.57441   4.57754   4.60486   4.60575   4.63162
 Alpha virt. eigenvalues --    4.63893   4.65379   4.66864   4.68332   4.69032
 Alpha virt. eigenvalues --    4.70909   4.72400   4.73593   4.74027   4.74163
 Alpha virt. eigenvalues --    4.76300   4.76895   4.78235   4.80159   4.80487
 Alpha virt. eigenvalues --    4.82101   4.82932   4.84418   4.85503   4.87302
 Alpha virt. eigenvalues --    4.90414   4.92179   4.95107   4.96332   4.98110
 Alpha virt. eigenvalues --    4.99456   5.02455   5.05263   5.06443   5.09974
 Alpha virt. eigenvalues --    5.12404   5.13806   5.15706   5.18778   5.21013
 Alpha virt. eigenvalues --    5.23910   5.25505   5.26402   5.31297   5.33605
 Alpha virt. eigenvalues --    5.34417   5.37638   5.42310   5.44066   5.46749
 Alpha virt. eigenvalues --    5.49458   5.50694   5.53250   5.54995   5.61014
 Alpha virt. eigenvalues --    5.64699   5.71086   5.74882   5.75321   5.80491
 Alpha virt. eigenvalues --    5.83794   6.06503   6.13970   6.24537   6.45803
 Alpha virt. eigenvalues --   10.06632  10.50643  10.91646  10.94281  11.15800
 Alpha virt. eigenvalues --   11.19691  11.32393  11.40626  11.50461  11.60951
 Alpha virt. eigenvalues --   11.65607  11.89791  12.05670  12.40602  14.83034
 Alpha virt. eigenvalues --   16.99965  18.33900  21.63677
          Condensed to atoms (all electrons):
               1          2          3          4          5          6
     1  C    5.076580   0.404766  -0.044695  -0.005001  -0.000521   0.000879
     2  C    0.404766   4.595806   0.558706  -0.033634  -0.004636   0.006236
     3  C   -0.044695   0.558706   4.833532   0.649129  -0.147762   0.015077
     4  N   -0.005001  -0.033634   0.649129   6.289153   0.441088  -0.044037
     5  C   -0.000521  -0.004636  -0.147762   0.441088   4.728955   0.516668
     6  N    0.000879   0.006236   0.015077  -0.044037   0.516668   6.389634
     7  C    0.000109   0.002649   0.003574   0.000855  -0.132948   0.514378
     8  C   -0.000047  -0.004365  -0.006430   0.006809  -0.030049  -0.054859
     9  C   -0.000148   0.009081  -0.035508  -0.041648   0.501808  -0.087748
    10  N   -0.000004   0.000498   0.009268  -0.006818  -0.035406   0.006002
    11  N    0.000633  -0.036076   0.033108   0.000338  -0.055418   0.000016
    12  C   -0.045288   0.441413  -0.060948  -0.011482   0.002900  -0.002826
    13  C   -0.016977  -0.030899   0.001588  -0.000034  -0.000017   0.000052
    14  S    0.002847   0.003800  -0.000375   0.000002   0.000003  -0.000001
    15  C   -0.014804  -0.012830   0.000548  -0.000004   0.000004  -0.000002
    16  H    0.362637  -0.027550  -0.002283   0.000507   0.000082   0.000722
    17  H    0.372008  -0.019659  -0.002786  -0.000071  -0.000003   0.000008
    18  H    0.374234  -0.013645   0.001314   0.000283   0.000073  -0.000077
    19  H    0.000004   0.000083  -0.000032  -0.000208   0.006563  -0.031818
    20  H    0.003880  -0.031271  -0.004867  -0.000396  -0.000380   0.000053
    21  H    0.000021   0.000059   0.000001  -0.000000  -0.000000   0.000000
    22  H   -0.007496  -0.000449  -0.000010   0.000001  -0.000000   0.000000
    23  H    0.000144   0.000540  -0.000043  -0.000000   0.000000   0.000000
               7          8          9         10         11         12
     1  C    0.000109  -0.000047  -0.000148  -0.000004   0.000633  -0.045288
     2  C    0.002649  -0.004365   0.009081   0.000498  -0.036076   0.441413
     3  C    0.003574  -0.006430  -0.035508   0.009268   0.033108  -0.060948
     4  N    0.000855   0.006809  -0.041648  -0.006818   0.000338  -0.011482
     5  C   -0.132948  -0.030049   0.501808  -0.035406  -0.055418   0.002900
     6  N    0.514378  -0.054859  -0.087748   0.006002   0.000016  -0.002826
     7  C    4.837934   0.510895  -0.027249  -0.006448  -0.023173   0.000722
     8  C    0.510895   4.981825   0.211707  -0.182990   0.471137  -0.008084
     9  C   -0.027249   0.211707   5.317370   0.559495  -0.304217   0.022855
    10  N   -0.006448  -0.182990   0.559495   6.638033   0.193632  -0.016131
    11  N   -0.023173   0.471137  -0.304217   0.193632   6.743829   0.113229
    12  C    0.000722  -0.008084   0.022855  -0.016131   0.113229   5.074199
    13  C   -0.000116  -0.000432  -0.000283   0.000334  -0.006339   0.295056
    14  S    0.000000   0.000011   0.000014  -0.000013   0.000285  -0.006517
    15  C   -0.000000   0.000023   0.000006  -0.000004   0.000137  -0.011975
    16  H    0.000029  -0.000025   0.000008   0.000000   0.000013   0.003663
    17  H    0.000004  -0.000002   0.000003   0.000000  -0.000033   0.000240
    18  H    0.000031   0.000063   0.000028  -0.000002  -0.000004  -0.003555
    19  H    0.363197  -0.048154   0.003300  -0.000626   0.001083   0.000071
    20  H   -0.000014   0.002637  -0.000722   0.002814  -0.027836   0.364142
    21  H    0.000000   0.000000  -0.000000   0.000000  -0.000004  -0.001890
    22  H    0.000000  -0.000000  -0.000000   0.000000  -0.000007  -0.002640
    23  H   -0.000000  -0.000001  -0.000000  -0.000000   0.000005   0.001431
              13         14         15         16         17         18
     1  C   -0.016977   0.002847  -0.014804   0.362637   0.372008   0.374234
     2  C   -0.030899   0.003800  -0.012830  -0.027550  -0.019659  -0.013645
     3  C    0.001588  -0.000375   0.000548  -0.002283  -0.002786   0.001314
     4  N   -0.000034   0.000002  -0.000004   0.000507  -0.000071   0.000283
     5  C   -0.000017   0.000003   0.000004   0.000082  -0.000003   0.000073
     6  N    0.000052  -0.000001  -0.000002   0.000722   0.000008  -0.000077
     7  C   -0.000116   0.000000  -0.000000   0.000029   0.000004   0.000031
     8  C   -0.000432   0.000011   0.000023  -0.000025  -0.000002   0.000063
     9  C   -0.000283   0.000014   0.000006   0.000008   0.000003   0.000028
    10  N    0.000334  -0.000013  -0.000004   0.000000   0.000000  -0.000002
    11  N   -0.006339   0.000285   0.000137   0.000013  -0.000033  -0.000004
    12  C    0.295056  -0.006517  -0.011975   0.003663   0.000240  -0.003555
    13  C    5.385891   0.202586   0.334860   0.001256  -0.002633  -0.001226
    14  S    0.202586  15.565746   0.202217  -0.000237   0.000605   0.001788
    15  C    0.334860   0.202217   5.072781   0.001094  -0.000961  -0.008215
    16  H    0.001256  -0.000237   0.001094   0.597079  -0.037886  -0.029377
    17  H   -0.002633   0.000605  -0.000961  -0.037886   0.594680  -0.036412
    18  H   -0.001226   0.001788  -0.008215  -0.029377  -0.036412   0.559411
    19  H   -0.000001  -0.000000   0.000000   0.000000   0.000000  -0.000001
    20  H   -0.025661  -0.004856   0.001945  -0.000070  -0.000091   0.000003
    21  H   -0.004926   0.110964  -0.022565   0.000000  -0.000022   0.000042
    22  H   -0.016957  -0.048399   0.333253   0.000342  -0.000168   0.000446
    23  H   -0.028686  -0.016124   0.373770  -0.000105  -0.000420  -0.000774
              19         20         21         22         23
     1  C    0.000004   0.003880   0.000021  -0.007496   0.000144
     2  C    0.000083  -0.031271   0.000059  -0.000449   0.000540
     3  C   -0.000032  -0.004867   0.000001  -0.000010  -0.000043
     4  N   -0.000208  -0.000396  -0.000000   0.000001  -0.000000
     5  C    0.006563  -0.000380  -0.000000  -0.000000   0.000000
     6  N   -0.031818   0.000053   0.000000   0.000000   0.000000
     7  C    0.363197  -0.000014   0.000000   0.000000  -0.000000
     8  C   -0.048154   0.002637   0.000000  -0.000000  -0.000001
     9  C    0.003300  -0.000722  -0.000000  -0.000000  -0.000000
    10  N   -0.000626   0.002814   0.000000   0.000000  -0.000000
    11  N    0.001083  -0.027836  -0.000004  -0.000007   0.000005
    12  C    0.000071   0.364142  -0.001890  -0.002640   0.001431
    13  C   -0.000001  -0.025661  -0.004926  -0.016957  -0.028686
    14  S   -0.000000  -0.004856   0.110964  -0.048399  -0.016124
    15  C    0.000000   0.001945  -0.022565   0.333253   0.373770
    16  H    0.000000  -0.000070   0.000000   0.000342  -0.000105
    17  H    0.000000  -0.000091  -0.000022  -0.000168  -0.000420
    18  H   -0.000001   0.000003   0.000042   0.000446  -0.000774
    19  H    0.567419   0.000001  -0.000000  -0.000000   0.000000
    20  H    0.000001   0.540245   0.000566   0.000195  -0.000057
    21  H   -0.000000   0.000566   0.798700   0.016730  -0.001144
    22  H   -0.000000   0.000195   0.016730   0.674430  -0.074473
    23  H    0.000000  -0.000057  -0.001144  -0.074473   0.589187
 Mulliken charges:
               1
     1  C   -0.463759
     2  C    0.191374
     3  C    0.199896
     4  N   -0.244830
     5  C    0.208994
     6  N   -0.228357
     7  C   -0.044428
     8  C    0.150333
     9  C   -0.128150
    10  N   -0.161636
    11  N   -0.104337
    12  C   -0.148584
    13  C   -0.086435
    14  S   -0.014348
    15  C   -0.249279
    16  H    0.130099
    17  H    0.133599
    18  H    0.155570
    19  H    0.139119
    20  H    0.179741
    21  H    0.103467
    22  H    0.125202
    23  H    0.156750
 Sum of Mulliken charges =  -0.00000
 Mulliken charges with hydrogens summed into heavy atoms:
               1
     1  C   -0.044491
     2  C    0.191374
     3  C    0.199896
     4  N   -0.244830
     5  C    0.208994
     6  N   -0.228357
     7  C    0.094691
     8  C    0.150333
     9  C   -0.128150
    10  N   -0.161636
    11  N   -0.104337
    12  C    0.031157
    13  C   -0.086435
    14  S    0.089119
    15  C    0.032673
 Electronic spatial extent (au):  <R**2>=           3388.4666
 Charge=             -0.0000 electrons
 Dipole moment (field-independent basis, Debye):
    X=              5.9229    Y=              2.1343    Z=              1.3202  Tot=              6.4327
 Quadrupole moment (field-independent basis, Debye-Ang):
   XX=            -90.8147   YY=            -96.4429   ZZ=            -92.0299
   XY=              3.0482   XZ=            -11.3306   YZ=             -1.5037
 Traceless Quadrupole moment (field-independent basis, Debye-Ang):
   XX=              2.2812   YY=             -3.3471   ZZ=              1.0659
   XY=              3.0482   XZ=            -11.3306   YZ=             -1.5037
 Octapole moment (field-independent basis, Debye-Ang**2):
  XXX=             92.6853  YYY=             15.8984  ZZZ=             13.5175  XYY=             25.6080
  XXY=             11.2953  XXZ=              4.9623  XZZ=              3.6518  YZZ=             -1.1690
  YYZ=              5.6622  XYZ=             19.7086
 Hexadecapole moment (field-independent basis, Debye-Ang**3):
 XXXX=          -3265.2302 YYYY=           -857.9621 ZZZZ=           -423.7900 XXXY=              2.5287
 XXXZ=           -131.7833 YYYX=            -12.0152 YYYZ=            -10.7792 ZZZX=            -50.6253
 ZZZY=              2.3996 XXYY=           -726.5627 XXZZ=           -603.3912 YYZZ=           -226.9587
 XXYZ=             -0.8647 YYXZ=            -18.9120 ZZXY=              9.0262
 N-N= 1.028766910307D+03 E-N=-4.406799060832D+03  KE= 9.970394040705D+02
 PrsmSu:  requested number of processors reduced to:  13 ShMem   1 Linda.
 Calling FoFJK, ICntrl=      2127 FMM=F ISym2X=0 I1Cent= 0 IOpClX= 0 NMat=1 NMatS=1 NMatT=0.
 ***** Axes restored to original set *****
 -------------------------------------------------------------------
 Center     Atomic                   Forces (Hartrees/Bohr)
 Number     Number              X              Y              Z
 -------------------------------------------------------------------
      1        6          -0.005982235    0.010614899    0.000525298
      2        6          -0.019781870   -0.075038835   -0.018973968
      3        6           0.003045082    0.043658898    0.001080232
      4        7           0.022284475    0.026079700    0.024595895
      5        6           0.032197500   -0.015685810   -0.022304455
      6        7           0.024255974    0.011785985   -0.023144154
      7        6          -0.058320508   -0.005942562   -0.041654726
      8        6          -0.054438313   -0.046053165    0.027764773
      9        6          -0.000257244    0.087187123   -0.017623267
     10        7           0.041059633   -0.020994307    0.088293259
     11        7           0.004785403    0.003055375   -0.049433778
     12        6          -0.060695699   -0.060737799    0.086403199
     13        6          -0.000850057    0.011136981    0.009539648
     14       16           0.005689127   -0.018154428   -0.040229035
     15        6          -0.002752451    0.025955322   -0.018040531
     16        1           0.003486740    0.012231807   -0.003591777
     17        1           0.004065127   -0.000518604   -0.007152127
     18        1           0.011481492    0.006704793    0.004009864
     19        1           0.000086791   -0.000757772    0.007654643
     20        1          -0.000005996    0.011285522   -0.018094652
     21        1           0.003675936    0.012775417    0.021392546
     22        1           0.029618389    0.000922014   -0.003805754
     23        1           0.017352701   -0.019510552   -0.007211134
 -------------------------------------------------------------------
 Cartesian Forces:  Max     0.088293259 RMS     0.030895180

 GradGradGradGradGradGradGradGradGradGradGradGradGradGradGradGradGradGrad
 Berny optimization.
 FormGI is forming the generalized inverse of G from B-inverse, IUseBI=4.
 Internal  Forces:  Max     0.176720524 RMS     0.028789681
 Search for a local minimum.
 Step number   1 out of a maximum of  118
 All quantities printed in internal units (Hartrees-Bohrs-Radians)
 Mixed Optimization -- RFO/linear search
 Second derivative matrix not updated -- first step.
 ITU=  0
     Eigenvalues ---    0.00230   0.00230   0.00383   0.01003   0.01454
     Eigenvalues ---    0.01783   0.02005   0.02381   0.02511   0.02668
     Eigenvalues ---    0.02722   0.03839   0.04143   0.04781   0.05123
     Eigenvalues ---    0.05339   0.06026   0.06236   0.06830   0.08849
     Eigenvalues ---    0.09848   0.10793   0.11257   0.13052   0.14951
     Eigenvalues ---    0.15965   0.16000   0.16000   0.16000   0.16000
     Eigenvalues ---    0.17861   0.19097   0.21403   0.22102   0.22897
     Eigenvalues ---    0.23550   0.23645   0.24103   0.24247   0.24578
     Eigenvalues ---    0.25000   0.25000   0.25713   0.26613   0.27657
     Eigenvalues ---    0.27708   0.29520   0.30883   0.32668   0.33307
     Eigenvalues ---    0.33354   0.33357   0.33503   0.34212   0.35409
     Eigenvalues ---    0.45188   0.46900   0.49149   0.49788   0.59802
     Eigenvalues ---    0.61365   0.77025   0.97774
 RFO step:  Lambda=-2.05975017D-01 EMin= 2.30000000D-03
 Linear search not attempted -- first point.
 Maximum step size (   0.300) exceeded in Quadratic search.
    -- Step size scaled by   0.501
 Iteration  1 RMS(Cart)=  0.24373451 RMS(Int)=  0.01411438
 Iteration  2 RMS(Cart)=  0.05082717 RMS(Int)=  0.00090747
 Iteration  3 RMS(Cart)=  0.00117839 RMS(Int)=  0.00064990
 Iteration  4 RMS(Cart)=  0.00000111 RMS(Int)=  0.00064990
 Iteration  5 RMS(Cart)=  0.00000000 RMS(Int)=  0.00064990
 Variable       Old X    -DE/DX   Delta X   Delta X   Delta X     New X
                                 (Linear)    (Quad)   (Total)
    R1        2.92782  -0.01823   0.00000  -0.01890  -0.01890   2.90892
    R2        2.05016   0.00885   0.00000   0.00792   0.00792   2.05807
    R3        2.08177  -0.00777   0.00000  -0.00719  -0.00719   2.07458
    R4        2.08516  -0.01143   0.00000  -0.01062  -0.01062   2.07454
    R5        2.39560   0.08283   0.00000   0.04250   0.04250   2.43810
    R6        2.88930   0.01107   0.00000   0.01107   0.01107   2.90037
    R7        2.29544   0.03968   0.00000   0.01679   0.01679   2.31223
    R8        2.60080   0.02558   0.00000   0.01820   0.01820   2.61900
    R9        2.48186   0.02038   0.00000   0.01206   0.01229   2.49415
   R10        2.90361  -0.03963   0.00000  -0.04003  -0.03998   2.86362
   R11        2.59289  -0.01347   0.00000  -0.00972  -0.00956   2.58333
   R12        2.56918   0.03078   0.00000   0.02070   0.02065   2.58983
   R13        2.06974  -0.00726   0.00000  -0.00664  -0.00664   2.06310
   R14        2.98135   0.06573   0.00000   0.07162   0.07123   3.05257
   R15        2.57886  -0.01344   0.00000  -0.01287  -0.01299   2.56586
   R16        2.45671   0.05281   0.00000   0.03308   0.03306   2.48977
   R17        2.75464   0.02495   0.00000   0.02229   0.02250   2.77714
   R18        3.21830  -0.04694   0.00000  -0.06114  -0.06114   3.15716
   R19        2.08430  -0.01225   0.00000  -0.01137  -0.01137   2.07292
   R20        3.50623  -0.01014   0.00000  -0.01384  -0.01388   3.49235
   R21        3.01077  -0.05229   0.00000  -0.05809  -0.05810   2.95267
   R22        3.37507   0.00288   0.00000   0.00463   0.00468   3.37975
   R23        2.54930   0.02223   0.00000   0.02404   0.02404   2.57333
   R24        2.12937  -0.01393   0.00000  -0.01355  -0.01355   2.11582
   R25        2.09638  -0.00780   0.00000  -0.00733  -0.00733   2.08905
    A1        1.95470  -0.01143   0.00000  -0.01577  -0.01582   1.93888
    A2        1.95106   0.00234   0.00000   0.00359   0.00361   1.95466
    A3        2.02791  -0.00869   0.00000  -0.01217  -0.01221   2.01569
    A4        1.80703   0.00614   0.00000   0.00895   0.00896   1.81599
    A5        1.80237   0.00950   0.00000   0.01231   0.01221   1.81457
    A6        1.90275   0.00423   0.00000   0.00596   0.00597   1.90872
    A7        2.06566  -0.01856   0.00000  -0.02116  -0.02108   2.04458
    A8        2.14539   0.05635   0.00000   0.06191   0.06186   2.20725
    A9        2.03378  -0.03842   0.00000  -0.04343  -0.04335   1.99043
   A10        2.79561  -0.02053   0.00000  -0.02255  -0.02255   2.77306
   A11        1.85745  -0.04629   0.00000  -0.05085  -0.05085   1.80661
   A12        2.12851   0.00262   0.00000   0.00110   0.00092   2.12943
   A13        2.08088  -0.02688   0.00000  -0.03280  -0.03277   2.04811
   A14        1.99726   0.01970   0.00000   0.02148   0.02136   2.01862
   A15        1.79534   0.01923   0.00000   0.02225   0.02258   1.81792
   A16        1.94604  -0.03525   0.00000  -0.03985  -0.04001   1.90603
   A17        2.12318   0.01663   0.00000   0.01842   0.01845   2.14164
   A18        2.21180   0.01830   0.00000   0.02065   0.02071   2.23251
   A19        1.76107   0.01575   0.00000   0.02189   0.02179   1.78285
   A20        2.42165   0.00917   0.00000   0.01514   0.01517   2.43682
   A21        1.48773  -0.01133   0.00000  -0.01259  -0.01288   1.47485
   A22        1.58051  -0.02636   0.00000  -0.03371  -0.03364   1.54687
   A23        2.25455  -0.02652   0.00000  -0.03971  -0.03970   2.21485
   A24        1.42734   0.00978   0.00000   0.01544   0.01483   1.44217
   A25        1.61807  -0.02137   0.00000  -0.01151  -0.01185   1.60622
   A26        1.47147   0.04522   0.00000   0.04830   0.04817   1.51964
   A27        1.72374   0.17672   0.00000   0.20616   0.20377   1.92751
   A28        2.02980  -0.01263   0.00000   0.00070  -0.00278   2.02702
   A29        1.77944  -0.03992   0.00000  -0.02813  -0.03204   1.74740
   A30        2.38160  -0.01253   0.00000  -0.01763  -0.01761   2.36399
   A31        2.35351   0.00132   0.00000   0.00569   0.00574   2.35925
   A32        2.18173  -0.02403   0.00000  -0.03382  -0.03358   2.14814
   A33        1.71650  -0.00010   0.00000  -0.00039  -0.00060   1.71590
   A34        2.35350  -0.02597   0.00000  -0.03498  -0.03501   2.31849
   A35        2.05442   0.00893   0.00000   0.01251   0.01263   2.06705
   A36        2.05184  -0.01347   0.00000  -0.01776  -0.01789   2.03394
   A37        2.17669  -0.01280   0.00000  -0.02399  -0.02408   2.15260
   A38        1.69308   0.02373   0.00000   0.03614   0.03620   1.72928
    D1        0.31627  -0.00410   0.00000  -0.00831  -0.00842   0.30786
    D2       -2.52085   0.00558   0.00000   0.01019   0.01020  -2.51065
    D3       -1.70267  -0.00600   0.00000  -0.01177  -0.01183  -1.71449
    D4        1.74339   0.00368   0.00000   0.00673   0.00679   1.75018
    D5        2.38149  -0.00663   0.00000  -0.01300  -0.01302   2.36848
    D6       -0.45564   0.00304   0.00000   0.00550   0.00560  -0.45003
    D7       -1.77672   0.00523   0.00000   0.01776   0.01732  -1.75940
    D8        1.07978   0.01252   0.00000   0.01861   0.01905   1.09883
    D9       -0.36491   0.01489   0.00000   0.01852   0.01955  -0.34536
   D10       -2.25086  -0.03541   0.00000  -0.06657  -0.06781  -2.31867
   D11        3.07599   0.02157   0.00000   0.03352   0.03476   3.11076
   D12        1.19004  -0.02873   0.00000  -0.05157  -0.05260   1.13744
   D13       -0.10416   0.03291   0.00000   0.06663   0.06663  -0.03754
   D14        1.24535   0.01932   0.00000   0.04008   0.04036   1.28571
   D15       -1.46304   0.02705   0.00000   0.06266   0.06238  -1.40066
   D16       -2.54456   0.03219   0.00000   0.06091   0.06142  -2.48314
   D17        0.18292   0.01430   0.00000   0.02710   0.02745   0.21037
   D18        2.18629  -0.01794   0.00000  -0.03965  -0.03928   2.14701
   D19        0.79293  -0.01247   0.00000  -0.03724  -0.03733   0.75560
   D20       -0.55336  -0.00773   0.00000  -0.01505  -0.01480  -0.56817
   D21       -1.94672  -0.00225   0.00000  -0.01264  -0.01286  -1.95958
   D22        0.36988  -0.00578   0.00000  -0.01629  -0.01578   0.35410
   D23       -2.70561  -0.00164   0.00000  -0.00491  -0.00462  -2.71023
   D24       -0.73150   0.00355   0.00000   0.00821   0.00819  -0.72331
   D25        0.93089   0.00709   0.00000   0.01871   0.01866   0.94956
   D26        2.33988  -0.00109   0.00000  -0.00417  -0.00401   2.33587
   D27       -2.28091   0.00245   0.00000   0.00634   0.00645  -2.27445
   D28        0.69365   0.01099   0.00000   0.01434   0.01415   0.70780
   D29        2.95490  -0.01227   0.00000  -0.02160  -0.02187   2.93303
   D30       -1.72866   0.00237   0.00000  -0.00071  -0.00088  -1.72954
   D31        0.53260  -0.02089   0.00000  -0.03665  -0.03690   0.49570
   D32       -2.23215   0.00088   0.00000   0.00894   0.00923  -2.22292
   D33       -0.46724   0.01317   0.00000   0.02996   0.02998  -0.43726
   D34        0.97143   0.00758   0.00000   0.01929   0.01868   0.99011
   D35       -0.49412   0.02783   0.00000   0.04140   0.04107  -0.45305
   D36        0.57679  -0.01789   0.00000  -0.03280  -0.03331   0.54348
   D37       -2.02488  -0.03252   0.00000  -0.06510  -0.06602  -2.09090
   D38       -0.37402  -0.02480   0.00000  -0.05375  -0.05464  -0.42865
   D39        0.05899   0.00050   0.00000  -0.00468  -0.00380   0.05520
   D40        1.70986   0.00822   0.00000   0.00667   0.00759   1.71745
   D41        0.97138   0.00077   0.00000   0.00019   0.00013   0.97151
   D42       -0.39770  -0.00201   0.00000  -0.00249  -0.00235  -0.40005
   D43        1.97220   0.02325   0.00000   0.04195   0.04185   2.01405
   D44       -0.02285   0.00081   0.00000  -0.00152  -0.00162  -0.02447
   D45       -2.15106  -0.00849   0.00000  -0.01414  -0.01418  -2.16524
         Item               Value     Threshold  Converged?
 Maximum Force            0.176721     0.000450     NO 
 RMS     Force            0.028790     0.000300     NO 
 Maximum Displacement     0.785077     0.001800     NO 
 RMS     Displacement     0.286633     0.001200     NO 
 Predicted change in Energy=-9.109953D-02
 GradGradGradGradGradGradGradGradGradGradGradGradGradGradGradGradGradGrad

                          Input orientation:                          
 ---------------------------------------------------------------------
 Center     Atomic      Atomic             Coordinates (Angstroms)
 Number     Number       Type             X           Y           Z
 ---------------------------------------------------------------------
      1          6           0        1.073623    0.705187   -0.220776
      2          6           0        2.609308    0.810446   -0.232376
      3          6           0        3.117749    1.994903   -0.288363
      4          7           0        3.641596    2.990614   -0.769284
      5          6           0        3.845719    2.640932   -2.094734
      6          7           0        2.852080    2.570233   -2.960572
      7          6           0        3.166439    1.494400   -3.743231
      8          6           0        4.058308    0.696328   -3.075501
      9          6           0        5.053076    1.781098   -2.409864
     10          7           0        5.473524    0.730139   -1.735625
     11          7           0        4.179830    0.049747   -1.887740
     12          6           0        3.597972   -0.311432   -0.578171
     13          6           0        2.861457   -1.803833   -0.431493
     14         16           0        3.148402   -3.319713    0.585923
     15          6           0        1.649335   -2.366691    0.378018
     16          1           0        0.614823    1.629538   -0.568892
     17          1           0        0.677934    0.577445    0.795255
     18          1           0        0.647908   -0.065335   -0.876687
     19          1           0        2.798113    1.380228   -4.764607
     20          1           0        4.440009   -0.443372    0.112371
     21          1           0        3.205990   -3.301862    1.946337
     22          1           0        1.136985   -2.029518    1.314725
     23          1           0        0.768560   -2.733822   -0.180131
 ---------------------------------------------------------------------
                    Distance matrix (angstroms):
                    1          2          3          4          5
     1  C    0.000000
     2  C    1.539332   0.000000
     3  C    2.417930   1.290188   0.000000
     4  N    3.481167   2.471239   1.223578   0.000000
     5  C    3.865663   2.889250   2.051895   1.385916   0.000000
     6  N    3.761355   3.255586   2.746322   2.366811   1.319845
     7  C    4.172581   3.619985   3.491273   3.362855   2.119787
     8  C    4.130119   3.193115   3.215446   3.279640   2.188283
     9  C    4.667520   3.414033   2.879578   2.479255   1.515365
    10  N    4.653442   3.235729   3.040374   3.065864   2.535712
    11  N    3.585651   2.405292   2.733067   3.192074   2.620823
    12  C    2.744737   1.534810   2.373560   3.307860   3.328332
    13  C    3.088030   2.633948   3.810061   4.869234   4.846759
    14  S    4.599488   4.244815   5.386136   6.473026   6.572782
    15  C    3.182206   3.374660   4.650141   5.829762   6.001241
    16  H    1.089086   2.182229   2.544961   3.324762   3.713462
    17  H    1.097819   2.200119   3.022600   4.129705   4.758664
    18  H    1.097797   2.242592   3.269682   4.279314   4.362742
    19  H    4.906725   4.571806   4.529542   4.389466   3.132902
    20  H    3.572496   2.245523   2.802525   3.634150   3.838935
    21  H    5.029891   4.691897   5.749556   6.867286   7.215006
    22  H    3.136939   3.553400   4.763326   5.984805   6.385511
    23  H    3.452752   3.994110   5.281216   6.431999   6.482483
                    6          7          8          9         10
     6  N    0.000000
     7  C    1.367039   0.000000
     8  C    2.231528   1.370480   0.000000
     9  C    2.402165   2.327974   1.615352   0.000000
    10  N    3.429054   3.152336   1.949165   1.317532   0.000000
    11  N    3.044132   2.560631   1.357797   2.008170   1.469597
    12  C    3.812635   3.669449   2.732059   3.138648   2.437677
    13  C    5.052602   4.683905   3.830670   4.644230   3.865833
    14  S    6.881635   6.474379   5.510221   6.214563   5.215082
    15  C    6.079967   5.847592   5.206922   6.046644   5.355583
    16  H    3.407397   4.074976   4.360225   4.807311   5.077121
    17  H    4.775391   5.256551   5.140411   5.555487   5.424606
    18  H    4.018354   4.122238   4.128649   5.016518   4.965594
    19  H    2.161844   1.091745   2.215602   3.284870   4.093308
    20  H    4.587626   4.499179   3.406926   3.418449   2.420821
    21  H    7.660582   7.441565   6.475402   6.944401   5.912325
    22  H    6.509794   6.489961   5.936198   6.612800   5.977116
    23  H    6.340734   6.026887   5.565208   6.611603   6.046095
                   11         12         13         14         15
    11  N    0.000000
    12  C    1.477829   0.000000
    13  C    2.700837   1.670697   0.000000
    14  S    4.305359   3.256836   1.848071   0.000000
    15  C    4.168482   2.989243   1.562485   1.788485   0.000000
    16  H    4.116354   3.559021   4.105396   5.678706   4.235174
    17  H    4.442994   3.347092   3.455889   4.618969   3.128201
    18  H    3.675587   2.975324   2.849626   4.356911   2.805954
    19  H    3.457699   4.585601   5.377558   7.130240   6.465732
    20  H    2.076368   1.096943   2.153710   3.188391   3.399645
    21  H    5.184766   3.933124   2.831408   1.361750   2.399447
    22  H    4.882420   3.548426   2.464551   2.498310   1.119646
    23  H    4.722388   3.745928   2.303970   2.567830   1.105476
                   16         17         18         19         20
    16  H    0.000000
    17  H    1.723886   0.000000
    18  H    1.722912   1.791497   0.000000
    19  H    4.736341   6.004306   4.672146   0.000000
    20  H    4.403762   3.957474   3.937153   5.459511   0.000000
    21  H    6.112220   4.771276   4.998836   8.192991   3.613474
    22  H    4.148416   2.697560   2.983202   7.165472   3.856355
    23  H    4.383341   3.453126   2.760538   6.485515   4.337194
                   21         22         23
    21  H    0.000000
    22  H    2.509697   0.000000
    23  H    3.284144   1.693037   0.000000
 Stoichiometry    C10H8N4S
 Framework group  C1[X(C10H8N4S)]
 Deg. of freedom    63
 Full point group                 C1      NOp   1
 Largest Abelian subgroup         C1      NOp   1
 Largest concise Abelian subgroup C1      NOp   1
                         Standard orientation:                         
 ---------------------------------------------------------------------
 Center     Atomic      Atomic             Coordinates (Angstroms)
 Number     Number       Type             X           Y           Z
 ---------------------------------------------------------------------
      1          6           0        0.427426    2.328296    0.368854
      2          6           0        0.020677    1.125481   -0.501396
      3          6           0       -1.107939    1.202641   -1.121764
      4          7           0       -2.293158    1.016987   -1.362451
      5          6           0       -2.702717    0.174000   -0.341473
      6          7           0       -2.873846    0.604047    0.894556
      7          6           0       -2.423175   -0.425861    1.672360
      8          6           0       -1.598918   -1.227148    0.926201
      9          6           0       -2.381852   -1.300049   -0.484849
     10          7           0       -1.245552   -1.826116   -0.894682
     11          7           0       -0.485624   -1.132537    0.154685
     12          6           0        0.591317   -0.296739   -0.415947
     13          6           0        2.070912   -0.286049    0.359882
     14         16           0        3.797313   -0.768252   -0.089994
     15          6           0        3.195910    0.774375    0.586242
     16          1           0       -0.431486    2.960395    0.589826
     17          1           0        1.123256    2.997410   -0.153939
     18          1           0        0.834912    2.079847    1.357483
     19          1           0       -2.762616   -0.582783    2.698061
     20          1           0        0.876274   -0.761132   -1.368009
     21          1           0        4.450497   -0.266511   -1.174415
     22          1           0        3.484396    1.707072    0.038101
     23          1           0        3.405181    1.107380    1.619388
 ---------------------------------------------------------------------
 Rotational constants (GHZ):           1.2100877           0.3824885           0.3462708
 Standard basis: 6-31G(2df,p) (6D, 7F)
 There are   509 symmetry adapted cartesian basis functions of A   symmetry.
 There are   464 symmetry adapted basis functions of A   symmetry.
   464 basis functions,   740 primitive gaussians,   509 cartesian basis functions
    56 alpha electrons       56 beta electrons
       nuclear repulsion energy      1043.2904624041 Hartrees.
 NAtoms=   23 NActive=   23 NUniq=   23 SFac= 1.00D+00 NAtFMM=   60 NAOKFM=F Big=F
 Integral buffers will be    131072 words long.
 Raffenetti 2 integral format.
 Two-electron integral symmetry is turned on.
 One-electron integrals computed using PRISM.
 PrsmSu:  requested number of processors reduced to:  12 ShMem   1 Linda.
 NBasis=   464 RedAO= T EigKep=  1.77D-04  NBF=   464
 NBsUse=   464 1.00D-06 EigRej= -1.00D+00 NBFU=   464
 Initial guess from the checkpoint file:  "CC1dCdNC2dNCdC3C2dNN3C1C1d[SH]C1.chk"
 B after Tr=     0.000000   -0.000000    0.000000
         Rot=    0.998859   -0.000477   -0.003849   -0.047607 Ang=  -5.48 deg.
 ExpMin= 1.17D-01 ExpMax= 2.19D+04 ExpMxC= 3.30D+03 IAcc=2 IRadAn=         4 AccDes= 0.00D+00
 Harris functional with IExCor=  402 and IRadAn=       4 diagonalized for initial guess.
 HarFok:  IExCor=  402 AccDes= 0.00D+00 IRadAn=         4 IDoV= 1 UseB2=F ITyADJ=14
 ICtDFT=  3500011 ScaDFX=  1.000000  1.000000  1.000000  1.000000
 FoFCou: FMM=F IPFlag=           0 FMFlag=      100000 FMFlg1=           0
         NFxFlg=           0 DoJE=T BraDBF=F KetDBF=T FulRan=T
         wScrn=  0.000000 ICntrl=       500 IOpCl=  0 I1Cent=   200000004 NGrid=           0
         NMat0=    1 NMatS0=      1 NMatT0=    0 NMatD0=    1 NMtDS0=    0 NMtDT0=    0
 Petite list used in FoFCou.
 Requested convergence on RMS density matrix=1.00D-08 within 128 cycles.
 Requested convergence on MAX density matrix=1.00D-06.
 Requested convergence on             energy=1.00D-06.
 No special actions if energy rises.
 Integral accuracy reduced to 1.0D-05 until final iterations.
 Initial convergence to 1.0D-05 achieved.  Increase integral accuracy.
 SCF Done:  E(RB3LYP) =  -1002.48503412     A.U. after   18 cycles
            NFock= 18  Conv=0.90D-08     -V/T= 2.0056
 PrsmSu:  requested number of processors reduced to:  13 ShMem   1 Linda.
 Calling FoFJK, ICntrl=      2127 FMM=F ISym2X=0 I1Cent= 0 IOpClX= 0 NMat=1 NMatS=1 NMatT=0.
 ***** Axes restored to original set *****
 -------------------------------------------------------------------
 Center     Atomic                   Forces (Hartrees/Bohr)
 Number     Number              X              Y              Z
 -------------------------------------------------------------------
      1        6          -0.000106398    0.000164637    0.004965523
      2        6          -0.023902225   -0.028227880    0.005007394
      3        6           0.000521343    0.006342010    0.000669402
      4        7           0.014515265    0.030734213    0.022023926
      5        6           0.034593743   -0.035233589   -0.026404998
      6        7           0.010857525    0.021861362   -0.040659605
      7        6          -0.053573184    0.008726031   -0.000714642
      8        6          -0.035470296   -0.002505693    0.013496231
      9        6          -0.005476786    0.039788063   -0.028084609
     10        7           0.001622771   -0.004539613    0.078983239
     11        7           0.062887362   -0.035973354   -0.022948392
     12        6          -0.042134137   -0.054464456    0.031188843
     13        6          -0.018086377    0.005756272    0.002445501
     14       16           0.013198290   -0.002628016   -0.033963166
     15        6          -0.010602923    0.036775346   -0.014125244
     16        1           0.004258893    0.006903789   -0.002098869
     17        1           0.001701562   -0.006302904   -0.001482595
     18        1           0.008695965   -0.002542163    0.003748048
     19        1          -0.001816647   -0.000753481    0.006326452
     20        1           0.001298722    0.012669243   -0.009326311
     21        1          -0.002653325    0.008744407    0.017615477
     22        1           0.021702335    0.008930846    0.000346054
     23        1           0.017968520   -0.014225068   -0.007007658
 -------------------------------------------------------------------
 Cartesian Forces:  Max     0.078983239 RMS     0.023596440

 GradGradGradGradGradGradGradGradGradGradGradGradGradGradGradGradGradGrad
 Berny optimization.
 Using GEDIIS/GDIIS optimizer.
 FormGI is forming the generalized inverse of G from B-inverse, IUseBI=4.
 Internal  Forces:  Max     0.073415972 RMS     0.021085171
 Search for a local minimum.
 Step number   2 out of a maximum of  118
 All quantities printed in internal units (Hartrees-Bohrs-Radians)
 Mixed Optimization -- RFO/linear search
 Update second derivatives using D2CorX and points    1    2
 DE= -8.69D-02 DEPred=-9.11D-02 R= 9.53D-01
 TightC=F SS=  1.41D+00  RLast= 3.65D-01 DXNew= 5.0454D-01 1.0943D+00
 Trust test= 9.53D-01 RLast= 3.65D-01 DXMaxT set to 5.05D-01
 ITU=  1  0
 Use linear search instead of GDIIS.
     Eigenvalues ---    0.00230   0.00235   0.00386   0.00944   0.01432
     Eigenvalues ---    0.01787   0.01877   0.02420   0.02431   0.02575
     Eigenvalues ---    0.02643   0.03490   0.03910   0.04452   0.04895
     Eigenvalues ---    0.05440   0.06117   0.06435   0.06925   0.08716
     Eigenvalues ---    0.10888   0.11160   0.11552   0.12669   0.15385
     Eigenvalues ---    0.15923   0.15949   0.16000   0.16000   0.16008
     Eigenvalues ---    0.17244   0.19119   0.20988   0.21516   0.22329
     Eigenvalues ---    0.23063   0.23609   0.24270   0.24282   0.24519
     Eigenvalues ---    0.24998   0.25688   0.26540   0.27397   0.27698
     Eigenvalues ---    0.29439   0.30859   0.32656   0.33072   0.33315
     Eigenvalues ---    0.33350   0.33503   0.34203   0.35396   0.44507
     Eigenvalues ---    0.47001   0.48401   0.49604   0.58278   0.61201
     Eigenvalues ---    0.73002   0.97057   1.14488
 RFO step:  Lambda=-1.45658908D-01 EMin= 2.29985274D-03
 Quartic linear search produced a step of  0.12367.
 Maximum step size (   0.505) exceeded in Quadratic search.
    -- Step size scaled by   0.863
 Iteration  1 RMS(Cart)=  0.36102325 RMS(Int)=  0.03775614
 Iteration  2 RMS(Cart)=  0.31300029 RMS(Int)=  0.01841811
 Iteration  3 RMS(Cart)=  0.03113295 RMS(Int)=  0.00146295
 Iteration  4 RMS(Cart)=  0.00047102 RMS(Int)=  0.00145066
 Iteration  5 RMS(Cart)=  0.00000042 RMS(Int)=  0.00145066
 Variable       Old X    -DE/DX   Delta X   Delta X   Delta X     New X
                                 (Linear)    (Quad)   (Total)
    R1        2.90892  -0.01436  -0.00234  -0.04223  -0.04456   2.86435
    R2        2.05807   0.00474   0.00098   0.01544   0.01642   2.07449
    R3        2.07458  -0.00125  -0.00089  -0.00972  -0.01061   2.06397
    R4        2.07454  -0.00383  -0.00131  -0.01716  -0.01847   2.05607
    R5        2.43810   0.03729   0.00526   0.08930   0.09456   2.53266
    R6        2.90037  -0.01069   0.00137  -0.00511  -0.00374   2.89663
    R7        2.31223   0.02924   0.00208   0.04326   0.04534   2.35757
    R8        2.61900   0.02332   0.00225   0.04820   0.05045   2.66945
    R9        2.49415   0.01719   0.00152   0.02826   0.03148   2.52563
   R10        2.86362  -0.02330  -0.00494  -0.07970  -0.08430   2.77932
   R11        2.58333  -0.00887  -0.00118  -0.02274  -0.02252   2.56080
   R12        2.58983   0.04461   0.00255   0.07674   0.07880   2.66863
   R13        2.06310  -0.00523  -0.00082  -0.01473  -0.01555   2.04755
   R14        3.05257   0.02294   0.00881   0.11205   0.11688   3.16946
   R15        2.56586   0.02104  -0.00161   0.00783   0.00675   2.57261
   R16        2.48977   0.04117   0.00409   0.07969   0.08367   2.57344
   R17        2.77714  -0.00878   0.00278   0.01077   0.01500   2.79214
   R18        3.15716  -0.05126  -0.00756  -0.15439  -0.16195   2.99521
   R19        2.07292  -0.00640  -0.00141  -0.02166  -0.02307   2.04985
   R20        3.49235  -0.02049  -0.00172  -0.04964  -0.05099   3.44136
   R21        2.95267  -0.05214  -0.00719  -0.14435  -0.15139   2.80128
   R22        3.37975   0.01492   0.00058   0.02703   0.02712   3.40687
   R23        2.57333   0.01760   0.00297   0.05307   0.05605   2.62938
   R24        2.11582  -0.00695  -0.00168  -0.02485  -0.02653   2.08930
   R25        2.08905  -0.00605  -0.00091  -0.01677  -0.01767   2.07137
    A1        1.93888  -0.00585  -0.00196  -0.02189  -0.02400   1.91488
    A2        1.95466   0.00185   0.00045   0.00551   0.00591   1.96057
    A3        2.01569  -0.01020  -0.00151  -0.03236  -0.03412   1.98157
    A4        1.81599   0.00605   0.00111   0.02182   0.02299   1.83898
    A5        1.81457   0.00924   0.00151   0.03096   0.03213   1.84670
    A6        1.90872   0.00099   0.00074   0.00293   0.00353   1.91225
    A7        2.04458   0.01090  -0.00261  -0.00144  -0.00410   2.04048
    A8        2.20725  -0.00835   0.00765   0.04275   0.05007   2.25733
    A9        1.99043  -0.00545  -0.00536  -0.05099  -0.05631   1.93412
   A10        2.77306  -0.04690  -0.00279  -0.10253  -0.10532   2.66774
   A11        1.80661  -0.07057  -0.00629  -0.17031  -0.17660   1.63001
   A12        2.12943  -0.00470   0.00011  -0.00519  -0.00476   2.12467
   A13        2.04811  -0.02255  -0.00405  -0.06626  -0.06921   1.97890
   A14        2.01862   0.02642   0.00264   0.06871   0.07032   2.08895
   A15        1.81792  -0.00885   0.00279   0.00247   0.00611   1.82403
   A16        1.90603  -0.00186  -0.00495  -0.02616  -0.03345   1.87258
   A17        2.14164  -0.00050   0.00228   0.00795   0.01038   2.15202
   A18        2.23251   0.00123   0.00256   0.01371   0.01674   2.24925
   A19        1.78285   0.00202   0.00269   0.02406   0.02685   1.80970
   A20        2.43682   0.02792   0.00188   0.07971   0.08078   2.51759
   A21        1.47485  -0.00701  -0.00159  -0.02566  -0.02954   1.44531
   A22        1.54687  -0.01112  -0.00416  -0.04979  -0.05385   1.49302
   A23        2.21485   0.00486  -0.00491  -0.01354  -0.01755   2.19730
   A24        1.44217   0.00931   0.00183   0.03907   0.03816   1.48033
   A25        1.60622  -0.00345  -0.00147  -0.01518  -0.02121   1.58501
   A26        1.51964   0.02691   0.00596   0.10125   0.10548   1.62511
   A27        1.92751   0.02545   0.02520   0.22570   0.24849   2.17599
   A28        2.02702  -0.00801  -0.00034  -0.04432  -0.05056   1.97646
   A29        1.74740   0.00908  -0.00396  -0.02590  -0.03296   1.71444
   A30        2.36399  -0.01110  -0.00218  -0.03548  -0.03822   2.32577
   A31        2.35925  -0.01995   0.00071  -0.03765  -0.03754   2.32171
   A32        2.14814  -0.01917  -0.00415  -0.06156  -0.06523   2.08291
   A33        1.71590  -0.00989  -0.00007  -0.02225  -0.02342   1.69248
   A34        2.31849  -0.01710  -0.00433  -0.06787  -0.07169   2.24680
   A35        2.06705   0.00315   0.00156   0.01657   0.01794   2.08499
   A36        2.03394  -0.00475  -0.00221  -0.02511  -0.02815   2.00579
   A37        2.15260  -0.01262  -0.00298  -0.04169  -0.04420   2.10840
   A38        1.72928   0.02024   0.00448   0.07202   0.07685   1.80613
    D1        0.30786  -0.00511  -0.00104  -0.02071  -0.02216   0.28570
    D2       -2.51065   0.00667   0.00126   0.02642   0.02777  -2.48288
    D3       -1.71449  -0.01008  -0.00146  -0.03742  -0.03906  -1.75356
    D4        1.75018   0.00169   0.00084   0.00970   0.01086   1.76105
    D5        2.36848  -0.00445  -0.00161  -0.01898  -0.02075   2.34773
    D6       -0.45003   0.00732   0.00069   0.02815   0.02918  -0.42086
    D7       -1.75940  -0.02595   0.00214  -0.10607  -0.10493  -1.86433
    D8        1.09883  -0.03728   0.00236  -0.13124  -0.12788   0.97095
    D9       -0.34536   0.01153   0.00242   0.05438   0.05618  -0.28918
   D10       -2.31867  -0.01271  -0.00839  -0.04166  -0.04946  -2.36813
   D11        3.11076   0.02036   0.00430   0.09301   0.09672  -3.07571
   D12        1.13744  -0.00388  -0.00650  -0.00303  -0.00891   1.12854
   D13       -0.03754  -0.07342   0.00824  -0.27051  -0.26227  -0.29981
   D14        1.28571  -0.03438   0.00499  -0.15997  -0.15443   1.13127
   D15       -1.40066  -0.03887   0.00771  -0.17005  -0.16288  -1.56354
   D16       -2.48314   0.02723   0.00760   0.10205   0.11156  -2.37158
   D17        0.21037   0.01994   0.00339   0.07961   0.08559   0.29595
   D18        2.14701  -0.01551  -0.00486  -0.04532  -0.05089   2.09611
   D19        0.75560  -0.01794  -0.00462  -0.05855  -0.06121   0.69439
   D20       -0.56817  -0.01258  -0.00183  -0.03820  -0.04057  -0.60873
   D21       -1.95958  -0.01500  -0.00159  -0.05143  -0.05088  -2.01046
   D22        0.35410  -0.01941  -0.00195  -0.07148  -0.07085   0.28324
   D23       -2.71023  -0.00504  -0.00057  -0.01437  -0.01330  -2.72353
   D24       -0.72331   0.01592   0.00101   0.05953   0.06102  -0.66229
   D25        0.94956   0.01668   0.00231   0.07480   0.07706   1.02662
   D26        2.33587   0.00047  -0.00050  -0.00188  -0.00136   2.33450
   D27       -2.27445   0.00124   0.00080   0.01340   0.01468  -2.25978
   D28        0.70780  -0.00938   0.00175  -0.01783  -0.01712   0.69068
   D29        2.93303  -0.00363  -0.00270  -0.02762  -0.03108   2.90195
[...]
     Eigenvalues ---    0.11517   0.12317   0.13977   0.15013   0.15360
     Eigenvalues ---    0.15838   0.15987   0.16198   0.16281   0.18374
     Eigenvalues ---    0.18712   0.19235   0.21501   0.23033   0.24589
     Eigenvalues ---    0.25053   0.25422   0.26898   0.27742   0.28144
     Eigenvalues ---    0.30597   0.31109   0.31850   0.32791   0.33115
     Eigenvalues ---    0.33388   0.33486   0.34263   0.35395   0.36142
     Eigenvalues ---    0.40911   0.44256   0.45466   0.47881   0.49217
     Eigenvalues ---    0.52865   0.56603   0.63094   0.77072   0.98614
     Eigenvalues ---    1.57357   4.77712  20.45583
 RFO step:  Lambda=-4.09886764D-05 EMin= 1.70655167D-03
 Quartic linear search produced a step of  1.98697.
 Iteration  1 RMS(Cart)=  0.00806179 RMS(Int)=  0.00011683
 Iteration  2 RMS(Cart)=  0.00048377 RMS(Int)=  0.00000638
 Iteration  3 RMS(Cart)=  0.00000068 RMS(Int)=  0.00000638
 Variable       Old X    -DE/DX   Delta X   Delta X   Delta X     New X
                                 (Linear)    (Quad)   (Total)
    R1        2.85571   0.00015  -0.00041   0.00050   0.00009   2.85580
    R2        2.06479  -0.00008  -0.00001  -0.00011  -0.00012   2.06467
    R3        2.07351   0.00012  -0.00007   0.00011   0.00004   2.07355
    R4        2.06678   0.00001  -0.00005  -0.00002  -0.00007   2.06671
    R5        2.49539  -0.00269   0.00120  -0.00113   0.00007   2.49546
    R6        2.95608   0.00025   0.00409   0.00055   0.00464   2.96073
    R7        2.35466  -0.00017   0.00152   0.00086   0.00237   2.35704
    R8        2.73615  -0.00092  -0.00081  -0.00004  -0.00085   2.73530
    R9        2.68827   0.00084   0.00111   0.00110   0.00220   2.69047
   R10        2.61244   0.00035  -0.00058   0.00093   0.00036   2.61280
   R11        2.47540   0.00009   0.00009  -0.00005   0.00003   2.47543
   R12        2.76499   0.00034  -0.00017   0.00005  -0.00012   2.76488
   R13        2.05176   0.00001  -0.00007   0.00002  -0.00006   2.05171
   R14        2.80360   0.00011  -0.00271  -0.00217  -0.00486   2.79874
   R15        2.65582   0.00128   0.00032   0.00137   0.00169   2.65751
   R16        2.65965  -0.00089   0.00057  -0.00242  -0.00184   2.65780
   R17        2.61778  -0.00017   0.00234   0.00140   0.00373   2.62151
   R18        2.84610  -0.00030   0.00017   0.00007   0.00025   2.84635
   R19        2.08371   0.00005   0.00030   0.00002   0.00032   2.08404
   R20        3.42979  -0.00107  -0.00206  -0.00235  -0.00442   3.42538
   R21        2.72758   0.00036  -0.00060   0.00080   0.00020   2.72778
   R22        3.61982  -0.00069  -0.00510  -0.00261  -0.00771   3.61210
   R23        2.61196   0.00041   0.00037   0.00086   0.00123   2.61319
   R24        2.08144   0.00013  -0.00044   0.00022  -0.00022   2.08123
   R25        2.05252   0.00002  -0.00011   0.00003  -0.00008   2.05244
    A1        1.92684   0.00019  -0.00040   0.00079   0.00039   1.92723
    A2        1.94709  -0.00014  -0.00123  -0.00056  -0.00179   1.94530
    A3        1.93173   0.00006   0.00053  -0.00006   0.00047   1.93220
    A4        1.87646  -0.00005   0.00002  -0.00018  -0.00017   1.87629
    A5        1.89943  -0.00003   0.00118   0.00038   0.00156   1.90099
    A6        1.88043  -0.00004  -0.00005  -0.00037  -0.00043   1.88001
    A7        2.09656   0.00257  -0.00284   0.00151  -0.00133   2.09523
    A8        2.12638  -0.00061  -0.00012  -0.00299  -0.00311   2.12327
    A9        2.04589  -0.00205   0.00245   0.00130   0.00374   2.04964
   A10        2.86082  -0.00671  -0.00172  -0.00033  -0.00205   2.85877
   A11        1.76517  -0.00801  -0.00461  -0.00174  -0.00635   1.75881
   A12        2.05650   0.00132   0.00024   0.00018   0.00041   2.05691
   A13        2.03874  -0.00235   0.00064   0.00078   0.00142   2.04016
   A14        2.03585   0.00016   0.00077  -0.00107  -0.00030   2.03555
   A15        1.74999  -0.00029  -0.00108   0.00025  -0.00083   1.74916
   A16        1.92817   0.00032  -0.00044   0.00024  -0.00020   1.92797
   A17        2.12709  -0.00010   0.00050   0.00002   0.00052   2.12760
   A18        2.21583  -0.00017   0.00005  -0.00029  -0.00024   2.21559
   A19        1.88383   0.00001   0.00163   0.00017   0.00179   1.88562
   A20        2.36824  -0.00005   0.00190   0.00283   0.00473   2.37297
   A21        1.44615   0.00014   0.00081   0.00052   0.00132   1.44747
   A22        1.64751  -0.00004   0.00003   0.00117   0.00119   1.64870
   A23        2.12305  -0.00010   0.00432   0.00321   0.00752   2.13057
   A24        1.61832  -0.00016   0.00132   0.00095   0.00226   1.62058
   A25        1.50869   0.00099  -0.00103   0.00061  -0.00042   1.50826
   A26        1.69599  -0.00097  -0.00064  -0.00206  -0.00269   1.69329
   A27        1.90994   0.00011  -0.00163   0.00152  -0.00011   1.90983
   A28        1.93465   0.00012  -0.00000   0.00106   0.00105   1.93571
   A29        1.99275  -0.00026  -0.00039  -0.00015  -0.00054   1.99221
   A30        2.01180  -0.00002  -0.00115   0.00089  -0.00026   2.01154
   A31        2.05754  -0.00005  -0.00134  -0.00036  -0.00169   2.05585
   A32        1.88691  -0.00012   0.00285   0.00038   0.00323   1.89014
   A33        1.56636  -0.00020   0.00211  -0.00049   0.00162   1.56799
   A34        2.14680  -0.00013  -0.00022  -0.00051  -0.00073   2.14607
   A35        2.10363   0.00032  -0.00072   0.00096   0.00023   2.10386
   A36        1.99082  -0.00015   0.00056  -0.00184  -0.00127   1.98955
   A37        1.87820   0.00036   0.00257   0.00228   0.00484   1.88304
   A38        1.99171  -0.00015  -0.00035  -0.00042  -0.00078   1.99093
    D1        0.04631  -0.00046  -0.00310   0.00091  -0.00218   0.04412
    D2       -2.90905   0.00033  -0.00002   0.00189   0.00186  -2.90718
    D3       -2.03906  -0.00043  -0.00205   0.00098  -0.00107  -2.04013
    D4        1.28877   0.00035   0.00103   0.00196   0.00298   1.29175
    D5        2.15048  -0.00033  -0.00153   0.00186   0.00034   2.15082
    D6       -0.80487   0.00046   0.00155   0.00284   0.00439  -0.80049
    D7       -1.99474  -0.00111   0.05382   0.01311   0.06693  -1.92781
    D8        0.96901  -0.00173   0.05064   0.01172   0.06236   1.03137
    D9        0.26290  -0.00008  -0.00316  -0.00308  -0.00625   0.25665
   D10       -1.95021   0.00008  -0.00144  -0.00478  -0.00623  -1.95644
   D11       -2.69760   0.00022   0.00036  -0.00217  -0.00181  -2.69941
   D12        1.37248   0.00038   0.00208  -0.00387  -0.00179   1.37069
   D13        0.01615  -0.00288  -0.05252  -0.01207  -0.06459  -0.04843
   D14        1.30928   0.00031   0.01195   0.00408   0.01604   1.32532
   D15       -1.24962   0.00178   0.00886   0.00463   0.01348  -1.23614
   D16       -1.99445   0.00185  -0.00253  -0.00185  -0.00439  -1.99884
   D17        0.56541  -0.00044   0.00051  -0.00178  -0.00127   0.56413
   D18        1.99323  -0.00090   0.00498   0.00113   0.00611   1.99934
   D19        0.31891  -0.00067   0.00279  -0.00118   0.00160   0.32052
   D20       -0.57263   0.00014   0.00211   0.00126   0.00337  -0.56926
   D21       -2.24694   0.00037  -0.00008  -0.00105  -0.00115  -2.24809
   D22       -0.24945   0.00048  -0.00300   0.00070  -0.00229  -0.25174
   D23        3.04779   0.00017  -0.00365   0.00090  -0.00274   3.04506
   D24       -0.07049  -0.00039   0.00477  -0.00032   0.00445  -0.06605
   D25        1.64532  -0.00019   0.00866   0.00200   0.01067   1.65599
   D26        2.90559  -0.00004   0.00551  -0.00049   0.00501   2.91060
   D27       -1.66178   0.00015   0.00940   0.00182   0.01123  -1.65055
   D28        0.35669   0.00012  -0.00376  -0.00022  -0.00398   0.35272
   D29        2.48657   0.00000   0.00076   0.00325   0.00401   2.49058
   D30       -2.01424   0.00013  -0.00630  -0.00343  -0.00973  -2.02397
   D31        0.11564   0.00000  -0.00178   0.00004  -0.00174   0.11389
   D32       -2.01054  -0.00010  -0.00167  -0.00122  -0.00290  -2.01345
   D33       -0.11829   0.00004   0.00192   0.00016   0.00208  -0.11621
   D34        1.57388  -0.00022   0.00326   0.00232   0.00560   1.57948
   D35       -0.11664  -0.00006   0.00187  -0.00005   0.00183  -0.11481
   D36        0.12399  -0.00000  -0.00215  -0.00015  -0.00229   0.12171
   D37       -3.02665   0.00004   0.00072  -0.00020   0.00051  -3.02614
   D38       -1.61463  -0.00004  -0.00200  -0.00058  -0.00258  -1.61721
   D39       -0.84689   0.00010  -0.00088   0.00230   0.00142  -0.84547
   D40        0.56514   0.00002  -0.00359   0.00192  -0.00167   0.56346
   D41        0.72955  -0.00011  -0.00231  -0.00013  -0.00244   0.72711
   D42       -0.11224  -0.00025   0.00284  -0.00311  -0.00028  -0.11252
   D43        2.70743  -0.00012  -0.00218  -0.00309  -0.00526   2.70216
   D44       -0.00392   0.00007   0.00183   0.00074   0.00258  -0.00134
   D45       -2.23238   0.00008  -0.00020   0.00083   0.00063  -2.23175
         Item               Value     Threshold  Converged?
 Maximum Force            0.008007     0.000450     NO 
 RMS     Force            0.001242     0.000300     NO 
 Maximum Displacement     0.022530     0.001800     NO 
 RMS     Displacement     0.007945     0.001200     NO 
 Predicted change in Energy=-4.590139D-05
 GradGradGradGradGradGradGradGradGradGradGradGradGradGradGradGradGradGrad

                          Input orientation:                          
 ---------------------------------------------------------------------
 Center     Atomic      Atomic             Coordinates (Angstroms)
 Number     Number       Type             X           Y           Z
 ---------------------------------------------------------------------
      1          6           0        0.882265    0.963134   -0.352268
      2          6           0        2.392393    1.015421   -0.328306
      3          6           0        3.017459    2.162390   -0.522149
      4          7           0        3.698622    3.088348   -1.006246
      5          6           0        4.162592    2.471343   -2.230653
      6          7           0        3.238200    2.351382   -3.306819
      7          6           0        3.132028    1.047678   -3.377769
      8          6           0        4.206432    0.404979   -2.620610
      9          6           0        5.103280    1.465648   -2.106716
     10          7           0        5.320016    0.791392   -0.891601
     11          7           0        4.358612   -0.111567   -1.321503
     12          6           0        3.260393   -0.288908   -0.329329
     13          6           0        2.399865   -1.462976   -0.716316
     14         16           0        3.200107   -3.084236   -0.586853
     15          6           0        1.773469   -2.216640    0.343520
     16          1           0        0.470358    1.947823   -0.585591
     17          1           0        0.475740    0.657263    0.619942
     18          1           0        0.531977    0.245987   -1.099982
     19          1           0        2.426170    0.565050   -4.046808
     20          1           0        3.786206   -0.412486    0.632165
     21          1           0        3.940175   -3.111068    0.580975
     22          1           0        1.979298   -2.035384    1.410162
     23          1           0        0.863082   -2.778913    0.157335
 ---------------------------------------------------------------------
                    Distance matrix (angstroms):
                    1          2          3          4          5
     1  C    0.000000
     2  C    1.511223   0.000000
     3  C    2.454817   1.320538   0.000000
     4  N    3.588327   2.542216   1.247289   0.000000
     5  C    4.069836   2.978630   2.079848   1.447458   0.000000
     6  N    4.025796   3.372199   2.799792   2.459216   1.423736
     7  C    3.771238   3.138045   3.067617   3.179541   2.098751
     8  C    4.062880   2.986308   2.984240   3.172461   2.103294
     9  C    4.598649   3.273279   2.710526   2.411898   1.382633
    10  N    4.473702   2.989726   2.705162   2.813906   2.440271
    11  N    3.765552   2.474380   2.758358   3.282442   2.745250
    12  C    2.687681   1.566748   2.470842   3.472193   3.471020
    13  C    2.884728   2.508598   3.682717   4.741875   4.569386
    14  S    4.669971   4.186459   5.250204   6.206868   5.873067
    15  C    3.374808   3.358666   4.633876   5.802670   5.857598
    16  H    1.092575   2.151695   2.556910   3.449556   4.075892
    17  H    1.097275   2.168181   3.167036   4.352198   5.000965
    18  H    1.093653   2.156075   3.191256   4.256224   4.405904
    19  H    4.023896   3.745829   3.914631   4.151046   3.153970
    20  H    3.360701   2.214529   2.924620   3.866251   4.080914
    21  H    5.178888   4.500037   5.466045   6.403934   6.254441
    22  H    3.647019   3.535580   4.736339   5.920112   6.191356
    23  H    3.776636   4.119661   5.433187   6.619589   6.644881
                    6          7          8          9         10
     6  N    0.000000
     7  C    1.309943   0.000000
     8  C    2.279658   1.463111   0.000000
     9  C    2.388157   2.382458   1.481027   0.000000
    10  N    3.549761   3.321747   2.092571   1.406450   0.000000
    11  N    3.356028   2.660185   1.406292   1.912772   1.387244
    12  C    3.979583   3.331055   2.574187   3.103837   2.392748
    13  C    4.686453   3.731323   3.221688   4.221196   3.693261
    14  S    6.078291   4.986638   4.162149   5.160765   4.428022
    15  C    6.028038   5.133171   4.645241   5.536293   4.811629
    16  H    3.902422   3.961188   4.525475   4.900029   4.995013
    17  H    5.091236   4.815598   4.948018   5.431599   5.076392
    18  H    4.077556   3.548420   3.979850   4.837137   4.823505
    19  H    2.097131   1.085716   2.286699   3.426652   4.287295
    20  H    4.843023   4.317360   3.380145   3.572609   2.474622
    21  H    6.741370   5.798268   4.762733   5.433491   4.393362
    22  H    6.563419   5.810192   5.211777   5.863865   4.944610
    23  H    6.630346   5.682242   5.388148   6.412605   5.806169
                   11         12         13         14         15
    11  N    0.000000
    12  C    1.490618   0.000000
    13  C    2.455452   1.506221   0.000000
    14  S    3.273929   2.807813   1.812631   0.000000
    15  C    3.726473   2.525830   1.443480   1.911443   0.000000
    16  H    4.461073   3.585099   3.920924   5.724785   4.461402
    17  H    4.408741   3.090412   3.159630   4.783027   3.165412
    18  H    3.849681   2.885182   2.560618   4.297977   3.112802
    19  H    3.408728   3.904462   3.899456   5.087982   5.238206
    20  H    2.057916   1.102824   2.200880   2.994623   2.718345
    21  H    3.576523   3.042259   2.602254   1.382838   2.356056
    22  H    4.101731   2.777986   2.241972   2.564866   1.101338
    23  H    4.639011   3.490568   2.203783   2.471584   1.086103
                   16         17         18         19         20
    16  H    0.000000
    17  H    1.766036   0.000000
    18  H    1.778944   1.769308   0.000000
    19  H    4.209191   5.058778   3.517606   0.000000
    20  H    4.248393   3.479037   3.744854   4.969714   0.000000
    21  H    6.244429   5.118999   5.070626   6.101019   2.703456
    22  H    4.703814   3.183627   3.687847   6.061392   2.550293
    23  H    4.800854   3.488745   3.292491   5.594654   3.790791
                   21         22         23
    21  H    0.000000
    22  H    2.385307   0.000000
    23  H    3.123828   1.835306   0.000000
 Stoichiometry    C10H8N4S
 Framework group  C1[X(C10H8N4S)]
 Deg. of freedom    63
 Full point group                 C1      NOp   1
 Largest Abelian subgroup         C1      NOp   1
 Largest concise Abelian subgroup C1      NOp   1
                         Standard orientation:                         
 ---------------------------------------------------------------------
 Center     Atomic      Atomic             Coordinates (Angstroms)
 Number     Number       Type             X           Y           Z
 ---------------------------------------------------------------------
      1          6           0        0.140454    2.592972    0.340533
      2          6           0       -0.239269    1.361442   -0.448733
      3          6           0       -1.487048    1.188762   -0.845030
      4          7           0       -2.654022    0.769297   -0.979013
      5          6           0       -2.649245   -0.343956   -0.053929
      6          7           0       -2.725352   -0.052776    1.337634
      7          6           0       -1.550089   -0.478967    1.728874
      8          6           0       -0.935820   -1.308938    0.692285
      9          6           0       -1.908421   -1.454078   -0.415155
     10          7           0       -0.904459   -1.394332   -1.398308
     11          7           0       -0.028978   -1.102478   -0.362547
     12          6           0        0.741966    0.150050   -0.604953
     13          6           0        1.855138    0.273980    0.402119
     14         16           0        3.185555   -0.946171    0.238248
     15          6           0        3.064586    0.945124   -0.010720
     16          1           0       -0.740878    3.209512    0.532499
     17          1           0        0.863846    3.212033   -0.204885
     18          1           0        0.593893    2.315211    1.296210
     19          1           0       -1.199304   -0.340577    2.746998
     20          1           0        1.086141    0.054378   -1.648319
     21          1           0        3.469365   -1.101081   -1.106258
     22          1           0        3.244249    1.272832   -1.046709
     23          1           0        3.709986    1.420112    0.722400
 ---------------------------------------------------------------------
 Rotational constants (GHZ):           1.1466322           0.4673369           0.4114643
 Standard basis: 6-31G(2df,p) (6D, 7F)
 There are   509 symmetry adapted cartesian basis functions of A   symmetry.
 There are   464 symmetry adapted basis functions of A   symmetry.
   464 basis functions,   740 primitive gaussians,   509 cartesian basis functions
    56 alpha electrons       56 beta electrons
       nuclear repulsion energy      1076.2504929732 Hartrees.
 NAtoms=   23 NActive=   23 NUniq=   23 SFac= 1.00D+00 NAtFMM=   60 NAOKFM=F Big=F
 Integral buffers will be    131072 words long.
 Raffenetti 2 integral format.
 Two-electron integral symmetry is turned on.
 One-electron integrals computed using PRISM.
 PrsmSu:  requested number of processors reduced to:  12 ShMem   1 Linda.
 NBasis=   464 RedAO= T EigKep=  1.53D-04  NBF=   464
 NBsUse=   464 1.00D-06 EigRej= -1.00D+00 NBFU=   464
 Initial guess from the checkpoint file:  "CC1dCdNC2dNCdC3C2dNN3C1C1d[SH]C1.chk"
 B after Tr=    -0.000000   -0.000000   -0.000000
         Rot=    0.999999    0.001002   -0.000357   -0.001000 Ang=   0.17 deg.
 ExpMin= 1.17D-01 ExpMax= 2.19D+04 ExpMxC= 3.30D+03 IAcc=2 IRadAn=         4 AccDes= 0.00D+00
 Harris functional with IExCor=  402 and IRadAn=       4 diagonalized for initial guess.
 HarFok:  IExCor=  402 AccDes= 0.00D+00 IRadAn=         4 IDoV= 1 UseB2=F ITyADJ=14
 ICtDFT=  3500011 ScaDFX=  1.000000  1.000000  1.000000  1.000000
 FoFCou: FMM=F IPFlag=           0 FMFlag=      100000 FMFlg1=           0
         NFxFlg=           0 DoJE=T BraDBF=F KetDBF=T FulRan=T
         wScrn=  0.000000 ICntrl=       500 IOpCl=  0 I1Cent=   200000004 NGrid=           0
         NMat0=    1 NMatS0=      1 NMatT0=    0 NMatD0=    1 NMtDS0=    0 NMtDT0=    0
 Petite list used in FoFCou.
 Requested convergence on RMS density matrix=1.00D-08 within 128 cycles.
 Requested convergence on MAX density matrix=1.00D-06.
 Requested convergence on             energy=1.00D-06.
 No special actions if energy rises.
 Integral accuracy reduced to 1.0D-05 until final iterations.
 Initial convergence to 1.0D-05 achieved.  Increase integral accuracy.
slurmstepd: error: *** JOB 27447005 ON lewis4-r630-hpc4-node303 CANCELLED AT 2023-05-17T18:10:20 DUE TO TIME LIMIT ***
