### Starting Gaussian ###
 Entering Gaussian System, Link 0=g16
 Initial command:
 /cluster/software/gaussian/gaussian-16-A.03/avx2/g16/l1.exe "/local/scratch/cz9n3/Gau-27262.inp" -scrdir="/local/scratch/cz9n3/"
 Entering Link 1 = /cluster/software/gaussian/gaussian-16-A.03/avx2/g16/l1.exe PID=     27263.
  
 Copyright (c) 1988,1990,1992,1993,1995,1998,2003,2009,2016,
            Gaussian, Inc.  All Rights Reserved.
  
 This is part of the Gaussian(R) 16 program.  It is based on
 the Gaussian(R) 09 system (copyright 2009, Gaussian, Inc.),
 the Gaussian(R) 03 system (copyright 2003, Gaussian, Inc.),
 the Gaussian(R) 98 system (copyright 1998, Gaussian, Inc.),
 the Gaussian(R) 94 system (copyright 1995, Gaussian, Inc.),
 the Gaussian 92(TM) system (copyright 1992, Gaussian, Inc.),
 the Gaussian 90(TM) system (copyright 1990, Gaussian, Inc.),
 the Gaussian 88(TM) system (copyright 1988, Gaussian, Inc.),
 the Gaussian 86(TM) system (copyright 1986, Carnegie Mellon
 University), and the Gaussian 82(TM) system (copyright 1983,
 Carnegie Mellon University). Gaussian is a federally registered
 trademark of Gaussian, Inc.
  
 This software contains proprietary and confidential information,
 including trade secrets, belonging to Gaussian, Inc.
  
 This software is provided under written license and may be
 used, copied, transmitted, or stored only in accord with that
 written license.
  
 The following legend is applicable only to US Government
 contracts under FAR:
  
                    RESTRICTED RIGHTS LEGEND
  
 Use, reproduction and disclosure by the US Government is
 subject to restrictions as set forth in subparagraphs (a)
 and (c) of the Commercial Computer Software - Restricted
 Rights clause in FAR 52.227-19.
  
 Gaussian, Inc.
 340 Quinnipiac St., Bldg. 40, Wallingford CT 06492
  
  
 ---------------------------------------------------------------
 Warning -- This program may not be used in any manner that
 competes with the business of Gaussian, Inc. or will provide
 assistance to any competitor of Gaussian, Inc.  The licensee
 of this program is prohibited from giving any competitor of
 Gaussian, Inc. access to this program.  By using this program,
 the user acknowledges that Gaussian, Inc. is engaged in the
 business of creating and licensing software in the field of
 computational chemistry and represents and warrants to the
 licensee that it is not a competitor of Gaussian, Inc. and that
 it will not use this program in any manner prohibited above.
 ---------------------------------------------------------------
  

 Cite this work as:
 Gaussian 16, Revision A.03,
 M. J. Frisch, G. W. Trucks, H. B. Schlegel, G. E. Scuseria, 
 M. A. Robb, J. R. Cheeseman, G. Scalmani, V. Barone, 
 G. A. Petersson, H. Nakatsuji, X. Li, M. Caricato, A. V. Marenich, 
 J. Bloino, B. G. Janesko, R. Gomperts, B. Mennucci, H. P. Hratchian, 
 J. V. Ortiz, A. F. Izmaylov, J. L. Sonnenberg, D. Williams-Young, 
 F. Ding, F. Lipparini, F. Egidi, J. Goings, B. Peng, A. Petrone, 
 T. Henderson, D. Ranasinghe, V. G. Zakrzewski, J. Gao, N. Rega, 
 G. Zheng, W. Liang, M. Hada, M. Ehara, K. Toyota, R. Fukuda, 
 J. Hasegawa, M. Ishida, T. Nakajima, Y. Honda, O. Kitao, H. Nakai, 
 T. Vreven, K. Throssell, J. A. Montgomery, Jr., J. E. Peralta, 
 F. Ogliaro, M. J. Bearpark, J. J. Heyd, E. N. Brothers, K. N. Kudin, 
 V. N. Staroverov, T. A. Keith, R. Kobayashi, J. Normand, 
 K. Raghavachari, A. P. Rendell, J. C. Burant, S. S. Iyengar, 
 J. Tomasi, M. Cossi, J. M. Millam, M. Klene, C. Adamo, R. Cammi, 
 J. W. Ochterski, R. L. Martin, K. Morokuma, O. Farkas, 
 J. B. Foresman, and D. J. Fox, Gaussian, Inc., Wallingford CT, 2016.
 
 ******************************************
 Gaussian 16:  ES64L-G16RevA.03 25-Dec-2016
                16-May-2023 
 ******************************************
 %chk=CC1dCCdc2cccqdOrcqdNroc2dCCdCCdCCdC1.chk
 %NProcShared=20
 Will use up to   20 processors via shared memory.
 -----------------------------
 # opt freq b3lyp/6-31g(2df,p)
 -----------------------------
 1/18=20,19=15,26=3,38=1/1,3;
 2/9=110,12=2,17=6,18=5,40=1/2;
 3/5=1,6=6,7=104,11=2,25=1,30=1,71=1,74=-5/1,2,3;
 4//1;
 5/5=2,38=5/2;
 6/7=2,8=2,9=2,10=2,28=1/1;
 7//1,2,3,16;
 1/18=20,19=15,26=3/3(2);
 2/9=110/2;
 99//99;
 2/9=110/2;
 3/5=1,6=6,7=104,11=2,25=1,30=1,71=1,74=-5/1,2,3;
 4/5=5,16=3,69=1/1;
 5/5=2,38=5/2;
 7//1,2,3,16;
 1/18=20,19=15,26=3/3(-5);
 2/9=110/2;
 6/7=2,8=2,9=2,10=2,19=2,28=1/1;
 99/9=1/99;
 -------------------
 Title Card Required
 -------------------
 Symbolic Z-matrix:
 Charge =  0 Multiplicity = 1
 C                     0.76252   0.1071    0.02915 
 C                     1.78869   0.2911   -1.13724 
 C                     3.16764   0.20382  -1.05152 
 C                     4.69039   0.15833  -1.33512 
 C                     5.62901   0.31952  -2.37957 
 C                     6.974    -0.02905  -2.07285 
 C                     7.56704  -0.5282   -3.18445 
 C                     8.83801   0.09343  -3.45727 
 O                     9.77309   0.21038  -2.64268 
 C                     8.5681    0.55538  -4.85542 
 N                     9.14826   0.33468  -6.02225 
 O                     7.06213   0.99737  -4.87603 
 C                     5.49016   0.76916  -3.97679 
 C                     4.34555   0.49575  -4.41522 
 C                     3.2798    0.35139  -5.51625 
 C                     1.97981   0.28942  -5.31829 
 C                     0.71843   0.29024  -6.02945 
 C                    -0.36601   0.1538   -5.2056 
 C                    -0.17939   0.00652  -3.48916 
 C                     0.89663   0.35604  -2.56437 
 H                    -0.20236   0.11326  -0.48722 
 H                     0.6352    0.96914   0.68924 
 H                     0.68456  -0.88056   0.52831 
 H                     3.14494   0.14968  -2.10869 
 H                     5.17033  -0.0016   -0.34609 
 H                     7.46999   0.15374  -1.11947 
 H                     6.95829  -0.7864   -4.17988 
 H                     8.23105   0.42623  -6.46657 
 H                     3.65532   0.21097  -3.6225 
 H                     3.53834   0.39302  -6.51844 
 H                     1.7165    0.25654  -4.30952 
 H                     0.75846   0.42606  -7.1238 
 H                    -1.47666   0.23604  -5.55173 
 H                    -0.92575   0.74157  -3.86142 
 H                     0.76191  -0.59748  -2.01062 
 

 GradGradGradGradGradGradGradGradGradGradGradGradGradGradGradGradGradGrad
 Berny optimization.
 Initialization pass.
                           ----------------------------
                           !    Initial Parameters    !
                           ! (Angstroms and Degrees)  !
 --------------------------                            --------------------------
 ! Name  Definition              Value          Derivative Info.                !
 --------------------------------------------------------------------------------
 ! R1    R(1,2)                  1.5644         estimate D2E/DX2                !
 ! R2    R(1,21)                 1.0944         estimate D2E/DX2                !
 ! R3    R(1,22)                 1.0932         estimate D2E/DX2                !
 ! R4    R(1,23)                 1.1094         estimate D2E/DX2                !
 ! R5    R(2,3)                  1.3844         estimate D2E/DX2                !
 ! R6    R(2,20)                 1.6842         estimate D2E/DX2                !
 ! R7    R(3,4)                  1.5496         estimate D2E/DX2                !
 ! R8    R(3,24)                 1.0588         estimate D2E/DX2                !
 ! R9    R(4,5)                  1.4135         estimate D2E/DX2                !
 ! R10   R(4,25)                 1.1109         estimate D2E/DX2                !
 ! R11   R(5,6)                  1.4229         estimate D2E/DX2                !
 ! R12   R(5,13)                 1.6651         estimate D2E/DX2                !
 ! R13   R(6,7)                  1.3552         estimate D2E/DX2                !
 ! R14   R(6,26)                 1.0901         estimate D2E/DX2                !
 ! R15   R(7,8)                  1.4409         estimate D2E/DX2                !
 ! R16   R(7,27)                 1.195          estimate D2E/DX2                !
 ! R17   R(8,9)                  1.2456         estimate D2E/DX2                !
 ! R18   R(8,10)                 1.497          estimate D2E/DX2                !
 ! R19   R(10,11)                1.3217         estimate D2E/DX2                !
 ! R20   R(10,12)                1.5696         estimate D2E/DX2                !
 ! R21   R(11,28)                1.0233         estimate D2E/DX2                !
 ! R22   R(13,14)                1.2558         estimate D2E/DX2                !
 ! R23   R(14,15)                1.5391         estimate D2E/DX2                !
 ! R24   R(14,29)                1.089          estimate D2E/DX2                !
 ! R25   R(15,16)                1.3164         estimate D2E/DX2                !
 ! R26   R(15,30)                1.0358         estimate D2E/DX2                !
 ! R27   R(16,17)                1.448          estimate D2E/DX2                !
 ! R28   R(16,31)                1.0431         estimate D2E/DX2                !
 ! R29   R(17,18)                1.3687         estimate D2E/DX2                !
 ! R30   R(17,32)                1.1035         estimate D2E/DX2                !
 ! R31   R(18,19)                1.7328         estimate D2E/DX2                !
 ! R32   R(18,33)                1.1662         estimate D2E/DX2                !
 ! R33   R(19,20)                1.4612         estimate D2E/DX2                !
 ! R34   R(19,34)                1.1117         estimate D2E/DX2                !
 ! R35   R(20,35)                1.1109         estimate D2E/DX2                !
 ! A1    A(2,1,21)             103.0543         estimate D2E/DX2                !
 ! A2    A(2,1,22)             115.7122         estimate D2E/DX2                !
 ! A3    A(2,1,23)             119.0965         estimate D2E/DX2                !
 ! A4    A(21,1,22)            100.2407         estimate D2E/DX2                !
 ! A5    A(21,1,23)             98.9374         estimate D2E/DX2                !
 ! A6    A(22,1,23)            114.9717         estimate D2E/DX2                !
 ! A7    A(1,2,3)              126.8558         estimate D2E/DX2                !
 ! A8    A(1,2,20)             106.7905         estimate D2E/DX2                !
 ! A9    A(3,2,20)             125.6248         estimate D2E/DX2                !
 ! A10   A(2,3,24)              85.4139         estimate D2E/DX2                !
 ! A11   A(4,3,24)              80.6093         estimate D2E/DX2                !
 ! A12   A(3,4,5)              141.6689         estimate D2E/DX2                !
 ! A13   A(3,4,25)             105.4163         estimate D2E/DX2                !
 ! A14   A(5,4,25)             112.7924         estimate D2E/DX2                !
 ! A15   A(4,5,6)              116.1349         estimate D2E/DX2                !
 ! A16   A(4,5,13)             133.1749         estimate D2E/DX2                !
 ! A17   A(6,5,13)             110.5945         estimate D2E/DX2                !
 ! A18   A(5,6,7)              109.091          estimate D2E/DX2                !
 ! A19   A(5,6,26)             125.277          estimate D2E/DX2                !
 ! A20   A(7,6,26)             125.4525         estimate D2E/DX2                !
 ! A21   A(6,7,8)              112.4827         estimate D2E/DX2                !
 ! A22   A(6,7,27)             122.6778         estimate D2E/DX2                !
 ! A23   A(8,7,27)             112.6324         estimate D2E/DX2                !
 ! A24   A(7,8,9)              125.3687         estimate D2E/DX2                !
 ! A25   A(7,8,10)              98.6806         estimate D2E/DX2                !
 ! A26   A(9,8,10)             135.8188         estimate D2E/DX2                !
 ! A27   A(8,10,11)            133.9373         estimate D2E/DX2                !
 ! A28   A(8,10,12)            105.7918         estimate D2E/DX2                !
 ! A29   A(11,10,12)           117.1673         estimate D2E/DX2                !
 ! A30   A(10,11,28)            88.5642         estimate D2E/DX2                !
 ! A31   A(5,13,14)            110.6156         estimate D2E/DX2                !
 ! A32   A(13,14,15)           154.3261         estimate D2E/DX2                !
 ! A33   A(13,14,29)           112.3639         estimate D2E/DX2                !
 ! A34   A(15,14,29)            93.2863         estimate D2E/DX2                !
 ! A35   A(14,15,16)           125.4947         estimate D2E/DX2                !
 ! A36   A(14,15,30)           121.0323         estimate D2E/DX2                !
 ! A37   A(16,15,30)           113.1949         estimate D2E/DX2                !
 ! A38   A(15,16,17)           141.844          estimate D2E/DX2                !
 ! A39   A(15,16,31)           113.3404         estimate D2E/DX2                !
 ! A40   A(17,16,31)           104.7786         estimate D2E/DX2                !
 ! A41   A(16,17,18)           113.2352         estimate D2E/DX2                !
 ! A42   A(16,17,32)           117.0989         estimate D2E/DX2                !
 ! A43   A(18,17,32)           129.6395         estimate D2E/DX2                !
 ! A44   A(17,18,19)           121.29           estimate D2E/DX2                !
 ! A45   A(17,18,33)           124.6715         estimate D2E/DX2                !
 ! A46   A(19,18,33)           113.7372         estimate D2E/DX2                !
 ! A47   A(18,19,20)           133.3042         estimate D2E/DX2                !
 ! A48   A(18,19,34)            62.6011         estimate D2E/DX2                !
 ! A49   A(20,19,34)           123.2393         estimate D2E/DX2                !
 ! A50   A(2,20,19)            156.5004         estimate D2E/DX2                !
 ! A51   A(2,20,35)             66.9674         estimate D2E/DX2                !
 ! A52   A(19,20,35)            91.1955         estimate D2E/DX2                !
 ! A53   L(2,3,4,24,-1)        166.0232         estimate D2E/DX2                !
 ! A54   L(2,3,4,24,-2)        177.3551         estimate D2E/DX2                !
 ! D1    D(21,1,2,3)          -172.2282         estimate D2E/DX2                !
 ! D2    D(21,1,2,20)           -1.6311         estimate D2E/DX2                !
 ! D3    D(22,1,2,3)            79.4589         estimate D2E/DX2                !
 ! D4    D(22,1,2,20)         -109.9441         estimate D2E/DX2                !
 ! D5    D(23,1,2,3)           -64.0757         estimate D2E/DX2                !
 ! D6    D(23,1,2,20)          106.5213         estimate D2E/DX2                !
 ! D7    D(1,2,3,24)           165.5391         estimate D2E/DX2                !
 ! D8    D(20,2,3,24)           -3.3666         estimate D2E/DX2                !
 ! D9    D(1,2,4,5)            179.8663         estimate D2E/DX2                !
 ! D10   D(1,2,4,25)            -4.2056         estimate D2E/DX2                !
 ! D11   D(20,2,4,5)            10.8387         estimate D2E/DX2                !
 ! D12   D(20,2,4,25)         -173.2332         estimate D2E/DX2                !
 ! D13   D(1,2,20,19)          -37.1654         estimate D2E/DX2                !
 ! D14   D(1,2,20,35)          -60.1028         estimate D2E/DX2                !
 ! D15   D(3,2,20,19)          133.5799         estimate D2E/DX2                !
 ! D16   D(3,2,20,35)          110.6425         estimate D2E/DX2                !
 ! D17   D(24,3,4,5)            15.4671         estimate D2E/DX2                !
 ! D18   D(24,3,4,25)         -169.1832         estimate D2E/DX2                !
 ! D19   D(3,4,5,6)           -171.7892         estimate D2E/DX2                !
 ! D20   D(3,4,5,13)             4.2501         estimate D2E/DX2                !
 ! D21   D(25,4,5,6)            13.074          estimate D2E/DX2                !
 ! D22   D(25,4,5,13)         -170.8867         estimate D2E/DX2                !
 ! D23   D(4,5,6,7)            146.8923         estimate D2E/DX2                !
 ! D24   D(4,5,6,26)           -37.7653         estimate D2E/DX2                !
 ! D25   D(13,5,6,7)           -30.023          estimate D2E/DX2                !
 ! D26   D(13,5,6,26)          145.3193         estimate D2E/DX2                !
 ! D27   D(4,5,13,14)          -26.0902         estimate D2E/DX2                !
 ! D28   D(6,5,13,14)          150.1115         estimate D2E/DX2                !
 ! D29   D(5,6,7,8)            130.0804         estimate D2E/DX2                !
 ! D30   D(5,6,7,27)            -9.4061         estimate D2E/DX2                !
 ! D31   D(26,6,7,8)           -45.2518         estimate D2E/DX2                !
 ! D32   D(26,6,7,27)          175.2617         estimate D2E/DX2                !
 ! D33   D(6,7,8,9)             52.0041         estimate D2E/DX2                !
 ! D34   D(6,7,8,10)          -124.3823         estimate D2E/DX2                !
 ! D35   D(27,7,8,9)          -164.3252         estimate D2E/DX2                !
 ! D36   D(27,7,8,10)           19.2884         estimate D2E/DX2                !
 ! D37   D(7,8,10,11)         -122.0345         estimate D2E/DX2                !
 ! D38   D(7,8,10,12)           36.6276         estimate D2E/DX2                !
 ! D39   D(9,8,10,11)           62.1947         estimate D2E/DX2                !
 ! D40   D(9,8,10,12)         -139.1433         estimate D2E/DX2                !
 ! D41   D(8,10,11,28)         148.2497         estimate D2E/DX2                !
 ! D42   D(12,10,11,28)         -8.5745         estimate D2E/DX2                !
 ! D43   D(5,13,14,15)        -171.7141         estimate D2E/DX2                !
 ! D44   D(5,13,14,29)          10.8867         estimate D2E/DX2                !
 ! D45   D(13,14,15,16)       -161.4936         estimate D2E/DX2                !
 ! D46   D(13,14,15,30)         12.0271         estimate D2E/DX2                !
 ! D47   D(29,14,15,16)         16.0974         estimate D2E/DX2                !
 ! D48   D(29,14,15,30)       -170.382          estimate D2E/DX2                !
 ! D49   D(14,15,16,17)        171.8211         estimate D2E/DX2                !
 ! D50   D(14,15,16,31)         -5.4916         estimate D2E/DX2                !
 ! D51   D(30,15,16,17)         -2.1403         estimate D2E/DX2                !
 ! D52   D(30,15,16,31)       -179.453          estimate D2E/DX2                !
 ! D53   D(15,16,17,18)        178.1694         estimate D2E/DX2                !
 ! D54   D(15,16,17,32)         -3.5192         estimate D2E/DX2                !
 ! D55   D(31,16,17,18)         -4.3823         estimate D2E/DX2                !
 ! D56   D(31,16,17,32)        173.9291         estimate D2E/DX2                !
 ! D57   D(16,17,18,19)          0.2616         estimate D2E/DX2                !
 ! D58   D(16,17,18,33)        173.5567         estimate D2E/DX2                !
 ! D59   D(32,17,18,19)       -177.7863         estimate D2E/DX2                !
 ! D60   D(32,17,18,33)         -4.4912         estimate D2E/DX2                !
 ! D61   D(17,18,19,20)         20.4822         estimate D2E/DX2                !
 ! D62   D(17,18,19,34)        131.5747         estimate D2E/DX2                !
 ! D63   D(33,18,19,20)       -153.4965         estimate D2E/DX2                !
 ! D64   D(33,18,19,34)        -42.404          estimate D2E/DX2                !
 ! D65   D(18,19,20,2)        -158.8672         estimate D2E/DX2                !
 ! D66   D(18,19,20,35)       -137.8446         estimate D2E/DX2                !
 ! D67   D(34,19,20,2)         119.0873         estimate D2E/DX2                !
 ! D68   D(34,19,20,35)        140.1099         estimate D2E/DX2                !
 --------------------------------------------------------------------------------
 Trust Radius=3.00D-01 FncErr=1.00D-07 GrdErr=1.00D-06 EigMax=2.50D+02 EigMin=1.00D-04
 Number of steps in this run=    167 maximum allowed number of steps=    210.
 GradGradGradGradGradGradGradGradGradGradGradGradGradGradGradGradGradGrad

                          Input orientation:                          
 ---------------------------------------------------------------------
 Center     Atomic      Atomic             Coordinates (Angstroms)
 Number     Number       Type             X           Y           Z
 ---------------------------------------------------------------------
      1          6           0        0.762520    0.107100    0.029150
      2          6           0        1.788690    0.291100   -1.137240
      3          6           0        3.167640    0.203820   -1.051520
      4          6           0        4.690390    0.158330   -1.335120
      5          6           0        5.629010    0.319520   -2.379570
      6          6           0        6.974000   -0.029050   -2.072850
      7          6           0        7.567040   -0.528200   -3.184450
      8          6           0        8.838010    0.093430   -3.457270
      9          8           0        9.773090    0.210380   -2.642680
     10          6           0        8.568100    0.555380   -4.855420
     11          7           0        9.148260    0.334680   -6.022250
     12          8           0        7.062130    0.997370   -4.876030
     13          6           0        5.490160    0.769160   -3.976790
     14          6           0        4.345550    0.495750   -4.415220
     15          6           0        3.279800    0.351390   -5.516250
     16          6           0        1.979810    0.289420   -5.318290
     17          6           0        0.718430    0.290240   -6.029450
     18          6           0       -0.366010    0.153800   -5.205600
     19          6           0       -0.179390    0.006520   -3.489160
     20          6           0        0.896630    0.356040   -2.564370
     21          1           0       -0.202360    0.113260   -0.487220
     22          1           0        0.635200    0.969140    0.689240
     23          1           0        0.684560   -0.880560    0.528310
     24          1           0        3.144940    0.149680   -2.108690
     25          1           0        5.170330   -0.001600   -0.346090
     26          1           0        7.469990    0.153740   -1.119470
     27          1           0        6.958290   -0.786400   -4.179880
     28          1           0        8.231050    0.426230   -6.466570
     29          1           0        3.655320    0.210970   -3.622500
     30          1           0        3.538340    0.393020   -6.518440
     31          1           0        1.716500    0.256540   -4.309520
     32          1           0        0.758460    0.426060   -7.123800
     33          1           0       -1.476660    0.236040   -5.551730
     34          1           0       -0.925750    0.741570   -3.861420
     35          1           0        0.761910   -0.597480   -2.010620
 ---------------------------------------------------------------------
                    Distance matrix (angstroms):
                    1          2          3          4          5
     1  C    0.000000
     2  C    1.564400   0.000000
     3  C    2.638523   1.384366   0.000000
     4  C    4.158367   2.911468   1.549602   0.000000
     5  C    5.434131   4.036366   2.799187   1.413459   0.000000
     6  C    6.558919   5.278760   3.947875   2.407121   1.422876
     7  C    7.551975   6.184792   4.943679   3.488045   2.263277
     8  C    8.795956   7.423916   6.160594   4.659451   3.392674
     9  O    9.398921   8.125485   6.794395   5.248453   4.153858
    10  C    9.218843   7.736608   6.614999   5.252313   3.850158
    11  N   10.343687   8.833374   7.777731   6.470927   5.065024
    12  O    8.033583   6.502810   5.515764   4.343637   2.957300
    13  C    6.231890   4.689613   3.777686   2.826865   1.665103
    14  C    5.722026   4.162279   3.575916   3.117657   2.412923
    15  C    6.094903   4.626313   4.468576   4.416886   3.919000
    16  C    5.487272   4.185416   4.429853   4.819758   4.685471
    17  C    6.061528   5.007911   5.548503   6.150659   6.118519
    18  C    5.355219   4.605772   5.453949   6.367717   6.629794
    19  C    3.643599   3.079911   4.145314   5.327072   5.921712
    20  C    2.608889   1.684247   2.733015   3.992839   4.736128
    21  H    1.094381   2.102007   3.418119   4.965880   6.134200
    22  H    1.093180   2.264135   3.166893   4.604347   5.897265
    23  H    1.109374   2.316451   3.136468   4.538539   5.860337
    24  H    3.201265   1.674255   1.058799   1.728265   2.504561
    25  H    4.425089   3.485266   2.133213   1.110901   2.109158
    26  H    6.805267   5.682988   4.303178   2.787957   2.237083
    27  H    7.543331   6.094541   5.013601   3.758796   2.496229
    28  H    9.903290   8.362058   7.416896   6.240178   4.846191
    29  H    4.659788   3.109219   2.616834   2.511224   2.334975
    30  H    7.117434   5.659415   5.482739   5.314989   4.637515
    31  H    4.444825   3.173289   3.566953   4.207223   4.363073
    32  H    7.160059   6.076059   6.536522   7.002897   6.800098
    33  H    6.014713   5.491199   6.467028   7.471168   7.782038
    34  H    4.288280   3.871985   4.994052   6.185741   6.733415
    35  H    2.158030   1.614511   2.710995   4.057155   4.966455
                    6          7          8          9         10
     6  C    0.000000
     7  C    1.355176   0.000000
     8  C    2.325114   1.440909   0.000000
     9  O    2.866520   2.388655   1.245636   0.000000
    10  C    3.259664   2.228992   1.497021   2.543078   0.000000
    11  N    4.522993   3.361239   2.594914   3.439092   1.321660
    12  O    2.986490   2.333183   2.446168   3.599515   1.569626
    13  C    2.542422   2.573786   3.454651   4.520572   3.208022
    14  C    3.559615   3.597397   4.611044   5.716776   4.245852
    15  C    5.064470   4.958971   5.932928   7.102120   5.333332
    16  C    5.964582   6.036465   7.108918   8.240167   6.609883
    17  C    7.408697   7.461054   8.519532   9.667650   7.941408
    18  C    7.982688   8.214831   9.368793  10.458160   8.949984
    19  C    7.292338   7.770840   9.017875   9.990493   8.870541
    20  C    6.109363   6.757274   7.995733   8.878000   8.008751
    21  H    7.350824   8.249248   9.515770  10.206128   9.808038
    22  H    6.986123   8.080712   9.232903   9.755944   9.687381
    23  H    6.859166   7.827980   9.127555   9.687451   9.653843
    24  H    3.833397   4.601277   5.850887   6.649902   6.092601
    25  H    2.497134   3.752041   4.810442   5.148268   5.673546
    26  H    1.090115   2.176833   2.709322   2.761819   3.914650
    27  H    2.239063   1.195042   2.197638   3.358520   2.201867
    28  H    4.592628   3.481976   3.087886   4.128754   1.651087
    29  H    3.670512   4.004974   5.186655   6.195737   5.076822
    30  H    5.634286   5.309855   6.127562   7.343499   5.300045
    31  H    5.720626   6.009194   7.174179   8.227340   6.879806
    32  H    8.021980   7.923752   8.878807  10.069285   8.133434
    33  H    9.142567   9.379584  10.526135  11.619815  10.073928
    34  H    8.136270   8.613831   9.793591  10.781126   9.547559
    35  H    6.238353   6.905974   8.233684   9.069372   8.388002
                   11         12         13         14         15
    11  N    0.000000
    12  O    2.470813   0.000000
    13  C    4.213594   1.825322   0.000000
    14  C    5.067002   2.800674   1.255829   0.000000
    15  C    5.890258   3.890140   2.725832   1.539133   0.000000
    16  C    7.203075   5.150414   3.788447   2.540636   1.316436
    17  C    8.429950   6.486366   5.216530   3.975421   2.612993
    18  C    9.550967   7.483147   6.015261   4.789617   3.664352
    19  C    9.671054   7.439409   5.741359   4.644568   4.024180
    20  C    8.946887   6.615774   4.823496   3.916658   3.793826
    21  H   10.868288   8.533236   6.709105   6.021542   6.121543
    22  H   10.859044   8.501674   6.736651   6.328215   6.773746
    23  H   10.771298   8.567783   6.790530   6.303615   6.692509
    24  H    7.168684   4.870434   3.061635   2.623225   3.416188
    25  H    6.939438   5.009711   3.725365   4.181559   5.516272
    26  H    5.185227   3.871667   3.530261   4.554236   6.076877
    27  H    3.073616   1.917614   2.148585   2.919881   4.075750
    28  H    1.023267   2.054846   3.718748   4.394312   5.042181
    29  H    5.995540   3.714312   1.950317   1.089001   1.935723
    30  H    5.632123   3.934443   3.226619   2.255144   1.035838
    31  H    7.626966   5.426373   3.822826   2.642025   1.977145
    32  H    8.462299   6.716779   5.693011   4.495384   2.991145
    33  H   10.635791   8.599252   7.162488   5.937780   4.757991
    34  H   10.311180   8.056122   6.417007   5.306008   4.536227
    35  H    9.343070   7.102598   5.299988   4.451935   4.419227
                   16         17         18         19         20
    16  C    0.000000
    17  C    1.448043   0.000000
    18  C    2.352438   1.368706   0.000000
    19  C    2.843922   2.709179   1.732826   0.000000
    20  C    2.960033   3.470283   2.934494   1.461239   0.000000
    21  H    5.303974   5.620987   4.721391   3.003925   2.362472
    22  H    6.193578   6.753416   6.034595   4.364541   3.321177
    23  H    6.101578   6.661542   5.920416   4.203973   3.337488
    24  H    3.417395   4.613032   4.681628   3.602411   2.303286
    25  H    5.914971   7.225314   7.368178   6.204713   4.828373
    26  H    6.913073   8.349257   8.837384   8.009377   6.733329
    27  H    5.219064   6.596659   7.455297   7.214727   6.376422
    28  H    6.357300   7.526555   8.693314   8.931776   8.308177
    29  H    2.385203   3.798028   4.322102   3.842471   2.958218
    30  H    1.969799   2.863838   4.126103   4.811178   4.755488
    31  H    1.043087   1.988828   2.269441   2.080841   1.930709
    32  H    2.184086   1.103472   2.240100   3.777060   4.562060
    33  H    3.464755   2.247126   1.166239   2.447403   3.817227
    34  H    3.281644   2.758148   1.570224   1.111724   2.269811
    35  H    3.634632   4.115936   3.470522   1.853899   1.110851
                   21         22         23         24         25
    21  H    0.000000
    22  H    1.678718   0.000000
    23  H    1.674994   1.857344   0.000000
    24  H    3.719531   3.846911   3.750818   0.000000
    25  H    5.375770   4.752015   4.653953   2.689210   0.000000
    26  H    7.698463   7.116928   7.058825   4.436736   2.431190
    27  H    8.106789   8.171396   7.844463   4.439337   4.302401
    28  H   10.342774  10.449751  10.372346   6.703440   6.856480
    29  H    4.972044   5.318557   5.219777   1.598707   3.615979
    30  H    7.102585   7.791713   7.708615   4.433946   6.396641
    31  H    4.279314   5.163779   5.075677   2.625931   5.263493
    32  H    6.713063   7.832862   7.763215   5.560845   8.098447
    33  H    5.223809   6.629261   6.548630   5.763781   8.446161
    34  H    3.507605   4.816312   4.949155   4.471344   7.076160
    35  H    1.937967   3.124035   2.555833   2.499339   4.749726
                   26         27         28         29         30
    26  H    0.000000
    27  H    3.242192   0.000000
    28  H    5.407859   2.884327   0.000000
    29  H    4.562909   3.495001   5.391881   0.000000
    30  H    6.683113   4.307662   4.693114   2.904014   0.000000
    31  H    6.579486   5.346110   6.864475   2.057449   2.866541
    32  H    9.009482   6.969549   7.501437   4.549414   2.845221
    33  H    9.984701   8.606726   9.752576   5.482680   5.109735
    34  H    8.851683   8.037051   9.525399   4.617881   5.206663
    35  H    6.808584   6.567839   8.757370   3.409336   5.386102
                   31         32         33         34         35
    31  H    0.000000
    32  H    2.977709   0.000000
    33  H    3.426336   2.739210   0.000000
    34  H    2.723515   3.685001   1.848299   0.000000
    35  H    2.631641   5.214619   4.271465   2.840196   0.000000
 Stoichiometry    C17H15NO2
 Framework group  C1[X(C17H15NO2)]
 Deg. of freedom    99
 Full point group                 C1      NOp   1
 Largest Abelian subgroup         C1      NOp   1
 Largest concise Abelian subgroup C1      NOp   1
                         Standard orientation:                         
 ---------------------------------------------------------------------
 Center     Atomic      Atomic             Coordinates (Angstroms)
 Number     Number       Type             X           Y           Z
 ---------------------------------------------------------------------
      1          6           0       -4.007921    3.126428   -0.072638
      2          6           0       -2.874209    2.053818   -0.180117
      3          6           0       -1.510482    2.275432   -0.092897
      4          6           0        0.031756    2.141207   -0.023980
      5          6           0        1.066551    1.182828   -0.116578
      6          6           0        2.372999    1.636786    0.217628
      7          6           0        3.063681    0.619244    0.786898
      8          6           0        4.360785    0.430967    0.188323
      9          8           0        5.215664    1.322077    0.024883
     10          6           0        4.228952   -1.012150   -0.187322
     11          7           0        4.914763   -2.102833    0.107399
     12          8           0        2.736088   -1.202854   -0.633095
     13          6           0        1.083906   -0.444867   -0.467109
     14          6           0       -0.016686   -0.972576   -0.171598
     15          6           0       -0.974799   -2.159035    0.036403
     16          6           0       -2.288233   -2.082147    0.080910
     17          6           0       -3.476570   -2.908720    0.119129
     18          6           0       -4.635401   -2.184905    0.200097
     19          6           0       -4.613530   -0.452716    0.241663
     20          6           0       -3.626507    0.547055   -0.160163
     21          1           0       -4.919488    2.521257   -0.050634
     22          1           0       -4.188712    3.717424   -0.974347
     23          1           0       -4.142431    3.675418    0.881944
     24          1           0       -1.433547    1.226196    0.026437
     25          1           0        0.414342    3.179312    0.076354
     26          1           0        2.778288    2.620022   -0.021832
     27          1           0        2.549386   -0.411877    1.103781
     28          1           0        4.044665   -2.637108    0.039908
     29          1           0       -0.781600   -0.233134    0.060897
     30          1           0       -0.622167   -3.132766    0.057853
     31          1           0       -2.646151   -1.102867    0.050301
     32          1           0       -3.331812   -4.000559    0.051413
     33          1           0       -5.707446   -2.639442    0.135066
     34          1           0       -5.314082   -0.938532   -0.471877
     35          1           0       -3.822352    1.142799    0.756746
 ---------------------------------------------------------------------
 Rotational constants (GHZ):           0.5785553           0.1705494           0.1334369
 Standard basis: 6-31G(2df,p) (6D, 7F)
 There are   695 symmetry adapted cartesian basis functions of A   symmetry.
 There are   635 symmetry adapted basis functions of A   symmetry.
   635 basis functions,   985 primitive gaussians,   695 cartesian basis functions
    70 alpha electrons       70 beta electrons
       nuclear repulsion energy      1346.8016106845 Hartrees.
 NAtoms=   35 NActive=   35 NUniq=   35 SFac= 1.00D+00 NAtFMM=   60 NAOKFM=F Big=F
 Integral buffers will be    131072 words long.
 Raffenetti 2 integral format.
 Two-electron integral symmetry is turned on.
 One-electron integrals computed using PRISM.
 PrsmSu:  requested number of processors reduced to:  12 ShMem   1 Linda.
 NBasis=   635 RedAO= T EigKep=  2.38D-04  NBF=   635
 NBsUse=   635 1.00D-06 EigRej= -1.00D+00 NBFU=   635
 ExpMin= 1.61D-01 ExpMax= 5.48D+03 ExpMxC= 8.25D+02 IAcc=3 IRadAn=         5 AccDes= 0.00D+00
 Harris functional with IExCor=  402 and IRadAn=       5 diagonalized for initial guess.
 HarFok:  IExCor=  402 AccDes= 0.00D+00 IRadAn=         5 IDoV= 1 UseB2=F ITyADJ=14
 ICtDFT=  3500011 ScaDFX=  1.000000  1.000000  1.000000  1.000000
 FoFCou: FMM=F IPFlag=           0 FMFlag=      100000 FMFlg1=           0
         NFxFlg=           0 DoJE=T BraDBF=F KetDBF=T FulRan=T
         wScrn=  0.000000 ICntrl=       500 IOpCl=  0 I1Cent=   200000004 NGrid=           0
         NMat0=    1 NMatS0=      1 NMatT0=    0 NMatD0=    1 NMtDS0=    0 NMtDT0=    0
 Petite list used in FoFCou.
 Requested convergence on RMS density matrix=1.00D-08 within 128 cycles.
 Requested convergence on MAX density matrix=1.00D-06.
 Requested convergence on             energy=1.00D-06.
 No special actions if energy rises.
 Integral accuracy reduced to 1.0D-05 until final iterations.
 EnCoef did     4 forward-backward iterations
 Initial convergence to 1.0D-05 achieved.  Increase integral accuracy.
 SCF Done:  E(RB3LYP) =  -861.192444609     A.U. after   20 cycles
            NFock= 20  Conv=0.72D-08     -V/T= 2.0090

 **********************************************************************

            Population analysis using the SCF density.

 **********************************************************************

 Orbital symmetries:
       Occupied  (A) (A) (A) (A) (A) (A) (A) (A) (A) (A) (A) (A)
                 (A) (A) (A) (A) (A) (A) (A) (A) (A) (A) (A) (A)
                 (A) (A) (A) (A) (A) (A) (A) (A) (A) (A) (A) (A)
                 (A) (A) (A) (A) (A) (A) (A) (A) (A) (A) (A) (A)
                 (A) (A) (A) (A) (A) (A) (A) (A) (A) (A) (A) (A)
                 (A) (A) (A) (A) (A) (A) (A) (A) (A) (A)
       Virtual   (A) (A) (A) (A) (A) (A) (A) (A) (A) (A) (A) (A)
                 (A) (A) (A) (A) (A) (A) (A) (A) (A) (A) (A) (A)
                 (A) (A) (A) (A) (A) (A) (A) (A) (A) (A) (A) (A)
                 (A) (A) (A) (A) (A) (A) (A) (A) (A) (A) (A) (A)
                 (A) (A) (A) (A) (A) (A) (A) (A) (A) (A) (A) (A)
                 (A) (A) (A) (A) (A) (A) (A) (A) (A) (A) (A) (A)
                 (A) (A) (A) (A) (A) (A) (A) (A) (A) (A) (A) (A)
                 (A) (A) (A) (A) (A) (A) (A) (A) (A) (A) (A) (A)
                 (A) (A) (A) (A) (A) (A) (A) (A) (A) (A) (A) (A)
                 (A) (A) (A) (A) (A) (A) (A) (A) (A) (A) (A) (A)
                 (A) (A) (A) (A) (A) (A) (A) (A) (A) (A) (A) (A)
                 (A) (A) (A) (A) (A) (A) (A) (A) (A) (A) (A) (A)
                 (A) (A) (A) (A) (A) (A) (A) (A) (A) (A) (A) (A)
                 (A) (A) (A) (A) (A) (A) (A) (A) (A) (A) (A) (A)
                 (A) (A) (A) (A) (A) (A) (A) (A) (A) (A) (A) (A)
                 (A) (A) (A) (A) (A) (A) (A) (A) (A) (A) (A) (A)
                 (A) (A) (A) (A) (A) (A) (A) (A) (A) (A) (A) (A)
                 (A) (A) (A) (A) (A) (A) (A) (A) (A) (A) (A) (A)
                 (A) (A) (A) (A) (A) (A) (A) (A) (A) (A) (A) (A)
                 (A) (A) (A) (A) (A) (A) (A) (A) (A) (A) (A) (A)
                 (A) (A) (A) (A) (A) (A) (A) (A) (A) (A) (A) (A)
                 (A) (A) (A) (A) (A) (A) (A) (A) (A) (A) (A) (A)
                 (A) (A) (A) (A) (A) (A) (A) (A) (A) (A) (A) (A)
                 (A) (A) (A) (A) (A) (A) (A) (A) (A) (A) (A) (A)
                 (A) (A) (A) (A) (A) (A) (A) (A) (A) (A) (A) (A)
                 (A) (A) (A) (A) (A) (A) (A) (A) (A) (A) (A) (A)
                 (A) (A) (A) (A) (A) (A) (A) (A) (A) (A) (A) (A)
                 (A) (A) (A) (A) (A) (A) (A) (A) (A) (A) (A) (A)
                 (A) (A) (A) (A) (A) (A) (A) (A) (A) (A) (A) (A)
                 (A) (A) (A) (A) (A) (A) (A) (A) (A) (A) (A) (A)
                 (A) (A) (A) (A) (A) (A) (A) (A) (A) (A) (A) (A)
                 (A) (A) (A) (A) (A) (A) (A) (A) (A) (A) (A) (A)
                 (A) (A) (A) (A) (A) (A) (A) (A) (A) (A) (A) (A)
                 (A) (A) (A) (A) (A) (A) (A) (A) (A) (A) (A) (A)
                 (A) (A) (A) (A) (A) (A) (A) (A) (A) (A) (A) (A)
                 (A) (A) (A) (A) (A) (A) (A) (A) (A) (A) (A) (A)
                 (A) (A) (A) (A) (A) (A) (A) (A) (A) (A) (A) (A)
                 (A) (A) (A) (A) (A) (A) (A) (A) (A) (A) (A) (A)
                 (A) (A) (A) (A) (A) (A) (A) (A) (A) (A) (A) (A)
                 (A) (A) (A) (A) (A) (A) (A) (A) (A) (A) (A) (A)
                 (A) (A) (A) (A) (A) (A) (A) (A) (A) (A) (A) (A)
                 (A) (A) (A) (A) (A) (A) (A) (A) (A) (A) (A) (A)
                 (A) (A) (A) (A) (A) (A) (A) (A) (A) (A) (A) (A)
                 (A) (A) (A) (A) (A) (A) (A) (A) (A) (A) (A) (A)
                 (A) (A) (A) (A) (A) (A) (A) (A) (A) (A) (A) (A)
                 (A) (A) (A) (A) (A) (A) (A) (A) (A) (A) (A) (A)
                 (A) (A) (A) (A) (A) (A) (A) (A) (A) (A) (A) (A)
                 (A)
 The electronic state is 1-A.
 Alpha  occ. eigenvalues --  -19.15963 -19.12945 -14.34843 -10.31138 -10.30677
 Alpha  occ. eigenvalues --  -10.28735 -10.28400 -10.28271 -10.28221 -10.25928
 Alpha  occ. eigenvalues --  -10.25828 -10.25165 -10.22582 -10.22342 -10.21942
 Alpha  occ. eigenvalues --  -10.21688 -10.21070 -10.21060 -10.19918 -10.19811
 Alpha  occ. eigenvalues --   -1.02218  -0.97536  -0.89323  -0.87216  -0.85272
 Alpha  occ. eigenvalues --   -0.84955  -0.82212  -0.79034  -0.78189  -0.74661
 Alpha  occ. eigenvalues --   -0.74150  -0.69832  -0.67994  -0.62502  -0.61535
 Alpha  occ. eigenvalues --   -0.58228  -0.56581  -0.55133  -0.53574  -0.51983
 Alpha  occ. eigenvalues --   -0.50787  -0.48939  -0.48660  -0.47152  -0.46642
 Alpha  occ. eigenvalues --   -0.45911  -0.44751  -0.42678  -0.42483  -0.41954
 Alpha  occ. eigenvalues --   -0.41463  -0.40659  -0.39554  -0.38797  -0.37625
 Alpha  occ. eigenvalues --   -0.37274  -0.36019  -0.35699  -0.34968  -0.32871
 Alpha  occ. eigenvalues --   -0.32280  -0.31815  -0.30768  -0.29128  -0.28523
 Alpha  occ. eigenvalues --   -0.27464  -0.25882  -0.24163  -0.22036  -0.19607
 Alpha virt. eigenvalues --   -0.13833  -0.09483  -0.08415  -0.06141  -0.04504
 Alpha virt. eigenvalues --   -0.03696  -0.02035   0.02623   0.04739   0.05098
 Alpha virt. eigenvalues --    0.06366   0.06854   0.07323   0.08215   0.09713
 Alpha virt. eigenvalues --    0.09920   0.10874   0.12209   0.12605   0.13086
 Alpha virt. eigenvalues --    0.13997   0.14794   0.15188   0.16084   0.16375
 Alpha virt. eigenvalues --    0.16672   0.16826   0.19083   0.20750   0.22987
 Alpha virt. eigenvalues --    0.24472   0.25485   0.26610   0.30544   0.31165
 Alpha virt. eigenvalues --    0.32259   0.32829   0.34562   0.35181   0.36572
 Alpha virt. eigenvalues --    0.36824   0.38476   0.38969   0.39588   0.40875
 Alpha virt. eigenvalues --    0.42021   0.42528   0.43075   0.44054   0.44520
 Alpha virt. eigenvalues --    0.45522   0.45786   0.46156   0.46954   0.47369
 Alpha virt. eigenvalues --    0.48808   0.49344   0.49727   0.50196   0.50534
 Alpha virt. eigenvalues --    0.51042   0.51705   0.52137   0.52767   0.53815
 Alpha virt. eigenvalues --    0.54124   0.54931   0.55711   0.55943   0.56887
 Alpha virt. eigenvalues --    0.57184   0.58123   0.58906   0.59778   0.60610
 Alpha virt. eigenvalues --    0.61373   0.62300   0.62499   0.63771   0.64237
 Alpha virt. eigenvalues --    0.64499   0.65175   0.65512   0.65832   0.66856
 Alpha virt. eigenvalues --    0.67386   0.68489   0.69662   0.70318   0.70686
 Alpha virt. eigenvalues --    0.70731   0.70946   0.71753   0.72541   0.72844
 Alpha virt. eigenvalues --    0.74005   0.74268   0.75121   0.75556   0.76240
 Alpha virt. eigenvalues --    0.76462   0.76788   0.77116   0.77707   0.78313
 Alpha virt. eigenvalues --    0.79118   0.79968   0.80284   0.80662   0.80859
 Alpha virt. eigenvalues --    0.81224   0.81897   0.82919   0.83440   0.83888
 Alpha virt. eigenvalues --    0.84637   0.85512   0.86181   0.87261   0.87713
 Alpha virt. eigenvalues --    0.88834   0.89993   0.91379   0.92056   0.93414
 Alpha virt. eigenvalues --    0.94001   0.95718   0.95832   0.96601   0.97812
 Alpha virt. eigenvalues --    0.98506   0.98828   0.99472   1.00655   1.02412
 Alpha virt. eigenvalues --    1.02835   1.03664   1.05032   1.05969   1.06991
 Alpha virt. eigenvalues --    1.07533   1.08540   1.09145   1.10872   1.11305
 Alpha virt. eigenvalues --    1.12344   1.13481   1.13800   1.14262   1.14808
 Alpha virt. eigenvalues --    1.15800   1.16884   1.17945   1.19918   1.20531
 Alpha virt. eigenvalues --    1.21549   1.21816   1.23129   1.24958   1.26925
 Alpha virt. eigenvalues --    1.27467   1.28621   1.29333   1.30573   1.31547
 Alpha virt. eigenvalues --    1.33101   1.33536   1.35044   1.35389   1.35678
 Alpha virt. eigenvalues --    1.36664   1.37385   1.37838   1.39421   1.39698
 Alpha virt. eigenvalues --    1.41400   1.42467   1.42879   1.45124   1.45195
 Alpha virt. eigenvalues --    1.47351   1.47790   1.48816   1.49119   1.50441
 Alpha virt. eigenvalues --    1.50604   1.50837   1.51139   1.53166   1.54214
 Alpha virt. eigenvalues --    1.55266   1.57000   1.57795   1.59307   1.59546
 Alpha virt. eigenvalues --    1.59952   1.61459   1.62711   1.64558   1.65783
 Alpha virt. eigenvalues --    1.66990   1.68442   1.69070   1.70480   1.71315
 Alpha virt. eigenvalues --    1.72080   1.72692   1.74020   1.75637   1.76650
 Alpha virt. eigenvalues --    1.77078   1.77880   1.79889   1.80209   1.81561
 Alpha virt. eigenvalues --    1.83208   1.84316   1.86203   1.86579   1.87613
 Alpha virt. eigenvalues --    1.91554   1.93257   1.93351   1.95831   1.96476
 Alpha virt. eigenvalues --    1.98348   2.00141   2.00269   2.03215   2.04467
 Alpha virt. eigenvalues --    2.04701   2.05960   2.07676   2.07869   2.09929
 Alpha virt. eigenvalues --    2.11830   2.13331   2.14151   2.15635   2.16715
 Alpha virt. eigenvalues --    2.17616   2.18276   2.19765   2.21643   2.22959
 Alpha virt. eigenvalues --    2.23269   2.25059   2.26677   2.27662   2.28829
 Alpha virt. eigenvalues --    2.30448   2.31938   2.33276   2.35235   2.35919
 Alpha virt. eigenvalues --    2.38135   2.38669   2.41323   2.41793   2.43764
 Alpha virt. eigenvalues --    2.44117   2.45726   2.48173   2.49373   2.50812
 Alpha virt. eigenvalues --    2.52871   2.53337   2.55858   2.59237   2.60350
 Alpha virt. eigenvalues --    2.61000   2.62671   2.65655   2.68606   2.69340
 Alpha virt. eigenvalues --    2.69724   2.71068   2.72691   2.73431   2.75311
 Alpha virt. eigenvalues --    2.76238   2.76990   2.77935   2.78575   2.79888
 Alpha virt. eigenvalues --    2.81738   2.82653   2.82986   2.84087   2.84846
 Alpha virt. eigenvalues --    2.87035   2.87570   2.88373   2.89650   2.90118
 Alpha virt. eigenvalues --    2.91278   2.91404   2.92787   2.94844   2.95316
 Alpha virt. eigenvalues --    2.96237   2.97595   2.97968   2.98908   2.99538
 Alpha virt. eigenvalues --    2.99977   3.01737   3.02873   3.03839   3.04491
 Alpha virt. eigenvalues --    3.04708   3.05425   3.07169   3.07834   3.08538
 Alpha virt. eigenvalues --    3.10753   3.11075   3.11905   3.12372   3.13636
 Alpha virt. eigenvalues --    3.14345   3.15140   3.16797   3.17530   3.18326
 Alpha virt. eigenvalues --    3.18999   3.19479   3.20369   3.21506   3.22414
 Alpha virt. eigenvalues --    3.23288   3.24285   3.24872   3.26369   3.28569
 Alpha virt. eigenvalues --    3.29715   3.30574   3.31357   3.32056   3.32393
 Alpha virt. eigenvalues --    3.32958   3.34266   3.35608   3.36684   3.38014
 Alpha virt. eigenvalues --    3.38478   3.38925   3.39713   3.40519   3.41209
 Alpha virt. eigenvalues --    3.42738   3.43422   3.45188   3.46013   3.47305
 Alpha virt. eigenvalues --    3.47730   3.48377   3.48534   3.49888   3.50159
 Alpha virt. eigenvalues --    3.51887   3.52819   3.53751   3.55214   3.56446
 Alpha virt. eigenvalues --    3.57504   3.58574   3.59819   3.60531   3.61760
 Alpha virt. eigenvalues --    3.64224   3.64756   3.65031   3.66454   3.68192
 Alpha virt. eigenvalues --    3.68622   3.71542   3.71967   3.73474   3.75759
 Alpha virt. eigenvalues --    3.77006   3.78853   3.80351   3.83270   3.83636
 Alpha virt. eigenvalues --    3.85437   3.86435   3.87841   3.90009   3.91606
 Alpha virt. eigenvalues --    3.93491   3.94688   3.95627   3.97560   3.99616
 Alpha virt. eigenvalues --    4.00218   4.01588   4.02182   4.02560   4.04069
 Alpha virt. eigenvalues --    4.05514   4.06151   4.10649   4.11116   4.13167
 Alpha virt. eigenvalues --    4.14849   4.15940   4.16365   4.18405   4.19830
 Alpha virt. eigenvalues --    4.20079   4.22123   4.22883   4.24746   4.25379
 Alpha virt. eigenvalues --    4.26853   4.27288   4.28037   4.28966   4.29891
 Alpha virt. eigenvalues --    4.30411   4.31137   4.31920   4.32598   4.33335
 Alpha virt. eigenvalues --    4.34017   4.35745   4.36469   4.36919   4.37487
 Alpha virt. eigenvalues --    4.38367   4.39631   4.40093   4.41414   4.43185
 Alpha virt. eigenvalues --    4.44921   4.45493   4.46173   4.46928   4.47990
 Alpha virt. eigenvalues --    4.49092   4.49720   4.49945   4.50426   4.50669
 Alpha virt. eigenvalues --    4.51599   4.53116   4.54341   4.54644   4.56056
 Alpha virt. eigenvalues --    4.56450   4.57400   4.58142   4.58894   4.59300
 Alpha virt. eigenvalues --    4.60214   4.60694   4.62386   4.63153   4.64682
 Alpha virt. eigenvalues --    4.65294   4.66445   4.67268   4.68730   4.69217
 Alpha virt. eigenvalues --    4.69564   4.71168   4.71506   4.72189   4.73472
 Alpha virt. eigenvalues --    4.74224   4.75253   4.75801   4.76457   4.77230
 Alpha virt. eigenvalues --    4.78461   4.78955   4.80024   4.80700   4.84991
 Alpha virt. eigenvalues --    4.85485   4.87020   4.88195   4.90315   4.90971
 Alpha virt. eigenvalues --    4.92359   4.93502   4.93912   4.95635   4.99111
 Alpha virt. eigenvalues --    5.00407   5.01180   5.02232   5.03804   5.05985
 Alpha virt. eigenvalues --    5.08951   5.09294   5.09776   5.10096   5.13320
 Alpha virt. eigenvalues --    5.14424   5.15266   5.17811   5.18546   5.20317
 Alpha virt. eigenvalues --    5.21095   5.23540   5.26454   5.28605   5.30498
 Alpha virt. eigenvalues --    5.31269   5.33585   5.35137   5.36163   5.38611
 Alpha virt. eigenvalues --    5.39693   5.42019   5.43907   5.48476   5.49300
 Alpha virt. eigenvalues --    5.51490   5.52672   5.57264   5.58962   5.61873
 Alpha virt. eigenvalues --    5.63187   5.65634   5.66413   5.71651   5.74335
 Alpha virt. eigenvalues --    5.76883   5.79411   5.84068   5.87212   5.92465
 Alpha virt. eigenvalues --    5.98702   6.06740   6.11015   6.12567   6.35751
 Alpha virt. eigenvalues --    6.39958   6.58764   6.81194   6.95766   9.88580
 Alpha virt. eigenvalues --    9.93114   9.96592  10.21197  10.41271  10.66700
 Alpha virt. eigenvalues --   10.80607  10.98280  11.21483  11.28367  11.41455
 Alpha virt. eigenvalues --   11.53486  11.63670  11.76789  11.85471  11.96095
 Alpha virt. eigenvalues --   12.04952  12.10642  12.23376  13.16297  13.45398
          Condensed to atoms (all electrons):
               1          2          3          4          5          6
     1  C    5.134690   0.373571  -0.064928  -0.001032  -0.000031   0.000000
     2  C    0.373571   4.858454   0.587702  -0.038531  -0.003569   0.000029
     3  C   -0.064928   0.587702   5.062365   0.426447  -0.018904   0.004680
     4  C   -0.001032  -0.038531   0.426447   5.099911   0.574034  -0.033872
     5  C   -0.000031  -0.003569  -0.018904   0.574034   4.748674   0.386392
     6  C    0.000000   0.000029   0.004680  -0.033872   0.386392   4.927433
     7  C   -0.000000  -0.000002  -0.000378  -0.004419  -0.020666   0.539625
     8  C    0.000000   0.000000   0.000005   0.000294   0.004666  -0.014670
     9  O    0.000000   0.000000   0.000000   0.000005   0.000747  -0.002539
    10  C    0.000000   0.000000  -0.000000   0.000003   0.000981   0.003703
    11  N   -0.000000   0.000000   0.000000   0.000000  -0.000036   0.000314
    12  O   -0.000000  -0.000000  -0.000004   0.000430  -0.017399  -0.006933
    13  C   -0.000001   0.000257  -0.001457  -0.034661   0.331848  -0.040082
    14  C   -0.000025  -0.000137  -0.007619  -0.004841  -0.026435  -0.003896
    15  C    0.000005  -0.000162   0.000513   0.000784   0.002775  -0.000218
    16  C   -0.000032   0.000449   0.000262  -0.000003   0.000238   0.000002
    17  C   -0.000003   0.000044  -0.000016  -0.000001   0.000002   0.000000
    18  C   -0.000005   0.000459   0.000014   0.000001   0.000000   0.000000
    19  C   -0.001114  -0.026081   0.001362  -0.000050  -0.000003   0.000000
    20  C   -0.061597   0.354814  -0.039226  -0.000337   0.000147   0.000001
    21  H    0.343316  -0.032694   0.004258   0.000020   0.000001  -0.000000
    22  H    0.373929  -0.014959  -0.000264   0.000031   0.000000  -0.000000
    23  H    0.369710  -0.018778  -0.000045   0.000064   0.000001   0.000000
    24  H    0.007853  -0.012756   0.241803  -0.064155  -0.026056   0.000720
    25  H    0.000181   0.002582  -0.050360   0.358237  -0.053068  -0.014070
    26  H   -0.000000   0.000004   0.000161   0.000568  -0.038258   0.369351
    27  H   -0.000000  -0.000000   0.000005   0.000768  -0.009120  -0.031611
    28  H   -0.000000  -0.000000  -0.000000  -0.000000   0.000092  -0.000023
    29  H    0.000150  -0.001934  -0.004319  -0.002380  -0.028314   0.000398
    30  H   -0.000000  -0.000000  -0.000012  -0.000007  -0.000091   0.000002
    31  H    0.000250  -0.001825  -0.001450  -0.000253  -0.000163   0.000000
    32  H    0.000000   0.000000  -0.000000   0.000000  -0.000000   0.000000
    33  H    0.000000   0.000002   0.000000  -0.000000  -0.000000  -0.000000
    34  H    0.000021  -0.001511  -0.000061  -0.000001   0.000000   0.000000
    35  H   -0.001623  -0.030830  -0.017785  -0.000288  -0.000004   0.000000
               7          8          9         10         11         12
     1  C   -0.000000   0.000000   0.000000   0.000000  -0.000000  -0.000000
     2  C   -0.000002   0.000000   0.000000   0.000000   0.000000  -0.000000
     3  C   -0.000378   0.000005   0.000000  -0.000000   0.000000  -0.000004
     4  C   -0.004419   0.000294   0.000005   0.000003   0.000000   0.000430
     5  C   -0.020666   0.004666   0.000747   0.000981  -0.000036  -0.017399
     6  C    0.539625  -0.014670  -0.002539   0.003703   0.000314  -0.006933
     7  C    5.364961   0.314903  -0.073485  -0.138676  -0.002018  -0.028057
     8  C    0.314903   4.330113   0.748664   0.266452  -0.014120  -0.039046
     9  O   -0.073485   0.748664   7.734605  -0.041587  -0.000701   0.000392
    10  C   -0.138676   0.266452  -0.041587   4.826962   0.603930   0.298280
    11  N   -0.002018  -0.014120  -0.000701   0.603930   6.606228  -0.060503
    12  O   -0.028057  -0.039046   0.000392   0.298280  -0.060503   8.146435
    13  C   -0.037418   0.001399  -0.000035  -0.005198   0.001557   0.208446
    14  C    0.005509   0.000564  -0.000002  -0.000442   0.000094  -0.016923
    15  C    0.000049   0.000002  -0.000000   0.000015  -0.000003  -0.000651
    16  C   -0.000001  -0.000000   0.000000  -0.000000  -0.000000   0.000023
    17  C    0.000000   0.000000  -0.000000  -0.000000   0.000000  -0.000000
    18  C    0.000000  -0.000000   0.000000  -0.000000  -0.000000   0.000000
    19  C    0.000000   0.000000  -0.000000   0.000000  -0.000000  -0.000000
    20  C    0.000000   0.000000  -0.000000  -0.000000   0.000000   0.000000
    21  H   -0.000000  -0.000000   0.000000  -0.000000   0.000000   0.000000
    22  H   -0.000000  -0.000000   0.000000   0.000000   0.000000   0.000000
    23  H   -0.000000   0.000000  -0.000000  -0.000000  -0.000000  -0.000000
    24  H    0.000018   0.000000   0.000000   0.000000  -0.000000  -0.000003
    25  H    0.000711   0.000003  -0.000001  -0.000001  -0.000000  -0.000010
    26  H   -0.042783   0.001711   0.005402   0.000637  -0.000003  -0.000299
    27  H    0.350948  -0.018851   0.002044  -0.009133  -0.001925  -0.014353
    28  H   -0.001558   0.006980  -0.000102  -0.081271   0.309996   0.013603
    29  H    0.000203  -0.000002   0.000000  -0.000027   0.000001   0.001711
    30  H    0.000003  -0.000000  -0.000000  -0.000009   0.000001   0.000170
    31  H    0.000000   0.000000  -0.000000   0.000000   0.000000  -0.000001
    32  H   -0.000000  -0.000000   0.000000   0.000000  -0.000000   0.000000
    33  H   -0.000000  -0.000000   0.000000   0.000000  -0.000000   0.000000
    34  H    0.000000   0.000000  -0.000000  -0.000000   0.000000   0.000000
    35  H    0.000000   0.000000  -0.000000  -0.000000   0.000000   0.000000
              13         14         15         16         17         18
     1  C   -0.000001  -0.000025   0.000005  -0.000032  -0.000003  -0.000005
     2  C    0.000257  -0.000137  -0.000162   0.000449   0.000044   0.000459
     3  C   -0.001457  -0.007619   0.000513   0.000262  -0.000016   0.000014
     4  C   -0.034661  -0.004841   0.000784  -0.000003  -0.000001   0.000001
     5  C    0.331848  -0.026435   0.002775   0.000238   0.000002   0.000000
     6  C   -0.040082  -0.003896  -0.000218   0.000002   0.000000   0.000000
     7  C   -0.037418   0.005509   0.000049  -0.000001   0.000000   0.000000
     8  C    0.001399   0.000564   0.000002  -0.000000   0.000000  -0.000000
     9  O   -0.000035  -0.000002  -0.000000   0.000000  -0.000000   0.000000
    10  C   -0.005198  -0.000442   0.000015  -0.000000  -0.000000  -0.000000
    11  N    0.001557   0.000094  -0.000003  -0.000000   0.000000  -0.000000
    12  O    0.208446  -0.016923  -0.000651   0.000023  -0.000000   0.000000
    13  C    5.355161   0.432878  -0.035789   0.005428  -0.000119   0.000003
    14  C    0.432878   4.828944   0.417507   0.013718   0.005638   0.000023
    15  C   -0.035789   0.417507   4.958058   0.624838  -0.007358   0.004639
    16  C    0.005428   0.013718   0.624838   4.578368   0.483774   0.013750
    17  C   -0.000119   0.005638  -0.007358   0.483774   4.859110   0.571454
    18  C    0.000003   0.000023   0.004639   0.013750   0.571454   5.065920
    19  C    0.000005   0.000341   0.001878  -0.048811   0.000577   0.305829
    20  C    0.000113   0.002471  -0.002195  -0.017328   0.000696  -0.012134
    21  H   -0.000000   0.000001   0.000000   0.000007  -0.000002   0.000027
    22  H    0.000000   0.000000  -0.000000   0.000000   0.000000  -0.000001
    23  H   -0.000000   0.000000  -0.000000   0.000001   0.000000   0.000001
    24  H    0.001554  -0.006372  -0.001304  -0.001924  -0.000002  -0.000074
    25  H    0.003013  -0.000283   0.000003  -0.000001   0.000000  -0.000000
    26  H    0.001616   0.000050   0.000001   0.000000   0.000000  -0.000000
    27  H   -0.009882   0.000203   0.000132   0.000014  -0.000000   0.000000
    28  H    0.000575  -0.000172   0.000019   0.000001  -0.000000   0.000000
    29  H   -0.072506   0.309374  -0.015873  -0.023737  -0.000951   0.000028
    30  H   -0.006530  -0.063216   0.350884  -0.037115  -0.018553  -0.000101
    31  H   -0.000558  -0.036715  -0.056349   0.317633  -0.071306  -0.051819
    32  H    0.000002  -0.000140  -0.007655  -0.033893   0.362897  -0.044963
    33  H   -0.000000  -0.000001  -0.000150   0.002375  -0.027423   0.361494
    34  H    0.000000   0.000009  -0.000219   0.000961  -0.007304  -0.040495
    35  H    0.000005   0.000027  -0.000130   0.000899   0.000125  -0.001581
              19         20         21         22         23         24
     1  C   -0.001114  -0.061597   0.343316   0.373929   0.369710   0.007853
     2  C   -0.026081   0.354814  -0.032694  -0.014959  -0.018778  -0.012756
     3  C    0.001362  -0.039226   0.004258  -0.000264  -0.000045   0.241803
     4  C   -0.000050  -0.000337   0.000020   0.000031   0.000064  -0.064155
     5  C   -0.000003   0.000147   0.000001   0.000000   0.000001  -0.026056
     6  C    0.000000   0.000001  -0.000000  -0.000000   0.000000   0.000720
     7  C    0.000000   0.000000  -0.000000  -0.000000  -0.000000   0.000018
     8  C    0.000000   0.000000  -0.000000  -0.000000   0.000000   0.000000
     9  O   -0.000000  -0.000000   0.000000   0.000000  -0.000000   0.000000
    10  C    0.000000  -0.000000  -0.000000   0.000000  -0.000000   0.000000
    11  N   -0.000000   0.000000   0.000000   0.000000  -0.000000  -0.000000
    12  O   -0.000000   0.000000   0.000000   0.000000  -0.000000  -0.000003
    13  C    0.000005   0.000113  -0.000000   0.000000  -0.000000   0.001554
    14  C    0.000341   0.002471   0.000001   0.000000   0.000000  -0.006372
    15  C    0.001878  -0.002195   0.000000  -0.000000  -0.000000  -0.001304
    16  C   -0.048811  -0.017328   0.000007   0.000000   0.000001  -0.001924
    17  C    0.000577   0.000696  -0.000002   0.000000   0.000000  -0.000002
    18  C    0.305829  -0.012134   0.000027  -0.000001   0.000001  -0.000074
    19  C    5.440030   0.486544   0.005092  -0.000134   0.000497   0.001029
    20  C    0.486544   5.181077   0.010115   0.001288   0.001257  -0.015556
    21  H    0.005092   0.010115   0.587000  -0.026405  -0.032126  -0.000726
    22  H   -0.000134   0.001288  -0.026405   0.530330  -0.026200   0.000035
    23  H    0.000497   0.001257  -0.032126  -0.026200   0.554776  -0.000188
    24  H    0.001029  -0.015556  -0.000726   0.000035  -0.000188   0.620322
    25  H    0.000001  -0.000013  -0.000003  -0.000012  -0.000005   0.007728
    26  H    0.000000   0.000000  -0.000000  -0.000000   0.000000  -0.000008
    27  H    0.000000  -0.000000   0.000000   0.000000   0.000000  -0.000016
    28  H   -0.000000  -0.000000   0.000000   0.000000  -0.000000  -0.000000
    29  H   -0.000441  -0.003190  -0.000003  -0.000001  -0.000002   0.032086
    30  H   -0.000148  -0.000066   0.000000   0.000000   0.000000   0.000044
    31  H   -0.011513  -0.008221   0.000070  -0.000005  -0.000006   0.000624
    32  H    0.002436   0.000035   0.000000  -0.000000   0.000000  -0.000001
    33  H   -0.036145   0.001878   0.000002  -0.000000   0.000000   0.000001
    34  H    0.238320  -0.042123  -0.000391   0.000019  -0.000013   0.000044
    35  H   -0.049687   0.262983  -0.004331   0.000588  -0.001639  -0.000426
              25         26         27         28         29         30
     1  C    0.000181  -0.000000  -0.000000  -0.000000   0.000150  -0.000000
     2  C    0.002582   0.000004  -0.000000  -0.000000  -0.001934  -0.000000
     3  C   -0.050360   0.000161   0.000005  -0.000000  -0.004319  -0.000012
     4  C    0.358237   0.000568   0.000768  -0.000000  -0.002380  -0.000007
     5  C   -0.053068  -0.038258  -0.009120   0.000092  -0.028314  -0.000091
     6  C   -0.014070   0.369351  -0.031611  -0.000023   0.000398   0.000002
     7  C    0.000711  -0.042783   0.350948  -0.001558   0.000203   0.000003
     8  C    0.000003   0.001711  -0.018851   0.006980  -0.000002  -0.000000
     9  O   -0.000001   0.005402   0.002044  -0.000102   0.000000  -0.000000
    10  C   -0.000001   0.000637  -0.009133  -0.081271  -0.000027  -0.000009
    11  N   -0.000000  -0.000003  -0.001925   0.309996   0.000001   0.000001
    12  O   -0.000010  -0.000299  -0.014353   0.013603   0.001711   0.000170
    13  C    0.003013   0.001616  -0.009882   0.000575  -0.072506  -0.006530
    14  C   -0.000283   0.000050   0.000203  -0.000172   0.309374  -0.063216
    15  C    0.000003   0.000001   0.000132   0.000019  -0.015873   0.350884
    16  C   -0.000001   0.000000   0.000014   0.000001  -0.023737  -0.037115
    17  C    0.000000   0.000000  -0.000000  -0.000000  -0.000951  -0.018553
    18  C   -0.000000  -0.000000   0.000000   0.000000   0.000028  -0.000101
    19  C    0.000001   0.000000   0.000000  -0.000000  -0.000441  -0.000148
    20  C   -0.000013   0.000000  -0.000000  -0.000000  -0.003190  -0.000066
    21  H   -0.000003  -0.000000   0.000000   0.000000  -0.000003   0.000000
    22  H   -0.000012  -0.000000   0.000000   0.000000  -0.000001   0.000000
    23  H   -0.000005   0.000000   0.000000  -0.000000  -0.000002   0.000000
    24  H    0.007728  -0.000008  -0.000016  -0.000000   0.032086   0.000044
    25  H    0.610408   0.004080  -0.000004   0.000000   0.000167  -0.000000
    26  H    0.004080   0.545059   0.003539   0.000002  -0.000024  -0.000000
    27  H   -0.000004   0.003539   0.579382   0.002199   0.000009  -0.000000
    28  H    0.000000   0.000002   0.002199   0.497402   0.000002   0.000008
    29  H    0.000167  -0.000024   0.000009   0.000002   0.658650   0.007122
    30  H   -0.000000  -0.000000  -0.000000   0.000008   0.007122   0.658648
    31  H    0.000001  -0.000000  -0.000001  -0.000000   0.015012   0.014424
    32  H   -0.000000  -0.000000   0.000000   0.000000   0.000003   0.002928
    33  H    0.000000  -0.000000   0.000000   0.000000   0.000000   0.000006
    34  H    0.000000   0.000000  -0.000000  -0.000000   0.000009   0.000004
    35  H    0.000001   0.000000  -0.000000  -0.000000   0.000039   0.000002
              31         32         33         34         35
     1  C    0.000250   0.000000   0.000000   0.000021  -0.001623
     2  C   -0.001825   0.000000   0.000002  -0.001511  -0.030830
     3  C   -0.001450  -0.000000   0.000000  -0.000061  -0.017785
     4  C   -0.000253   0.000000  -0.000000  -0.000001  -0.000288
     5  C   -0.000163  -0.000000  -0.000000   0.000000  -0.000004
     6  C    0.000000   0.000000  -0.000000   0.000000   0.000000
     7  C    0.000000  -0.000000  -0.000000   0.000000   0.000000
     8  C    0.000000  -0.000000  -0.000000   0.000000   0.000000
     9  O   -0.000000   0.000000   0.000000  -0.000000  -0.000000
    10  C    0.000000   0.000000   0.000000  -0.000000  -0.000000
    11  N    0.000000  -0.000000  -0.000000   0.000000   0.000000
    12  O   -0.000001   0.000000   0.000000   0.000000   0.000000
    13  C   -0.000558   0.000002  -0.000000   0.000000   0.000005
    14  C   -0.036715  -0.000140  -0.000001   0.000009   0.000027
    15  C   -0.056349  -0.007655  -0.000150  -0.000219  -0.000130
    16  C    0.317633  -0.033893   0.002375   0.000961   0.000899
    17  C   -0.071306   0.362897  -0.027423  -0.007304   0.000125
    18  C   -0.051819  -0.044963   0.361494  -0.040495  -0.001581
    19  C   -0.011513   0.002436  -0.036145   0.238320  -0.049687
    20  C   -0.008221   0.000035   0.001878  -0.042123   0.262983
    21  H    0.000070   0.000000   0.000002  -0.000391  -0.004331
    22  H   -0.000005  -0.000000  -0.000000   0.000019   0.000588
    23  H   -0.000006   0.000000   0.000000  -0.000013  -0.001639
    24  H    0.000624  -0.000001   0.000001   0.000044  -0.000426
    25  H    0.000001  -0.000000   0.000000   0.000000   0.000001
    26  H   -0.000000  -0.000000  -0.000000   0.000000   0.000000
    27  H   -0.000001   0.000000   0.000000  -0.000000  -0.000000
    28  H   -0.000000   0.000000   0.000000  -0.000000  -0.000000
    29  H    0.015012   0.000003   0.000000   0.000009   0.000039
    30  H    0.014424   0.002928   0.000006   0.000004   0.000002
    31  H    0.807528   0.008732   0.000666   0.002522   0.000723
    32  H    0.008732   0.573412  -0.001808  -0.000279   0.000001
    33  H    0.000666  -0.001808   0.545643  -0.005760  -0.000073
    34  H    0.002522  -0.000279  -0.005760   0.662816   0.008114
    35  H    0.000723   0.000001  -0.000073   0.008114   0.572893
 Mulliken charges:
               1
     1  C   -0.473284
     2  C    0.005404
     3  C   -0.122751
     4  C   -0.276765
     5  C    0.191521
     6  C   -0.084733
     7  C   -0.227469
     8  C    0.410932
     9  O   -0.373410
    10  C    0.275381
    11  N   -0.442811
    12  O   -0.485308
    13  C   -0.099625
    14  C    0.149868
    15  C   -0.234048
    16  C    0.120105
    17  C   -0.151281
    18  C   -0.172468
    19  C   -0.309815
    20  C   -0.101432
    21  H    0.146772
    22  H    0.161759
    23  H    0.152695
    24  H    0.215706
    25  H    0.130716
    26  H    0.149195
    27  H    0.155654
    28  H    0.252247
    29  H    0.128741
    30  H    0.091602
    31  H    0.072002
    32  H    0.138293
    33  H    0.159293
    34  H    0.185317
    35  H    0.261996
 Sum of Mulliken charges =  -0.00000
 Mulliken charges with hydrogens summed into heavy atoms:
               1
     1  C   -0.012058
     2  C    0.005404
     3  C    0.092955
     4  C   -0.146049
     5  C    0.191521
     6  C    0.064462
     7  C   -0.071815
     8  C    0.410932
     9  O   -0.373410
    10  C    0.275381
    11  N   -0.190564
    12  O   -0.485308
    13  C   -0.099625
    14  C    0.278609
    15  C   -0.142446
    16  C    0.192107
    17  C   -0.012987
    18  C   -0.013175
    19  C   -0.124498
    20  C    0.160564
 Electronic spatial extent (au):  <R**2>=           7587.0701
 Charge=             -0.0000 electrons
 Dipole moment (field-independent basis, Debye):
    X=            -10.1738    Y=              0.0293    Z=              0.6541  Tot=             10.1948
 Quadrupole moment (field-independent basis, Debye-Ang):
   XX=           -134.6266   YY=           -105.7592   ZZ=           -122.0691
   XY=              1.4150   XZ=              2.1478   YZ=             -0.1855
 Traceless Quadrupole moment (field-independent basis, Debye-Ang):
   XX=            -13.8083   YY=             15.0591   ZZ=             -1.2508
   XY=              1.4150   XZ=              2.1478   YZ=             -0.1855
 Octapole moment (field-independent basis, Debye-Ang**2):
  XXX=           -310.0569  YYY=            -15.8544  ZZZ=             -2.5214  XYY=            -54.5419
  XXY=            -13.9661  XXZ=             -9.1394  XZZ=             21.1424  YZZ=              4.1911
  YYZ=             -1.6139  XYZ=             -8.0868
 Hexadecapole moment (field-independent basis, Debye-Ang**3):
 XXXX=          -8569.0648 YYYY=          -2201.6634 ZZZZ=           -192.0727 XXXY=            105.5166
 XXXZ=             42.6685 YYYX=             66.0091 YYYZ=             -2.8473 ZZZX=             -1.7669
 ZZZY=              3.8344 XXYY=          -1596.8602 XXZZ=          -1364.4003 YYZZ=           -453.0155
 XXYZ=             24.7255 YYXZ=             -1.3810 ZZXY=            -26.8402
 N-N= 1.346801610684D+03 E-N=-4.693632796933D+03  KE= 8.535100504207D+02
 PrsmSu:  requested number of processors reduced to:  12 ShMem   1 Linda.
 Calling FoFJK, ICntrl=      2127 FMM=F ISym2X=0 I1Cent= 0 IOpClX= 0 NMat=1 NMatS=1 NMatT=0.
 ***** Axes restored to original set *****
 -------------------------------------------------------------------
 Center     Atomic                   Forces (Hartrees/Bohr)
 Number     Number              X              Y              Z
 -------------------------------------------------------------------
      1        6          -0.023694254   -0.001382947   -0.029401106
      2        6           0.002321012    0.025192657    0.047656235
      3        6           0.003387715    0.004915058   -0.064301412
      4        6          -0.009023314    0.008638351    0.054720418
      5        6          -0.034840871    0.015626153   -0.013139304
      6        6          -0.004087389   -0.014462463   -0.011096703
      7        6          -0.015668861   -0.025229005   -0.018761200
      8        6           0.054729721   -0.014132663    0.043579522
      9        8          -0.028987778    0.005984568   -0.047866206
     10        6          -0.005329688    0.000447175   -0.040857020
     11        7          -0.050847812    0.018543153    0.084342942
     12        8          -0.011779869    0.017581847   -0.016189050
     13        6           0.121680732   -0.017194791    0.094223220
     14        6          -0.158101992   -0.026574198   -0.086755184
     15        6           0.067302007    0.019408488   -0.004163082
     16        6          -0.023871079   -0.005029242    0.008089577
     17        6           0.032975861   -0.003584506    0.013191758
     18        6          -0.023037385   -0.034587742    0.014093611
     19        6           0.000586216    0.042946873   -0.047800906
     20        6          -0.039417440   -0.034146948    0.021036124
     21        1          -0.007543546    0.002786405    0.000012113
     22        1           0.014429912   -0.002907955    0.004867930
     23        1           0.019897195    0.010849967    0.001926788
     24        1          -0.005057264    0.006690561   -0.053500444
     25        1           0.006019655   -0.002793352   -0.017259804
     26        1           0.001446567    0.005749592   -0.007560695
     27        1           0.026304774   -0.003070528    0.062232505
     28        1           0.000164631    0.003192625   -0.037484545
     29        1           0.010882094    0.005301348    0.014458479
     30        1           0.026214368    0.000655529   -0.038854746
     31        1           0.004365567   -0.000743143    0.030105623
     32        1          -0.015775190    0.003449454    0.012748979
     33        1           0.042767176   -0.009929539    0.017137762
     34        1           0.000166642    0.043741887    0.035739412
     35        1           0.021421888   -0.045932667   -0.025171588
 -------------------------------------------------------------------
 Cartesian Forces:  Max     0.158101992 RMS     0.035397864

 GradGradGradGradGradGradGradGradGradGradGradGradGradGradGradGradGradGrad
 Berny optimization.
 FormGI is forming the generalized inverse of G from B-inverse, IUseBI=4.
 Internal  Forces:  Max     0.155799928 RMS     0.036762917
 Search for a local minimum.
 Step number   1 out of a maximum of  167
 All quantities printed in internal units (Hartrees-Bohrs-Radians)
 Mixed Optimization -- RFO/linear search
 Second derivative matrix not updated -- first step.
 ITU=  0
     Eigenvalues ---    0.00230   0.00234   0.00237   0.00356   0.00506
     Eigenvalues ---    0.00656   0.00805   0.00806   0.01045   0.01067
     Eigenvalues ---    0.01136   0.01302   0.01473   0.01511   0.01524
     Eigenvalues ---    0.01548   0.01632   0.01652   0.01732   0.01786
     Eigenvalues ---    0.01940   0.02090   0.02251   0.02360   0.02682
     Eigenvalues ---    0.02728   0.02818   0.03261   0.03273   0.03637
     Eigenvalues ---    0.04755   0.07832   0.09400   0.10667   0.13922
     Eigenvalues ---    0.15867   0.15912   0.15948   0.15954   0.15976
     Eigenvalues ---    0.15987   0.15992   0.15996   0.15999   0.16000
     Eigenvalues ---    0.16000   0.16000   0.16000   0.16579   0.18786
     Eigenvalues ---    0.19010   0.19821   0.21722   0.21997   0.22005
     Eigenvalues ---    0.22008   0.22084   0.22474   0.22784   0.23156
     Eigenvalues ---    0.24582   0.24697   0.24713   0.24917   0.24981
     Eigenvalues ---    0.25000   0.25000   0.25031   0.26048   0.26462
     Eigenvalues ---    0.27303   0.27618   0.28512   0.32418   0.32505
     Eigenvalues ---    0.32510   0.32666   0.32692   0.33301   0.34311
     Eigenvalues ---    0.34448   0.34799   0.34928   0.36557   0.38297
     Eigenvalues ---    0.38682   0.39461   0.40850   0.41904   0.42030
     Eigenvalues ---    0.43285   0.43821   0.47966   0.50993   0.53935
     Eigenvalues ---    0.61520   0.62375   0.80335   0.84870
 RFO step:  Lambda=-3.72073863D-01 EMin= 2.30000000D-03
 Linear search not attempted -- first point.
 Maximum step size (   0.300) exceeded in Quadratic search.
    -- Step size scaled by   0.438
 Iteration  1 RMS(Cart)=  0.25005598 RMS(Int)=  0.01181835
 Iteration  2 RMS(Cart)=  0.06833704 RMS(Int)=  0.00071588
 Iteration  3 RMS(Cart)=  0.00142070 RMS(Int)=  0.00016882
 Iteration  4 RMS(Cart)=  0.00000093 RMS(Int)=  0.00016882
 Variable       Old X    -DE/DX   Delta X   Delta X   Delta X     New X
                                 (Linear)    (Quad)   (Total)
    R1        2.95629  -0.01997   0.00000  -0.01373  -0.01373   2.94256
    R2        2.06808   0.00666   0.00000   0.00408   0.00408   2.07216
    R3        2.06581  -0.00103   0.00000  -0.00063  -0.00063   2.06518
    R4        2.09641  -0.01019   0.00000  -0.00638  -0.00638   2.09003
    R5        2.61607  -0.02730   0.00000  -0.01526  -0.01529   2.60078
    R6        3.18277  -0.02998   0.00000  -0.02489  -0.02494   3.15782
    R7        2.92832  -0.03500   0.00000  -0.02517  -0.02520   2.90313
    R8        2.00084   0.05318   0.00000   0.03067   0.03067   2.03151
    R9        2.67105  -0.03961   0.00000  -0.02211  -0.02211   2.64894
   R10        2.09930  -0.01236   0.00000  -0.00776  -0.00776   2.09154
   R11        2.68885  -0.02864   0.00000  -0.01582  -0.01582   2.67303
   R12        3.14659  -0.04591   0.00000  -0.03459  -0.03456   3.11203
   R13        2.56091  -0.03876   0.00000  -0.01861  -0.01861   2.54230
   R14        2.06002  -0.00499   0.00000  -0.00303  -0.00303   2.05699
   R15        2.72292  -0.02071   0.00000  -0.01182  -0.01182   2.71110
   R16        2.25830  -0.06457   0.00000  -0.04540  -0.04540   2.21290
   R17        2.35391  -0.05250   0.00000  -0.01882  -0.01882   2.33509
   R18        2.82896   0.03401   0.00000   0.02129   0.02129   2.85025
   R19        2.49758  -0.06725   0.00000  -0.02981  -0.02981   2.46777
   R20        2.96616   0.01647   0.00000   0.01139   0.01139   2.97755
   R21        1.93369   0.01641   0.00000   0.00887   0.00887   1.94256
   R22        2.37317   0.08831   0.00000   0.03357   0.03362   2.40680
   R23        2.90854  -0.06309   0.00000  -0.04052  -0.04046   2.86808
   R24        2.05791   0.00224   0.00000   0.00136   0.00136   2.05927
   R25        2.48770   0.02755   0.00000   0.01308   0.01311   2.50081
   R26        1.95745   0.04416   0.00000   0.02443   0.02443   1.98188
   R27        2.73640  -0.00999   0.00000  -0.00434  -0.00429   2.73211
   R28        1.97115   0.02804   0.00000   0.01572   0.01572   1.98687
   R29        2.58648   0.00915   0.00000   0.00530   0.00530   2.59178
   R30        2.08526  -0.01279   0.00000  -0.00794  -0.00794   2.07732
   R31        3.27457  -0.04524   0.00000  -0.03760  -0.03764   3.23693
   R32        2.20387  -0.04652   0.00000  -0.03155  -0.03155   2.17232
   R33        2.76134  -0.05425   0.00000  -0.03338  -0.03343   2.72791
   R34        2.10085   0.01684   0.00000   0.01059   0.01059   2.11144
   R35        2.09920   0.02428   0.00000   0.01524   0.01524   2.11444
    A1        1.79864   0.01404   0.00000   0.01333   0.01338   1.81202
    A2        2.01956  -0.00730   0.00000  -0.00687  -0.00701   2.01254
    A3        2.07863  -0.01317   0.00000  -0.01152  -0.01165   2.06698
    A4        1.74953   0.00475   0.00000   0.00541   0.00544   1.75497
    A5        1.72678   0.00933   0.00000   0.00960   0.00967   1.73645
    A6        2.00664   0.00323   0.00000   0.00097   0.00078   2.00741
    A7        2.21405   0.00154   0.00000   0.00464   0.00473   2.21878
    A8        1.86385   0.01034   0.00000   0.01099   0.01109   1.87494
    A9        2.19257  -0.01173   0.00000  -0.01542  -0.01561   2.17696
   A10        1.49075   0.03216   0.00000   0.02917   0.02912   1.51988
   A11        1.40690   0.04050   0.00000   0.03605   0.03601   1.44291
   A12        2.47259  -0.04435   0.00000  -0.03810  -0.03816   2.43443
   A13        1.83986   0.03529   0.00000   0.02986   0.02988   1.86975
   A14        1.96860   0.00911   0.00000   0.00834   0.00837   1.97696
   A15        2.02694   0.11182   0.00000   0.07976   0.07974   2.10668
   A16        2.32434   0.03204   0.00000   0.02051   0.02053   2.34487
   A17        1.93024  -0.14342   0.00000  -0.09984  -0.09987   1.83037
   A18        1.90400  -0.15580   0.00000  -0.11549  -0.11606   1.78793
   A19        2.18650   0.07459   0.00000   0.05449   0.05392   2.24042
   A20        2.18956   0.07703   0.00000   0.05645   0.05586   2.24542
   A21        1.96319   0.01666   0.00000   0.00940   0.00884   1.97204
   A22        2.14113  -0.03366   0.00000  -0.03140  -0.03192   2.10922
   A23        1.96581  -0.01951   0.00000  -0.01866  -0.01939   1.94642
   A24        2.18810   0.05624   0.00000   0.03929   0.03906   2.22715
   A25        1.72230  -0.06163   0.00000  -0.04364  -0.04384   1.67846
[...]
   D37       -2.68849  -0.00421   0.00234  -0.01531  -0.01300  -2.70149
   D38        0.54887  -0.00580   0.00812   0.00274   0.01086   0.55973
   D39        0.52994   0.00200   0.02151  -0.00655   0.01496   0.54490
   D40       -2.51589   0.00042   0.02729   0.01150   0.03882  -2.47706
   D41       -3.09759  -0.00143  -0.00025  -0.00230  -0.00259  -3.10018
   D42       -0.05446  -0.00015  -0.00561  -0.02055  -0.02611  -0.08057
   D43        2.44630   0.00259   0.02104   0.00991   0.03094   2.47725
   D44       -0.26234   0.00131   0.01688  -0.00646   0.01044  -0.25190
   D45       -2.45956   0.00011   0.01960   0.01707   0.03675  -2.42281
   D46        0.32374   0.00052   0.03052   0.01785   0.04842   0.37216
   D47        0.24555   0.00097   0.02293   0.03393   0.05689   0.30244
   D48        3.02886   0.00138   0.03384   0.03471   0.06856   3.09742
   D49        2.44227   0.00164   0.00944   0.01961   0.02907   2.47134
   D50       -0.29778   0.00020   0.00819  -0.00238   0.00579  -0.29198
   D51       -0.33325   0.00125  -0.00113   0.01894   0.01787  -0.31539
   D52       -3.07330  -0.00018  -0.00239  -0.00305  -0.00541  -3.07871
   D53       -1.83073  -0.00107  -0.01813   0.04268   0.02460  -1.80614
   D54        1.11108  -0.00070  -0.02286   0.06630   0.04361   1.15469
   D55        0.90586   0.00068  -0.01618   0.06574   0.04955   0.95541
   D56       -2.43551   0.00105  -0.02091   0.08936   0.06856  -2.36695
   D57        0.15247  -0.00184   0.00033  -0.01979  -0.01919   0.13328
   D58        2.96648  -0.00014  -0.00329   0.01603   0.01299   2.97947
   D59       -2.79154  -0.00226   0.00492  -0.04301  -0.03794  -2.82948
   D60        0.02247  -0.00056   0.00130  -0.00719  -0.00576   0.01671
   D61       -0.90944  -0.00055   0.01282  -0.04334  -0.03016  -0.93959
   D62        1.95638   0.00171   0.01243  -0.02000  -0.00743   1.94895
   D63        2.56407  -0.00208   0.01705  -0.07992  -0.06257   2.50151
   D64       -0.85329   0.00018   0.01665  -0.05658  -0.03984  -0.89313
   D65        2.35833   0.00422   0.02482   0.04012   0.06484   2.42317
   D66       -0.45225   0.00106  -0.03471   0.04420   0.00960  -0.44265
   D67       -0.49773   0.00208   0.02624   0.01644   0.04270  -0.45503
   D68        2.97487  -0.00108  -0.03328   0.02053  -0.01255   2.96233
         Item               Value     Threshold  Converged?
 Maximum Force            0.026975     0.000450     NO 
 RMS     Force            0.004862     0.000300     NO 
 Maximum Displacement     0.185908     0.001800     NO 
 RMS     Displacement     0.055915     0.001200     NO 
 Predicted change in Energy=-2.147619D-03
 GradGradGradGradGradGradGradGradGradGradGradGradGradGradGradGradGradGrad

                          Input orientation:                          
 ---------------------------------------------------------------------
 Center     Atomic      Atomic             Coordinates (Angstroms)
 Number     Number       Type             X           Y           Z
 ---------------------------------------------------------------------
      1          6           0        1.374144   -0.332778   -0.304439
      2          6           0        1.717597    0.338713   -1.611917
      3          6           0        2.987295    0.684291   -1.964477
      4          6           0        4.264699    0.397308   -1.352312
      5          6           0        5.357834    0.095978   -2.127133
      6          6           0        6.771127    0.177104   -1.771753
      7          6           0        7.590143   -0.450986   -2.652653
      8          6           0        8.363904    0.445552   -3.535723
      9          8           0        9.411368    1.013597   -3.457665
     10          6           0        7.358448    0.709481   -4.723619
     11          7           0        7.808451    1.021281   -5.854907
     12          8           0        5.983863    0.733391   -4.461193
     13          6           0        5.204758   -0.065902   -3.598173
     14          6           0        4.179219   -0.790226   -4.120119
     15          6           0        3.407068   -0.520965   -5.306257
     16          6           0        2.070975   -0.746901   -5.201533
     17          6           0        1.045058    0.101705   -5.814302
     18          6           0        0.316917    0.987996   -5.083896
     19          6           0        0.615548    1.272854   -3.679519
     20          6           0        0.725923    0.361336   -2.688616
     21          1           0        0.460402   -0.927461   -0.395667
     22          1           0        1.190808    0.410912    0.480878
     23          1           0        2.176661   -0.988646    0.047224
     24          1           0        3.090395    1.060118   -2.976103
     25          1           0        4.379790    0.413955   -0.270032
     26          1           0        7.134121    0.992982   -1.149712
     27          1           0        7.119087   -1.248028   -3.227594
     28          1           0        7.047810    1.200214   -6.515254
     29          1           0        3.674452   -1.409862   -3.386707
     30          1           0        3.817677    0.125576   -6.076403
     31          1           0        1.756478   -1.358139   -4.363552
     32          1           0        0.972942    0.149256   -6.898763
     33          1           0       -0.310658    1.685800   -5.633823
     34          1           0        0.996058    2.280682   -3.503953
     35          1           0        0.193620   -0.583803   -2.809115
 ---------------------------------------------------------------------
                    Distance matrix (angstroms):
                    1          2          3          4          5
     1  C    0.000000
     2  C    1.509424   0.000000
     3  C    2.528322   1.362298   0.000000
     4  C    3.160122   2.560968   1.445291   0.000000
     5  C    4.401798   3.684521   2.447861   1.373350   0.000000
     6  C    5.616085   5.058639   3.822534   2.550804   1.459546
     7  C    6.645805   6.016108   4.790475   3.670023   2.357657
     8  C    7.739750   6.919959   5.606580   4.644684   3.338081
     9  O    8.737993   7.940804   6.603542   5.594687   4.363883
    10  C    7.511814   6.452857   5.169186   4.586333   3.334754
    11  N    8.604736   7.454352   6.204237   5.763756   4.556096
    12  O    6.298002   5.145403   3.900696   3.568420   2.499209
    13  C    5.059003   4.033512   2.854627   2.478339   1.487816
    14  C    4.757849   3.691229   2.870833   3.013022   2.479211
    15  C    5.402443   4.152290   3.577199   4.148788   3.780600
    16  C    4.963729   3.766799   3.656021   4.575821   4.578845
    17  C    5.536756   4.262455   4.351189   5.510247   5.674089
    18  C    5.070048   3.799751   4.117516   5.464304   5.911767
    19  C    3.813750   2.522322   2.985458   4.415742   5.126813
    20  C    2.566376   1.463970   2.396348   3.782848   4.673358
    21  H    1.094027   2.159398   3.382912   4.140393   5.294359
    22  H    1.096999   2.159285   3.046614   3.579046   4.925952
    23  H    1.094469   2.173792   2.739122   2.870449   4.003012
    24  H    3.467487   2.065431   1.084096   2.110688   2.606069
    25  H    3.097209   2.982212   2.209812   1.088510   2.122853
    26  H    5.970717   5.475439   4.237369   2.937594   2.217017
    27  H    6.510522   5.856984   4.732973   3.790956   2.473738
    28  H    8.550718   7.293563   6.120746   5.919994   4.830214
    29  H    3.993983   3.168071   2.623052   2.784424   2.586088
    30  H    6.284625   4.938360   4.231978   4.752968   4.239067
    31  H    4.204039   3.233004   3.382602   4.294221   4.481717
    32  H    6.624080   5.342391   5.356404   6.454480   6.480630
    33  H    5.942689   4.701509   5.034244   6.397299   6.852460
    34  H    4.148495   2.805648   2.980516   4.342887   5.068890
    35  H    2.780297   2.146351   3.182153   4.433795   5.253219
                    6          7          8          9         10
     6  C    0.000000
     7  C    1.356934   0.000000
     8  C    2.391776   1.477260   0.000000
     9  O    3.242359   2.471823   1.194131   0.000000
    10  C    3.056450   2.385218   1.578511   2.430968   0.000000
    11  N    4.296606   3.531240   2.453285   2.883777   1.256795
    12  O    2.856979   2.693269   2.569813   3.582369   1.399615
    13  C    2.418340   2.594678   3.200888   4.345184   2.550730
    14  C    3.628848   3.728665   4.402301   5.573868   3.566627
    15  C    4.929189   4.954253   5.351557   6.467131   4.179338
    16  C    5.891400   6.086507   6.617992   7.747373   5.505163
    17  C    7.009690   7.289693   7.673047   8.739589   6.435672
    18  C    7.299634   7.802655   8.212496   9.238740   7.056241
    19  C    6.536925   7.257483   7.793724   8.802436   6.846476
    20  C    6.117113   6.912212   7.685274   8.743788   6.946426
    21  H    6.552780   7.493612   8.614549   9.657294   8.306250
    22  H    6.022372   7.177282   8.221166   9.135258   8.075624
    23  H    5.077083   6.073237   7.292216   8.284577   7.245378
    24  H    3.972148   4.757708   5.338610   6.339460   4.625261
    25  H    2.833683   4.090401   5.151592   5.986431   5.366021
    26  H    1.088282   2.133503   2.739542   3.242364   3.592146
    27  H    2.066772   1.089828   2.124317   3.228379   2.475323
    28  H    4.860464   4.235596   3.343535   3.869119   1.883420
    29  H    3.836134   4.097671   5.045366   6.228193   4.455420
    30  H    5.220683   5.126986   5.217818   6.239851   3.835105
    31  H    5.849880   6.146686   6.899035   8.064930   5.982204
    32  H    7.739894   7.885245   8.125524   9.153975   6.769031
    33  H    8.206304   8.710677   9.010453   9.985254   7.784399
    34  H    6.385685   7.188093   7.593014   8.510293   6.666053
    35  H    6.702141   7.399370   8.266866   9.377589   7.528126
                   11         12         13         14         15
    11  N    0.000000
    12  O    2.313967   0.000000
    13  C    3.613036   1.410914   0.000000
    14  C    4.411618   2.386311   1.359707   0.000000
    15  C    4.695925   2.987878   2.521175   1.440709   0.000000
    16  C    6.039205   4.248536   3.585404   2.369816   1.359103
    17  C    6.825742   5.159625   4.716188   3.672705   2.494979
    18  C    7.531179   5.706739   5.216232   4.359854   3.446077
    19  C    7.518874   5.451683   4.781186   4.141278   3.695491
    20  C    7.786086   5.561150   4.590185   3.911592   3.849551
    21  H    9.359206   7.056597   5.788544   5.264977   5.741253
    22  H    9.181934   6.892128   5.742630   5.616272   6.266669
    23  H    8.401906   6.147034   4.828018   4.627782   5.512930
    24  H    5.527122   3.268700   2.474960   2.432712   2.833677
    25  H    6.581443   4.498991   3.462277   4.038992   5.213812
    26  H    4.753355   3.515165   3.292208   4.553526   5.784447
    27  H    3.539457   2.595481   2.280220   3.106285   4.316080
    28  H    1.023060   2.359888   3.675493   4.234068   4.204655
    29  H    5.393739   3.328878   2.047629   1.084727   2.132207
    30  H    4.096050   2.769604   2.846451   2.190080   1.086158
    31  H    6.671744   4.717501   3.761160   2.500292   2.077018
    32  H    6.969523   5.602882   5.371076   4.345538   2.985003
    33  H    8.149258   6.473264   6.134505   5.346121   4.335735
    34  H    7.315858   5.309296   4.819595   4.465720   4.112238
    35  H    8.356962   6.163707   5.099250   4.200756   4.070126
                   16         17         18         19         20
    16  C    0.000000
    17  C    1.465648   0.000000
    18  C    2.469904   1.359851   0.000000
    19  C    2.917911   2.472523   1.463762   0.000000
    20  C    3.058121   3.152645   2.509453   1.350902   0.000000
    21  H    5.071775   5.546406   5.066464   3.955899   2.643694
    22  H    5.865579   6.304454   5.662457   4.287513   3.203790
    23  H    5.255384   6.068516   5.804667   4.630342   3.378152
    24  H    3.042544   3.627304   3.484275   2.581651   2.482272
    25  H    5.567577   6.477412   6.325326   5.150906   4.382130
    26  H    6.714156   7.722012   7.870966   6.997860   6.620590
    27  H    5.443437   6.738447   7.396971   6.989643   6.614613
    28  H    5.503272   6.142563   6.884674   7.029983   7.437280
    29  H    2.510827   3.884812   4.461302   4.079166   3.509743
    30  H    2.139528   2.785082   3.739540   4.161122   4.592562
    31  H    1.083851   2.177600   2.845274   2.948177   2.612288
    32  H    2.211191   1.087896   2.104186   3.428373   4.222717
    33  H    3.431776   2.092820   1.087750   2.201746   3.391600
    34  H    3.633659   3.176170   2.151393   1.091480   2.102769
    35  H    3.045444   3.197815   2.767740   2.093514   1.091400
                   21         22         23         24         25
    21  H    0.000000
    22  H    1.758711   0.000000
    23  H    1.773538   1.765990   0.000000
    24  H    4.186405   3.997576   3.764685   0.000000
    25  H    4.144488   3.276199   2.630916   3.066413   0.000000
    26  H    6.985357   6.190363   5.471373   4.437559   2.948805
    27  H    7.242973   7.186747   5.934584   4.649854   4.360403
    28  H    9.239604   9.158238   8.460811   5.310965   6.836617
    29  H    4.416916   4.943876   3.769971   2.571093   3.679330
    30  H    6.682136   7.069638   6.436866   3.318760   5.840641
    31  H    4.196357   5.188258   4.446125   3.090683   5.174842
    32  H    6.611527   7.387492   7.140764   4.549785   7.457665
    33  H    5.904401   6.424119   6.753792   4.361435   7.237966
    34  H    4.498950   4.406001   4.969224   2.480856   5.039103
    35  H    2.452347   3.578811   3.500717   3.334917   4.996647
                   26         27         28         29         30
    26  H    0.000000
    27  H    3.056132   0.000000
    28  H    5.370236   4.099717   0.000000
    29  H    4.769393   3.452103   5.289598   0.000000
    30  H    6.001956   4.571850   3.432375   3.100411   0.000000
    31  H    6.691456   5.482710   6.258849   2.153027   3.063301
    32  H    8.468978   7.294175   6.177022   4.697185   2.961309
    33  H    8.718485   8.342566   7.426962   5.523926   4.435463
    34  H    6.698988   7.072457   6.845367   4.561541   4.384463
    35  H    7.308244   6.969822   7.993629   3.623835   4.930739
                   31         32         33         34         35
    31  H    0.000000
    32  H    3.051798   0.000000
    33  H    3.892584   2.368264   0.000000
    34  H    3.815517   4.008522   2.568606   0.000000
    35  H    2.336321   4.227286   3.658466   3.054829   0.000000
 Stoichiometry    C17H15NO2
 Framework group  C1[X(C17H15NO2)]
 Deg. of freedom    99
 Full point group                 C1      NOp   1
 Largest Abelian subgroup         C1      NOp   1
 Largest concise Abelian subgroup C1      NOp   1
                         Standard orientation:                         
 ---------------------------------------------------------------------
 Center     Atomic      Atomic             Coordinates (Angstroms)
 Number     Number       Type             X           Y           Z
 ---------------------------------------------------------------------
      1          6           0       -3.137943    2.986637    0.318266
      2          6           0       -2.688228    1.666216   -0.258454
      3          6           0       -1.387144    1.377554   -0.540784
      4          6           0       -0.162348    2.088653   -0.252550
      5          6           0        0.966437    1.407088    0.131385
      6          6           0        2.356238    1.849019    0.072878
      7          6           0        3.206727    1.063617    0.780749
      8          6           0        4.066621    0.180527   -0.033519
      9          8           0        5.126593    0.292642   -0.571885
     10          6           0        3.148869   -1.084719   -0.253935
     11          7           0        3.680803   -2.200816   -0.479562
     12          8           0        1.762099   -0.915153   -0.337830
     13          6           0        0.901622   -0.058287    0.380526
     14          6           0       -0.113808   -0.601582    1.103393
     15          6           0       -0.798798   -1.850064    0.884937
     16          6           0       -2.146057   -1.819871    1.061405
     17          6           0       -3.099958   -2.549134    0.220946
     18          6           0       -3.841023   -1.923323   -0.732143
     19          6           0       -3.622409   -0.522241   -1.095154
     20          6           0       -3.607922    0.527276   -0.244719
     21          1           0       -4.064662    2.871811    0.888267
     22          1           0       -3.344237    3.711606   -0.478772
     23          1           0       -2.383351    3.429456    0.975810
     24          1           0       -1.206520    0.353948   -0.848793
     25          1           0       -0.115854    3.173147   -0.333573
     26          1           0        2.707785    2.442898   -0.768597
     27          1           0        2.745080    0.508403    1.597049
     28          1           0        2.970603   -2.919376   -0.640617
     29          1           0       -0.686020    0.133324    1.659379
     30          1           0       -0.317197   -2.629378    0.301440
     31          1           0       -2.534862   -0.968818    1.608465
     32          1           0       -3.101162   -3.636872    0.239429
     33          1           0       -4.407024   -2.554657   -1.413510
     34          1           0       -3.218126   -0.383547   -2.099469
     35          1           0       -4.164861    0.429645    0.688791
 ---------------------------------------------------------------------
 Rotational constants (GHZ):           0.6336542           0.2185559           0.1742915
 Standard basis: 6-31G(2df,p) (6D, 7F)
 There are   695 symmetry adapted cartesian basis functions of A   symmetry.
 There are   635 symmetry adapted basis functions of A   symmetry.
   635 basis functions,   985 primitive gaussians,   695 cartesian basis functions
    70 alpha electrons       70 beta electrons
       nuclear repulsion energy      1443.0820696250 Hartrees.
 NAtoms=   35 NActive=   35 NUniq=   35 SFac= 1.00D+00 NAtFMM=   60 NAOKFM=F Big=F
 Integral buffers will be    131072 words long.
 Raffenetti 2 integral format.
 Two-electron integral symmetry is turned on.
 One-electron integrals computed using PRISM.
 PrsmSu:  requested number of processors reduced to:  12 ShMem   1 Linda.
 NBasis=   635 RedAO= T EigKep=  3.11D-04  NBF=   635
 NBsUse=   635 1.00D-06 EigRej= -1.00D+00 NBFU=   635
 Initial guess from the checkpoint file:  "CC1dCCdc2cccqdOrcqdNroc2dCCdCCdCCdC1.chk"
 B after Tr=     0.000000   -0.000000    0.000000
         Rot=    0.999997    0.001909    0.000302    0.001604 Ang=   0.29 deg.
 ExpMin= 1.61D-01 ExpMax= 5.48D+03 ExpMxC= 8.25D+02 IAcc=2 IRadAn=         4 AccDes= 0.00D+00
 Harris functional with IExCor=  402 and IRadAn=       4 diagonalized for initial guess.
 HarFok:  IExCor=  402 AccDes= 0.00D+00 IRadAn=         4 IDoV= 1 UseB2=F ITyADJ=14
 ICtDFT=  3500011 ScaDFX=  1.000000  1.000000  1.000000  1.000000
 FoFCou: FMM=F IPFlag=           0 FMFlag=      100000 FMFlg1=           0
         NFxFlg=           0 DoJE=T BraDBF=F KetDBF=T FulRan=T
         wScrn=  0.000000 ICntrl=       500 IOpCl=  0 I1Cent=   200000004 NGrid=           0
         NMat0=    1 NMatS0=      1 NMatT0=    0 NMatD0=    1 NMtDS0=    0 NMtDT0=    0
 Petite list used in FoFCou.
 Requested convergence on RMS density matrix=1.00D-08 within 128 cycles.
 Requested convergence on MAX density matrix=1.00D-06.
 Requested convergence on             energy=1.00D-06.
 No special actions if energy rises.
 Integral accuracy reduced to 1.0D-05 until final iterations.
slurmstepd: error: *** JOB 27447070 ON lewis4-r630-hpc4rc-node352 CANCELLED AT 2023-05-16T08:11:25 DUE TO TIME LIMIT ***
