### Starting Gaussian ###
 Entering Gaussian System, Link 0=g16
 Initial command:
 /cluster/software/gaussian/gaussian-16-A.03/avx2/g16/l1.exe "/local/scratch/ks29c/Gau-25507.inp" -scrdir="/local/scratch/ks29c/"
 Entering Link 1 = /cluster/software/gaussian/gaussian-16-A.03/avx2/g16/l1.exe PID=     25508.
  
 Copyright (c) 1988,1990,1992,1993,1995,1998,2003,2009,2016,
            Gaussian, Inc.  All Rights Reserved.
  
 This is part of the Gaussian(R) 16 program.  It is based on
 the Gaussian(R) 09 system (copyright 2009, Gaussian, Inc.),
 the Gaussian(R) 03 system (copyright 2003, Gaussian, Inc.),
 the Gaussian(R) 98 system (copyright 1998, Gaussian, Inc.),
 the Gaussian(R) 94 system (copyright 1995, Gaussian, Inc.),
 the Gaussian 92(TM) system (copyright 1992, Gaussian, Inc.),
 the Gaussian 90(TM) system (copyright 1990, Gaussian, Inc.),
 the Gaussian 88(TM) system (copyright 1988, Gaussian, Inc.),
 the Gaussian 86(TM) system (copyright 1986, Carnegie Mellon
 University), and the Gaussian 82(TM) system (copyright 1983,
 Carnegie Mellon University). Gaussian is a federally registered
 trademark of Gaussian, Inc.
  
 This software contains proprietary and confidential information,
 including trade secrets, belonging to Gaussian, Inc.
  
 This software is provided under written license and may be
 used, copied, transmitted, or stored only in accord with that
 written license.
  
 The following legend is applicable only to US Government
 contracts under FAR:
  
                    RESTRICTED RIGHTS LEGEND
  
 Use, reproduction and disclosure by the US Government is
 subject to restrictions as set forth in subparagraphs (a)
 and (c) of the Commercial Computer Software - Restricted
 Rights clause in FAR 52.227-19.
  
 Gaussian, Inc.
 340 Quinnipiac St., Bldg. 40, Wallingford CT 06492
  
  
 ---------------------------------------------------------------
 Warning -- This program may not be used in any manner that
 competes with the business of Gaussian, Inc. or will provide
 assistance to any competitor of Gaussian, Inc.  The licensee
 of this program is prohibited from giving any competitor of
 Gaussian, Inc. access to this program.  By using this program,
 the user acknowledges that Gaussian, Inc. is engaged in the
 business of creating and licensing software in the field of
 computational chemistry and represents and warrants to the
 licensee that it is not a competitor of Gaussian, Inc. and that
 it will not use this program in any manner prohibited above.
 ---------------------------------------------------------------
  

 Cite this work as:
 Gaussian 16, Revision A.03,
 M. J. Frisch, G. W. Trucks, H. B. Schlegel, G. E. Scuseria, 
 M. A. Robb, J. R. Cheeseman, G. Scalmani, V. Barone, 
 G. A. Petersson, H. Nakatsuji, X. Li, M. Caricato, A. V. Marenich, 
 J. Bloino, B. G. Janesko, R. Gomperts, B. Mennucci, H. P. Hratchian, 
 J. V. Ortiz, A. F. Izmaylov, J. L. Sonnenberg, D. Williams-Young, 
 F. Ding, F. Lipparini, F. Egidi, J. Goings, B. Peng, A. Petrone, 
 T. Henderson, D. Ranasinghe, V. G. Zakrzewski, J. Gao, N. Rega, 
 G. Zheng, W. Liang, M. Hada, M. Ehara, K. Toyota, R. Fukuda, 
 J. Hasegawa, M. Ishida, T. Nakajima, Y. Honda, O. Kitao, H. Nakai, 
 T. Vreven, K. Throssell, J. A. Montgomery, Jr., J. E. Peralta, 
 F. Ogliaro, M. J. Bearpark, J. J. Heyd, E. N. Brothers, K. N. Kudin, 
 V. N. Staroverov, T. A. Keith, R. Kobayashi, J. Normand, 
 K. Raghavachari, A. P. Rendell, J. C. Burant, S. S. Iyengar, 
 J. Tomasi, M. Cossi, J. M. Millam, M. Klene, C. Adamo, R. Cammi, 
 J. W. Ochterski, R. L. Martin, K. Morokuma, O. Farkas, 
 J. B. Foresman, and D. J. Fox, Gaussian, Inc., Wallingford CT, 2016.
 
 ******************************************
 Gaussian 16:  ES64L-G16RevA.03 25-Dec-2016
                18-May-2023 
 ******************************************
 %chk=CC1dCCdCCdC2CdC3CdCCdC2NdCCqdC3rCCdC1.chk
 %NProcShared=20
 Will use up to   20 processors via shared memory.
 -----------------------------
 # opt freq b3lyp/6-31g(2df,p)
 -----------------------------
 1/18=20,19=15,26=3,38=1/1,3;
 2/9=110,12=2,17=6,18=5,40=1/2;
 3/5=1,6=6,7=104,11=2,25=1,30=1,71=1,74=-5/1,2,3;
 4//1;
 5/5=2,38=5/2;
 6/7=2,8=2,9=2,10=2,28=1/1;
 7//1,2,3,16;
 1/18=20,19=15,26=3/3(2);
 2/9=110/2;
 99//99;
 2/9=110/2;
 3/5=1,6=6,7=104,11=2,25=1,30=1,71=1,74=-5/1,2,3;
 4/5=5,16=3,69=1/1;
 5/5=2,38=5/2;
 7//1,2,3,16;
 1/18=20,19=15,26=3/3(-5);
 2/9=110/2;
 6/7=2,8=2,9=2,10=2,19=2,28=1/1;
 99/9=1/99;
 -------------------
 Title Card Required
 -------------------
 Symbolic Z-matrix:
 Charge =  0 Multiplicity = 1
 C                     2.4745   -0.10715  -0.21123 
 C                     4.68479  -0.11794  -0.34044 
 C                     3.67184   0.18461   0.9006 
 C                     4.80999   0.31      1.43079 
 C                     5.27219   0.59099   2.53893 
 C                     6.55997   0.39145   2.26491 
 C                     7.45088   0.61576   3.07029 
 C                     9.08485   0.93341   3.96185 
 C                     10.13839   1.21543   4.63335 
 C                     9.73265   1.56848   5.86351 
 C                     8.49225   1.70201   6.29071 
 C                     7.37141   1.47374   5.39987 
 C                     7.78985   1.20364   4.04733 
 N                     8.62115   0.84507   2.31229 
 C                     10.00385   0.57316   1.91266 
 C                     11.38313   0.46276   2.70531 
 C                     11.40244   1.174     3.87315 
 C                     10.93136   0.40918   0.92204 
 C                     8.88135   0.08331   0.14534 
 C                     6.84511  -0.08025  -0.25965 
 H                     1.35944   0.14194   0.78394 
 H                     1.28601  -0.97445  -0.28846 
 H                     1.28062   0.59262  -0.69842 
 H                     2.7253    0.39578   1.77429 
 H                     5.62359   0.15129   0.86853 
 H                     4.73156   0.80992   3.35077 
 H                     7.14179   0.27743   1.41165 
 H                     9.74696   0.46772   3.44724 
 H                     10.61025   1.71054   6.37015 
 H                     8.44938   2.00037   7.30852 
 H                     6.4428    1.6264    6.15374 
 H                     10.15303  -0.6482    1.87942 
 H                     12.18785   1.18028   4.60641 
 H                     12.26497  -0.13537   1.60591 
 H                     12.27812   1.10031   1.38259 
 H                     10.23298  -0.15677  -0.2888 
 H                     6.03129  -0.39242  -1.15177 
 
 Add virtual bond connecting atoms H35        and H34        Dist= 2.37D+00.
 Add virtual bond connecting atoms H24        and C3         Dist= 2.47D+00.
 Add virtual bond connecting atoms H36        and C19        Dist= 2.72D+00.
 Add virtual bond connecting atoms H23        and C1         Dist= 2.77D+00.
 Add virtual bond connecting atoms H22        and C1         Dist= 2.78D+00.
 Add virtual bond connecting atoms H22        and H23        Dist= 3.06D+00.
 Add virtual bond connecting atoms H36        and C18        Dist= 2.85D+00.
 Add virtual bond connecting atoms H21        and C1         Dist= 2.86D+00.
 Add virtual bond connecting atoms H21        and H22        Dist= 2.93D+00.
 Add virtual bond connecting atoms H21        and H23        Dist= 2.93D+00.
 Add virtual bond connecting atoms H34        and C16        Dist= 2.89D+00.
 Add virtual bond connecting atoms H34        and C18        Dist= 3.01D+00.
 Add virtual bond connecting atoms H35        and C18        Dist= 2.99D+00.
 Add virtual bond connecting atoms C20        and H25        Dist= 3.17D+00.
 Add virtual bond connecting atoms C20        and H27        Dist= 3.28D+00.
 Add virtual bond connecting atoms H37        and C2         Dist= 3.02D+00.

 GradGradGradGradGradGradGradGradGradGradGradGradGradGradGradGradGradGrad
 Berny optimization.
 Initialization pass.
                           ----------------------------
                           !    Initial Parameters    !
                           ! (Angstroms and Degrees)  !
 --------------------------                            --------------------------
 ! Name  Definition              Value          Derivative Info.                !
 --------------------------------------------------------------------------------
 ! R1    R(1,3)                  1.6598         estimate D2E/DX2                !
 ! R2    R(1,21)                 1.5152         estimate D2E/DX2                !
 ! R3    R(1,22)                 1.4733         estimate D2E/DX2                !
 ! R4    R(1,23)                 1.4671         estimate D2E/DX2                !
 ! R5    R(2,3)                  1.6303         estimate D2E/DX2                !
 ! R6    R(2,4)                  1.8265         estimate D2E/DX2                !
 ! R7    R(2,37)                 1.5958         estimate D2E/DX2                !
 ! R8    R(3,4)                  1.2618         estimate D2E/DX2                !
 ! R9    R(3,24)                 1.3053         estimate D2E/DX2                !
 ! R10   R(4,5)                  1.2331         estimate D2E/DX2                !
 ! R11   R(4,25)                 1.0016         estimate D2E/DX2                !
 ! R12   R(5,6)                  1.3316         estimate D2E/DX2                !
 ! R13   R(5,26)                 0.9996         estimate D2E/DX2                !
 ! R14   R(6,7)                  1.2217         estimate D2E/DX2                !
 ! R15   R(6,27)                 1.039          estimate D2E/DX2                !
 ! R16   R(7,13)                 1.1896         estimate D2E/DX2                !
 ! R17   R(7,14)                 1.413          estimate D2E/DX2                !
 ! R18   R(8,9)                  1.2808         estimate D2E/DX2                !
 ! R19   R(8,13)                 1.3257         estimate D2E/DX2                !
 ! R20   R(8,14)                 1.7158         estimate D2E/DX2                !
 ! R21   R(8,28)                 0.9592         estimate D2E/DX2                !
 ! R22   R(9,10)                 1.3426         estimate D2E/DX2                !
 ! R23   R(9,17)                 1.4756         estimate D2E/DX2                !
 ! R24   R(10,11)                1.3187         estimate D2E/DX2                !
 ! R25   R(10,29)                1.0233         estimate D2E/DX2                !
 ! R26   R(11,12)                1.4498         estimate D2E/DX2                !
 ! R27   R(11,30)                1.0615         estimate D2E/DX2                !
 ! R28   R(12,13)                1.4413         estimate D2E/DX2                !
 ! R29   R(12,31)                1.2058         estimate D2E/DX2                !
 ! R30   R(14,15)                1.4648         estimate D2E/DX2                !
 ! R31   R(15,16)                1.5946         estimate D2E/DX2                !
 ! R32   R(15,18)                1.3669         estimate D2E/DX2                !
 ! R33   R(15,32)                1.2309         estimate D2E/DX2                !
 ! R34   R(16,17)                1.3675         estimate D2E/DX2                !
 ! R35   R(16,34)                1.531          estimate D2E/DX2                !
 ! R36   R(17,33)                1.0745         estimate D2E/DX2                !
 ! R37   R(18,34)                1.5946         estimate D2E/DX2                !
 ! R38   R(18,35)                1.5823         estimate D2E/DX2                !
 ! R39   R(18,36)                1.508          estimate D2E/DX2                !
 ! R40   R(19,36)                1.4398         estimate D2E/DX2                !
 ! R41   R(20,25)                1.6788         estimate D2E/DX2                !
 ! R42   R(20,27)                1.7347         estimate D2E/DX2                !
 ! R43   R(20,37)                1.2472         estimate D2E/DX2                !
 ! R44   R(21,22)                1.5498         estimate D2E/DX2                !
 ! R45   R(21,23)                1.5514         estimate D2E/DX2                !
 ! R46   R(22,23)                1.6198         estimate D2E/DX2                !
 ! R47   R(34,35)                1.2558         estimate D2E/DX2                !
 ! A1    A(3,1,21)              93.5557         estimate D2E/DX2                !
 ! A2    A(3,1,22)             136.0964         estimate D2E/DX2                !
 ! A3    A(3,1,23)             136.5219         estimate D2E/DX2                !
 ! A4    A(3,2,37)             160.5973         estimate D2E/DX2                !
 ! A5    A(4,2,37)             118.3911         estimate D2E/DX2                !
 ! A6    A(1,3,2)               84.5872         estimate D2E/DX2                !
 ! A7    A(1,3,4)              161.7319         estimate D2E/DX2                !
 ! A8    A(1,3,24)              87.3459         estimate D2E/DX2                !
 ! A9    A(4,3,24)             110.9009         estimate D2E/DX2                !
 ! A10   A(2,4,5)              161.9062         estimate D2E/DX2                !
 ! A11   A(2,4,25)              58.2775         estimate D2E/DX2                !
 ! A12   A(3,4,5)              137.5888         estimate D2E/DX2                !
 ! A13   A(3,4,25)             118.754          estimate D2E/DX2                !
 ! A14   A(5,4,25)             103.6565         estimate D2E/DX2                !
 ! A15   A(4,5,6)               98.2453         estimate D2E/DX2                !
 ! A16   A(4,5,26)             125.2408         estimate D2E/DX2                !
 ! A17   A(6,5,26)             136.2976         estimate D2E/DX2                !
 ! A18   A(5,6,7)              122.8218         estimate D2E/DX2                !
 ! A19   A(5,6,27)             136.6315         estimate D2E/DX2                !
 ! A20   A(7,6,27)              98.8101         estimate D2E/DX2                !
 ! A21   A(6,7,13)             147.1338         estimate D2E/DX2                !
 ! A22   A(6,7,14)             106.2663         estimate D2E/DX2                !
 ! A23   A(13,7,14)             97.146          estimate D2E/DX2                !
 ! A24   A(9,8,13)             136.4576         estimate D2E/DX2                !
 ! A25   A(9,8,14)             137.5361         estimate D2E/DX2                !
 ! A26   A(9,8,28)              79.6526         estimate D2E/DX2                !
 ! A27   A(13,8,14)             78.9585         estimate D2E/DX2                !
 ! A28   A(13,8,28)            143.888          estimate D2E/DX2                !
 ! A29   A(14,8,28)             69.2532         estimate D2E/DX2                !
 ! A30   A(8,9,10)             106.8399         estimate D2E/DX2                !
 ! A31   A(8,9,17)             115.3634         estimate D2E/DX2                !
 ! A32   A(10,9,17)            137.5861         estimate D2E/DX2                !
 ! A33   A(9,10,11)            127.425          estimate D2E/DX2                !
 ! A34   A(9,10,29)            103.3548         estimate D2E/DX2                !
 ! A35   A(11,10,29)           129.2188         estimate D2E/DX2                !
 ! A36   A(10,11,12)           120.8101         estimate D2E/DX2                !
 ! A37   A(10,11,30)           112.1526         estimate D2E/DX2                !
 ! A38   A(12,11,30)           127.0267         estimate D2E/DX2                !
 ! A39   A(11,12,13)           112.4368         estimate D2E/DX2                !
 ! A40   A(11,12,31)           101.0276         estimate D2E/DX2                !
 ! A41   A(13,12,31)           146.5118         estimate D2E/DX2                !
 ! A42   A(7,13,8)              97.1611         estimate D2E/DX2                !
 ! A43   A(7,13,12)            141.3175         estimate D2E/DX2                !
 ! A44   A(8,13,12)            112.4771         estimate D2E/DX2                !
 ! A45   A(7,14,8)              73.5278         estimate D2E/DX2                !
 ! A46   A(7,14,15)            153.9004         estimate D2E/DX2                !
 ! A47   A(8,14,15)             90.9593         estimate D2E/DX2                !
 ! A48   A(14,15,16)           133.9259         estimate D2E/DX2                !
 ! A49   A(14,15,18)           149.3747         estimate D2E/DX2                !
 ! A50   A(14,15,32)           107.8168         estimate D2E/DX2                !
 ! A51   A(16,15,18)            76.41           estimate D2E/DX2                !
 ! A52   A(16,15,32)            80.7872         estimate D2E/DX2                !
 ! A53   A(18,15,32)            77.2415         estimate D2E/DX2                !
 ! A54   A(15,16,17)           113.6219         estimate D2E/DX2                !
 ! A55   A(15,16,34)            99.689          estimate D2E/DX2                !
 ! A56   A(17,16,34)           143.9284         estimate D2E/DX2                !
 ! A57   A(9,17,16)            116.261          estimate D2E/DX2                !
 ! A58   A(9,17,33)            105.9275         estimate D2E/DX2                !
 ! A59   A(16,17,33)           126.5935         estimate D2E/DX2                !
 ! A60   A(15,18,34)           107.3163         estimate D2E/DX2                !
 ! A61   A(15,18,35)           108.3128         estimate D2E/DX2                !
 ! A62   A(15,18,36)           108.2203         estimate D2E/DX2                !
 ! A63   A(34,18,36)           127.1209         estimate D2E/DX2                !
 ! A64   A(35,18,36)           142.3555         estimate D2E/DX2                !
 ! A65   A(25,20,27)            56.5344         estimate D2E/DX2                !
 ! A66   A(25,20,37)            92.317          estimate D2E/DX2                !
 ! A67   A(27,20,37)           148.4656         estimate D2E/DX2                !
 ! A68   A(6,27,20)            135.8942         estimate D2E/DX2                !
 ! A69   A(16,34,18)            72.1118         estimate D2E/DX2                !
 ! A70   A(16,34,35)            75.4817         estimate D2E/DX2                !
 ! A71   A(18,36,19)            97.4733         estimate D2E/DX2                !
 ! A72   A(2,37,20)             98.2708         estimate D2E/DX2                !
 ! A73   L(2,3,24,1,-1)        171.9331         estimate D2E/DX2                !
 ! A74   L(4,25,20,2,-1)       172.3293         estimate D2E/DX2                !
 ! A75   L(2,3,24,1,-2)        180.0201         estimate D2E/DX2                !
 ! A76   L(4,25,20,2,-2)       177.4686         estimate D2E/DX2                !
 ! D1    D(21,1,3,2)          -179.6525         estimate D2E/DX2                !
 ! D2    D(21,1,3,4)           177.6327         estimate D2E/DX2                !
 ! D3    D(21,1,3,24)            0.3274         estimate D2E/DX2                !
 ! D4    D(22,1,3,2)           127.476          estimate D2E/DX2                !
 ! D5    D(22,1,3,4)           124.7612         estimate D2E/DX2                !
 ! D6    D(22,1,3,24)          -52.5441         estimate D2E/DX2                !
 ! D7    D(23,1,3,2)          -126.7442         estimate D2E/DX2                !
 ! D8    D(23,1,3,4)          -129.4589         estimate D2E/DX2                !
 ! D9    D(23,1,3,24)           53.2357         estimate D2E/DX2                !
 ! D10   D(37,2,3,1)          -171.2232         estimate D2E/DX2                !
 ! D11   D(37,2,4,5)             5.0422         estimate D2E/DX2                !
 ! D12   D(37,2,4,25)            1.6192         estimate D2E/DX2                !
 ! D13   D(3,2,37,20)          -12.295          estimate D2E/DX2                !
 ! D14   D(4,2,37,20)           -6.2509         estimate D2E/DX2                !
 ! D15   D(1,3,4,5)           -178.179          estimate D2E/DX2                !
 ! D16   D(1,3,4,25)             1.4549         estimate D2E/DX2                !
 ! D17   D(24,3,4,5)            -1.0605         estimate D2E/DX2                !
 ! D18   D(24,3,4,25)          178.5734         estimate D2E/DX2                !
 ! D19   D(2,4,5,6)             -7.5642         estimate D2E/DX2                !
 ! D20   D(2,4,5,26)           177.0357         estimate D2E/DX2                !
 ! D21   D(3,4,5,6)            175.1013         estimate D2E/DX2                !
 ! D22   D(3,4,5,26)            -0.2987         estimate D2E/DX2                !
 ! D23   D(25,4,5,6)            -4.5684         estimate D2E/DX2                !
 ! D24   D(25,4,5,26)         -179.9684         estimate D2E/DX2                !
 ! D25   D(2,4,20,27)         -178.2234         estimate D2E/DX2                !
 ! D26   D(2,4,20,37)           -4.0359         estimate D2E/DX2                !
 ! D27   D(3,4,20,27)         -178.8026         estimate D2E/DX2                !
 ! D28   D(3,4,20,37)           -4.6151         estimate D2E/DX2                !
 ! D29   D(5,4,20,27)            2.2537         estimate D2E/DX2                !
 ! D30   D(5,4,20,37)          176.4411         estimate D2E/DX2                !
 ! D31   D(4,5,6,7)            176.1786         estimate D2E/DX2                !
 ! D32   D(4,5,6,27)            14.6961         estimate D2E/DX2                !
 ! D33   D(26,5,6,7)            -9.2614         estimate D2E/DX2                !
 ! D34   D(26,5,6,27)         -170.7439         estimate D2E/DX2                !
 ! D35   D(5,6,7,13)           -22.0225         estimate D2E/DX2                !
 ! D36   D(5,6,7,14)          -155.6842         estimate D2E/DX2                !
 ! D37   D(27,6,7,13)          145.2278         estimate D2E/DX2                !
 ! D38   D(27,6,7,14)           11.5661         estimate D2E/DX2                !
 ! D39   D(5,6,27,20)          -16.5041         estimate D2E/DX2                !
 ! D40   D(7,6,27,20)          179.1649         estimate D2E/DX2                !
 ! D41   D(6,7,13,8)          -168.5382         estimate D2E/DX2                !
 ! D42   D(6,7,13,12)           50.799          estimate D2E/DX2                !
 ! D43   D(14,7,13,8)          -32.9577         estimate D2E/DX2                !
 ! D44   D(14,7,13,12)        -173.6206         estimate D2E/DX2                !
 ! D45   D(6,7,14,8)          -177.5287         estimate D2E/DX2                !
 ! D46   D(6,7,14,15)         -121.8544         estimate D2E/DX2                !
 ! D47   D(13,7,14,8)           25.7787         estimate D2E/DX2                !
 ! D48   D(13,7,14,15)          81.453          estimate D2E/DX2                !
 ! D49   D(13,8,9,10)           20.4255         estimate D2E/DX2                !
 ! D50   D(13,8,9,17)         -155.239          estimate D2E/DX2                !
 ! D51   D(14,8,9,10)          157.9832         estimate D2E/DX2                !
 ! D52   D(14,8,9,17)          -17.6813         estimate D2E/DX2                !
 ! D53   D(28,8,9,10)         -159.1456         estimate D2E/DX2                !
 ! D54   D(28,8,9,17)           25.1899         estimate D2E/DX2                !
 ! D55   D(9,8,13,7)           179.2739         estimate D2E/DX2                !
 ! D56   D(9,8,13,12)          -26.1144         estimate D2E/DX2                !
 ! D57   D(14,8,13,7)           26.9323         estimate D2E/DX2                !
 ! D58   D(14,8,13,12)        -178.456          estimate D2E/DX2                !
 ! D59   D(28,8,13,7)           -1.4421         estimate D2E/DX2                !
 ! D60   D(28,8,13,12)         153.1696         estimate D2E/DX2                !
 ! D61   D(9,8,14,7)          -174.9641         estimate D2E/DX2                !
 ! D62   D(9,8,14,15)           26.343          estimate D2E/DX2                !
 ! D63   D(13,8,14,7)          -23.2366         estimate D2E/DX2                !
 ! D64   D(13,8,14,15)         178.0706         estimate D2E/DX2                !
 ! D65   D(28,8,14,7)          139.3355         estimate D2E/DX2                !
 ! D66   D(28,8,14,15)         -19.3574         estimate D2E/DX2                !
 ! D67   D(8,9,10,11)           -4.5899         estimate D2E/DX2                !
 ! D68   D(8,9,10,29)          175.7998         estimate D2E/DX2                !
 ! D69   D(17,9,10,11)         169.5974         estimate D2E/DX2                !
 ! D70   D(17,9,10,29)         -10.013          estimate D2E/DX2                !
 ! D71   D(8,9,17,16)          -19.5968         estimate D2E/DX2                !
 ! D72   D(8,9,17,33)         -165.91           estimate D2E/DX2                !
 ! D73   D(10,9,17,16)         166.5614         estimate D2E/DX2                !
 ! D74   D(10,9,17,33)          20.2483         estimate D2E/DX2                !
 ! D75   D(9,10,11,12)          -0.5905         estimate D2E/DX2                !
 ! D76   D(9,10,11,30)        -179.4863         estimate D2E/DX2                !
 ! D77   D(29,10,11,12)        178.9202         estimate D2E/DX2                !
 ! D78   D(29,10,11,30)          0.0244         estimate D2E/DX2                !
 ! D79   D(10,11,12,13)         -4.3671         estimate D2E/DX2                !
 ! D80   D(10,11,12,31)        176.9204         estimate D2E/DX2                !
 ! D81   D(30,11,12,13)        174.3518         estimate D2E/DX2                !
 ! D82   D(30,11,12,31)         -4.3606         estimate D2E/DX2                !
 ! D83   D(11,12,13,7)         150.9114         estimate D2E/DX2                !
 ! D84   D(11,12,13,8)          13.8055         estimate D2E/DX2                !
 ! D85   D(31,12,13,7)         -31.3795         estimate D2E/DX2                !
 ! D86   D(31,12,13,8)        -168.4854         estimate D2E/DX2                !
 ! D87   D(7,14,15,16)         -54.3828         estimate D2E/DX2                !
 ! D88   D(7,14,15,18)         135.002          estimate D2E/DX2                !
 ! D89   D(7,14,15,32)          39.98           estimate D2E/DX2                !
 ! D90   D(8,14,15,16)          -2.0042         estimate D2E/DX2                !
 ! D91   D(8,14,15,18)        -172.6194         estimate D2E/DX2                !
 ! D92   D(8,14,15,32)          92.3586         estimate D2E/DX2                !
 ! D93   D(14,15,16,17)        -25.784          estimate D2E/DX2                !
 ! D94   D(14,15,16,34)        168.3712         estimate D2E/DX2                !
 ! D95   D(18,15,16,17)        149.3134         estimate D2E/DX2                !
 ! D96   D(18,15,16,34)        -16.5314         estimate D2E/DX2                !
 ! D97   D(32,15,16,17)       -131.6956         estimate D2E/DX2                !
 ! D98   D(32,15,16,34)         62.4596         estimate D2E/DX2                !
 ! D99   D(14,15,18,34)       -170.555          estimate D2E/DX2                !
 ! D100  D(14,15,18,35)        140.3944         estimate D2E/DX2                !
 ! D101  D(14,15,18,36)        -30.3672         estimate D2E/DX2                !
 ! D102  D(16,15,18,34)         16.3849         estimate D2E/DX2                !
 ! D103  D(16,15,18,35)        -32.6657         estimate D2E/DX2                !
 ! D104  D(16,15,18,36)        156.5727         estimate D2E/DX2                !
 ! D105  D(32,15,18,34)        -67.0608         estimate D2E/DX2                !
 ! D106  D(32,15,18,35)       -116.1114         estimate D2E/DX2                !
 ! D107  D(32,15,18,36)         73.1271         estimate D2E/DX2                !
 ! D108  D(15,16,17,9)          36.0751         estimate D2E/DX2                !
 ! D109  D(15,16,17,33)        174.4461         estimate D2E/DX2                !
 ! D110  D(34,16,17,9)        -168.0929         estimate D2E/DX2                !
 ! D111  D(34,16,17,33)        -29.7219         estimate D2E/DX2                !
 ! D112  D(15,16,34,18)         14.426          estimate D2E/DX2                !
 ! D113  D(15,16,34,35)         83.6663         estimate D2E/DX2                !
 ! D114  D(17,16,34,18)       -143.2071         estimate D2E/DX2                !
 ! D115  D(17,16,34,35)        -73.9668         estimate D2E/DX2                !
 ! D116  D(15,18,34,16)        -17.4629         estimate D2E/DX2                !
 ! D117  D(36,18,34,16)       -147.7578         estimate D2E/DX2                !
 ! D118  D(15,18,36,19)         13.3945         estimate D2E/DX2                !
 ! D119  D(34,18,36,19)        143.3456         estimate D2E/DX2                !
 ! D120  D(35,18,36,19)       -152.1549         estimate D2E/DX2                !
 ! D121  D(25,20,27,6)           4.9254         estimate D2E/DX2                !
 ! D122  D(37,20,27,6)          -5.15           estimate D2E/DX2                !
 ! D123  D(25,20,37,2)           4.9473         estimate D2E/DX2                !
 ! D124  D(27,20,37,2)          13.3461         estimate D2E/DX2                !
 ! D125  D(1,21,22,23)         -66.6192         estimate D2E/DX2                !
 --------------------------------------------------------------------------------
 Trust Radius=3.00D-01 FncErr=1.00D-07 GrdErr=1.00D-06 EigMax=2.50D+02 EigMin=1.00D-04
 Number of steps in this run=    222 maximum allowed number of steps=    222.
 GradGradGradGradGradGradGradGradGradGradGradGradGradGradGradGradGradGrad

                          Input orientation:                          
 ---------------------------------------------------------------------
 Center     Atomic      Atomic             Coordinates (Angstroms)
 Number     Number       Type             X           Y           Z
 ---------------------------------------------------------------------
      1          6           0        2.474500   -0.107150   -0.211230
      2          6           0        4.684790   -0.117940   -0.340440
      3          6           0        3.671840    0.184610    0.900600
      4          6           0        4.809990    0.310000    1.430790
      5          6           0        5.272190    0.590990    2.538930
      6          6           0        6.559970    0.391450    2.264910
      7          6           0        7.450880    0.615760    3.070290
      8          6           0        9.084850    0.933410    3.961850
      9          6           0       10.138390    1.215430    4.633350
     10          6           0        9.732650    1.568480    5.863510
     11          6           0        8.492250    1.702010    6.290710
     12          6           0        7.371410    1.473740    5.399870
     13          6           0        7.789850    1.203640    4.047330
     14          7           0        8.621150    0.845070    2.312290
     15          6           0       10.003850    0.573160    1.912660
     16          6           0       11.383130    0.462760    2.705310
     17          6           0       11.402440    1.174000    3.873150
     18          6           0       10.931360    0.409180    0.922040
     19          6           0        8.881350    0.083310    0.145340
     20          6           0        6.845110   -0.080250   -0.259650
     21          1           0        1.359440    0.141940    0.783940
     22          1           0        1.286010   -0.974450   -0.288460
     23          1           0        1.280620    0.592620   -0.698420
     24          1           0        2.725300    0.395780    1.774290
     25          1           0        5.623590    0.151290    0.868530
     26          1           0        4.731560    0.809920    3.350770
     27          1           0        7.141790    0.277430    1.411650
     28          1           0        9.746960    0.467720    3.447240
     29          1           0       10.610250    1.710540    6.370150
     30          1           0        8.449380    2.000370    7.308520
     31          1           0        6.442800    1.626400    6.153740
     32          1           0       10.153030   -0.648200    1.879420
     33          1           0       12.187850    1.180280    4.606410
     34          1           0       12.264970   -0.135370    1.605910
     35          1           0       12.278120    1.100310    1.382590
     36          1           0       10.232980   -0.156770   -0.288800
     37          1           0        6.031290   -0.392420   -1.151770
 ---------------------------------------------------------------------
                    Distance matrix (angstroms):
                    1          2          3          4          5
     1  C    0.000000
     2  C    2.214090   0.000000
     3  C    1.659793   1.630271   0.000000
     4  C    2.885266   1.826489   1.261828   0.000000
     5  C    3.984702   3.022977   2.326025   1.233109   0.000000
     6  C    4.803221   3.250173   3.200847   1.940314   1.331646
     7  C    6.004609   4.452263   4.378880   3.123420   2.242687
     8  C    7.886323   6.243041   6.263596   5.006928   4.083911
     9  C    9.162662   7.500548   7.537392   6.282359   5.334456
    10  C    9.612021   8.173977   7.954809   6.742801   5.648365
    11  C    9.042212   7.860097   7.388649   6.254243   5.067446
    12  C    7.613369   6.534717   5.965912   4.865055   3.656631
    13  C    6.935881   5.535386   5.281888   4.065026   2.998203
    14  N    6.712390   4.843480   5.188906   3.948200   3.366223
    15  C    7.852696   5.817773   6.424141   5.222799   4.772959
    16  C    9.391203   7.381163   7.924540   6.697306   6.114549
    17  C    9.901092   8.034318   8.341290   7.083221   6.300794
    18  C    8.548063   6.394634   7.263024   6.143276   5.888429
    19  C    6.419591   4.229373   5.264948   4.275482   4.360395
    20  C    4.370961   2.162159   3.389096   2.674247   3.279739
    21  H    1.515179   3.519903   2.315734   3.514677   4.311757
    22  H    1.473324   3.505427   2.906797   4.126023   5.131702
    23  H    1.467100   3.495915   2.905386   4.131569   5.139365
    24  H    2.063523   2.928411   1.305322   2.114541   2.666351
    25  H    3.339078   1.554168   1.952298   1.001634   1.762684
    26  H    4.315458   3.806329   2.741779   1.985546   0.999648
    27  H    4.956333   3.043515   3.508610   2.332106   2.205558
    28  H    8.161100   6.349416   6.593376   5.335224   4.567690
    29  H   10.621158   9.137091   8.965822   7.746083   6.665322
    30  H    9.832979   8.784416   8.196543   7.116897   5.901684
    31  H    7.698405   6.950374   6.111666   5.167711   3.938179
    32  H    7.976426   5.925420   6.607381   5.446787   5.078695
    33  H   10.918622   9.080342   9.340600   8.079280   7.242105
    34  H    9.957715   7.826092   8.627962   7.470325   7.092045
    35  H   10.005458   7.881093   8.668268   7.509985   7.118959
    36  H    7.759026   5.548566   6.676808   5.708212   5.758875
    37  H    3.690088   1.595825   3.179967   2.941867   3.894174
                    6          7          8          9         10
     6  C    0.000000
     7  C    1.221750   0.000000
     8  C    3.090040   1.888290   0.000000
     9  C    4.369616   3.166302   1.280779   0.000000
    10  C    4.939759   3.730446   2.106957   1.342596   0.000000
    11  C    4.653852   3.554644   2.522996   2.386080   1.318682
    12  C    3.414346   2.483825   2.301246   2.882786   2.408193
    13  C    2.312851   1.189584   1.325653   2.420578   2.684416
    14  N    2.111037   1.413039   1.715771   2.797589   3.790767
    15  C    3.466613   2.803494   2.274537   2.798708   4.083311
    16  C    4.843750   3.952115   2.661296   2.415208   3.731076
    17  C    5.162203   4.070755   2.331732   1.475616   2.627803
    18  C    4.573037   4.095289   3.595116   3.879776   5.215267
    19  C    3.158533   3.299254   3.915333   4.796257   5.968912
    20  C    2.584030   3.455414   4.885182   6.038703   6.967732
    21  H    5.413043   6.523614   8.390917   9.645740   9.896853
    22  H    6.016647   7.198305   9.084436  10.362645  10.754485
    23  H    6.057502   7.230202   9.096167  10.357401  10.744675
    24  H    3.865931   4.905009   6.746728   7.987487   8.197554
    25  H    1.698341   2.898701   4.707511   5.974084   6.621377
    26  H    2.167324   2.740633   4.397704   5.571648   5.648024
    27  H    1.039022   1.720782   3.272509   4.498756   5.310219
    28  H    3.400092   2.331521   0.959208   1.455728   2.655228
    29  H    5.915891   4.697791   2.954773   1.866617   1.023253
    30  H    5.621076   4.569107   3.569653   3.259666   1.980244
    31  H    4.081890   3.397835   3.502149   4.017196   3.303135
    32  H    3.760260   3.212068   2.824715   3.325276   4.578576
    33  H    6.146374   5.011710   3.178838   2.049938   2.785499
    34  H    5.767048   5.087639   4.099501   3.938578   5.238598
    35  H    5.829083   5.136669   4.108213   3.893474   5.174673
    36  H    4.506993   4.429489   4.535937   5.110718   6.409192
    37  H    3.545089   4.566996   6.101734   7.274687   8.170639
                   11         12         13         14         15
    11  C    0.000000
    12  C    1.449823   0.000000
    13  C    2.403017   1.441322   0.000000
    14  N    4.071706   3.389724   1.957038   0.000000
    15  C    4.767238   4.461101   3.139445   1.464752   0.000000
    16  C    4.769489   4.937270   3.906607   2.815876   1.594646
    17  C    3.820026   4.320870   3.616908   3.206252   2.482052
    18  C    6.036827   5.818719   4.501965   2.731275   1.366928
    19  C    6.366880   5.641214   4.203812   2.311635   2.150204
    20  C    6.985466   5.892541   4.592492   3.259664   3.888896
    21  H    9.145234   7.695732   7.288834   7.454038   8.728447
    22  H   10.118241   8.682328   8.114375   7.992423   9.123637
    23  H   10.103776   8.663904   8.078711   7.937977   9.105650
    24  H    7.440564   5.991091   5.609725   5.937369   7.282026
    25  H    6.327241   5.033566   3.988094   3.398697   4.522705
    26  H    4.856116   3.407092   3.161226   4.025989   5.470033
    27  H    5.259125   4.170106   2.867866   1.822601   2.920591
    28  H    3.344113   3.235441   2.175308   1.642545   1.559502
    29  H    2.119506   3.389337   3.688780   4.601281   4.640105
    30  H    1.061505   2.254396   3.421274   5.130939   5.793842
    31  H    2.055413   1.205795   2.535790   4.484688   5.637123
    32  H    5.266987   4.963226   3.703210   2.182633   1.230886
    33  H    4.094695   4.890173   4.433455   4.254022   3.520616
    34  H    6.289414   6.397679   5.270691   3.838966   2.389304
    35  H    6.227720   6.352463   5.220736   3.781920   2.393985
    36  H    7.055151   6.573288   5.159615   3.219837   2.330606
    37  H    8.113783   6.942799   5.715819   4.498718   5.109238
                   16         17         18         19         20
    16  C    0.000000
    17  C    1.367511   0.000000
    18  C    1.840386   3.084788   0.000000
    19  C    3.599491   4.630558   2.216302   0.000000
    20  C    5.447887   6.278729   4.281749   2.082557   0.000000
    21  H   10.211217  10.557946   9.576646   7.549197   5.588472
    22  H   10.629208  11.147959   9.818988   7.680900   5.630632
    23  H   10.661283  11.121533   9.787560   7.664361   5.622172
    24  H    8.708002   8.961227   8.250208   6.375584   4.619129
    25  H    6.053352   6.593086   5.314301   3.337758   1.678842
    26  H    6.691825   6.701200   6.670595   5.293723   4.277222
    27  H    4.438115   5.001596   3.823338   2.160392   1.734704
    28  H    1.796535   1.849553   2.789779   3.435054   4.739413
    29  H    3.947829   2.674032   5.610575   6.662224   7.831823
    30  H    5.671038   4.604912   7.034148   7.427844   8.011233
    31  H    6.136170   5.477571   6.999963   6.665472   6.648765
    32  H    1.851883   2.975970   1.624939   2.271412   3.980015
    33  H    2.185541   1.074513   3.968368   5.660162   7.335690
    34  H    1.531039   2.756589   1.594594   3.691879   5.732210
    35  H    1.719612   2.641048   1.582255   3.755412   5.797264
    36  H    3.266704   4.523319   1.508034   1.439798   3.388859
    37  H    6.652112   7.520156   5.380886   3.167279   1.247249
                   21         22         23         24         25
    21  H    0.000000
    22  H    1.549761   0.000000
    23  H    1.551359   1.619816   0.000000
    24  H    1.706107   2.864267   2.870565   0.000000
    25  H    4.264999   4.628230   4.638048   3.046352   0.000000
    26  H    4.290222   5.319754   5.324673   2.584933   2.718644
    27  H    5.817899   6.224768   6.237392   4.432933   1.617350
    28  H    8.806236   9.360715   9.427673   7.218563   4.873608
    29  H   10.919878  11.768080  11.758249   9.220790   7.587217
    30  H    9.812806  10.857142  10.839002   8.122038   7.271702
    31  H    7.541812   8.652101   8.641117   5.874846   5.548018
    32  H    8.896720   9.134013   9.322261   7.501474   4.709237
    33  H   11.530130  12.143012  12.143073   9.908390   7.623652
    34  H   10.939978  11.172746  11.247037   9.555929   6.688335
    35  H   10.976995  11.310328  11.204167   9.586770   6.741488
    36  H    8.943138   8.984257   8.993004   7.805569   4.762435
    37  H    5.085145   4.858163   4.872853   4.484714   2.131537
                   26         27         28         29         30
    26  H    0.000000
    27  H    3.138939   0.000000
    28  H    5.027986   3.311608   0.000000
    29  H    6.669840   6.218580   3.291394   0.000000
    30  H    5.559059   6.281034   4.352265   2.373584   0.000000
    31  H    3.384025   4.979531   4.425512   4.173913   2.345151
    32  H    5.803733   3.184834   1.966782   5.093070   6.276342
    33  H    7.570341   6.040228   2.794523   2.425031   4.685094
    34  H    7.790403   5.143454   3.177198   5.370611   7.186089
    35  H    7.804398   5.201909   3.327119   5.294330   7.112384
    36  H    6.666827   3.554647   3.818926   6.926095   8.096527
    37  H    4.838159   2.872809   5.974691   9.053651   9.118613
                   31         32         33         34         35
    31  H    0.000000
    32  H    6.099953   0.000000
    33  H    5.966477   3.862681   0.000000
    34  H    7.595015   2.190455   3.277176   0.000000
    35  H    7.555899   2.796450   3.226075   1.255767   0.000000
    36  H    7.684496   2.224651   5.438042   2.778375   2.925131
    37  H    7.590484   5.122722   8.575153   6.821264   6.904644
                   36         37
    36  H    0.000000
    37  H    4.295864   0.000000
 Stoichiometry    C19H17N
 Framework group  C1[X(C19H17N)]
 Deg. of freedom   105
 Full point group                 C1      NOp   1
 Largest Abelian subgroup         C1      NOp   1
 Largest concise Abelian subgroup C1      NOp   1
                         Standard orientation:                         
 ---------------------------------------------------------------------
 Center     Atomic      Atomic             Coordinates (Angstroms)
 Number     Number       Type             X           Y           Z
 ---------------------------------------------------------------------
      1          6           0        5.958293   -0.271824   -0.021871
      2          6           0        4.131952    0.979831   -0.027519
      3          6           0        4.339261   -0.637065   -0.006182
      4          6           0        3.083594   -0.515108    0.019036
      5          6           0        2.097230   -1.254886    0.038381
      6          6           0        1.159147   -0.318995    0.170251
      7          6           0       -0.035650   -0.574200    0.169278
      8          6           0       -1.922525   -0.537059    0.106333
      9          6           0       -3.198049   -0.609946    0.016218
     10          6           0       -3.512224   -1.915016   -0.009257
     11          6           0       -2.681631   -2.938857   -0.037314
     12          6           0       -1.246933   -2.730870   -0.056468
     13          6           0       -0.894400   -1.335989   -0.142714
     14          7           0       -0.692602    0.608216   -0.239359
     15          6           0       -1.639296    1.712924   -0.069387
     16          6           0       -3.198834    1.793581    0.253458
     17          6           0       -3.896171    0.681745   -0.130763
     18          6           0       -1.917492    3.048149   -0.160353
     19          6           0        0.269555    2.702686   -0.062989
     20          6           0        2.237116    2.021237   -0.025977
     21          1           0        6.382828   -1.726288   -0.013405
     22          1           0        7.135908   -0.633169    0.786421
     23          1           0        7.124412   -0.637958   -0.833348
     24          1           0        4.685287   -1.895599    0.008763
     25          1           0        2.689086    0.405455    0.033061
     26          1           0        2.125452   -2.254121    0.033004
     27          1           0        1.101537    0.712963    0.063897
     28          1           0       -2.167948    0.332642    0.427999
     29          1           0       -4.535472   -1.911852   -0.008292
     30          1           0       -3.193131   -3.868666   -0.062125
     31          1           0       -0.848436   -3.868190   -0.015914
     32          1           0       -1.578968    2.083637    1.102795
     33          1           0       -4.934164    0.479225    0.059327
     34          1           0       -3.322860    3.289849    0.553263
     35          1           0       -3.396538    3.212320   -0.697940
     36          1           0       -0.637844    3.812972    0.067056
     37          1           0        3.421406    2.407238    0.037988
 ---------------------------------------------------------------------
 Rotational constants (GHZ):           0.6795714           0.2294236           0.1723259
 Standard basis: 6-31G(2df,p) (6D, 7F)
 There are   705 symmetry adapted cartesian basis functions of A   symmetry.
 There are   645 symmetry adapted basis functions of A   symmetry.
   645 basis functions,   999 primitive gaussians,   705 cartesian basis functions
    69 alpha electrons       69 beta electrons
       nuclear repulsion energy      1440.2936343442 Hartrees.
 NAtoms=   37 NActive=   37 NUniq=   37 SFac= 1.00D+00 NAtFMM=   60 NAOKFM=F Big=F
 Integral buffers will be    131072 words long.
 Raffenetti 2 integral format.
 Two-electron integral symmetry is turned on.
 One-electron integrals computed using PRISM.
 PrsmSu:  requested number of processors reduced to:  12 ShMem   1 Linda.
 NBasis=   645 RedAO= T EigKep=  4.62D-05  NBF=   645
 NBsUse=   645 1.00D-06 EigRej= -1.00D+00 NBFU=   645
 ExpMin= 1.61D-01 ExpMax= 4.17D+03 ExpMxC= 6.27D+02 IAcc=3 IRadAn=         5 AccDes= 0.00D+00
 Harris functional with IExCor=  402 and IRadAn=       5 diagonalized for initial guess.
 HarFok:  IExCor=  402 AccDes= 0.00D+00 IRadAn=         5 IDoV= 1 UseB2=F ITyADJ=14
 ICtDFT=  3500011 ScaDFX=  1.000000  1.000000  1.000000  1.000000
 FoFCou: FMM=F IPFlag=           0 FMFlag=      100000 FMFlg1=           0
         NFxFlg=           0 DoJE=T BraDBF=F KetDBF=T FulRan=T
         wScrn=  0.000000 ICntrl=       500 IOpCl=  0 I1Cent=   200000004 NGrid=           0
         NMat0=    1 NMatS0=      1 NMatT0=    0 NMatD0=    1 NMtDS0=    0 NMtDT0=    0
 Petite list used in FoFCou.
 Requested convergence on RMS density matrix=1.00D-08 within 128 cycles.
 Requested convergence on MAX density matrix=1.00D-06.
 Requested convergence on             energy=1.00D-06.
 No special actions if energy rises.
 Integral accuracy reduced to 1.0D-05 until final iterations.
 EnCoef did     7 forward-backward iterations
 EnCoef did     4 forward-backward iterations
 Problem detected with inexpensive integrals.
 Switching to full accuracy and repeating last cycle.
 EnCoef did     6 forward-backward iterations
 EnCoef did   100 forward-backward iterations
 EnCoef did   100 forward-backward iterations
 EnCoef did     3 forward-backward iterations
 EnCoef did     4 forward-backward iterations
 EnCoef did     4 forward-backward iterations
 EnCoef did     3 forward-backward iterations
 EnCoef did     3 forward-backward iterations
 EnCoef did     4 forward-backward iterations
 Restarting incremental Fock formation.
 SCF Done:  E(RB3LYP) =  -786.699374861     A.U. after   37 cycles
            NFock= 37  Conv=0.40D-08     -V/T= 2.0020

 **********************************************************************

            Population analysis using the SCF density.

 **********************************************************************

 Orbital symmetries:
       Occupied  (A) (A) (A) (A) (A) (A) (A) (A) (A) (A) (A) (A)
                 (A) (A) (A) (A) (A) (A) (A) (A) (A) (A) (A) (A)
                 (A) (A) (A) (A) (A) (A) (A) (A) (A) (A) (A) (A)
                 (A) (A) (A) (A) (A) (A) (A) (A) (A) (A) (A) (A)
                 (A) (A) (A) (A) (A) (A) (A) (A) (A) (A) (A) (A)
                 (A) (A) (A) (A) (A) (A) (A) (A) (A)
       Virtual   (A) (A) (A) (A) (A) (A) (A) (A) (A) (A) (A) (A)
                 (A) (A) (A) (A) (A) (A) (A) (A) (A) (A) (A) (A)
                 (A) (A) (A) (A) (A) (A) (A) (A) (A) (A) (A) (A)
                 (A) (A) (A) (A) (A) (A) (A) (A) (A) (A) (A) (A)
                 (A) (A) (A) (A) (A) (A) (A) (A) (A) (A) (A) (A)
                 (A) (A) (A) (A) (A) (A) (A) (A) (A) (A) (A) (A)
                 (A) (A) (A) (A) (A) (A) (A) (A) (A) (A) (A) (A)
                 (A) (A) (A) (A) (A) (A) (A) (A) (A) (A) (A) (A)
                 (A) (A) (A) (A) (A) (A) (A) (A) (A) (A) (A) (A)
                 (A) (A) (A) (A) (A) (A) (A) (A) (A) (A) (A) (A)
                 (A) (A) (A) (A) (A) (A) (A) (A) (A) (A) (A) (A)
                 (A) (A) (A) (A) (A) (A) (A) (A) (A) (A) (A) (A)
                 (A) (A) (A) (A) (A) (A) (A) (A) (A) (A) (A) (A)
                 (A) (A) (A) (A) (A) (A) (A) (A) (A) (A) (A) (A)
                 (A) (A) (A) (A) (A) (A) (A) (A) (A) (A) (A) (A)
                 (A) (A) (A) (A) (A) (A) (A) (A) (A) (A) (A) (A)
                 (A) (A) (A) (A) (A) (A) (A) (A) (A) (A) (A) (A)
                 (A) (A) (A) (A) (A) (A) (A) (A) (A) (A) (A) (A)
                 (A) (A) (A) (A) (A) (A) (A) (A) (A) (A) (A) (A)
                 (A) (A) (A) (A) (A) (A) (A) (A) (A) (A) (A) (A)
                 (A) (A) (A) (A) (A) (A) (A) (A) (A) (A) (A) (A)
                 (A) (A) (A) (A) (A) (A) (A) (A) (A) (A) (A) (A)
                 (A) (A) (A) (A) (A) (A) (A) (A) (A) (A) (A) (A)
                 (A) (A) (A) (A) (A) (A) (A) (A) (A) (A) (A) (A)
                 (A) (A) (A) (A) (A) (A) (A) (A) (A) (A) (A) (A)
                 (A) (A) (A) (A) (A) (A) (A) (A) (A) (A) (A) (A)
                 (A) (A) (A) (A) (A) (A) (A) (A) (A) (A) (A) (A)
                 (A) (A) (A) (A) (A) (A) (A) (A) (A) (A) (A) (A)
                 (A) (A) (A) (A) (A) (A) (A) (A) (A) (A) (A) (A)
                 (A) (A) (A) (A) (A) (A) (A) (A) (A) (A) (A) (A)
                 (A) (A) (A) (A) (A) (A) (A) (A) (A) (A) (A) (A)
                 (A) (A) (A) (A) (A) (A) (A) (A) (A) (A) (A) (A)
                 (A) (A) (A) (A) (A) (A) (A) (A) (A) (A) (A) (A)
                 (A) (A) (A) (A) (A) (A) (A) (A) (A) (A) (A) (A)
                 (A) (A) (A) (A) (A) (A) (A) (A) (A) (A) (A) (A)
                 (A) (A) (A) (A) (A) (A) (A) (A) (A) (A) (A) (A)
                 (A) (A) (A) (A) (A) (A) (A) (A) (A) (A) (A) (A)
                 (A) (A) (A) (A) (A) (A) (A) (A) (A) (A) (A) (A)
                 (A) (A) (A) (A) (A) (A) (A) (A) (A) (A) (A) (A)
                 (A) (A) (A) (A) (A) (A) (A) (A) (A) (A) (A) (A)
                 (A) (A) (A) (A) (A) (A) (A) (A) (A) (A) (A) (A)
                 (A) (A) (A) (A) (A) (A) (A) (A) (A) (A) (A) (A)
                 (A) (A) (A) (A) (A) (A) (A) (A) (A) (A) (A) (A)
                 (A) (A) (A) (A) (A) (A) (A) (A) (A) (A) (A) (A)
                 (A) (A) (A) (A) (A) (A) (A) (A) (A) (A) (A) (A)
                 (A) (A) (A) (A) (A) (A) (A) (A) (A) (A) (A) (A)
                 (A) (A) (A) (A) (A) (A) (A) (A) (A) (A) (A) (A)
                 (A) (A) (A) (A) (A) (A) (A) (A) (A) (A) (A) (A)
 The electronic state is 1-A.
 Alpha  occ. eigenvalues --  -14.38184 -10.31083 -10.29122 -10.28517 -10.27242
 Alpha  occ. eigenvalues --  -10.26825 -10.26495 -10.25709 -10.22309 -10.21726
 Alpha  occ. eigenvalues --  -10.20368 -10.20363 -10.19964 -10.19809 -10.19403
 Alpha  occ. eigenvalues --  -10.19336 -10.18600 -10.17817 -10.17127 -10.15259
 Alpha  occ. eigenvalues --   -1.04378  -0.94533  -0.93007  -0.90724  -0.84521
 Alpha  occ. eigenvalues --   -0.83330  -0.79625  -0.76957  -0.73025  -0.70347
 Alpha  occ. eigenvalues --   -0.69793  -0.65836  -0.65570  -0.62025  -0.60608
 Alpha  occ. eigenvalues --   -0.57660  -0.57077  -0.55813  -0.53301  -0.51880
 Alpha  occ. eigenvalues --   -0.51484  -0.50776  -0.48811  -0.48227  -0.46475
 Alpha  occ. eigenvalues --   -0.45717  -0.44196  -0.43586  -0.42457  -0.41460
 Alpha  occ. eigenvalues --   -0.40336  -0.38540  -0.38421  -0.36165  -0.36029
 Alpha  occ. eigenvalues --   -0.34652  -0.32427  -0.31444  -0.29428  -0.28852
 Alpha  occ. eigenvalues --   -0.27359  -0.26776  -0.25278  -0.23973  -0.21231
 Alpha  occ. eigenvalues --   -0.19229  -0.17642  -0.16721  -0.16067
 Alpha virt. eigenvalues --   -0.12495  -0.10508  -0.08894  -0.07316  -0.06837
 Alpha virt. eigenvalues --   -0.05174  -0.04056  -0.03848  -0.03272  -0.02136
 Alpha virt. eigenvalues --    0.01158   0.01907   0.02767   0.04159   0.07096
 Alpha virt. eigenvalues --    0.07516   0.08661   0.09306   0.09913   0.10643
 Alpha virt. eigenvalues --    0.11393   0.13617   0.14021   0.15076   0.15434
 Alpha virt. eigenvalues --    0.16323   0.17253   0.17871   0.20155   0.21551
 Alpha virt. eigenvalues --    0.24435   0.25062   0.26259   0.27189   0.29166
 Alpha virt. eigenvalues --    0.30532   0.31584   0.32518   0.33813   0.35741
 Alpha virt. eigenvalues --    0.36224   0.37479   0.38327   0.38956   0.40675
 Alpha virt. eigenvalues --    0.41174   0.42091   0.42580   0.43090   0.44348
 Alpha virt. eigenvalues --    0.45248   0.46062   0.46540   0.47140   0.48367
 Alpha virt. eigenvalues --    0.49063   0.49803   0.50070   0.51151   0.51601
 Alpha virt. eigenvalues --    0.51965   0.52805   0.53648   0.54133   0.54722
 Alpha virt. eigenvalues --    0.55433   0.55473   0.56177   0.57272   0.57660
 Alpha virt. eigenvalues --    0.58336   0.58550   0.59279   0.59780   0.60346
 Alpha virt. eigenvalues --    0.60625   0.61385   0.62076   0.62446   0.62812
 Alpha virt. eigenvalues --    0.63202   0.63847   0.64909   0.65124   0.65729
 Alpha virt. eigenvalues --    0.66163   0.66675   0.68053   0.68313   0.68729
 Alpha virt. eigenvalues --    0.68917   0.70261   0.70997   0.71100   0.72060
 Alpha virt. eigenvalues --    0.72940   0.73875   0.74260   0.74543   0.75891
 Alpha virt. eigenvalues --    0.76065   0.76301   0.77218   0.77240   0.78410
 Alpha virt. eigenvalues --    0.78620   0.79340   0.80504   0.80742   0.80987
 Alpha virt. eigenvalues --    0.82014   0.82467   0.83288   0.83757   0.84828
 Alpha virt. eigenvalues --    0.85036   0.86265   0.86688   0.87386   0.88723
 Alpha virt. eigenvalues --    0.89146   0.89718   0.90420   0.90797   0.91931
 Alpha virt. eigenvalues --    0.92488   0.92729   0.94774   0.95330   0.96589
 Alpha virt. eigenvalues --    0.97187   0.98784   0.98872   0.99899   1.00920
 Alpha virt. eigenvalues --    1.02371   1.02995   1.03981   1.05212   1.06082
 Alpha virt. eigenvalues --    1.07006   1.08225   1.09167   1.10164   1.10544
 Alpha virt. eigenvalues --    1.11716   1.12940   1.13351   1.15360   1.16686
 Alpha virt. eigenvalues --    1.16950   1.18495   1.18861   1.19536   1.20970
 Alpha virt. eigenvalues --    1.21255   1.22488   1.24615   1.25426   1.25627
 Alpha virt. eigenvalues --    1.26086   1.27340   1.28062   1.28836   1.29339
 Alpha virt. eigenvalues --    1.29838   1.30417   1.31359   1.33547   1.34405
 Alpha virt. eigenvalues --    1.34737   1.35360   1.37122   1.37625   1.38628
 Alpha virt. eigenvalues --    1.39337   1.39974   1.41599   1.42436   1.42868
 Alpha virt. eigenvalues --    1.43671   1.45392   1.45798   1.46936   1.49240
 Alpha virt. eigenvalues --    1.49892   1.51745   1.52185   1.53405   1.53521
 Alpha virt. eigenvalues --    1.54065   1.54853   1.55520   1.58198   1.58518
 Alpha virt. eigenvalues --    1.59637   1.60850   1.61896   1.62533   1.63458
 Alpha virt. eigenvalues --    1.63776   1.64780   1.66318   1.68440   1.70034
 Alpha virt. eigenvalues --    1.70594   1.71823   1.72551   1.73032   1.74920
 Alpha virt. eigenvalues --    1.75551   1.76700   1.78721   1.79314   1.81350
 Alpha virt. eigenvalues --    1.82577   1.83091   1.85109   1.85672   1.86881
 Alpha virt. eigenvalues --    1.87272   1.88181   1.88964   1.90465   1.91647
 Alpha virt. eigenvalues --    1.93295   1.94575   1.98199   1.99534   2.00377
 Alpha virt. eigenvalues --    2.01786   2.03364   2.04652   2.05493   2.06060
 Alpha virt. eigenvalues --    2.08064   2.10017   2.11964   2.13288   2.15132
 Alpha virt. eigenvalues --    2.15792   2.16141   2.17293   2.18411   2.18782
 Alpha virt. eigenvalues --    2.19778   2.22377   2.23578   2.25054   2.26454
 Alpha virt. eigenvalues --    2.27164   2.27861   2.29239   2.30746   2.32250
 Alpha virt. eigenvalues --    2.33493   2.35524   2.35970   2.36484   2.37387
 Alpha virt. eigenvalues --    2.38202   2.39042   2.39081   2.40918   2.41905
 Alpha virt. eigenvalues --    2.43352   2.44861   2.46021   2.46712   2.48170
 Alpha virt. eigenvalues --    2.49980   2.50669   2.53176   2.54322   2.56119
 Alpha virt. eigenvalues --    2.56735   2.57444   2.59843   2.61296   2.62609
 Alpha virt. eigenvalues --    2.63464   2.64699   2.66596   2.67761   2.68624
 Alpha virt. eigenvalues --    2.69421   2.70728   2.71222   2.72331   2.72926
 Alpha virt. eigenvalues --    2.73839   2.74448   2.76275   2.77683   2.80080
 Alpha virt. eigenvalues --    2.80682   2.80811   2.82249   2.83332   2.83859
 Alpha virt. eigenvalues --    2.84867   2.85736   2.86961   2.87765   2.88598
 Alpha virt. eigenvalues --    2.89125   2.89515   2.90536   2.91386   2.92140
 Alpha virt. eigenvalues --    2.93685   2.94208   2.95214   2.95929   2.97113
 Alpha virt. eigenvalues --    2.98238   2.98642   2.99663   3.00218   3.01838
 Alpha virt. eigenvalues --    3.02917   3.03035   3.04089   3.04879   3.05459
 Alpha virt. eigenvalues --    3.06156   3.07808   3.08301   3.09162   3.10599
 Alpha virt. eigenvalues --    3.10922   3.11577   3.13589   3.14102   3.14875
 Alpha virt. eigenvalues --    3.15894   3.16531   3.17892   3.18185   3.18862
 Alpha virt. eigenvalues --    3.20649   3.21421   3.22104   3.22991   3.23927
 Alpha virt. eigenvalues --    3.25094   3.25458   3.26681   3.28291   3.28452
 Alpha virt. eigenvalues --    3.29351   3.29687   3.30192   3.31052   3.31996
 Alpha virt. eigenvalues --    3.32641   3.33773   3.34737   3.36054   3.36880
 Alpha virt. eigenvalues --    3.37843   3.38140   3.39317   3.41112   3.41579
 Alpha virt. eigenvalues --    3.41961   3.42598   3.44113   3.44474   3.45769
 Alpha virt. eigenvalues --    3.46902   3.48971   3.49183   3.49781   3.51466
 Alpha virt. eigenvalues --    3.52830   3.53534   3.54467   3.55725   3.56541
 Alpha virt. eigenvalues --    3.57549   3.58524   3.59440   3.60168   3.60868
 Alpha virt. eigenvalues --    3.63079   3.63223   3.65712   3.66852   3.67532
 Alpha virt. eigenvalues --    3.68036   3.69308   3.70964   3.72332   3.72921
 Alpha virt. eigenvalues --    3.75181   3.75463   3.76409   3.77495   3.79065
 Alpha virt. eigenvalues --    3.79925   3.81104   3.83352   3.84161   3.84733
 Alpha virt. eigenvalues --    3.88064   3.88955   3.89563   3.91040   3.91869
 Alpha virt. eigenvalues --    3.93480   3.96099   3.97869   3.98797   4.00601
 Alpha virt. eigenvalues --    4.01179   4.02526   4.04338   4.06107   4.07225
 Alpha virt. eigenvalues --    4.07958   4.09232   4.09718   4.11168   4.12148
 Alpha virt. eigenvalues --    4.14948   4.16029   4.18842   4.21467   4.23524
 Alpha virt. eigenvalues --    4.25396   4.25843   4.27388   4.27865   4.30232
 Alpha virt. eigenvalues --    4.31080   4.33460   4.34846   4.35684   4.36736
 Alpha virt. eigenvalues --    4.37247   4.38263   4.38506   4.39233   4.40687
 Alpha virt. eigenvalues --    4.41953   4.43785   4.44535   4.46391   4.46899
 Alpha virt. eigenvalues --    4.47960   4.49359   4.50287   4.51461   4.51638
 Alpha virt. eigenvalues --    4.52809   4.53484   4.54193   4.55376   4.55971
 Alpha virt. eigenvalues --    4.57052   4.57669   4.59377   4.59874   4.60898
 Alpha virt. eigenvalues --    4.61682   4.61754   4.62297   4.64330   4.65514
 Alpha virt. eigenvalues --    4.65774   4.66676   4.67738   4.69419   4.69742
 Alpha virt. eigenvalues --    4.70335   4.72048   4.72849   4.74194   4.76226
 Alpha virt. eigenvalues --    4.77497   4.78533   4.78785   4.80664   4.81255
 Alpha virt. eigenvalues --    4.82838   4.84869   4.85892   4.86373   4.87558
 Alpha virt. eigenvalues --    4.88992   4.89487   4.90277   4.91941   4.93491
 Alpha virt. eigenvalues --    4.93881   4.95813   4.96513   4.97490   4.99593
 Alpha virt. eigenvalues --    5.01334   5.04384   5.05441   5.08039   5.09728
 Alpha virt. eigenvalues --    5.11315   5.11976   5.14853   5.16469   5.17264
 Alpha virt. eigenvalues --    5.17814   5.21561   5.23085   5.24321   5.24862
 Alpha virt. eigenvalues --    5.26775   5.28713   5.31506   5.31894   5.36546
 Alpha virt. eigenvalues --    5.38281   5.39159   5.43356   5.45140   5.47951
 Alpha virt. eigenvalues --    5.48768   5.52571   5.55649   5.58319   5.59048
 Alpha virt. eigenvalues --    5.62237   5.65547   5.67318   5.69429   5.74649
 Alpha virt. eigenvalues --    5.79186   5.80612   5.85569   5.86094   5.90534
 Alpha virt. eigenvalues --    5.93007   6.01087   6.03926   6.08989   6.13296
 Alpha virt. eigenvalues --    6.19673   6.30463   6.31289   6.37459   6.54967
 Alpha virt. eigenvalues --    6.59574   6.86514   7.35859   7.76114   8.59573
 Alpha virt. eigenvalues --    9.92244   9.94107  10.03503  10.25714  10.40605
 Alpha virt. eigenvalues --   10.60225  10.67262  10.80212  10.88871  10.93842
 Alpha virt. eigenvalues --   11.08613  11.29680  11.39533  11.68123  11.79638
 Alpha virt. eigenvalues --   11.98639  12.00415  12.31974  12.65529  12.95279
 Alpha virt. eigenvalues --   23.41055
          Condensed to atoms (all electrons):
               1          2          3          4          5          6
     1  C    5.685610  -0.055710   0.338071  -0.023190  -0.000263   0.000102
     2  C   -0.055710   5.975032   0.254379  -0.029856  -0.023746  -0.005483
     3  C    0.338071   0.254379   5.509637   0.342835  -0.137474   0.009715
     4  C   -0.023190  -0.029856   0.342835   4.514319   0.461830   0.073200
     5  C   -0.000263  -0.023746  -0.137474   0.461830   5.535754   0.290370
     6  C    0.000102  -0.005483   0.009715   0.073200   0.290370   6.310081
     7  C    0.000006   0.000497  -0.006157  -0.071895   0.077448  -0.338014
     8  C   -0.000000  -0.000001  -0.000005  -0.000292   0.001992  -0.001102
     9  C   -0.000000  -0.000000  -0.000000  -0.000015   0.000168  -0.012443
    10  C    0.000000   0.000000   0.000000   0.000000  -0.000014   0.000211
    11  C   -0.000000  -0.000000  -0.000000   0.000000  -0.000026   0.000038
    12  C    0.000000  -0.000000  -0.000001   0.000026   0.005022  -0.010236
    13  C   -0.000000  -0.000009  -0.000155  -0.002778  -0.051586  -0.148950
    14  N    0.000000   0.000108   0.000024   0.002021   0.005941  -0.062612
    15  C    0.000000  -0.000006  -0.000001   0.000021  -0.000190   0.004572
    16  C    0.000000   0.000000   0.000000   0.000002   0.000000  -0.000092
    17  C   -0.000000  -0.000000  -0.000000  -0.000000  -0.000000   0.000127
    18  C    0.000000   0.000001   0.000000  -0.000002   0.000001   0.000039
    19  C   -0.000001  -0.000772  -0.000130   0.001447   0.000494  -0.022002
    20  C    0.001929   0.094748   0.018553  -0.047279  -0.049053  -0.070671
    21  H    0.104346   0.004666  -0.059429  -0.011986   0.000240  -0.000015
    22  H    0.227693   0.001927  -0.010066  -0.000089   0.000042  -0.000002
    23  H    0.240510   0.002805  -0.010586  -0.000557   0.000009  -0.000001
    24  H   -0.148714   0.006571   0.174042   0.028537   0.003663  -0.001602
    25  H   -0.006905  -0.056476  -0.193451   0.345041   0.043963  -0.037768
    26  H   -0.001054  -0.000735  -0.034399  -0.032936   0.329993  -0.034418
    27  H    0.000010   0.003034   0.004559  -0.012081  -0.056714   0.297812
    28  H    0.000000   0.000001   0.000000   0.000059  -0.000218   0.011631
    29  H   -0.000000  -0.000000  -0.000000  -0.000000  -0.000000  -0.000011
    30  H   -0.000000  -0.000000   0.000000   0.000000   0.000000   0.000013
    31  H   -0.000000   0.000000  -0.000001   0.000016   0.000021   0.000382
    32  H    0.000000   0.000001   0.000000  -0.000002  -0.000047   0.000292
    33  H    0.000000   0.000000   0.000000  -0.000000   0.000000  -0.000003
    34  H   -0.000000  -0.000000  -0.000000   0.000000  -0.000000   0.000008
    35  H    0.000000   0.000000   0.000000   0.000000  -0.000000  -0.000002
    36  H    0.000000  -0.000005   0.000000  -0.000013  -0.000000   0.000102
    37  H   -0.000218  -0.061183  -0.001042   0.014611   0.002780   0.005681
               7          8          9         10         11         12
     1  C    0.000006  -0.000000  -0.000000   0.000000  -0.000000   0.000000
     2  C    0.000497  -0.000001  -0.000000   0.000000  -0.000000  -0.000000
     3  C   -0.006157  -0.000005  -0.000000   0.000000  -0.000000  -0.000001
     4  C   -0.071895  -0.000292  -0.000015   0.000000   0.000000   0.000026
     5  C    0.077448   0.001992   0.000168  -0.000014  -0.000026   0.005022
     6  C   -0.338014  -0.001102  -0.012443   0.000211   0.000038  -0.010236
     7  C    5.195915   0.049697  -0.064964   0.009053  -0.003023  -0.021307
     8  C    0.049697   4.914558   0.140016   0.074207  -0.084793  -0.009990
     9  C   -0.064964   0.140016   5.310448   0.340708   0.088455  -0.063982
    10  C    0.009053   0.074207   0.340708   4.909378   0.520069   0.039391
    11  C   -0.003023  -0.084793   0.088455   0.520069   4.890701   0.449083
    12  C   -0.021307  -0.009990  -0.063982   0.039391   0.449083   5.368592
    13  C    0.512996   0.394359   0.064090  -0.066825  -0.008949   0.353563
    14  N    0.317644   0.025923  -0.019689   0.001205   0.000234   0.010642
    15  C   -0.037825  -0.064418  -0.004126  -0.001028   0.000025  -0.000226
    16  C    0.000793  -0.000069  -0.031647   0.007686  -0.000261  -0.000094
    17  C    0.000824  -0.051578   0.431894  -0.086666   0.008393  -0.000195
    18  C   -0.000704   0.009439   0.004194   0.000053   0.000002   0.000019
    19  C   -0.005496   0.005102  -0.000359   0.000014   0.000001  -0.000011
    20  C    0.010458  -0.000125   0.000001  -0.000000  -0.000000  -0.000003
    21  H   -0.000000  -0.000000  -0.000000   0.000000  -0.000000  -0.000000
    22  H   -0.000000   0.000000   0.000000  -0.000000  -0.000000  -0.000000
    23  H   -0.000000   0.000000   0.000000  -0.000000   0.000000  -0.000000
    24  H    0.000112   0.000000   0.000000  -0.000000  -0.000000  -0.000001
    25  H    0.001702   0.000015   0.000001  -0.000000   0.000000   0.000013
    26  H   -0.017589  -0.000108   0.000008  -0.000004   0.000017   0.001895
    27  H   -0.005160   0.000663  -0.000236   0.000021   0.000002  -0.000237
    28  H   -0.006477   0.293603  -0.145732   0.005828   0.002466   0.004751
    29  H   -0.000300   0.004746  -0.033406   0.320921  -0.067100   0.007138
    30  H    0.000166   0.003078   0.001363  -0.011241   0.351767  -0.042839
    31  H   -0.002305   0.000741   0.002597  -0.003658  -0.028566   0.335693
    32  H   -0.003190  -0.016194   0.005822  -0.000142  -0.000015   0.000081
    33  H   -0.000050   0.001991  -0.036936  -0.012705  -0.000456  -0.000023
    34  H   -0.000017   0.001287  -0.000117   0.000023   0.000001  -0.000000
    35  H   -0.000018  -0.002335   0.000513  -0.000060   0.000001   0.000000
    36  H    0.000151  -0.000372   0.000028  -0.000001  -0.000000  -0.000000
    37  H   -0.000351   0.000002  -0.000000   0.000000   0.000000   0.000000
              13         14         15         16         17         18
     1  C   -0.000000   0.000000   0.000000   0.000000  -0.000000   0.000000
     2  C   -0.000009   0.000108  -0.000006   0.000000  -0.000000   0.000001
     3  C   -0.000155   0.000024  -0.000001   0.000000  -0.000000   0.000000
     4  C   -0.002778   0.002021   0.000021   0.000002  -0.000000  -0.000002
     5  C   -0.051586   0.005941  -0.000190   0.000000  -0.000000   0.000001
     6  C   -0.148950  -0.062612   0.004572  -0.000092   0.000127   0.000039
     7  C    0.512996   0.317644  -0.037825   0.000793   0.000824  -0.000704
     8  C    0.394359   0.025923  -0.064418  -0.000069  -0.051578   0.009439
     9  C    0.064090  -0.019689  -0.004126  -0.031647   0.431894   0.004194
    10  C   -0.066825   0.001205  -0.001028   0.007686  -0.086666   0.000053
    11  C   -0.008949   0.000234   0.000025  -0.000261   0.008393   0.000002
    12  C    0.353563   0.010642  -0.000226  -0.000094  -0.000195   0.000019
    13  C    5.195106  -0.129524   0.003413   0.001198   0.008494   0.000050
    14  N   -0.129524   6.984592   0.355739  -0.044815   0.002353   0.012217
    15  C    0.003413   0.355739   4.694578   0.209072  -0.017754   0.276885
    16  C    0.001198  -0.044815   0.209072   5.631647   0.497645  -0.106232
    17  C    0.008494   0.002353  -0.017754   0.497645   5.163441  -0.017936
    18  C    0.000050   0.012217   0.276885  -0.106232  -0.017936   6.110869
    19  C   -0.000754   0.032336  -0.009125   0.004810  -0.000562  -0.069138
    20  C   -0.000180  -0.001924  -0.002341  -0.000060   0.000002   0.000426
    21  H   -0.000000  -0.000000  -0.000000  -0.000000   0.000000   0.000000
    22  H   -0.000000  -0.000000  -0.000000  -0.000000  -0.000000  -0.000000
    23  H    0.000000  -0.000000  -0.000000  -0.000000   0.000000   0.000000
    24  H    0.000003  -0.000001  -0.000000  -0.000000   0.000000  -0.000000
    25  H    0.000344  -0.001778   0.000032  -0.000004   0.000000  -0.000008
    26  H    0.001741  -0.000315   0.000005  -0.000000   0.000000  -0.000000
    27  H    0.009301  -0.034356   0.000423   0.000388  -0.000032  -0.000261
    28  H   -0.054289  -0.051210  -0.023206   0.011376  -0.042201  -0.015466
    29  H    0.003374  -0.000087   0.000052   0.000039  -0.015642  -0.000002
    30  H    0.000769   0.000013  -0.000000   0.000003  -0.000179  -0.000000
    31  H   -0.019213  -0.000165   0.000001   0.000001   0.000020  -0.000000
    32  H    0.002089  -0.066748   0.343246  -0.117759   0.004418  -0.067331
    33  H    0.000042  -0.000101   0.003723  -0.030989   0.338814   0.000113
    34  H   -0.000008   0.001342  -0.043607   0.282613  -0.007561   0.103391
    35  H    0.000007  -0.002161  -0.000009  -0.044575  -0.006096   0.069927
    36  H    0.000009   0.002238  -0.028093   0.004988  -0.000096   0.087578
    37  H    0.000001   0.000102   0.000059   0.000000  -0.000000  -0.000024
              19         20         21         22         23         24
     1  C   -0.000001   0.001929   0.104346   0.227693   0.240510  -0.148714
     2  C   -0.000772   0.094748   0.004666   0.001927   0.002805   0.006571
     3  C   -0.000130   0.018553  -0.059429  -0.010066  -0.010586   0.174042
     4  C    0.001447  -0.047279  -0.011986  -0.000089  -0.000557   0.028537
     5  C    0.000494  -0.049053   0.000240   0.000042   0.000009   0.003663
     6  C   -0.022002  -0.070671  -0.000015  -0.000002  -0.000001  -0.001602
     7  C   -0.005496   0.010458  -0.000000  -0.000000  -0.000000   0.000112
     8  C    0.005102  -0.000125  -0.000000   0.000000   0.000000   0.000000
     9  C   -0.000359   0.000001  -0.000000   0.000000   0.000000   0.000000
    10  C    0.000014  -0.000000   0.000000  -0.000000  -0.000000  -0.000000
    11  C    0.000001  -0.000000  -0.000000  -0.000000   0.000000  -0.000000
    12  C   -0.000011  -0.000003  -0.000000  -0.000000  -0.000000  -0.000001
    13  C   -0.000754  -0.000180  -0.000000  -0.000000   0.000000   0.000003
    14  N    0.032336  -0.001924  -0.000000  -0.000000  -0.000000  -0.000001
    15  C   -0.009125  -0.002341  -0.000000  -0.000000  -0.000000  -0.000000
    16  C    0.004810  -0.000060  -0.000000  -0.000000  -0.000000  -0.000000
    17  C   -0.000562   0.000002   0.000000  -0.000000   0.000000   0.000000
    18  C   -0.069138   0.000426   0.000000  -0.000000   0.000000  -0.000000
    19  C    5.937847   0.194768  -0.000000   0.000000   0.000000   0.000001
    20  C    0.194768   6.185960  -0.000002  -0.000015  -0.000015  -0.001081
    21  H   -0.000000  -0.000002   0.921076   0.019309   0.021092  -0.010521
    22  H    0.000000  -0.000015   0.019309   0.750928  -0.118104   0.007455
    23  H    0.000000  -0.000015   0.021092  -0.118104   0.723200   0.005446
    24  H    0.000001  -0.001081  -0.010521   0.007455   0.005446   0.828749
    25  H    0.000322  -0.104373  -0.000683   0.000095   0.000083   0.015381
    26  H   -0.000015  -0.002517  -0.000207   0.000011   0.000007   0.020339
    27  H    0.030542   0.044788   0.000000  -0.000000  -0.000000  -0.000126
    28  H    0.008424  -0.000084  -0.000000  -0.000000  -0.000000  -0.000000
    29  H   -0.000000   0.000000   0.000000   0.000000   0.000000   0.000000
    30  H   -0.000000  -0.000000  -0.000000  -0.000000  -0.000000   0.000000
    31  H    0.000000  -0.000000  -0.000000   0.000000  -0.000000   0.000000
    32  H   -0.000992  -0.000239   0.000000  -0.000000   0.000000  -0.000000
    33  H    0.000002  -0.000000  -0.000000  -0.000000  -0.000000  -0.000000
    34  H   -0.000199  -0.000000   0.000000   0.000000   0.000000   0.000000
    35  H    0.002893  -0.000006   0.000000  -0.000000  -0.000000  -0.000000
    36  H    0.144046   0.000074   0.000000   0.000000   0.000000   0.000000
    37  H    0.002726   0.156667  -0.000009   0.000003  -0.000001   0.000009
              25         26         27         28         29         30
     1  C   -0.006905  -0.001054   0.000010   0.000000  -0.000000  -0.000000
     2  C   -0.056476  -0.000735   0.003034   0.000001  -0.000000  -0.000000
     3  C   -0.193451  -0.034399   0.004559   0.000000  -0.000000   0.000000
     4  C    0.345041  -0.032936  -0.012081   0.000059  -0.000000   0.000000
     5  C    0.043963   0.329993  -0.056714  -0.000218  -0.000000   0.000000
     6  C   -0.037768  -0.034418   0.297812   0.011631  -0.000011   0.000013
     7  C    0.001702  -0.017589  -0.005160  -0.006477  -0.000300   0.000166
     8  C    0.000015  -0.000108   0.000663   0.293603   0.004746   0.003078
     9  C    0.000001   0.000008  -0.000236  -0.145732  -0.033406   0.001363
    10  C   -0.000000  -0.000004   0.000021   0.005828   0.320921  -0.011241
    11  C    0.000000   0.000017   0.000002   0.002466  -0.067100   0.351767
    12  C    0.000013   0.001895  -0.000237   0.004751   0.007138  -0.042839
    13  C    0.000344   0.001741   0.009301  -0.054289   0.003374   0.000769
    14  N   -0.001778  -0.000315  -0.034356  -0.051210  -0.000087   0.000013
    15  C    0.000032   0.000005   0.000423  -0.023206   0.000052  -0.000000
    16  C   -0.000004  -0.000000   0.000388   0.011376   0.000039   0.000003
    17  C    0.000000   0.000000  -0.000032  -0.042201  -0.015642  -0.000179
    18  C   -0.000008  -0.000000  -0.000261  -0.015466  -0.000002  -0.000000
    19  C    0.000322  -0.000015   0.030542   0.008424  -0.000000  -0.000000
    20  C   -0.104373  -0.002517   0.044788  -0.000084   0.000000  -0.000000
    21  H   -0.000683  -0.000207   0.000000  -0.000000   0.000000  -0.000000
    22  H    0.000095   0.000011  -0.000000  -0.000000   0.000000  -0.000000
    23  H    0.000083   0.000007  -0.000000  -0.000000   0.000000  -0.000000
    24  H    0.015381   0.020339  -0.000126  -0.000000   0.000000   0.000000
    25  H    0.707674   0.019849  -0.030347  -0.000036  -0.000000   0.000000
    26  H    0.019849   0.638876  -0.000054  -0.000017  -0.000000   0.000001
    27  H   -0.030347  -0.000054   0.466338   0.000250   0.000000  -0.000000
    28  H   -0.000036  -0.000017   0.000250   0.787812  -0.002749  -0.000001
    29  H   -0.000000  -0.000000   0.000000  -0.002749   0.715016  -0.009678
    30  H    0.000000   0.000001  -0.000000  -0.000001  -0.009678   0.601602
    31  H    0.000002   0.000573  -0.000008  -0.000004  -0.000317  -0.002792
    32  H   -0.000007  -0.000000  -0.000395   0.000595   0.000005   0.000000
    33  H   -0.000000  -0.000000   0.000000   0.001805   0.010401  -0.000006
    34  H    0.000000   0.000000  -0.000002  -0.000775  -0.000004  -0.000000
    35  H   -0.000000  -0.000000  -0.000008   0.003507   0.000003   0.000000
    36  H    0.000021  -0.000000  -0.001157  -0.000996   0.000000  -0.000000
    37  H   -0.002492   0.000106  -0.003613   0.000000  -0.000000  -0.000000
              31         32         33         34         35         36
     1  C   -0.000000   0.000000   0.000000  -0.000000   0.000000   0.000000
     2  C    0.000000   0.000001   0.000000  -0.000000   0.000000  -0.000005
     3  C   -0.000001   0.000000   0.000000  -0.000000   0.000000   0.000000
     4  C    0.000016  -0.000002  -0.000000   0.000000   0.000000  -0.000013
     5  C    0.000021  -0.000047   0.000000  -0.000000  -0.000000  -0.000000
     6  C    0.000382   0.000292  -0.000003   0.000008  -0.000002   0.000102
     7  C   -0.002305  -0.003190  -0.000050  -0.000017  -0.000018   0.000151
     8  C    0.000741  -0.016194   0.001991   0.001287  -0.002335  -0.000372
     9  C    0.002597   0.005822  -0.036936  -0.000117   0.000513   0.000028
    10  C   -0.003658  -0.000142  -0.012705   0.000023  -0.000060  -0.000001
    11  C   -0.028566  -0.000015  -0.000456   0.000001   0.000001  -0.000000
    12  C    0.335693   0.000081  -0.000023  -0.000000   0.000000  -0.000000
    13  C   -0.019213   0.002089   0.000042  -0.000008   0.000007   0.000009
    14  N   -0.000165  -0.066748  -0.000101   0.001342  -0.002161   0.002238
    15  C    0.000001   0.343246   0.003723  -0.043607  -0.000009  -0.028093
    16  C    0.000001  -0.117759  -0.030989   0.282613  -0.044575   0.004988
    17  C    0.000020   0.004418   0.338814  -0.007561  -0.006096  -0.000096
    18  C   -0.000000  -0.067331   0.000113   0.103391   0.069927   0.087578
    19  C    0.000000  -0.000992   0.000002  -0.000199   0.002893   0.144046
    20  C   -0.000000  -0.000239  -0.000000  -0.000000  -0.000006   0.000074
    21  H   -0.000000   0.000000  -0.000000   0.000000   0.000000   0.000000
    22  H    0.000000  -0.000000  -0.000000   0.000000  -0.000000   0.000000
    23  H   -0.000000   0.000000  -0.000000   0.000000  -0.000000   0.000000
    24  H    0.000000  -0.000000  -0.000000   0.000000  -0.000000   0.000000
    25  H    0.000002  -0.000007  -0.000000   0.000000  -0.000000   0.000021
    26  H    0.000573  -0.000000  -0.000000   0.000000  -0.000000  -0.000000
    27  H   -0.000008  -0.000395   0.000000  -0.000002  -0.000008  -0.001157
    28  H   -0.000004   0.000595   0.001805  -0.000775   0.003507  -0.000996
    29  H   -0.000317   0.000005   0.010401  -0.000004   0.000003   0.000000
    30  H   -0.002792   0.000000  -0.000006  -0.000000   0.000000  -0.000000
    31  H    0.601598  -0.000000  -0.000000   0.000000  -0.000000   0.000000
    32  H   -0.000000   0.720453  -0.000226  -0.027237   0.029476  -0.009784
    33  H   -0.000000  -0.000226   0.612910  -0.001477  -0.000553   0.000003
    34  H    0.000000  -0.027237  -0.001477   0.501157  -0.114971   0.000382
    35  H   -0.000000   0.029476  -0.000553  -0.114971   1.118911  -0.002547
    36  H    0.000000  -0.009784   0.000003   0.000382  -0.002547   0.637160
    37  H    0.000000  -0.000002   0.000000   0.000000  -0.000000  -0.000315
              37
     1  C   -0.000218
     2  C   -0.061183
     3  C   -0.001042
     4  C    0.014611
     5  C    0.002780
     6  C    0.005681
     7  C   -0.000351
     8  C    0.000002
     9  C   -0.000000
    10  C    0.000000
    11  C    0.000000
    12  C    0.000000
    13  C    0.000001
    14  N    0.000102
    15  C    0.000059
    16  C    0.000000
    17  C   -0.000000
    18  C   -0.000024
    19  C    0.002726
    20  C    0.156667
    21  H   -0.000009
    22  H    0.000003
    23  H   -0.000001
    24  H    0.000009
    25  H   -0.002492
[...]
   D111       0.10444   0.00134  -0.00009  -0.00534  -0.00638   0.09806
   D112       0.12721  -0.00440  -0.00013  -0.01335  -0.01386   0.11335
   D113       0.26039  -0.00730  -0.00014  -0.02151  -0.02253   0.23786
   D114      -2.78718  -0.00666  -0.00007  -0.01643  -0.01682  -2.80401
   D115      -2.65400  -0.00956  -0.00008  -0.02460  -0.02550  -2.67950
   D116      -0.15861   0.00599   0.00014   0.01663   0.01656  -0.14205
   D117      -1.43764  -0.01044   0.00023  -0.02963  -0.02792  -1.46555
   D118       0.99095  -0.00783  -0.00016   0.00137   0.00273   0.99368
   D119       2.07571   0.00910  -0.00030   0.06073   0.06126   2.13696
   D120      -2.45129  -0.00465  -0.00023   0.07298   0.07040  -2.38089
   D121       0.39553  -0.00499  -0.00005  -0.01366  -0.01393   0.38161
   D122       0.01646   0.00369  -0.00005  -0.00339  -0.00326   0.01320
   D123      -0.29904   0.00059   0.00001   0.00178   0.00269  -0.29635
   D124       0.10044  -0.00002   0.00001  -0.00544  -0.00521   0.09523
   D125      -0.67610   0.00062   0.00004   0.00774   0.00796  -0.66814
         Item               Value     Threshold  Converged?
 Maximum Force            0.130918     0.000450     NO 
 RMS     Force            0.017718     0.000300     NO 
 Maximum Displacement     0.495018     0.001800     NO 
 RMS     Displacement     0.070530     0.001200     NO 
 Predicted change in Energy=-2.784674D-02
 GradGradGradGradGradGradGradGradGradGradGradGradGradGradGradGradGradGrad

                          Input orientation:                          
 ---------------------------------------------------------------------
 Center     Atomic      Atomic             Coordinates (Angstroms)
 Number     Number       Type             X           Y           Z
 ---------------------------------------------------------------------
      1          6           0        1.865923    0.122409    1.056438
      2          6           0        4.484369    0.052667   -0.180279
      3          6           0        3.149444    0.244935    1.800841
      4          6           0        4.406900    0.123825    1.273045
      5          6           0        5.580646    0.178905    2.175047
      6          6           0        6.867319    0.103269    1.783467
      7          6           0        7.942582    0.277894    2.737055
      8          6           0        9.117739    0.072672    4.624639
      9          6           0       10.031330    0.914747    5.260504
     10          6           0        9.474235    1.961698    6.022069
     11          6           0        8.114150    2.250232    5.923472
     12          6           0        7.319549    1.662371    4.910450
     13          6           0        7.865701    0.631271    4.171695
     14          7           0        9.223405    0.246669    2.522554
     15          6           0       10.515563    0.407419    2.248529
     16          6           0       11.502761    0.452727    3.370869
     17          6           0       11.359694    0.797312    4.693601
     18          6           0       10.901655    0.613364    0.946768
     19          6           0        8.520642    0.124829   -1.341957
     20          6           0        7.410268   -0.199383   -1.703842
     21          1           0        1.016209    0.117085    1.750276
     22          1           0        1.884588   -0.789134    0.460913
     23          1           0        1.717105    0.948608    0.354106
     24          1           0        3.089927    0.506237    2.852612
     25          1           0        5.431129    0.549951   -0.491493
     26          1           0        5.366913    0.220217    3.241365
     27          1           0        7.153278    0.017874    0.733639
     28          1           0        9.425281   -0.922732    4.333155
     29          1           0       10.121924    2.609401    6.602326
     30          1           0        7.711356    3.074903    6.500516
     31          1           0        6.400037    2.154583    4.617710
     32          1           0       10.674228   -0.138263    0.341424
     33          1           0       12.234581    1.107623    5.262382
     34          1           0       12.521877    0.416186    2.967629
     35          1           0       11.975736    0.827822    0.881177
     36          1           0        9.419243    0.096674   -0.773443
     37          1           0        6.350606   -0.257817   -1.951936
 ---------------------------------------------------------------------
                    Distance matrix (angstroms):
                    1          2          3          4          5
     1  C    0.000000
     2  C    2.896652   0.000000
     3  C    1.488817   2.396629   0.000000
     4  C    2.550193   1.457126   1.369099   0.000000
     5  C    3.879903   2.601023   2.460718   1.481324   0.000000
     6  C    5.053998   3.088253   3.720613   2.512889   1.347064
     7  C    6.306697   4.529990   4.883825   3.829897   2.429895
     8  C    8.082288   6.675011   6.604851   5.781679   4.303814
     9  C    9.218234   7.817549   7.731640   6.939711   5.465354
    10  C    9.269676   8.186104   7.795449   7.183933   5.756559
    11  C    8.200975   7.433732   6.757632   6.315993   4.975914
    12  C    6.853242   6.045239   5.391527   4.907276   3.564672
    13  C    6.779461   5.541468   5.292757   4.541252   3.068014
    14  N    7.503164   5.459067   6.116688   4.977458   3.659924
    15  C    8.736051   6.511549   7.381499   6.192557   4.940751
    16  C    9.916367   7.875819   8.502121   7.406773   6.047843
    17  C   10.189020   8.460455   8.722464   7.777861   6.334267
    18  C    9.049724   6.539585   7.807813   6.521345   5.478189
    19  C    7.073725   4.200738   6.224257   4.874537   4.584301
    20  C    6.201811   3.308422   5.534875   4.241054   4.305392
    21  H    1.097020   3.969802   2.137661   3.424117   4.584576
    22  H    1.088995   2.806888   2.112953   2.802698   4.187625
    23  H    1.094543   2.957368   2.154019   2.959682   4.339957
    24  H    2.207204   3.368772   1.085377   2.091814   2.601907
    25  H    3.910189   1.113778   3.248680   2.084280   2.696381
    26  H    4.128002   3.537599   2.644407   2.192076   1.088312
    27  H    5.298231   2.821264   4.149839   2.800853   2.139336
    28  H    8.305003   6.762773   6.867473   5.970234   4.544474
    29  H   10.252002   9.182736   8.789791   8.200050   6.792003
    30  H    8.516120   8.011266   7.134893   6.852353   5.624626
    31  H    6.113148   5.577503   4.706151   4.391282   3.246738
    32  H    8.841121   6.214739   7.674575   6.341609   5.422854
    33  H   11.232527   9.528971   9.760440   8.840546   7.393849
    34  H   10.829972   8.639618   9.446333   8.295175   6.990363
    35  H   10.135909   7.605797   8.893198   7.611600   6.556857
    36  H    7.771857   4.970590   6.779328   5.414096   4.840990
    37  H    5.413619   2.591913   4.958179   3.784726   4.220848
                    6          7          8          9         10
     6  C    0.000000
     7  C    1.447762   0.000000
     8  C    3.624581   2.232954   0.000000
     9  C    4.770665   3.337101   1.395730   0.000000
    10  C    5.311829   3.996558   2.376620   1.409412   0.000000
    11  C    4.827389   3.751374   2.726889   2.428709   1.393845
    12  C    3.523256   2.651149   2.417088   2.834648   2.442942
    13  C    2.641815   1.479519   1.443881   2.440454   2.789499
    14  N    2.473450   1.299036   2.111919   2.931798   3.905233
    15  C    3.690322   2.622149   2.777025   3.092549   4.211859
    16  C    4.912157   3.620381   2.721159   2.439116   3.663437
    17  C    5.397408   3.971715   2.357164   1.449042   2.583714
    18  C    4.151642   3.474735   4.123280   4.410965   5.441895
    19  C    3.535847   4.122611   5.996626   6.818991   7.649334
    20  C    3.542276   4.498080   6.560423   7.524186   8.283716
    21  H    5.851220   6.998159   8.596437   9.707233   9.653446
    22  H    5.231935   6.558862   8.390340   9.607741   9.802872
    23  H    5.411319   6.699617   8.589186   9.654026   9.660499
    24  H    3.946409   4.859398   6.297823   7.358525   7.274834
    25  H    2.727198   4.099382   6.324057   7.374306   7.795270
    26  H    2.095319   2.625210   4.000489   5.129920   5.256916
    27  H    1.091423   2.168937   4.359128   5.438756   6.093668
    28  H    3.754565   2.487455   1.081838   2.145600   3.342868
    29  H    6.332026   5.012562   3.369662   2.163457   1.084305
    30  H    5.638578   4.694717   3.809228   3.403848   2.139130
    31  H    3.529756   3.072177   3.423494   3.890587   3.385281
    32  H    4.078037   3.657065   4.562136   5.071439   6.174104
    33  H    6.474495   5.048463   3.345525   2.211678   2.987654
    34  H    5.785688   4.587181   3.801557   3.421792   4.583267
    35  H    5.237846   4.473594   4.769896   4.792367   5.828547
    36  H    3.612499   3.812737   5.406549   6.119837   7.047008
    37  H    3.788220   4.980764   7.142660   8.181804   8.846924
                   11         12         13         14         15
    11  C    0.000000
    12  C    1.415339   0.000000
    13  C    2.398225   1.381016   0.000000
    14  N    4.100116   3.366144   2.170471   0.000000
    15  C    4.761087   4.344563   3.281836   1.330640   0.000000
    16  C    4.607547   4.618745   3.728459   2.440811   1.495413
    17  C    3.762595   4.137405   3.536657   3.095219   2.615903
    18  C    5.934400   5.444508   4.429164   2.331114   1.373340
    19  C    7.580833   6.549752   5.575463   3.929780   4.117179
    20  C    8.041889   6.871915   5.951415   4.620483   5.062836
    21  H    8.505683   7.218498   7.283076   8.244469   9.516842
    22  H    8.825233   7.439561   7.180611   7.692951   8.895002
    23  H    8.581040   7.256522   7.244303   7.844707   9.016352
    24  H    6.141214   4.843660   4.956170   6.147834   7.450822
    25  H    7.158305   5.829631   5.261090   4.853640   5.777500
    26  H    4.343037   2.945919   2.697855   3.922999   5.246844
    27  H    5.730712   4.491967   3.564271   2.745540   3.708315
    28  H    3.783632   3.383804   2.207552   2.164838   2.702533
    29  H    2.149651   3.407728   3.861542   4.799414   4.894816
    30  H    1.084115   2.162654   3.379137   5.109734   5.749647
    31  H    2.156930   1.083270   2.160458   4.000153   5.059957
    32  H    6.589247   5.947449   4.811547   2.647714   1.989973
    33  H    4.326725   4.958743   4.528093   4.161139   3.539579
    34  H    5.615050   5.691374   4.814147   3.332678   2.131308
    35  H    6.508444   6.213823   5.268637   3.256868   2.044137
    36  H    7.154701   6.258335   5.210919   3.305216   3.229674
    37  H    8.451180   7.191545   6.370623   5.341212   5.952589
                   16         17         18         19         20
    16  C    0.000000
    17  C    1.374345   0.000000
    18  C    2.502679   3.779205   0.000000
    19  C    5.586706   6.703761   3.338585   0.000000
    20  C    6.551828   7.584105   4.458259   1.212025   0.000000
    21  H   10.616343  10.775600   9.930456   8.116556   7.274275
    22  H   10.125182  10.498100   9.138411   6.937066   5.963817
    23  H   10.252113  10.575142   9.209755   7.059983   6.161586
    24  H    8.428951   8.477205   8.041567   6.872594   6.318585
    25  H    7.196666   7.879991   5.656789   3.232507   2.438910
    26  H    6.141617   6.193178   6.004424   5.564346   5.367163
    27  H    5.105104   5.829473   3.801363   2.487815   2.460601
    28  H    2.670918   2.613508   4.000861   5.841460   6.405376
    29  H    4.123138   2.908432   6.047932   8.476370   9.177951
    30  H    5.571826   4.665054   6.861581   8.417973   8.838727
    31  H    5.521659   5.142582   6.009637   6.643381   6.820832
    32  H    3.195822   4.504066   0.991518   2.746074   3.852309
    33  H    2.131260   1.088684   4.543733   7.640453   8.573829
    34  H    1.096602   2.115397   2.597668   5.887895   6.951987
    35  H    2.561830   3.861996   1.097245   4.168237   5.346118
    36  H    4.652219   5.843356   2.328870   1.063713   2.233668
    37  H    7.441897   8.388529   5.465664   2.286383   1.089884
                   21         22         23         24         25
    21  H    0.000000
    22  H    1.799381   0.000000
    23  H    1.769739   1.749059   0.000000
    24  H    2.380523   2.975072   2.884938   0.000000
    25  H    4.970355   3.908732   3.829875   4.082423   0.000000
    26  H    4.600284   4.569058   4.710406   2.327574   3.747943
    27  H    6.221496   5.337110   5.528317   4.608619   2.179415
    28  H    8.858045   8.477863   8.874160   6.661131   6.434226
    29  H   10.614522  10.822232  10.603748   8.242125   8.750266
    30  H    8.725736   9.238984   8.844803   6.423617   7.775797
    31  H    6.431110   6.806888   6.446902   4.097492   5.442204
    32  H    9.763575   8.814516   9.022832   8.015177   5.353267
    33  H   11.796945  11.566078  11.607487   9.475935   8.927767
    34  H   11.573755  10.994924  11.129109   9.433081   7.890635
    35  H   11.016883  10.228512  10.272873   9.107556   6.692781
    36  H    8.773856   7.686307   7.830715   7.305905   4.023680
    37  H    6.504054   5.103867   5.314379   5.856577   1.905471
                   26         27         28         29         30
    26  H    0.000000
    27  H    3.085569   0.000000
    28  H    4.355305   4.359272   0.000000
    29  H    6.293996   7.068972   4.255633   0.000000
    30  H    4.926227   6.550859   4.859637   2.457212   0.000000
    31  H    2.589101   4.496544   4.324690   4.242405   2.472146
    32  H    6.058528   3.546167   4.255488   6.859563   7.552315
    33  H    7.213658   6.893236   3.588589   2.917894   5.085541
    34  H    7.162879   5.828483   3.639542   4.876576   6.533848
    35  H    7.043878   4.892227   4.635236   6.272336   7.403464
    36  H    5.705727   2.722517   5.207357   7.823652   8.043457
    37  H    5.307216   2.816487   7.028378   9.778506   9.187090
                   31         32         33         34         35
    31  H    0.000000
    32  H    6.466257   0.000000
    33  H    5.962687   5.310628   0.000000
    34  H    6.574323   3.258554   2.413818   0.000000
    35  H    6.841813   1.708385   4.397755   2.195677   0.000000
    36  H    6.512690   1.695025   6.736418   4.870733   3.131773
    37  H    6.998741   4.895661   9.409143   7.920920   6.391184
                   36         37
    36  H    0.000000
    37  H    3.306212   0.000000
 Stoichiometry    C19H17N
 Framework group  C1[X(C19H17N)]
 Deg. of freedom   105
 Full point group                 C1      NOp   1
 Largest Abelian subgroup         C1      NOp   1
 Largest concise Abelian subgroup C1      NOp   1
                         Standard orientation:                         
 ---------------------------------------------------------------------
 Center     Atomic      Atomic             Coordinates (Angstroms)
 Number     Number       Type             X           Y           Z
 ---------------------------------------------------------------------
      1          6           0        5.828425   -1.667958    0.084527
      2          6           0        4.210560    0.723134   -0.151654
      3          6           0        4.340663   -1.652326    0.138331
      4          6           0        3.541110   -0.541026    0.125755
      5          6           0        2.076668   -0.699156    0.282999
      6          6           0        1.178451    0.304434    0.258607
      7          6           0       -0.241669    0.028058    0.312387
      8          6           0       -2.169442   -0.896032    0.957238
      9          6           0       -3.371779   -1.128681    0.287668
     10          6           0       -3.400513   -2.264939   -0.545719
     11          6           0       -2.219496   -2.942187   -0.844615
     12          6           0       -0.960841   -2.386774   -0.512214
     13          6           0       -0.936036   -1.278399    0.311251
     14          7           0       -1.228810    0.872099    0.287073
     15          6           0       -2.218847    1.731960    0.061090
     16          6           0       -3.632441    1.296458    0.280979
     17          6           0       -4.212998    0.050900    0.261955
     18          6           0       -1.923032    2.971681   -0.450426
     19          6           0        1.322458    3.752102   -0.512798
     20          6           0        2.494444    3.548746   -0.280206
     21          1           0        6.210389   -2.681595    0.258010
     22          1           0        6.219530   -0.974860    0.827872
     23          1           0        6.208682   -1.330209   -0.884675
     24          1           0        3.834041   -2.612206    0.135342
     25          1           0        3.495028    1.366873   -0.712114
     26          1           0        1.721318   -1.705169    0.497676
     27          1           0        1.468893    1.342971    0.090416
     28          1           0       -2.168165   -0.290067    1.853440
     29          1           0       -4.323768   -2.548078   -1.038820
     30          1           0       -2.261590   -3.799664   -1.506632
     31          1           0       -0.084793   -2.717696   -1.056736
     32          1           0       -1.335136    3.513369    0.136141
     33          1           0       -5.284953   -0.036259    0.092990
     34          1           0       -4.300087    2.164021    0.216788
     35          1           0       -2.836825    3.534775   -0.678139
     36          1           0        0.270799    3.747110   -0.353192
     37          1           0        3.534199    3.222009   -0.278807
 ---------------------------------------------------------------------
 Rotational constants (GHZ):           0.4990374           0.2132463           0.1542032
 Standard basis: 6-31G(2df,p) (6D, 7F)
 There are   705 symmetry adapted cartesian basis functions of A   symmetry.
 There are   645 symmetry adapted basis functions of A   symmetry.
   645 basis functions,   999 primitive gaussians,   705 cartesian basis functions
    69 alpha electrons       69 beta electrons
       nuclear repulsion energy      1350.8306019477 Hartrees.
 NAtoms=   37 NActive=   37 NUniq=   37 SFac= 1.00D+00 NAtFMM=   60 NAOKFM=F Big=F
 Integral buffers will be    131072 words long.
 Raffenetti 2 integral format.
 Two-electron integral symmetry is turned on.
 One-electron integrals computed using PRISM.
 PrsmSu:  requested number of processors reduced to:  12 ShMem   1 Linda.
 NBasis=   645 RedAO= T EigKep=  1.48D-04  NBF=   645
 NBsUse=   645 1.00D-06 EigRej= -1.00D+00 NBFU=   645
 Initial guess from the checkpoint file:  "CC1dCCdCCdC2CdC3CdCCdC2NdCCqdC3rCCdC1.chk"
 B after Tr=     0.000000    0.000000    0.000000
         Rot=    0.999992   -0.001168    0.000049    0.003756 Ang=  -0.45 deg.
 ExpMin= 1.61D-01 ExpMax= 4.17D+03 ExpMxC= 6.27D+02 IAcc=2 IRadAn=         4 AccDes= 0.00D+00
 Harris functional with IExCor=  402 and IRadAn=       4 diagonalized for initial guess.
 HarFok:  IExCor=  402 AccDes= 0.00D+00 IRadAn=         4 IDoV= 1 UseB2=F ITyADJ=14
 ICtDFT=  3500011 ScaDFX=  1.000000  1.000000  1.000000  1.000000
 FoFCou: FMM=F IPFlag=           0 FMFlag=      100000 FMFlg1=           0
         NFxFlg=           0 DoJE=T BraDBF=F KetDBF=T FulRan=T
         wScrn=  0.000000 ICntrl=       500 IOpCl=  0 I1Cent=   200000004 NGrid=           0
         NMat0=    1 NMatS0=      1 NMatT0=    0 NMatD0=    1 NMtDS0=    0 NMtDT0=    0
 Petite list used in FoFCou.
 Requested convergence on RMS density matrix=1.00D-08 within 128 cycles.
 Requested convergence on MAX density matrix=1.00D-06.
 Requested convergence on             energy=1.00D-06.
 No special actions if energy rises.
 Integral accuracy reduced to 1.0D-05 until final iterations.
slurmstepd: error: *** JOB 27448433 ON lewis4-r630-hpc4-node231 CANCELLED AT 2023-05-19T12:39:03 DUE TO TIME LIMIT ***
