### Starting Gaussian ###
 Entering Gaussian System, Link 0=g16
 Initial command:
 /cluster/software/gaussian/gaussian-16-A.03/avx2/g16/l1.exe "/local/scratch/linjian/Gau-22795.inp" -scrdir="/local/scratch/linjian/"
 Entering Link 1 = /cluster/software/gaussian/gaussian-16-A.03/avx2/g16/l1.exe PID=     22796.
  
 Copyright (c) 1988,1990,1992,1993,1995,1998,2003,2009,2016,
            Gaussian, Inc.  All Rights Reserved.
  
 This is part of the Gaussian(R) 16 program.  It is based on
 the Gaussian(R) 09 system (copyright 2009, Gaussian, Inc.),
 the Gaussian(R) 03 system (copyright 2003, Gaussian, Inc.),
 the Gaussian(R) 98 system (copyright 1998, Gaussian, Inc.),
 the Gaussian(R) 94 system (copyright 1995, Gaussian, Inc.),
 the Gaussian 92(TM) system (copyright 1992, Gaussian, Inc.),
 the Gaussian 90(TM) system (copyright 1990, Gaussian, Inc.),
 the Gaussian 88(TM) system (copyright 1988, Gaussian, Inc.),
 the Gaussian 86(TM) system (copyright 1986, Carnegie Mellon
 University), and the Gaussian 82(TM) system (copyright 1983,
 Carnegie Mellon University). Gaussian is a federally registered
 trademark of Gaussian, Inc.
  
 This software contains proprietary and confidential information,
 including trade secrets, belonging to Gaussian, Inc.
  
 This software is provided under written license and may be
 used, copied, transmitted, or stored only in accord with that
 written license.
  
 The following legend is applicable only to US Government
 contracts under FAR:
  
                    RESTRICTED RIGHTS LEGEND
  
 Use, reproduction and disclosure by the US Government is
 subject to restrictions as set forth in subparagraphs (a)
 and (c) of the Commercial Computer Software - Restricted
 Rights clause in FAR 52.227-19.
  
 Gaussian, Inc.
 340 Quinnipiac St., Bldg. 40, Wallingford CT 06492
  
  
 ---------------------------------------------------------------
 Warning -- This program may not be used in any manner that
 competes with the business of Gaussian, Inc. or will provide
 assistance to any competitor of Gaussian, Inc.  The licensee
 of this program is prohibited from giving any competitor of
 Gaussian, Inc. access to this program.  By using this program,
 the user acknowledges that Gaussian, Inc. is engaged in the
 business of creating and licensing software in the field of
 computational chemistry and represents and warrants to the
 licensee that it is not a competitor of Gaussian, Inc. and that
 it will not use this program in any manner prohibited above.
 ---------------------------------------------------------------
  

 Cite this work as:
 Gaussian 16, Revision A.03,
 M. J. Frisch, G. W. Trucks, H. B. Schlegel, G. E. Scuseria, 
 M. A. Robb, J. R. Cheeseman, G. Scalmani, V. Barone, 
 G. A. Petersson, H. Nakatsuji, X. Li, M. Caricato, A. V. Marenich, 
 J. Bloino, B. G. Janesko, R. Gomperts, B. Mennucci, H. P. Hratchian, 
 J. V. Ortiz, A. F. Izmaylov, J. L. Sonnenberg, D. Williams-Young, 
 F. Ding, F. Lipparini, F. Egidi, J. Goings, B. Peng, A. Petrone, 
 T. Henderson, D. Ranasinghe, V. G. Zakrzewski, J. Gao, N. Rega, 
 G. Zheng, W. Liang, M. Hada, M. Ehara, K. Toyota, R. Fukuda, 
 J. Hasegawa, M. Ishida, T. Nakajima, Y. Honda, O. Kitao, H. Nakai, 
 T. Vreven, K. Throssell, J. A. Montgomery, Jr., J. E. Peralta, 
 F. Ogliaro, M. J. Bearpark, J. J. Heyd, E. N. Brothers, K. N. Kudin, 
 V. N. Staroverov, T. A. Keith, R. Kobayashi, J. Normand, 
 K. Raghavachari, A. P. Rendell, J. C. Burant, S. S. Iyengar, 
 J. Tomasi, M. Cossi, J. M. Millam, M. Klene, C. Adamo, R. Cammi, 
 J. W. Ochterski, R. L. Martin, K. Morokuma, O. Farkas, 
 J. B. Foresman, and D. J. Fox, Gaussian, Inc., Wallingford CT, 2016.
 
 ******************************************
 Gaussian 16:  ES64L-G16RevA.03 25-Dec-2016
                17-May-2023 
 ******************************************
 %chk=CC1dCCdCCdCCdC2NdCCN3CdCSC23NdC1.chk
 %NProcShared=20
 Will use up to   20 processors via shared memory.
 -----------------------------
 # opt freq b3lyp/6-31g(2df,p)
 -----------------------------
 1/18=20,19=15,26=3,38=1/1,3;
 2/9=110,12=2,17=6,18=5,40=1/2;
 3/5=1,6=6,7=104,11=2,25=1,30=1,71=1,74=-5/1,2,3;
 4//1;
 5/5=2,38=5/2;
 6/7=2,8=2,9=2,10=2,28=1/1;
 7//1,2,3,16;
 1/18=20,19=15,26=3/3(2);
 2/9=110/2;
 99//99;
 2/9=110/2;
 3/5=1,6=6,7=104,11=2,25=1,30=1,71=1,74=-5/1,2,3;
 4/5=5,16=3,69=1/1;
 5/5=2,38=5/2;
 7//1,2,3,16;
 1/18=20,19=15,26=3/3(-5);
 2/9=110/2;
 6/7=2,8=2,9=2,10=2,19=2,28=1/1;
 99/9=1/99;
 -------------------
 Title Card Required
 -------------------
 Symbolic Z-matrix:
 Charge =  0 Multiplicity = 1
 C                     2.10268   0.16199   0.21022 
 C                     4.08784   0.47017   0.89411 
 C                     3.47149  -0.50223   1.55568 
 C                     4.55763  -1.25079   1.22638 
 C                     5.19661  -1.47163   2.35083 
 C                     6.54064  -1.74791   2.18289 
 C                     7.26077  -1.90785   3.26137 
 C                     8.62478  -2.01932   3.00625 
 C                     9.19981  -2.0953    4.17308 
 N                     8.74312  -2.53786   5.48074 
 C                     9.56247  -3.07799   6.33392 
 C                     10.94872  -2.8753    6.12086 
 N                     10.99396  -1.73      4.68225 
 C                     12.68388  -2.15343   4.92149 
 C                     13.29262  -1.845     3.8137 
 S                     11.57579  -1.98521   2.59916 
 C                     9.67771  -0.72045   3.4297 
 N                     7.92331  -0.02902   2.09685 
 C                     6.29921   0.35189   1.355 
 H                     1.0732   -0.37779   0.98703 
 H                     1.22092  -0.54679  -0.67598 
 H                     1.09585   1.01553   0.02001 
 H                     2.52724  -0.9908    1.85814 
 H                     5.05683  -1.09227   0.20918 
 H                     4.69423  -1.41175   3.28483 
 H                     7.03619  -1.47839   1.17453 
 H                     6.88977  -1.91272   4.26417 
 H                     9.19686  -1.53059   1.93035 
 H                     9.28823  -3.62254   7.27354 
 H                     11.48216  -3.96971   6.22772 
 H                     11.40559  -2.41622   7.07028 
 H                     13.42739  -2.73751   5.88354 
 H                     14.45845  -1.59418   3.83686 
 H                     5.98809   0.66022  -0.03708 
 
 Add virtual bond connecting atoms H28        and C8         Dist= 2.48D+00.
 Add virtual bond connecting atoms H22        and C1         Dist= 2.52D+00.
 Add virtual bond connecting atoms H32        and C14        Dist= 2.55D+00.
 Add virtual bond connecting atoms H20        and C1         Dist= 2.64D+00.
 Add virtual bond connecting atoms H21        and C1         Dist= 2.72D+00.
 Add virtual bond connecting atoms H34        and C19        Dist= 2.76D+00.
 Add virtual bond connecting atoms C14        and N13        Dist= 3.32D+00.
 Add virtual bond connecting atoms H23        and H20        Dist= 3.41D+00.
 Add virtual bond connecting atoms C19        and N18        Dist= 3.45D+00.
 Add virtual bond connecting atoms N13        and C9         Dist= 3.59D+00.
 Add virtual bond connecting atoms N13        and C12        Dist= 3.48D+00.
 Add virtual bond connecting atoms H24        and H34        Dist= 3.78D+00.
 Add virtual bond connecting atoms H26        and N18        Dist= 3.65D+00.
 Add virtual bond connecting atoms H26        and C19        Dist= 3.74D+00.
 Add virtual bond connecting atoms H28        and N18        Dist= 3.73D+00.

 GradGradGradGradGradGradGradGradGradGradGradGradGradGradGradGradGradGrad
 Berny optimization.
 Initialization pass.
                           ----------------------------
                           !    Initial Parameters    !
                           ! (Angstroms and Degrees)  !
 --------------------------                            --------------------------
 ! Name  Definition              Value          Derivative Info.                !
 --------------------------------------------------------------------------------
 ! R1    R(1,20)                 1.3981         estimate D2E/DX2                !
 ! R2    R(1,21)                 1.4371         estimate D2E/DX2                !
 ! R3    R(1,22)                 1.3336         estimate D2E/DX2                !
 ! R4    R(2,3)                  1.3278         estimate D2E/DX2                !
 ! R5    R(2,4)                  1.8146         estimate D2E/DX2                !
 ! R6    R(3,4)                  1.3596         estimate D2E/DX2                !
 ! R7    R(3,23)                 1.1053         estimate D2E/DX2                !
 ! R8    R(4,5)                  1.312          estimate D2E/DX2                !
 ! R9    R(4,24)                 1.1441         estimate D2E/DX2                !
 ! R10   R(5,6)                  1.3824         estimate D2E/DX2                !
 ! R11   R(5,25)                 1.0622         estimate D2E/DX2                !
 ! R12   R(6,7)                  1.3066         estimate D2E/DX2                !
 ! R13   R(6,26)                 1.1554         estimate D2E/DX2                !
 ! R14   R(7,8)                  1.3921         estimate D2E/DX2                !
 ! R15   R(7,27)                 1.0692         estimate D2E/DX2                !
 ! R16   R(8,9)                  1.303          estimate D2E/DX2                !
 ! R17   R(8,17)                 1.7248         estimate D2E/DX2                !
 ! R18   R(8,28)                 1.3129         estimate D2E/DX2                !
 ! R19   R(9,10)                 1.4541         estimate D2E/DX2                !
 ! R20   R(9,13)                 1.9004         estimate D2E/DX2                !
 ! R21   R(9,17)                 1.6344         estimate D2E/DX2                !
 ! R22   R(10,11)                1.3004         estimate D2E/DX2                !
 ! R23   R(11,12)                1.4171         estimate D2E/DX2                !
 ! R24   R(11,29)                1.1201         estimate D2E/DX2                !
 ! R25   R(12,13)                1.8394         estimate D2E/DX2                !
 ! R26   R(12,30)                1.2222         estimate D2E/DX2                !
 ! R27   R(12,31)                1.1493         estimate D2E/DX2                !
 ! R28   R(13,14)                1.7585         estimate D2E/DX2                !
 ! R29   R(14,15)                1.3011         estimate D2E/DX2                !
 ! R30   R(14,32)                1.3489         estimate D2E/DX2                !
 ! R31   R(15,16)                2.1077         estimate D2E/DX2                !
 ! R32   R(15,33)                1.1927         estimate D2E/DX2                !
 ! R33   R(18,19)                1.8257         estimate D2E/DX2                !
 ! R34   R(18,26)                1.9335         estimate D2E/DX2                !
 ! R35   R(18,28)                1.9759         estimate D2E/DX2                !
 ! R36   R(19,26)                1.9813         estimate D2E/DX2                !
 ! R37   R(19,34)                1.4594         estimate D2E/DX2                !
 ! R38   R(20,23)                1.8025         estimate D2E/DX2                !
 ! R39   R(24,34)                1.9998         estimate D2E/DX2                !
 ! A1    A(20,1,21)             72.5669         estimate D2E/DX2                !
 ! A2    A(20,1,22)             76.7279         estimate D2E/DX2                !
 ! A3    A(21,1,22)             76.3774         estimate D2E/DX2                !
 ! A4    A(2,3,23)             148.9319         estimate D2E/DX2                !
 ! A5    A(4,3,23)             120.3553         estimate D2E/DX2                !
 ! A6    A(2,4,5)              116.2726         estimate D2E/DX2                !
 ! A7    A(2,4,24)              79.5582         estimate D2E/DX2                !
 ! A8    A(3,4,5)              105.9118         estimate D2E/DX2                !
 ! A9    A(3,4,24)             119.1839         estimate D2E/DX2                !
 ! A10   A(5,4,24)             124.9441         estimate D2E/DX2                !
 ! A11   A(4,5,6)              113.7675         estimate D2E/DX2                !
 ! A12   A(4,5,25)             120.9137         estimate D2E/DX2                !
 ! A13   A(6,5,25)             125.3044         estimate D2E/DX2                !
 ! A14   A(5,6,7)              117.3896         estimate D2E/DX2                !
 ! A15   A(5,6,26)             118.4505         estimate D2E/DX2                !
 ! A16   A(7,6,26)             120.8312         estimate D2E/DX2                !
 ! A17   A(6,7,8)              113.4871         estimate D2E/DX2                !
 ! A18   A(6,7,27)             125.6921         estimate D2E/DX2                !
 ! A19   A(8,7,27)             120.762          estimate D2E/DX2                !
 ! A20   A(7,8,9)              105.8399         estimate D2E/DX2                !
 ! A21   A(7,8,17)             119.5271         estimate D2E/DX2                !
 ! A22   A(7,8,28)             123.1825         estimate D2E/DX2                !
 ! A23   A(9,8,28)             124.2799         estimate D2E/DX2                !
 ! A24   A(17,8,28)             69.8099         estimate D2E/DX2                !
 ! A25   A(8,9,10)             133.191          estimate D2E/DX2                !
 ! A26   A(8,9,13)             130.1899         estimate D2E/DX2                !
 ! A27   A(10,9,13)             96.5498         estimate D2E/DX2                !
 ! A28   A(10,9,17)            139.1909         estimate D2E/DX2                !
 ! A29   A(13,9,17)             71.5858         estimate D2E/DX2                !
 ! A30   A(9,10,11)            121.2352         estimate D2E/DX2                !
 ! A31   A(10,11,12)           117.2784         estimate D2E/DX2                !
 ! A32   A(10,11,29)           126.7303         estimate D2E/DX2                !
 ! A33   A(12,11,29)           115.7958         estimate D2E/DX2                !
 ! A34   A(11,12,13)           103.3388         estimate D2E/DX2                !
 ! A35   A(11,12,30)           106.6032         estimate D2E/DX2                !
 ! A36   A(11,12,31)           108.7718         estimate D2E/DX2                !
 ! A37   A(13,12,30)           127.9671         estimate D2E/DX2                !
 ! A38   A(13,12,31)           112.8053         estimate D2E/DX2                !
 ! A39   A(30,12,31)            96.4279         estimate D2E/DX2                !
 ! A40   A(9,13,12)             93.821          estimate D2E/DX2                !
 ! A41   A(9,13,14)            153.8201         estimate D2E/DX2                !
 ! A42   A(12,13,14)            76.5442         estimate D2E/DX2                !
 ! A43   A(13,14,15)           106.0634         estimate D2E/DX2                !
 ! A44   A(13,14,32)           136.9701         estimate D2E/DX2                !
 ! A45   A(15,14,32)           116.8724         estimate D2E/DX2                !
 ! A46   A(14,15,16)            95.3797         estimate D2E/DX2                !
 ! A47   A(14,15,33)           119.3818         estimate D2E/DX2                !
 ! A48   A(16,15,33)           145.2222         estimate D2E/DX2                !
 ! A49   A(19,18,28)           134.2404         estimate D2E/DX2                !
 ! A50   A(26,18,28)            71.6919         estimate D2E/DX2                !
 ! A51   A(18,19,34)           128.4137         estimate D2E/DX2                !
 ! A52   A(26,19,34)           100.8118         estimate D2E/DX2                !
 ! A53   A(1,20,23)             78.8032         estimate D2E/DX2                !
 ! A54   A(3,23,20)            113.9889         estimate D2E/DX2                !
 ! A55   A(4,24,34)            115.7271         estimate D2E/DX2                !
 ! A56   A(6,26,18)             87.4399         estimate D2E/DX2                !
 ! A57   A(6,26,19)             88.6511         estimate D2E/DX2                !
 ! A58   A(8,28,18)             86.1575         estimate D2E/DX2                !
 ! A59   A(19,34,24)            78.2677         estimate D2E/DX2                !
 ! D1    D(21,1,20,23)         127.2951         estimate D2E/DX2                !
 ! D2    D(22,1,20,23)        -153.0496         estimate D2E/DX2                !
 ! D3    D(20,1,21,22)          80.1253         estimate D2E/DX2                !
 ! D4    D(23,3,4,5)           -87.8299         estimate D2E/DX2                !
 ! D5    D(23,3,4,24)          124.8801         estimate D2E/DX2                !
 ! D6    D(2,3,23,20)           10.4642         estimate D2E/DX2                !
 ! D7    D(4,3,23,20)         -130.2309         estimate D2E/DX2                !
 ! D8    D(2,4,5,6)           -107.0497         estimate D2E/DX2                !
 ! D9    D(2,4,5,25)            71.6412         estimate D2E/DX2                !
 ! D10   D(3,4,5,6)           -156.2662         estimate D2E/DX2                !
 ! D11   D(3,4,5,25)            22.4247         estimate D2E/DX2                !
 ! D12   D(24,4,5,6)           -11.4049         estimate D2E/DX2                !
 ! D13   D(24,4,5,25)          167.2861         estimate D2E/DX2                !
 ! D14   D(2,4,24,34)           42.3814         estimate D2E/DX2                !
 ! D15   D(3,4,24,34)           68.1821         estimate D2E/DX2                !
 ! D16   D(5,4,24,34)          -72.4733         estimate D2E/DX2                !
 ! D17   D(4,5,6,7)            176.3897         estimate D2E/DX2                !
 ! D18   D(4,5,6,26)            16.7967         estimate D2E/DX2                !
 ! D19   D(25,5,6,7)            -2.2341         estimate D2E/DX2                !
 ! D20   D(25,5,6,26)         -161.8271         estimate D2E/DX2                !
 ! D21   D(5,6,7,8)           -172.5947         estimate D2E/DX2                !
 ! D22   D(5,6,7,27)             4.617          estimate D2E/DX2                !
 ! D23   D(26,6,7,8)           -13.5126         estimate D2E/DX2                !
 ! D24   D(26,6,7,27)          163.6991         estimate D2E/DX2                !
 ! D25   D(5,6,26,18)          107.191          estimate D2E/DX2                !
 ! D26   D(5,6,26,19)           51.5882         estimate D2E/DX2                !
 ! D27   D(7,6,26,18)          -51.675          estimate D2E/DX2                !
 ! D28   D(7,6,26,19)         -107.2777         estimate D2E/DX2                !
 ! D29   D(6,7,8,9)            176.4978         estimate D2E/DX2                !
 ! D30   D(6,7,8,17)           108.2931         estimate D2E/DX2                !
 ! D31   D(6,7,8,28)            24.2363         estimate D2E/DX2                !
 ! D32   D(27,7,8,9)            -0.867          estimate D2E/DX2                !
 ! D33   D(27,7,8,17)          -69.0717         estimate D2E/DX2                !
 ! D34   D(27,7,8,28)         -153.1284         estimate D2E/DX2                !
 ! D35   D(7,8,9,10)            25.1352         estimate D2E/DX2                !
 ! D36   D(7,8,9,13)          -158.6283         estimate D2E/DX2                !
 ! D37   D(28,8,9,10)          177.0081         estimate D2E/DX2                !
 ! D38   D(28,8,9,13)           -6.7553         estimate D2E/DX2                !
 ! D39   D(7,8,28,18)           36.5163         estimate D2E/DX2                !
 ! D40   D(9,8,28,18)         -110.671          estimate D2E/DX2                !
 ! D41   D(17,8,28,18)         -76.2476         estimate D2E/DX2                !
 ! D42   D(8,9,10,11)          149.0933         estimate D2E/DX2                !
 ! D43   D(13,9,10,11)         -28.0138         estimate D2E/DX2                !
 ! D44   D(17,9,10,11)         -97.3096         estimate D2E/DX2                !
 ! D45   D(8,9,13,12)         -153.6135         estimate D2E/DX2                !
 ! D46   D(8,9,13,14)          -86.7391         estimate D2E/DX2                !
 ! D47   D(10,9,13,12)          23.6256         estimate D2E/DX2                !
 ! D48   D(10,9,13,14)          90.4999         estimate D2E/DX2                !
 ! D49   D(17,9,13,12)         163.5105         estimate D2E/DX2                !
 ! D50   D(17,9,13,14)        -129.6152         estimate D2E/DX2                !
 ! D51   D(9,10,11,12)          17.7858         estimate D2E/DX2                !
 ! D52   D(9,10,11,29)        -167.535          estimate D2E/DX2                !
 ! D53   D(10,11,12,13)          4.614          estimate D2E/DX2                !
 ! D54   D(10,11,12,30)       -132.312          estimate D2E/DX2                !
 ! D55   D(10,11,12,31)        124.701          estimate D2E/DX2                !
 ! D56   D(29,11,12,13)       -170.651          estimate D2E/DX2                !
 ! D57   D(29,11,12,30)         52.4229         estimate D2E/DX2                !
 ! D58   D(29,11,12,31)        -50.5641         estimate D2E/DX2                !
 ! D59   D(11,12,13,9)         -17.4646         estimate D2E/DX2                !
 ! D60   D(11,12,13,14)       -172.8072         estimate D2E/DX2                !
 ! D61   D(30,12,13,9)         106.4203         estimate D2E/DX2                !
 ! D62   D(30,12,13,14)        -48.9223         estimate D2E/DX2                !
 ! D63   D(31,12,13,9)        -134.7526         estimate D2E/DX2                !
 ! D64   D(31,12,13,14)         69.9048         estimate D2E/DX2                !
 ! D65   D(9,13,14,15)          91.464          estimate D2E/DX2                !
 ! D66   D(9,13,14,32)         -84.7058         estimate D2E/DX2                !
 ! D67   D(12,13,14,15)        162.112          estimate D2E/DX2                !
 ! D68   D(12,13,14,32)        -14.0578         estimate D2E/DX2                !
 ! D69   D(13,14,15,16)        -24.4232         estimate D2E/DX2                !
 ! D70   D(13,14,15,33)        154.467          estimate D2E/DX2                !
 ! D71   D(32,14,15,16)        152.6476         estimate D2E/DX2                !
 ! D72   D(32,14,15,33)        -28.4622         estimate D2E/DX2                !
 ! D73   D(28,18,19,34)        -67.3799         estimate D2E/DX2                !
 ! D74   D(28,18,26,6)          99.631          estimate D2E/DX2                !
 ! D75   D(19,18,28,8)         -95.6025         estimate D2E/DX2                !
 ! D76   D(26,18,28,8)         -83.3857         estimate D2E/DX2                !
 ! D77   D(34,19,26,6)        -144.0309         estimate D2E/DX2                !
 ! D78   D(18,19,34,24)        113.6479         estimate D2E/DX2                !
 ! D79   D(26,19,34,24)         52.3875         estimate D2E/DX2                !
 ! D80   D(1,20,23,3)           13.1368         estimate D2E/DX2                !
 ! D81   D(4,24,34,19)          37.895          estimate D2E/DX2                !
 --------------------------------------------------------------------------------
 Trust Radius=3.00D-01 FncErr=1.00D-07 GrdErr=1.00D-06 EigMax=2.50D+02 EigMin=1.00D-04
 Number of steps in this run=    189 maximum allowed number of steps=    204.
 GradGradGradGradGradGradGradGradGradGradGradGradGradGradGradGradGradGrad

                          Input orientation:                          
 ---------------------------------------------------------------------
 Center     Atomic      Atomic             Coordinates (Angstroms)
 Number     Number       Type             X           Y           Z
 ---------------------------------------------------------------------
      1          6           0        2.102680    0.161990    0.210220
      2          6           0        4.087840    0.470170    0.894110
      3          6           0        3.471490   -0.502230    1.555680
      4          6           0        4.557630   -1.250790    1.226380
      5          6           0        5.196610   -1.471630    2.350830
      6          6           0        6.540640   -1.747910    2.182890
      7          6           0        7.260770   -1.907850    3.261370
      8          6           0        8.624780   -2.019320    3.006250
      9          6           0        9.199810   -2.095300    4.173080
     10          7           0        8.743120   -2.537860    5.480740
     11          6           0        9.562470   -3.077990    6.333920
     12          6           0       10.948720   -2.875300    6.120860
     13          7           0       10.993960   -1.730000    4.682250
     14          6           0       12.683880   -2.153430    4.921490
     15          6           0       13.292620   -1.845000    3.813700
     16         16           0       11.575790   -1.985210    2.599160
     17          6           0        9.677710   -0.720450    3.429700
     18          7           0        7.923310   -0.029020    2.096850
     19          6           0        6.299210    0.351890    1.355000
     20          1           0        1.073200   -0.377790    0.987030
     21          1           0        1.220920   -0.546790   -0.675980
     22          1           0        1.095850    1.015530    0.020010
     23          1           0        2.527240   -0.990800    1.858140
     24          1           0        5.056830   -1.092270    0.209180
     25          1           0        4.694230   -1.411750    3.284830
     26          1           0        7.036190   -1.478390    1.174530
     27          1           0        6.889770   -1.912720    4.264170
     28          1           0        9.196860   -1.530590    1.930350
     29          1           0        9.288230   -3.622540    7.273540
     30          1           0       11.482160   -3.969710    6.227720
     31          1           0       11.405590   -2.416220    7.070280
     32          1           0       13.427390   -2.737510    5.883540
     33          1           0       14.458450   -1.594180    3.836860
     34          1           0        5.988090    0.660220   -0.037080
 ---------------------------------------------------------------------
                    Distance matrix (angstroms):
                    1          2          3          4          5
     1  C    0.000000
     2  C    2.122155   0.000000
     3  C    2.031032   1.327827   0.000000
     4  C    3.009204   1.814610   1.359588   0.000000
     5  C    4.101625   2.668706   2.132613   1.312042   0.000000
     6  C    5.218681   3.549234   3.371171   2.257071   1.382372
     7  C    6.340319   4.618050   4.386774   3.446720   2.297853
     8  C    7.423859   5.589501   5.564361   4.505584   3.532972
     9  C    8.436165   6.592838   6.496330   5.562919   4.442428
    10  N    8.897360   7.194237   6.880405   6.105281   4.848806
    11  C   10.180650   8.494265   8.158808   7.380654   6.124225
    12  C   11.064051   9.251095   9.076414   8.212247   7.019272
    13  N   10.130821   8.178340   8.238350   7.321135   6.253922
    14  C   11.811817   9.848602   9.946018   8.972432   7.945587
    15  C   11.925931   9.930357  10.166429   9.129478   8.235580
    16  S   10.002865   8.062598   8.304683   7.188774   6.404637
    17  C    8.277973   6.252475   6.486658   5.599205   4.669956
    18  N    6.121731   4.050507   4.509489   3.684867   3.095242
    19  C    4.354015   2.261983   2.960708   2.370280   2.352154
    20  H    1.398079   3.133006   2.467923   3.600093   4.478722
    21  H    1.437087   3.423247   3.169757   3.904897   5.081635
    22  H    1.333573   3.164407   3.210225   4.309925   5.332440
    23  H    2.055436   2.345050   1.105346   2.142242   2.756715
    24  H    3.209388   1.961961   2.162062   1.144126   2.179476
    25  H    4.318103   3.102398   2.304838   2.069247   1.062228
    26  H    5.287746   3.545178   3.715542   2.489528   2.183525
    27  H    6.607205   4.988615   4.583671   3.886540   2.592725
    28  H    7.493401   5.583809   5.829045   4.700672   4.022720
    29  H   10.763145   9.191924   8.732968   8.035665   6.752840
    30  H   11.885112  10.140804   9.900617   8.964097   7.796077
    31  H   11.842792  10.001289   9.850082   9.077662   7.856010
    32  H   12.993949  11.063942  11.083627  10.127789   9.045896
    33  H   12.996219  10.975922  11.274282  10.244938   9.381097
    34  H    3.925022   2.124661   3.197100   2.700834   3.297475
                    6          7          8          9         10
     6  C    0.000000
     7  C    1.306632   0.000000
     8  C    2.257260   1.392133   0.000000
     9  C    3.339569   2.150867   1.303044   0.000000
    10  N    4.043607   2.742239   2.531006   1.454098   0.000000
    11  C    5.303925   4.013429   3.615720   2.401340   1.300381
    12  C    6.017457   4.765881   3.979220   2.731471   2.321269
    13  N    5.106778   3.998404   2.916453   1.900440   2.521211
    14  C    6.738232   5.676833   4.490259   3.564020   3.998767
    15  C    6.946812   6.057411   4.740368   4.116175   4.894592
    16  S    5.057898   4.366223   2.979152   2.852126   4.078351
    17  C    3.528657   2.698120   1.724829   1.634385   2.895376
    18  N    2.207660   2.307611   2.297904   3.195262   4.291512
    19  C    2.269989   3.108902   3.709116   4.726922   5.598668
    20  H    5.761962   6.767550   7.987379   8.896210   9.148060
    21  H    6.157536   7.337234   8.399066   9.464352   9.922351
    22  H    6.477684   7.553728   8.649435   9.622859  10.046238
    23  H    4.097079   5.021588   6.289356   7.148570   7.358926
    24  H    2.554816   3.852063   4.627450   5.820898   6.593012
    25  H    2.176351   2.614152   3.986975   4.642896   4.741693
    26  H    1.155422   2.142376   2.484235   3.748751   4.751792
    27  H    2.116785   1.069239   2.145690   2.319034   2.303421
    28  H    2.677034   2.379576   1.312895   2.312735   3.718298
    29  H    6.080971   4.811264   4.606544   3.457330   2.165135
    30  H    6.761336   5.556135   4.727210   3.597788   3.179703
    31  H    6.928272   5.652059   4.940321   3.655437   3.103253
    32  H    7.880447   6.752134   5.644436   4.605490   4.705794
    33  H    8.090177   7.227460   5.907822   5.293152   6.021451
    34  H    3.321546   4.369722   4.836727   5.969379   6.947247
                   11         12         13         14         15
    11  C    0.000000
    12  C    1.417098   0.000000
    13  N    2.567928   1.839391   0.000000
    14  C    3.548658   2.229432   1.758510   0.000000
    15  C    4.667525   3.446501   2.459968   1.301112   0.000000
    16  S    4.381331   3.686170   2.177825   2.578639   2.107670
    17  C    3.742428   3.674396   2.078602   3.649099   3.805213
    18  N    5.471364   5.783344   4.359646   5.929143   5.922402
    19  C    6.870414   7.399062   6.119276   7.730491   7.731708
    20  H   10.389804  11.407001  10.672610  12.387121  12.627628
    21  H   11.186024  12.093349  11.208163  12.857388  12.944826
    22  H   11.327225  12.224483  11.280381  12.974947  13.089535
    23  H    8.595547   9.625147   8.955856  10.672074  10.974848
    24  H    7.858519   8.534725   7.460869   9.027946   9.021497
    25  H    5.981059   7.021659   6.460701   8.189216   8.625527
    26  H    5.963230   6.459522   5.294464   6.811152   6.800187
    27  H    3.575618   4.566063   4.129474   5.836242   6.419034
    28  H    4.681831   4.736838   3.292763   4.636179   4.518972
    29  H    1.120102   2.155056   3.634007   4.384160   5.582587
    30  H    2.119352   1.222175   2.764619   2.539536   3.690481
    31  H    2.092190   1.149297   2.518536   2.514037   3.806900
    32  H    3.905941   2.493815   2.894781   1.348887   2.258091
    33  H    5.692769   4.379056   3.568728   2.153667   1.192731
    34  H    8.206098   8.661869   7.283129   8.794183   8.629067
                   16         17         18         19         20
    16  S    0.000000
    17  C    2.427369   0.000000
    18  N    4.173680   2.309217   0.000000
    19  C    5.903581   4.107135   1.825687   0.000000
    20  H   10.746495   8.951069   6.948190   5.289519   0.000000
    21  H   10.955315   9.402343   7.271774   5.542701   1.678090
    22  H   11.202035   9.396166   7.212389   5.412723   1.696167
    23  H    9.133139   7.326125   5.486308   4.035310   1.802456
    24  H    7.000442   5.644691   3.593119   2.223063   4.121267
    25  H    6.939371   5.033285   3.708126   3.067675   4.411442
    26  H    4.784810   3.554981   1.933476   1.981321   6.066607
    27  H    4.973560   3.144910   3.051853   3.733697   6.850412
    28  H    2.512627   1.770761   1.975946   3.503018   8.259095
    29  H    5.455603   4.832073   6.447830   7.730424  10.841371
    30  H    4.136841   4.652166   6.727447   8.323617  12.194801
    31  H    4.495070   4.372074   6.523803   8.148741  12.162212
    32  H    3.844676   4.914261   7.209011   8.992387  13.497040
    33  H    3.161413   4.876952   6.941572   8.747572  13.739216
    34  H    6.720897   5.247677   2.962058   1.459366   5.126637
                   21         22         23         24         25
    21  H    0.000000
    22  H    1.714902   0.000000
    23  H    2.885374   3.074567   0.000000
    24  H    3.974325   4.490876   3.021290   0.000000
    25  H    5.338544   5.431305   2.628400   3.113385   0.000000
    26  H    6.173300   6.545242   4.586469   2.235812   3.153186
    27  H    7.642428   7.756098   5.066615   4.525014   2.455702
    28  H    8.448458   8.703935   6.691817   4.504931   4.703447
    29  H   11.736124  11.884464   9.053375   8.614650   6.473194
    30  H   12.832400  13.086776  10.399891   9.262146   7.828139
    31  H   12.931621  12.952759  10.393427   9.441096   7.770518
    32  H   14.029414  14.160974  11.750239  10.245558   9.207552
    33  H   14.024798  14.139944  12.109218  10.089719   9.781514
    34  H    4.958929   4.905458   4.277290   1.999778   4.123375
                   26         27         28         29         30
    26  H    0.000000
    27  H    3.123453   0.000000
    28  H    2.289647   3.303847   0.000000
    29  H    6.845947   4.210986   5.738840   0.000000
    30  H    7.176911   5.401554   5.444198   2.455116   0.000000
    31  H    7.398044   5.340449   5.664072   2.445350   1.768927
    32  H    8.037885   6.785508   5.914537   4.455112   2.328239
    33  H    7.886149   7.587422   5.596709   6.531171   4.496405
    34  H    2.672109   5.092524   4.355070   9.092751   9.532512
                   31         32         33         34
    31  H    0.000000
    32  H    2.366274   0.000000
    33  H    4.522246   2.561091   0.000000
    34  H    9.451368  10.096608   9.583148   0.000000
 Stoichiometry    C15H15N3S
 Framework group  C1[X(C15H15N3S)]
 Deg. of freedom    96
 Full point group                 C1      NOp   1
 Largest Abelian subgroup         C1      NOp   1
 Largest concise Abelian subgroup C1      NOp   1
                         Standard orientation:                         
 ---------------------------------------------------------------------
 Center     Atomic      Atomic             Coordinates (Angstroms)
 Number     Number       Type             X           Y           Z
 ---------------------------------------------------------------------
      1          6           0        6.939691   -0.134110    0.063148
      2          6           0        4.967556   -0.627584    0.672006
      3          6           0        5.034554    0.568872    0.100055
      4          6           0        4.039827    0.107178   -0.703586
      5          6           0        2.969079    0.793404   -0.381025
      6          6           0        1.783268    0.152508   -0.687709
      7          6           0        0.672379    0.740638   -0.330895
      8          6           0       -0.459869   -0.044407   -0.530276
      9          6           0       -1.459330    0.646990   -0.060198
     10          7           0       -1.679808    2.070891    0.135497
     11          6           0       -2.870696    2.586524    0.052433
     12          6           0       -3.971058    1.699156    0.152173
     13          7           0       -3.178661    0.079958    0.517771
     14          6           0       -4.868561   -0.338271    0.269415
     15          6           0       -4.893302   -1.619998    0.047030
     16         16           0       -2.907939   -1.737871   -0.650616
     17          6           0       -1.282329   -0.711404    0.831234
     18          7           0        0.966028   -1.237945    0.819779
     19          6           0        2.791621   -1.231647    0.802320
     20          1           0        7.421422    1.170956   -0.076002
     21          1           0        7.926419   -0.148497   -0.981543
     22          1           0        8.097207   -0.162857    0.724773
     23          1           0        5.643790    1.438066   -0.208367
     24          1           0        4.042923   -0.992463   -1.019504
     25          1           0        3.050212    1.741302    0.091451
     26          1           0        1.810284   -0.982770   -0.900816
     27          1           0        0.594859    1.708550    0.116777
     28          1           0       -0.425563   -1.355984   -0.578043
     29          1           0       -3.126503    3.675346   -0.008032
     30          1           0       -4.727142    1.975661   -0.767388
     31          1           0       -4.660671    2.058778    0.998334
     32          1           0       -6.045777    0.316137    0.195876
     33          1           0       -5.883037   -2.237873    0.294542
     34          1           0        3.698695   -2.315841    0.439704
 ---------------------------------------------------------------------
 Rotational constants (GHZ):           1.0154382           0.1465712           0.1330394
 Standard basis: 6-31G(2df,p) (6D, 7F)
 There are   668 symmetry adapted cartesian basis functions of A   symmetry.
 There are   611 symmetry adapted basis functions of A   symmetry.
   611 basis functions,   965 primitive gaussians,   668 cartesian basis functions
    71 alpha electrons       71 beta electrons
       nuclear repulsion energy      1401.0952526155 Hartrees.
 NAtoms=   34 NActive=   34 NUniq=   34 SFac= 1.00D+00 NAtFMM=   60 NAOKFM=F Big=F
 Integral buffers will be    131072 words long.
 Raffenetti 2 integral format.
 Two-electron integral symmetry is turned on.
 One-electron integrals computed using PRISM.
 PrsmSu:  requested number of processors reduced to:  12 ShMem   1 Linda.
 NBasis=   611 RedAO= T EigKep=  1.71D-04  NBF=   611
 NBsUse=   611 1.00D-06 EigRej= -1.00D+00 NBFU=   611
 ExpMin= 1.17D-01 ExpMax= 2.19D+04 ExpMxC= 3.30D+03 IAcc=3 IRadAn=         5 AccDes= 0.00D+00
 Harris functional with IExCor=  402 and IRadAn=       5 diagonalized for initial guess.
 HarFok:  IExCor=  402 AccDes= 0.00D+00 IRadAn=         5 IDoV= 1 UseB2=F ITyADJ=14
 ICtDFT=  3500011 ScaDFX=  1.000000  1.000000  1.000000  1.000000
 FoFCou: FMM=F IPFlag=           0 FMFlag=      100000 FMFlg1=           0
         NFxFlg=           0 DoJE=T BraDBF=F KetDBF=T FulRan=T
         wScrn=  0.000000 ICntrl=       500 IOpCl=  0 I1Cent=   200000004 NGrid=           0
         NMat0=    1 NMatS0=      1 NMatT0=    0 NMatD0=    1 NMtDS0=    0 NMtDT0=    0
 Petite list used in FoFCou.
 Requested convergence on RMS density matrix=1.00D-08 within 128 cycles.
 Requested convergence on MAX density matrix=1.00D-06.
 Requested convergence on             energy=1.00D-06.
 No special actions if energy rises.
 Integral accuracy reduced to 1.0D-05 until final iterations.
 EnCoef did    12 forward-backward iterations
 EnCoef did    11 forward-backward iterations
 EnCoef did     2 forward-backward iterations
 EnCoef did     5 forward-backward iterations
 EnCoef did     3 forward-backward iterations
 EnCoef did     2 forward-backward iterations
 EnCoef did     1 forward-backward iterations
 Initial convergence to 1.0D-05 achieved.  Increase integral accuracy.
 SCF Done:  E(RB3LYP) =  -1141.34720353     A.U. after   33 cycles
            NFock= 33  Conv=0.46D-08     -V/T= 2.0062

 **********************************************************************

            Population analysis using the SCF density.

 **********************************************************************

 Orbital symmetries:
       Occupied  (A) (A) (A) (A) (A) (A) (A) (A) (A) (A) (A) (A)
                 (A) (A) (A) (A) (A) (A) (A) (A) (A) (A) (A) (A)
                 (A) (A) (A) (A) (A) (A) (A) (A) (A) (A) (A) (A)
                 (A) (A) (A) (A) (A) (A) (A) (A) (A) (A) (A) (A)
                 (A) (A) (A) (A) (A) (A) (A) (A) (A) (A) (A) (A)
                 (A) (A) (A) (A) (A) (A) (A) (A) (A) (A) (A)
       Virtual   (A) (A) (A) (A) (A) (A) (A) (A) (A) (A) (A) (A)
                 (A) (A) (A) (A) (A) (A) (A) (A) (A) (A) (A) (A)
                 (A) (A) (A) (A) (A) (A) (A) (A) (A) (A) (A) (A)
                 (A) (A) (A) (A) (A) (A) (A) (A) (A) (A) (A) (A)
                 (A) (A) (A) (A) (A) (A) (A) (A) (A) (A) (A) (A)
                 (A) (A) (A) (A) (A) (A) (A) (A) (A) (A) (A) (A)
                 (A) (A) (A) (A) (A) (A) (A) (A) (A) (A) (A) (A)
                 (A) (A) (A) (A) (A) (A) (A) (A) (A) (A) (A) (A)
                 (A) (A) (A) (A) (A) (A) (A) (A) (A) (A) (A) (A)
                 (A) (A) (A) (A) (A) (A) (A) (A) (A) (A) (A) (A)
                 (A) (A) (A) (A) (A) (A) (A) (A) (A) (A) (A) (A)
                 (A) (A) (A) (A) (A) (A) (A) (A) (A) (A) (A) (A)
                 (A) (A) (A) (A) (A) (A) (A) (A) (A) (A) (A) (A)
                 (A) (A) (A) (A) (A) (A) (A) (A) (A) (A) (A) (A)
                 (A) (A) (A) (A) (A) (A) (A) (A) (A) (A) (A) (A)
                 (A) (A) (A) (A) (A) (A) (A) (A) (A) (A) (A) (A)
                 (A) (A) (A) (A) (A) (A) (A) (A) (A) (A) (A) (A)
                 (A) (A) (A) (A) (A) (A) (A) (A) (A) (A) (A) (A)
                 (A) (A) (A) (A) (A) (A) (A) (A) (A) (A) (A) (A)
                 (A) (A) (A) (A) (A) (A) (A) (A) (A) (A) (A) (A)
                 (A) (A) (A) (A) (A) (A) (A) (A) (A) (A) (A) (A)
                 (A) (A) (A) (A) (A) (A) (A) (A) (A) (A) (A) (A)
                 (A) (A) (A) (A) (A) (A) (A) (A) (A) (A) (A) (A)
                 (A) (A) (A) (A) (A) (A) (A) (A) (A) (A) (A) (A)
                 (A) (A) (A) (A) (A) (A) (A) (A) (A) (A) (A) (A)
                 (A) (A) (A) (A) (A) (A) (A) (A) (A) (A) (A) (A)
                 (A) (A) (A) (A) (A) (A) (A) (A) (A) (A) (A) (A)
                 (A) (A) (A) (A) (A) (A) (A) (A) (A) (A) (A) (A)
                 (A) (A) (A) (A) (A) (A) (A) (A) (A) (A) (A) (A)
                 (A) (A) (A) (A) (A) (A) (A) (A) (A) (A) (A) (A)
                 (A) (A) (A) (A) (A) (A) (A) (A) (A) (A) (A) (A)
                 (A) (A) (A) (A) (A) (A) (A) (A) (A) (A) (A) (A)
                 (A) (A) (A) (A) (A) (A) (A) (A) (A) (A) (A) (A)
                 (A) (A) (A) (A) (A) (A) (A) (A) (A) (A) (A) (A)
                 (A) (A) (A) (A) (A) (A) (A) (A) (A) (A) (A) (A)
                 (A) (A) (A) (A) (A) (A) (A) (A) (A) (A) (A) (A)
                 (A) (A) (A) (A) (A) (A) (A) (A) (A) (A) (A) (A)
                 (A) (A) (A) (A) (A) (A) (A) (A) (A) (A) (A) (A)
                 (A) (A) (A) (A) (A) (A) (A) (A) (A) (A) (A) (A)
                 (A) (A) (A) (A) (A) (A) (A) (A) (A) (A) (A) (A)
                 (A) (A) (A) (A) (A) (A) (A) (A) (A) (A) (A) (A)
                 (A) (A) (A) (A) (A) (A) (A) (A) (A) (A) (A) (A)
                 (A) (A) (A) (A) (A) (A) (A) (A) (A) (A) (A) (A)
                 (A) (A) (A) (A) (A) (A) (A) (A) (A) (A) (A) (A)
                 (A) (A) (A) (A) (A) (A) (A) (A) (A) (A) (A) (A)
 The electronic state is 1-A.
 Alpha  occ. eigenvalues --  -88.90350 -14.39943 -14.37584 -14.35053 -10.29637
 Alpha  occ. eigenvalues --  -10.29453 -10.28226 -10.28010 -10.26755 -10.26333
 Alpha  occ. eigenvalues --  -10.24265 -10.23943 -10.23734 -10.23411 -10.23050
 Alpha  occ. eigenvalues --  -10.22259 -10.21227 -10.20320 -10.20172  -7.96252
 Alpha  occ. eigenvalues --   -5.92666  -5.92525  -5.91742  -0.97721  -0.93669
 Alpha  occ. eigenvalues --   -0.91784  -0.85278  -0.83628  -0.76930  -0.76062
 Alpha  occ. eigenvalues --   -0.72374  -0.71931  -0.67886  -0.65007  -0.63151
 Alpha  occ. eigenvalues --   -0.62977  -0.60092  -0.57574  -0.55558  -0.55145
 Alpha  occ. eigenvalues --   -0.53024  -0.52222  -0.50233  -0.49215  -0.47577
 Alpha  occ. eigenvalues --   -0.46973  -0.45645  -0.44377  -0.44107  -0.42547
 Alpha  occ. eigenvalues --   -0.41371  -0.39293  -0.38641  -0.37307  -0.35650
 Alpha  occ. eigenvalues --   -0.34934  -0.33041  -0.32497  -0.31462  -0.30771
 Alpha  occ. eigenvalues --   -0.30442  -0.29524  -0.28197  -0.26747  -0.26285
 Alpha  occ. eigenvalues --   -0.25342  -0.23357  -0.22108  -0.19137  -0.17931
 Alpha  occ. eigenvalues --   -0.16285
 Alpha virt. eigenvalues --   -0.13952  -0.11618  -0.11075  -0.09338  -0.06477
 Alpha virt. eigenvalues --   -0.05802  -0.05116  -0.03591  -0.01636   0.00430
 Alpha virt. eigenvalues --    0.00930   0.01770   0.02103   0.03402   0.04865
 Alpha virt. eigenvalues --    0.05367   0.06604   0.07388   0.08205   0.09753
 Alpha virt. eigenvalues --    0.09958   0.10608   0.10923   0.11608   0.12153
 Alpha virt. eigenvalues --    0.13214   0.14663   0.14856   0.16531   0.17159
 Alpha virt. eigenvalues --    0.18991   0.19776   0.21498   0.24435   0.25651
 Alpha virt. eigenvalues --    0.27372   0.28891   0.30018   0.31647   0.33002
 Alpha virt. eigenvalues --    0.33862   0.34363   0.35038   0.36684   0.37547
 Alpha virt. eigenvalues --    0.38687   0.39240   0.39779   0.41126   0.43076
 Alpha virt. eigenvalues --    0.43655   0.43993   0.45321   0.46830   0.47262
 Alpha virt. eigenvalues --    0.47820   0.48167   0.49082   0.49332   0.50094
 Alpha virt. eigenvalues --    0.50579   0.51282   0.51768   0.52971   0.53888
 Alpha virt. eigenvalues --    0.54078   0.54877   0.55693   0.56452   0.56676
 Alpha virt. eigenvalues --    0.58030   0.58437   0.59063   0.59863   0.60870
 Alpha virt. eigenvalues --    0.61283   0.61691   0.62294   0.62888   0.63765
 Alpha virt. eigenvalues --    0.64144   0.64475   0.65099   0.65717   0.65868
 Alpha virt. eigenvalues --    0.66606   0.66992   0.67398   0.68198   0.68923
 Alpha virt. eigenvalues --    0.69150   0.69685   0.70817   0.71622   0.71938
 Alpha virt. eigenvalues --    0.72669   0.73581   0.74245   0.75065   0.75394
 Alpha virt. eigenvalues --    0.75602   0.75765   0.76366   0.76643   0.77534
 Alpha virt. eigenvalues --    0.78684   0.79243   0.79550   0.79914   0.80959
 Alpha virt. eigenvalues --    0.81175   0.82059   0.83186   0.83372   0.84337
 Alpha virt. eigenvalues --    0.84553   0.84672   0.85898   0.86952   0.87739
 Alpha virt. eigenvalues --    0.88630   0.89097   0.89920   0.91000   0.91871
 Alpha virt. eigenvalues --    0.91934   0.92512   0.94549   0.95012   0.96031
 Alpha virt. eigenvalues --    0.96572   0.97697   0.98310   0.98924   1.00156
 Alpha virt. eigenvalues --    1.03637   1.04059   1.04256   1.04576   1.06101
 Alpha virt. eigenvalues --    1.07347   1.07969   1.09434   1.09903   1.10775
 Alpha virt. eigenvalues --    1.12760   1.13583   1.15331   1.16056   1.17466
 Alpha virt. eigenvalues --    1.17938   1.19314   1.20329   1.20807   1.21761
 Alpha virt. eigenvalues --    1.22658   1.23634   1.23957   1.24423   1.26571
 Alpha virt. eigenvalues --    1.27169   1.28092   1.28999   1.29495   1.30069
 Alpha virt. eigenvalues --    1.30644   1.32602   1.34458   1.36243   1.36905
 Alpha virt. eigenvalues --    1.37290   1.38111   1.40729   1.41922   1.42099
 Alpha virt. eigenvalues --    1.43920   1.44113   1.44646   1.46241   1.47410
 Alpha virt. eigenvalues --    1.48035   1.49506   1.49923   1.50710   1.52108
 Alpha virt. eigenvalues --    1.53492   1.54301   1.54842   1.56191   1.56825
 Alpha virt. eigenvalues --    1.57762   1.58800   1.61014   1.61651   1.62170
 Alpha virt. eigenvalues --    1.63662   1.64360   1.66226   1.66475   1.68245
 Alpha virt. eigenvalues --    1.68794   1.69388   1.70448   1.70858   1.72612
 Alpha virt. eigenvalues --    1.73654   1.74414   1.74866   1.75673   1.76858
 Alpha virt. eigenvalues --    1.78868   1.80759   1.81547   1.83157   1.83873
 Alpha virt. eigenvalues --    1.85266   1.85778   1.86886   1.88361   1.89118
 Alpha virt. eigenvalues --    1.90593   1.91264   1.92482   1.94274   1.95678
 Alpha virt. eigenvalues --    1.97862   1.98261   2.00040   2.02794   2.02994
 Alpha virt. eigenvalues --    2.05621   2.07373   2.08201   2.10412   2.11227
 Alpha virt. eigenvalues --    2.12280   2.13689   2.15696   2.16698   2.17538
 Alpha virt. eigenvalues --    2.18416   2.18880   2.19372   2.20691   2.21906
 Alpha virt. eigenvalues --    2.24521   2.25210   2.25943   2.27074   2.28385
 Alpha virt. eigenvalues --    2.30180   2.31023   2.31901   2.33125   2.33732
 Alpha virt. eigenvalues --    2.34296   2.36180   2.36984   2.37631   2.40292
 Alpha virt. eigenvalues --    2.41300   2.44751   2.45451   2.46466   2.48410
 Alpha virt. eigenvalues --    2.49130   2.50292   2.51295   2.52430   2.53331
 Alpha virt. eigenvalues --    2.55501   2.56332   2.58203   2.62629   2.63598
 Alpha virt. eigenvalues --    2.64399   2.67744   2.68123   2.69790   2.70645
 Alpha virt. eigenvalues --    2.71697   2.72165   2.73013   2.73236   2.75181
 Alpha virt. eigenvalues --    2.75865   2.77446   2.77736   2.79596   2.81218
 Alpha virt. eigenvalues --    2.83034   2.83420   2.84749   2.86021   2.86348
 Alpha virt. eigenvalues --    2.87692   2.88464   2.88961   2.90426   2.91700
 Alpha virt. eigenvalues --    2.93969   2.94526   2.95032   2.95366   2.96583
 Alpha virt. eigenvalues --    2.97213   2.98759   2.99579   3.00271   3.00661
 Alpha virt. eigenvalues --    3.01977   3.03502   3.03873   3.04996   3.05782
 Alpha virt. eigenvalues --    3.07045   3.08292   3.08644   3.10142   3.10298
 Alpha virt. eigenvalues --    3.11287   3.13614   3.14226   3.15276   3.15748
 Alpha virt. eigenvalues --    3.16072   3.17491   3.18808   3.19634   3.20829
 Alpha virt. eigenvalues --    3.21180   3.22120   3.22724   3.23761   3.25491
 Alpha virt. eigenvalues --    3.26903   3.27372   3.27708   3.28862   3.29528
 Alpha virt. eigenvalues --    3.31735   3.32206   3.33568   3.33947   3.35680
 Alpha virt. eigenvalues --    3.36186   3.38504   3.38898   3.40432   3.41724
 Alpha virt. eigenvalues --    3.42930   3.44222   3.45203   3.45725   3.46516
 Alpha virt. eigenvalues --    3.47521   3.49403   3.51818   3.51974   3.52772
 Alpha virt. eigenvalues --    3.54486   3.56650   3.58273   3.58286   3.59028
 Alpha virt. eigenvalues --    3.60760   3.62149   3.63077   3.65433   3.66440
 Alpha virt. eigenvalues --    3.67100   3.67826   3.68657   3.69982   3.70606
 Alpha virt. eigenvalues --    3.71066   3.71304   3.73084   3.75085   3.75695
 Alpha virt. eigenvalues --    3.77061   3.79427   3.81380   3.82601   3.84172
 Alpha virt. eigenvalues --    3.86168   3.86416   3.88181   3.89335   3.91212
 Alpha virt. eigenvalues --    3.91706   3.92942   3.95054   3.96090   3.97760
 Alpha virt. eigenvalues --    3.99655   4.01588   4.02183   4.02494   4.04235
 Alpha virt. eigenvalues --    4.05455   4.05632   4.07579   4.09283   4.11881
 Alpha virt. eigenvalues --    4.14268   4.15145   4.16262   4.17991   4.20067
 Alpha virt. eigenvalues --    4.23253   4.24210   4.26668   4.27496   4.28862
 Alpha virt. eigenvalues --    4.29146   4.30568   4.33037   4.33836   4.34633
 Alpha virt. eigenvalues --    4.36084   4.37087   4.38502   4.38735   4.39383
 Alpha virt. eigenvalues --    4.41015   4.41989   4.43619   4.44909   4.46108
 Alpha virt. eigenvalues --    4.46710   4.47839   4.48369   4.48877   4.49438
 Alpha virt. eigenvalues --    4.50650   4.51406   4.52404   4.52786   4.53699
 Alpha virt. eigenvalues --    4.56093   4.56754   4.57050   4.58461   4.59320
 Alpha virt. eigenvalues --    4.60123   4.61671   4.62494   4.64136   4.65831
 Alpha virt. eigenvalues --    4.66262   4.66865   4.68170   4.68457   4.69164
 Alpha virt. eigenvalues --    4.72025   4.72352   4.74237   4.75401   4.75682
 Alpha virt. eigenvalues --    4.76675   4.77157   4.79081   4.80684   4.81150
 Alpha virt. eigenvalues --    4.81896   4.81983   4.83240   4.85087   4.86181
 Alpha virt. eigenvalues --    4.87832   4.88012   4.89395   4.90434   4.92741
 Alpha virt. eigenvalues --    4.94100   4.96341   4.97031   4.97649   5.00421
 Alpha virt. eigenvalues --    5.03093   5.03719   5.05692   5.07267   5.08001
 Alpha virt. eigenvalues --    5.09481   5.10904   5.12550   5.13876   5.16060
 Alpha virt. eigenvalues --    5.18908   5.19749   5.24364   5.27244   5.27623
 Alpha virt. eigenvalues --    5.29065   5.29891   5.32271   5.36540   5.37205
 Alpha virt. eigenvalues --    5.38625   5.39703   5.40936   5.46236   5.48332
 Alpha virt. eigenvalues --    5.48963   5.52359   5.60362   5.63071   5.66032
 Alpha virt. eigenvalues --    5.69601   5.78387   5.86654   5.97512   6.11976
 Alpha virt. eigenvalues --    6.16356   6.27914   6.47566   6.79413   7.97434
 Alpha virt. eigenvalues --   10.03901  10.32351  10.42844  10.51846  10.69347
 Alpha virt. eigenvalues --   10.84806  11.08499  11.17237  11.25592  11.31265
 Alpha virt. eigenvalues --   11.41010  11.59224  11.60380  11.73031  11.80860
 Alpha virt. eigenvalues --   12.03599  12.15465  12.25867  13.40824  16.72118
          Condensed to atoms (all electrons):
               1          2          3          4          5          6
     1  C    5.519845   0.051275   0.065803   0.004262   0.003770  -0.000058
     2  C    0.051275   5.634889   0.572787  -0.033372  -0.046968  -0.003026
     3  C    0.065803   0.572787   4.844353   0.280324   0.017897   0.001327
     4  C    0.004262  -0.033372   0.280324   5.120076   0.454815   0.015289
     5  C    0.003770  -0.046968   0.017897   0.454815   4.846383   0.467308
     6  C   -0.000058  -0.003026   0.001327   0.015289   0.467308   4.912873
     7  C    0.000001  -0.000418   0.000100  -0.001097  -0.006513   0.482023
     8  C    0.000000   0.000011   0.000025  -0.000889   0.002085   0.027839
     9  C    0.000000  -0.000000  -0.000000   0.000019  -0.000137  -0.009514
    10  N   -0.000000   0.000000  -0.000000  -0.000000  -0.000059   0.001726
    11  C   -0.000000   0.000000  -0.000000  -0.000000  -0.000001  -0.000025
    12  C   -0.000000   0.000000  -0.000000   0.000000  -0.000000   0.000005
    13  N    0.000000  -0.000000   0.000000  -0.000000  -0.000000  -0.000032
    14  C   -0.000000  -0.000000  -0.000000  -0.000000   0.000000  -0.000000
    15  C   -0.000000   0.000000  -0.000000   0.000000  -0.000000  -0.000000
    16  S   -0.000000   0.000000  -0.000000   0.000001   0.000000  -0.000023
    17  C    0.000000  -0.000001   0.000001  -0.000009  -0.000007  -0.000961
    18  N   -0.000003   0.000775  -0.000454   0.002938  -0.017477  -0.033524
    19  C    0.000527   0.033836  -0.004790  -0.029126  -0.021748  -0.073381
    20  H    0.253631  -0.004017  -0.032127   0.001569  -0.000056   0.000000
    21  H    0.266780  -0.000013  -0.002995  -0.001094   0.000053  -0.000000
    22  H    0.277750  -0.000635   0.000776   0.000005  -0.000062   0.000000
    23  H   -0.032576  -0.022840   0.341525  -0.037570  -0.005661   0.000141
    24  H   -0.000236  -0.030092  -0.044752   0.388817  -0.030558  -0.001376
    25  H   -0.000024   0.001646  -0.004716  -0.047626   0.384823  -0.045218
    26  H    0.000012  -0.002066   0.001042  -0.010440  -0.031429   0.349558
    27  H   -0.000000  -0.000002  -0.000041   0.000889  -0.003288  -0.060023
    28  H    0.000000  -0.000006   0.000005  -0.000143   0.000659  -0.004243
    29  H   -0.000000  -0.000000  -0.000000   0.000000  -0.000000  -0.000001
    30  H    0.000000   0.000000  -0.000000   0.000000  -0.000000  -0.000000
    31  H    0.000000  -0.000000   0.000000  -0.000000  -0.000000  -0.000000
    32  H    0.000000  -0.000000   0.000000  -0.000000  -0.000000   0.000000
    33  H    0.000000  -0.000000   0.000000  -0.000000   0.000000  -0.000000
    34  H   -0.000775  -0.002910  -0.006893  -0.001612  -0.004210   0.003449
               7          8          9         10         11         12
     1  C    0.000001   0.000000   0.000000  -0.000000  -0.000000  -0.000000
     2  C   -0.000418   0.000011  -0.000000   0.000000   0.000000   0.000000
     3  C    0.000100   0.000025  -0.000000  -0.000000  -0.000000  -0.000000
     4  C   -0.001097  -0.000889   0.000019  -0.000000  -0.000000   0.000000
     5  C   -0.006513   0.002085  -0.000137  -0.000059  -0.000001  -0.000000
     6  C    0.482023   0.027839  -0.009514   0.001726  -0.000025   0.000005
     7  C    4.979833   0.281515   0.014262  -0.027677   0.000278   0.000356
     8  C    0.281515   5.544476   0.285505   0.010407   0.002042   0.000207
     9  C    0.014262   0.285505   4.739136   0.381047  -0.079292  -0.008511
    10  N   -0.027677   0.010407   0.381047   6.401510   0.661584  -0.060659
    11  C    0.000278   0.002042  -0.079292   0.661584   4.755385   0.341090
    12  C    0.000356   0.000207  -0.008511  -0.060659   0.341090   5.162924
    13  N    0.000402  -0.012536   0.089222  -0.046199  -0.023898   0.176277
    14  C    0.000005  -0.000834   0.003087   0.001029   0.005850   0.008452
    15  C    0.000000   0.000152   0.000561  -0.000019  -0.000629  -0.002031
    16  S    0.004561   0.004434  -0.050627   0.002209   0.000491   0.007389
    17  C   -0.003758  -0.041515   0.207882  -0.022831   0.000408   0.002945
    18  N   -0.016793  -0.054670   0.002564  -0.000322  -0.000004  -0.000006
    19  C   -0.023170   0.003764  -0.000248   0.000002   0.000000   0.000000
    20  H   -0.000000  -0.000000   0.000000  -0.000000   0.000000   0.000000
    21  H    0.000000  -0.000000  -0.000000   0.000000   0.000000   0.000000
    22  H   -0.000000  -0.000000  -0.000000   0.000000   0.000000   0.000000
    23  H   -0.000022  -0.000000   0.000000   0.000000   0.000000   0.000000
    24  H    0.001679  -0.000091   0.000001  -0.000000  -0.000000  -0.000000
    25  H    0.000986   0.000212   0.000013  -0.000022  -0.000000  -0.000000
    26  H   -0.018373  -0.010656   0.001056  -0.000004   0.000000  -0.000000
    27  H    0.400698  -0.085364   0.008604   0.017889  -0.000661   0.000184
    28  H   -0.043711   0.279957  -0.026377   0.000972  -0.000077  -0.000161
    29  H    0.000007   0.000006   0.003034  -0.029524   0.362878  -0.068180
    30  H   -0.000013   0.000234  -0.001076   0.001222  -0.030477   0.310612
    31  H   -0.000002  -0.000063   0.000180  -0.000648  -0.026238   0.346175
    32  H   -0.000000   0.000007  -0.000131  -0.000020   0.001309  -0.013132
    33  H    0.000000  -0.000002  -0.000008   0.000001   0.000005  -0.000025
    34  H    0.001004  -0.000102   0.000001  -0.000000  -0.000000   0.000000
              13         14         15         16         17         18
     1  C    0.000000  -0.000000  -0.000000  -0.000000   0.000000  -0.000003
     2  C   -0.000000  -0.000000   0.000000   0.000000  -0.000001   0.000775
     3  C    0.000000  -0.000000  -0.000000  -0.000000   0.000001  -0.000454
     4  C   -0.000000  -0.000000   0.000000   0.000001  -0.000009   0.002938
     5  C   -0.000000   0.000000  -0.000000   0.000000  -0.000007  -0.017477
     6  C   -0.000032  -0.000000  -0.000000  -0.000023  -0.000961  -0.033524
     7  C    0.000402   0.000005   0.000000   0.004561  -0.003758  -0.016793
     8  C   -0.012536  -0.000834   0.000152   0.004434  -0.041515  -0.054670
     9  C    0.089222   0.003087   0.000561  -0.050627   0.207882   0.002564
    10  N   -0.046199   0.001029  -0.000019   0.002209  -0.022831  -0.000322
    11  C   -0.023898   0.005850  -0.000629   0.000491   0.000408  -0.000004
    12  C    0.176277   0.008452  -0.002031   0.007389   0.002945  -0.000006
    13  N    7.073893   0.176779  -0.053846   0.011347  -0.074604   0.000223
    14  C    0.176779   4.966793   0.618972  -0.104452   0.007257  -0.000000
    15  C   -0.053846   0.618972   5.157138   0.239897   0.000222  -0.000002
    16  S    0.011347  -0.104452   0.239897  15.868504   0.079225  -0.001067
    17  C   -0.074604   0.007257   0.000222   0.079225   5.878840   0.030402
    18  N    0.000223  -0.000000  -0.000002  -0.001067   0.030402   7.237230
    19  C   -0.000001  -0.000000   0.000000  -0.000042   0.000537   0.232792
    20  H   -0.000000   0.000000   0.000000   0.000000  -0.000000   0.000000
    21  H   -0.000000   0.000000   0.000000   0.000000  -0.000000   0.000000
    22  H   -0.000000   0.000000   0.000000   0.000000  -0.000000   0.000000
    23  H   -0.000000  -0.000000   0.000000   0.000000  -0.000000   0.000010
    24  H    0.000000   0.000000   0.000000   0.000000   0.000000  -0.001066
    25  H    0.000000  -0.000000  -0.000000   0.000000   0.000015   0.000178
    26  H    0.000005  -0.000000  -0.000000  -0.000163   0.000283  -0.010577
    27  H    0.000110   0.000003   0.000000  -0.000072   0.003938   0.004306
    28  H    0.001693   0.000049  -0.000076  -0.009083   0.007281   0.028885
    29  H    0.002002  -0.000117   0.000005   0.000085  -0.000134  -0.000000
    30  H   -0.003215  -0.024435   0.001325   0.001257  -0.000296  -0.000000
    31  H   -0.009028  -0.003861   0.000332  -0.000042  -0.000090   0.000000
    32  H   -0.009784   0.282824  -0.041496   0.009710  -0.000124  -0.000000
    33  H    0.002932  -0.017334   0.325348  -0.015107  -0.000022   0.000000
    34  H   -0.000000   0.000000   0.000000   0.000002  -0.000042  -0.003564
              19         20         21         22         23         24
     1  C    0.000527   0.253631   0.266780   0.277750  -0.032576  -0.000236
     2  C    0.033836  -0.004017  -0.000013  -0.000635  -0.022840  -0.030092
     3  C   -0.004790  -0.032127  -0.002995   0.000776   0.341525  -0.044752
     4  C   -0.029126   0.001569  -0.001094   0.000005  -0.037570   0.388817
     5  C   -0.021748  -0.000056   0.000053  -0.000062  -0.005661  -0.030558
     6  C   -0.073381   0.000000  -0.000000   0.000000   0.000141  -0.001376
     7  C   -0.023170  -0.000000   0.000000  -0.000000  -0.000022   0.001679
     8  C    0.003764  -0.000000  -0.000000  -0.000000  -0.000000  -0.000091
     9  C   -0.000248   0.000000  -0.000000  -0.000000   0.000000   0.000001
    10  N    0.000002  -0.000000   0.000000   0.000000   0.000000  -0.000000
    11  C    0.000000   0.000000   0.000000   0.000000   0.000000  -0.000000
    12  C    0.000000   0.000000   0.000000   0.000000   0.000000  -0.000000
    13  N   -0.000001  -0.000000  -0.000000  -0.000000  -0.000000   0.000000
    14  C   -0.000000   0.000000   0.000000   0.000000  -0.000000   0.000000
    15  C    0.000000   0.000000   0.000000   0.000000   0.000000   0.000000
    16  S   -0.000042   0.000000   0.000000   0.000000   0.000000   0.000000
    17  C    0.000537  -0.000000  -0.000000  -0.000000  -0.000000   0.000000
    18  N    0.232792   0.000000   0.000000   0.000000   0.000010  -0.001066
    19  C    5.863059  -0.000046  -0.000006   0.000004   0.000871  -0.036361
    20  H   -0.000046   0.819560  -0.043186  -0.042551   0.009136  -0.000158
    21  H   -0.000006  -0.043186   0.760460  -0.050237   0.002277   0.000203
    22  H    0.000004  -0.042551  -0.050237   0.678708   0.001019   0.000009
    23  H    0.000871   0.009136   0.002277   0.001019   0.552135   0.001850
    24  H   -0.036361  -0.000158   0.000203   0.000009   0.001850   0.558224
    25  H    0.001319  -0.000047   0.000003  -0.000000   0.001041   0.004549
    26  H   -0.018626   0.000000  -0.000000  -0.000000  -0.000061   0.007690
    27  H   -0.000583   0.000000  -0.000000   0.000000  -0.000003   0.000008
    28  H    0.001534   0.000000  -0.000000  -0.000000  -0.000000  -0.000009
    29  H    0.000000   0.000000   0.000000   0.000000   0.000000   0.000000
    30  H    0.000000  -0.000000  -0.000000   0.000000   0.000000   0.000000
    31  H   -0.000000  -0.000000  -0.000000  -0.000000  -0.000000   0.000000
    32  H    0.000000   0.000000   0.000000   0.000000  -0.000000   0.000000
    33  H   -0.000000   0.000000   0.000000   0.000000  -0.000000  -0.000000
    34  H    0.165400   0.000006   0.000008   0.000013  -0.000097   0.014468
              25         26         27         28         29         30
     1  C   -0.000024   0.000012  -0.000000   0.000000  -0.000000   0.000000
     2  C    0.001646  -0.002066  -0.000002  -0.000006  -0.000000   0.000000
     3  C   -0.004716   0.001042  -0.000041   0.000005  -0.000000  -0.000000
     4  C   -0.047626  -0.010440   0.000889  -0.000143   0.000000   0.000000
     5  C    0.384823  -0.031429  -0.003288   0.000659  -0.000000  -0.000000
     6  C   -0.045218   0.349558  -0.060023  -0.004243  -0.000001  -0.000000
     7  C    0.000986  -0.018373   0.400698  -0.043711   0.000007  -0.000013
     8  C    0.000212  -0.010656  -0.085364   0.279957   0.000006   0.000234
     9  C    0.000013   0.001056   0.008604  -0.026377   0.003034  -0.001076
    10  N   -0.000022  -0.000004   0.017889   0.000972  -0.029524   0.001222
    11  C   -0.000000   0.000000  -0.000661  -0.000077   0.362878  -0.030477
    12  C   -0.000000  -0.000000   0.000184  -0.000161  -0.068180   0.310612
    13  N    0.000000   0.000005   0.000110   0.001693   0.002002  -0.003215
    14  C   -0.000000  -0.000000   0.000003   0.000049  -0.000117  -0.024435
    15  C   -0.000000  -0.000000   0.000000  -0.000076   0.000005   0.001325
    16  S    0.000000  -0.000163  -0.000072  -0.009083   0.000085   0.001257
    17  C    0.000015   0.000283   0.003938   0.007281  -0.000134  -0.000296
    18  N    0.000178  -0.010577   0.004306   0.028885  -0.000000  -0.000000
    19  C    0.001319  -0.018626  -0.000583   0.001534   0.000000   0.000000
    20  H   -0.000047   0.000000   0.000000   0.000000   0.000000  -0.000000
    21  H    0.000003  -0.000000  -0.000000  -0.000000   0.000000  -0.000000
    22  H   -0.000000  -0.000000   0.000000  -0.000000   0.000000   0.000000
    23  H    0.001041  -0.000061  -0.000003  -0.000000   0.000000   0.000000
    24  H    0.004549   0.007690   0.000008  -0.000009   0.000000   0.000000
    25  H    0.578531   0.003259   0.002292  -0.000010   0.000000   0.000000
    26  H    0.003259   0.545855   0.003524   0.006888  -0.000000   0.000000
    27  H    0.002292   0.003524   0.562668   0.000620  -0.000123  -0.000005
    28  H   -0.000010   0.006888   0.000620   0.454553   0.000000   0.000003
    29  H    0.000000  -0.000000  -0.000123   0.000000   0.571301   0.006385
    30  H    0.000000   0.000000  -0.000005   0.000003   0.006385   0.647395
    31  H    0.000000   0.000000  -0.000003   0.000001   0.000340  -0.041423
    32  H    0.000000   0.000000  -0.000000   0.000000  -0.000003   0.004518
    33  H    0.000000   0.000000  -0.000000  -0.000000  -0.000000  -0.000059
    34  H   -0.000123   0.003760   0.000014  -0.000150  -0.000000  -0.000000
              31         32         33         34
     1  C    0.000000   0.000000   0.000000  -0.000775
     2  C   -0.000000  -0.000000  -0.000000  -0.002910
     3  C    0.000000   0.000000   0.000000  -0.006893
     4  C   -0.000000  -0.000000  -0.000000  -0.001612
     5  C   -0.000000  -0.000000   0.000000  -0.004210
     6  C   -0.000000   0.000000  -0.000000   0.003449
     7  C   -0.000002  -0.000000   0.000000   0.001004
     8  C   -0.000063   0.000007  -0.000002  -0.000102
     9  C    0.000180  -0.000131  -0.000008   0.000001
    10  N   -0.000648  -0.000020   0.000001  -0.000000
    11  C   -0.026238   0.001309   0.000005  -0.000000
    12  C    0.346175  -0.013132  -0.000025   0.000000
    13  N   -0.009028  -0.009784   0.002932  -0.000000
    14  C   -0.003861   0.282824  -0.017334   0.000000
    15  C    0.000332  -0.041496   0.325348   0.000000
    16  S   -0.000042   0.009710  -0.015107   0.000002
    17  C   -0.000090  -0.000124  -0.000022  -0.000042
    18  N    0.000000  -0.000000   0.000000  -0.003564
    19  C   -0.000000   0.000000  -0.000000   0.165400
    20  H   -0.000000   0.000000   0.000000   0.000006
    21  H   -0.000000   0.000000   0.000000   0.000008
    22  H   -0.000000   0.000000   0.000000   0.000013
    23  H   -0.000000  -0.000000  -0.000000  -0.000097
    24  H    0.000000   0.000000  -0.000000   0.014468
    25  H    0.000000   0.000000   0.000000  -0.000123
    26  H    0.000000   0.000000   0.000000   0.003760
    27  H   -0.000003  -0.000000  -0.000000   0.000014
    28  H    0.000001   0.000000  -0.000000  -0.000150
    29  H    0.000340  -0.000003  -0.000000  -0.000000
    30  H   -0.041423   0.004518  -0.000059  -0.000000
    31  H    0.563635  -0.001269   0.000013  -0.000000
    32  H   -0.001269   0.693917  -0.003725  -0.000000
    33  H    0.000013  -0.003725   0.558545  -0.000000
    34  H   -0.000000  -0.000000  -0.000000   0.743124
 Mulliken charges:
               1
     1  C   -0.409985
     2  C   -0.148852
     3  C   -0.029195
     4  C   -0.106026
     5  C   -0.009618
     6  C   -0.030134
     7  C   -0.026161
     8  C   -0.236157
     9  C    0.439748
    10  N   -0.291613
    11  C    0.029979
    12  C   -0.203911
    13  N   -0.301742
    14  C    0.079932
    15  C   -0.245853
    16  S   -0.048435
    17  C   -0.074838
    18  N   -0.400774
    19  C   -0.095517
    20  H    0.038285
    21  H    0.067747
    22  H    0.135200
    23  H    0.188827
    24  H    0.167201
    25  H    0.118920
    26  H    0.179463
    27  H    0.144421
    28  H    0.300945
    29  H    0.152037
    30  H    0.128047
    31  H    0.171991
    32  H    0.077399
    33  H    0.149439
    34  H    0.089231
 Sum of Mulliken charges =  -0.00000
 Mulliken charges with hydrogens summed into heavy atoms:
               1
     1  C   -0.168752
     2  C   -0.148852
     3  C    0.159631
     4  C    0.061175
     5  C    0.109302
     6  C    0.149329
     7  C    0.118260
     8  C    0.064788
     9  C    0.439748
    10  N   -0.291613
    11  C    0.182016
    12  C    0.096127
    13  N   -0.301742
    14  C    0.157331
    15  C   -0.096414
    16  S   -0.048435
    17  C   -0.074838
    18  N   -0.400774
    19  C   -0.006286
 Electronic spatial extent (au):  <R**2>=           7941.9900
 Charge=             -0.0000 electrons
 Dipole moment (field-independent basis, Debye):
    X=             -3.9241    Y=              6.0887    Z=             -2.7198  Tot=              7.7375
 Quadrupole moment (field-independent basis, Debye-Ang):
   XX=            -99.1415   YY=           -114.3693   ZZ=           -130.3597
   XY=             -0.7098   XZ=             -7.0943   YZ=              4.2873
 Traceless Quadrupole moment (field-independent basis, Debye-Ang):
   XX=             15.4820   YY=              0.2542   ZZ=            -15.7362
   XY=             -0.7098   XZ=             -7.0943   YZ=              4.2873
 Octapole moment (field-independent basis, Debye-Ang**2):
  XXX=           -172.6521  YYY=             46.7591  ZZZ=             -6.6654  XYY=            -52.0296
  XXY=            104.3092  XXZ=            -18.1134  XZZ=            -21.3970  YZZ=              8.2131
  YYZ=             -6.0785  XYZ=              8.6466
 Hexadecapole moment (field-independent basis, Debye-Ang**3):
 XXXX=          -8659.7315 YYYY=          -1205.6685 ZZZZ=           -357.0823 XXXY=            314.3754
 XXXZ=           -190.3685 YYYX=            -67.5304 YYYZ=             15.9067 ZZZX=            -13.1143
 ZZZY=             13.9061 XXYY=          -1690.1310 XXZZ=          -1845.3483 YYZZ=           -275.2550
 XXYZ=             11.7168 YYXZ=            -22.1597 ZZXY=             -5.4041
 N-N= 1.401095252615D+03 E-N=-5.472962285377D+03  KE= 1.134355055047D+03
 PrsmSu:  requested number of processors reduced to:  12 ShMem   1 Linda.
 Calling FoFJK, ICntrl=      2127 FMM=F ISym2X=0 I1Cent= 0 IOpClX= 0 NMat=1 NMatS=1 NMatT=0.
 ***** Axes restored to original set *****
 -------------------------------------------------------------------
 Center     Atomic                   Forces (Hartrees/Bohr)
 Number     Number              X              Y              Z
 -------------------------------------------------------------------
      1        6          -0.201486871   -0.028743520   -0.029436191
      2        6          -0.022608154    0.102098734   -0.005203832
      3        6          -0.117534858   -0.012606697    0.010721536
      4        6           0.032432279   -0.050952296   -0.111966085
      5        6           0.032984776   -0.037980145    0.024542915
      6        6          -0.026370097   -0.005648679   -0.047683249
      7        6           0.000204968   -0.004124251   -0.004910331
      8        6           0.036924750   -0.031567772   -0.072062424
      9        6           0.075654575    0.017884311    0.107293888
     10        7          -0.018309948   -0.014857148   -0.018083794
     11        6          -0.039777478    0.031644683   -0.030098808
     12        6           0.044320466   -0.023377394    0.015522859
     13        7           0.093609445   -0.076787164    0.106500025
     14        6           0.015400571   -0.021147241    0.041772650
     15        6           0.019341451    0.011054048   -0.026079108
     16       16           0.041929330    0.019975522    0.004579370
     17        6           0.000626512   -0.001216258    0.007590270
     18        7          -0.087793114    0.057208515   -0.035294203
     19        6           0.067963894    0.052329648   -0.036572865
     20        1           0.061147774    0.023767751   -0.019228000
     21        1           0.078535517    0.018282921    0.025187804
     22        1           0.078998810   -0.009220966    0.015672398
     23        1           0.014732960    0.018529732    0.024056951
     24        1          -0.015327340   -0.039606697    0.024945309
     25        1          -0.002843283   -0.004356654    0.016597800
     26        1          -0.022007539   -0.042328547    0.028967650
     27        1          -0.004756756   -0.002685846    0.007551640
     28        1          -0.033884252   -0.022142118    0.053804712
     29        1          -0.011348299    0.013310820   -0.015823278
     30        1          -0.014589683    0.043801236   -0.022982063
     31        1          -0.011410484    0.002253745   -0.029576305
     32        1          -0.048235138    0.045499825   -0.047431276
     33        1          -0.051085535   -0.015441711   -0.025884478
     34        1           0.034560751   -0.012850390    0.063008513
 -------------------------------------------------------------------
 Cartesian Forces:  Max     0.201486871 RMS     0.046904490

 GradGradGradGradGradGradGradGradGradGradGradGradGradGradGradGradGradGrad
 Berny optimization.
 FormGI is forming the generalized inverse of G from B-inverse, IUseBI=4.
 Internal  Forces:  Max     0.108515366 RMS     0.031874529
 Search for a local minimum.
 Step number   1 out of a maximum of  189
 All quantities printed in internal units (Hartrees-Bohrs-Radians)
 Mixed Optimization -- RFO/linear search
 Second derivative matrix not updated -- first step.
 ITU=  0
     Eigenvalues ---    0.00230   0.00230   0.00230   0.00230   0.00697
     Eigenvalues ---    0.00922   0.01147   0.01405   0.01407   0.01680
     Eigenvalues ---    0.01746   0.01946   0.02035   0.02211   0.02393
     Eigenvalues ---    0.02681   0.02773   0.02830   0.02969   0.03192
     Eigenvalues ---    0.03397   0.03401   0.03565   0.03761   0.04169
     Eigenvalues ---    0.04296   0.04527   0.04916   0.05235   0.06175
     Eigenvalues ---    0.06291   0.06703   0.06953   0.07410   0.08289
     Eigenvalues ---    0.08833   0.09074   0.09855   0.11004   0.11236
     Eigenvalues ---    0.11635   0.11889   0.12179   0.12486   0.12662
     Eigenvalues ---    0.12868   0.13130   0.13434   0.13566   0.14184
     Eigenvalues ---    0.14439   0.14883   0.15467   0.15947   0.15970
     Eigenvalues ---    0.15972   0.15981   0.15996   0.16000   0.16000
     Eigenvalues ---    0.16000   0.16000   0.16351   0.16520   0.17014
     Eigenvalues ---    0.17672   0.18514   0.18770   0.19157   0.19840
     Eigenvalues ---    0.20883   0.21485   0.21666   0.22000   0.22001
     Eigenvalues ---    0.23115   0.23882   0.25204   0.26316   0.28672
     Eigenvalues ---    0.28770   0.31553   0.33098   0.36075   0.37326
     Eigenvalues ---    0.38230   0.41041   0.43903   0.46488   0.48955
     Eigenvalues ---    0.50993   0.60901   0.61645   0.62140   0.63208
     Eigenvalues ---    0.66885
 RFO step:  Lambda=-3.28826555D-01 EMin= 2.30000000D-03
 Linear search not attempted -- first point.
 Maximum step size (   0.300) exceeded in Quadratic search.
    -- Step size scaled by   0.401
 Iteration  1 RMS(Cart)=  0.13265414 RMS(Int)=  0.00758543
 Iteration  2 RMS(Cart)=  0.01094924 RMS(Int)=  0.00018788
 Iteration  3 RMS(Cart)=  0.00008688 RMS(Int)=  0.00017646
 Iteration  4 RMS(Cart)=  0.00000011 RMS(Int)=  0.00017646
 Variable       Old X    -DE/DX   Delta X   Delta X   Delta X     New X
                                 (Linear)    (Quad)   (Total)
    R1        2.64199  -0.04631   0.00000  -0.03927  -0.03927   2.60272
    R2        2.71570  -0.07274   0.00000  -0.06343  -0.06343   2.65227
    R3        2.52009  -0.06778   0.00000  -0.05451  -0.05451   2.46558
    R4        2.50923   0.02382   0.00000   0.01174   0.01169   2.52092
    R5        3.42912   0.07405   0.00000   0.06020   0.06029   3.48940
    R6        2.56925   0.09665   0.00000   0.04643   0.04636   2.61561
    R7        2.08880  -0.03282   0.00000  -0.01996  -0.01996   2.06884
    R8        2.47940   0.09509   0.00000   0.04106   0.04114   2.52054
    R9        2.16209  -0.02219   0.00000  -0.01372  -0.01366   2.14842
   R10        2.61230   0.03266   0.00000   0.01766   0.01769   2.63000
   R11        2.00732   0.01569   0.00000   0.00886   0.00886   2.01617
   R12        2.46918   0.07418   0.00000   0.03288   0.03283   2.50201
   R13        2.18343  -0.02659   0.00000  -0.01796  -0.01803   2.16541
   R14        2.63075   0.06850   0.00000   0.03712   0.03706   2.66781
   R15        2.02057   0.00874   0.00000   0.00500   0.00500   2.02557
   R16        2.46240   0.09189   0.00000   0.03877   0.03877   2.50117
   R17        3.25945   0.02363   0.00000   0.01634   0.01642   3.27588
   R18        2.48101  -0.05976   0.00000  -0.04709  -0.04709   2.43392
   R19        2.74785  -0.05640   0.00000  -0.03425  -0.03429   2.71356
   R20        3.59131   0.04603   0.00000   0.04073   0.04072   3.63204
   R21        3.08854  -0.02213   0.00000  -0.01604  -0.01613   3.07241
   R22        2.45736  -0.05128   0.00000  -0.02102  -0.02104   2.43632
   R23        2.67793   0.04143   0.00000   0.02343   0.02345   2.70138
   R24        2.11669  -0.01697   0.00000  -0.01057  -0.01057   2.10612
   R25        3.47594  -0.04614   0.00000  -0.03785  -0.03780   3.43814
   R26        2.30958  -0.04760   0.00000  -0.03411  -0.03411   2.27547
   R27        2.17186  -0.02807   0.00000  -0.01827  -0.01827   2.15359
   R28        3.32310  -0.03860   0.00000  -0.03204  -0.03204   3.29107
   R29        2.45875   0.04880   0.00000   0.01963   0.01963   2.47837
   R30        2.54903  -0.08012   0.00000  -0.06530  -0.06530   2.48373
   R31        3.98292  -0.03812   0.00000  -0.03436  -0.03436   3.94856
   R32        2.25393  -0.05368   0.00000  -0.03709  -0.03709   2.21685
   R33        3.45005  -0.07907   0.00000  -0.07467  -0.07491   3.37514
   R34        3.65374   0.02509   0.00000   0.02462   0.02475   3.67849
   R35        3.73400   0.02934   0.00000   0.02837   0.02843   3.76242
   R36        3.74415   0.02952   0.00000   0.03221   0.03219   3.77634
   R37        2.75780  -0.06837   0.00000  -0.06351  -0.06359   2.69421
   R38        3.40615  -0.00871   0.00000  -0.00959  -0.00959   3.39656
   R39        3.77903   0.02418   0.00000   0.02716   0.02727   3.80630
    A1        1.26653   0.07558   0.00000   0.06063   0.06089   1.32742
    A2        1.33915   0.04562   0.00000   0.03966   0.03851   1.37767
    A3        1.33304   0.06488   0.00000   0.05705   0.05679   1.38983
    A4        2.59935  -0.02324   0.00000  -0.02701  -0.02697   2.57238
    A5        2.10060   0.03220   0.00000   0.02062   0.02079   2.12138
    A6        2.02934  -0.00759   0.00000  -0.00727  -0.00717   2.02217
[...]
     34          1           0        6.168113    0.925754   -0.868878
 ---------------------------------------------------------------------
                    Distance matrix (angstroms):
                    1          2          3          4          5
     1  C    0.000000
     2  C    2.519099   0.000000
     3  C    1.542093   1.496010   0.000000
     4  C    2.617520   1.542696   1.489099   0.000000
     5  C    3.938465   2.469919   2.543395   1.486014   0.000000
     6  C    5.065767   3.576981   3.797595   2.493175   1.348094
     7  C    6.388394   4.767846   5.023480   3.849056   2.482456
     8  C    7.500662   5.875486   6.217424   4.921328   3.695220
     9  C    8.857532   7.163003   7.507804   6.294071   4.965170
    10  N    9.122458   7.527353   7.709040   6.680070   5.239972
    11  C   10.303042   8.753085   8.887040   7.907056   6.457863
    12  C   11.624188  10.044710  10.237849   9.166345   7.754789
    13  N   11.787629  10.096052  10.439442   9.235121   7.900840
    14  C   12.570711  10.980203  11.290892  10.028873   8.762244
    15  C   13.133519  11.482778  11.911543  10.564479   9.400436
    16  S   12.921714  11.095732  11.713816  10.326862   9.245770
    17  C    9.676393   7.860539   8.372594   7.067523   5.850117
    18  N    6.748522   5.128017   5.923348   4.476193   4.236935
    19  C    5.882561   4.475389   5.248054   3.865468   4.009478
    20  H    1.094342   3.119968   2.184790   3.526410   4.722249
    21  H    1.099492   3.363670   2.190001   2.975549   4.227879
    22  H    1.099029   2.560732   2.197904   2.870631   4.327404
    23  H    2.221519   2.245648   1.086361   2.227864   2.738938
    24  H    2.886591   2.281562   2.281674   1.089704   2.181304
    25  H    4.221968   2.735933   2.701073   2.203048   1.087271
    26  H    5.182274   3.891224   4.147300   2.694933   2.096090
    27  H    6.643227   5.005517   5.183109   4.247345   2.766899
    28  H    7.538052   6.007042   6.395150   4.985022   3.999831
    29  H   10.503258   9.043572   9.071102   8.237359   6.768184
    30  H   12.023742  10.625923  10.687768   9.636575   8.250760
    31  H   12.340601  10.668457  10.907222   9.896228   8.451049
    32  H   13.020319  11.581065  11.767482  10.541937   9.272163
    33  H   13.910640  12.362513  12.735969  11.376217  10.248200
    34  H    5.171226   4.068606   4.781990   3.545396   4.089952
                    6          7          8          9         10
     6  C    0.000000
     7  C    1.437204   0.000000
     8  C    2.437211   1.352024   0.000000
     9  C    3.815837   2.485151   1.486461   0.000000
    10  N    4.313519   2.894255   2.459299   1.398026   0.000000
    11  C    5.562739   4.154033   3.650011   2.378064   1.268146
    12  C    6.734455   5.341138   4.541619   3.113652   2.548457
    13  N    6.748596   5.418687   4.356243   2.946857   3.048270
    14  C    7.538650   6.298195   5.124877   3.864872   4.116458
    15  C    8.114860   6.991744   5.705686   4.626381   5.210157
    16  S    7.969869   6.943902   5.649508   4.740597   5.601791
    17  C    4.630326   3.463826   2.253115   1.322711   2.522737
    18  N    3.339009   3.828883   3.558355   4.765952   5.965991
    19  C    3.408213   4.280395   4.307216   5.649283   6.743235
    20  H    5.944915   7.197271   8.376735   9.681827   9.849844
    21  H    5.222388   6.551444   7.603118   8.973174   9.227225
    22  H    5.329951   6.714339   7.727225   9.135962   9.549064
    23  H    4.061182   5.085638   6.373258   7.540266   7.542352
    24  H    2.692521   4.129699   4.979971   6.436243   6.993171
    25  H    2.111991   2.744696   4.083075   5.135392   5.147128
    26  H    1.086810   2.143160   2.625684   4.109673   4.855806
    27  H    2.183848   1.086564   2.105858   2.688045   2.574636
    28  H    2.656214   2.109397   1.086341   2.220196   3.399371
    29  H    6.042978   4.676965   4.437680   3.325346   2.001042
    30  H    7.230128   5.895660   5.112023   3.806509   3.187869
    31  H    7.508448   6.081915   5.378227   3.918024   3.228490
    32  H    8.068655   6.842811   5.729178   4.510909   4.555562
    33  H    8.943610   7.867462   6.570123   5.553378   6.095573
    34  H    3.803923   4.916988   5.148035   6.555458   7.560877
                   11         12         13         14         15
    11  C    0.000000
    12  C    1.516412   0.000000
    13  N    2.516386   1.438913   0.000000
    14  C    3.582447   2.330698   1.274552   0.000000
    15  C    4.882817   3.731543   2.434442   1.469533   0.000000
    16  S    5.539273   4.639600   3.202656   2.781347   1.629379
    17  C    3.136866   3.310734   2.550890   3.308363   3.709756
    18  N    7.121397   7.774743   7.143556   7.624332   7.576755
    19  C    7.946775   8.711091   8.174226   8.670372   8.670913
    20  H   11.002143  12.373500  12.608258  13.440815  14.053852
    21  H   10.378250  11.668851  11.855506  12.564006  13.141819
    22  H   10.770178  12.032667  12.071244  12.820976  13.269795
    23  H    8.651811  10.070194  10.416810  11.324016  12.063352
    24  H    8.229738   9.383510   9.330470  10.011724  10.436091
    25  H    6.296075   7.694033   7.999286   8.961097   9.719158
    26  H    6.086758   7.100465   6.941209   7.584439   8.003529
    27  H    3.759725   5.122641   5.444368   6.454575   7.311702
    28  H    4.492481   5.160570   4.735365   5.289271   5.629199
    29  H    1.094196   2.178701   3.442952   4.454239   5.826213
    30  H    2.134471   1.105648   2.133777   2.494941   3.962363
    31  H    2.093956   1.102609   2.054864   2.916848   4.221623
    32  H    3.858638   2.538563   2.066292   1.102234   2.172246
    33  H    5.699351   4.464482   3.328316   2.142271   1.093904
    34  H    8.789248   9.633375   9.168842   9.675114   9.711161
                   16         17         18         19         20
    16  S    0.000000
    17  C    3.526725   0.000000
    18  N    6.902986   4.647069   0.000000
    19  C    8.041593   5.689024   1.151809   0.000000
    20  H   13.849477  10.544121   7.749463   6.897375   0.000000
    21  H   13.030353   9.824628   6.951528   6.080177   1.783444
    22  H   12.941217   9.830108   6.450812   5.480212   1.766948
    23  H   11.964015   8.521735   6.630961   6.079365   2.471882
    24  H   10.170384   7.092473   3.968048   3.197063   3.940189
    25  H    9.620578   6.132477   5.145143   5.004057   4.800166
    26  H    7.799365   4.712247   2.574715   2.564864   6.169358
    27  H    7.354967   3.831301   4.834064   5.260389   7.330174
    28  H    5.456853   2.483058   2.790674   3.612339   8.493255
    29  H    6.556543   4.194083   7.964789   8.716816  11.121624
    30  H    5.160203   4.090016   8.375432   9.272197  12.780652
    31  H    5.049540   4.045510   8.584859   9.536466  13.039654
    32  H    3.713535   4.181093   8.370004   9.367211  13.884918
    33  H    2.371885   4.701616   8.331371   9.400452  14.853104
    34  H    9.114456   6.700752   2.233990   1.082181   6.185518
                   21         22         23         24         25
    21  H    0.000000
    22  H    1.771502   0.000000
    23  H    2.720869   3.104326   0.000000
    24  H    3.007514   2.868737   3.156027   0.000000
    25  H    4.603555   4.771393   2.484734   3.122649   0.000000
    26  H    5.233965   5.283637   4.625915   2.437764   3.065609
    27  H    6.860987   7.090804   5.026214   4.751907   2.584620
    28  H    7.584343   7.642575   6.714448   4.808843   4.622097
    29  H   10.577206  11.061860   8.707292   8.664271   6.449082
    30  H   11.974415  12.478050  10.492775   9.813074   8.210505
    31  H   12.444821  12.765978  10.683112  10.190583   8.286999
    32  H   12.936847  13.328990  11.752161  10.517614   9.452353
    33  H   13.856239  14.045447  12.900310  11.189149  10.604526
    34  H    5.358608   4.644014   5.725725   2.728875   5.109608
                   26         27         28         29         30
    26  H    0.000000
    27  H    3.104813   0.000000
    28  H    2.379999   3.068693   0.000000
    29  H    6.688535   4.068974   5.361493   0.000000
    30  H    7.550273   5.701905   5.663725   2.518247   0.000000
    31  H    7.956671   5.731909   6.064535   2.375712   1.760355
    32  H    8.117607   6.958709   5.908381   4.569307   2.200911
    33  H    8.766920   8.219943   6.417622   6.587072   4.461317
    34  H    2.991223   5.841984   4.517662   9.496479  10.161641
                   31         32         33         34
    31  H    0.000000
    32  H    3.121888   0.000000
    33  H    4.945187   2.346915   0.000000
    34  H   10.467122  10.333515  10.421109   0.000000
 Stoichiometry    C15H15N3S
 Framework group  C1[X(C15H15N3S)]
 Deg. of freedom    96
 Full point group                 C1      NOp   1
 Largest Abelian subgroup         C1      NOp   1
 Largest concise Abelian subgroup C1      NOp   1
                         Standard orientation:                         
 ---------------------------------------------------------------------
 Center     Atomic      Atomic             Coordinates (Angstroms)
 Number     Number       Type             X           Y           Z
 ---------------------------------------------------------------------
      1          6           0        7.526648    0.307164   -0.593619
      2          6           0        5.763013   -0.107983    1.156553
      3          6           0        6.214224    0.795109    0.052525
      4          6           0        4.962382    0.016190   -0.156262
      5          6           0        3.673378    0.702531    0.118770
      6          6           0        2.475905    0.186190   -0.223005
      7          6           0        1.191282    0.741905    0.103308
      8          6           0        0.041524    0.083512   -0.166031
      9          6           0       -1.291240    0.649334    0.170349
     10          7           0       -1.391125    2.042430    0.231849
     11          6           0       -2.461191    2.719690    0.164969
     12          6           0       -3.908710    2.321398   -0.048471
     13          7           0       -4.224296    0.925406    0.100130
     14          6           0       -5.043043    0.400590   -0.723706
     15          6           0       -5.543634   -0.978960   -0.647700
     16         16           0       -5.121953   -2.131796    0.423762
     17          6           0       -2.064656   -0.374996    0.489942
     18          7           0        1.709785   -3.051453    0.059335
     19          6           0        2.824324   -3.203987   -0.188055
     20          1           0        8.379750    0.883774   -0.223048
     21          1           0        7.483893    0.402496   -1.688136
     22          1           0        7.721142   -0.749799   -0.363693
     23          1           0        6.149082    1.872941    0.171757
     24          1           0        4.890232   -0.846729   -0.817791
     25          1           0        3.722973    1.645513    0.657735
     26          1           0        2.454978   -0.738978   -0.792903
     27          1           0        1.140963    1.721772    0.570159
     28          1           0        0.084904   -0.893057   -0.639915
     29          1           0       -2.341088    3.803437    0.256251
     30          1           0       -4.239886    2.744732   -1.014684
     31          1           0       -4.473259    2.866783    0.725859
     32          1           0       -5.439297    0.984933   -1.570137
     33          1           0       -6.276571   -1.202953   -1.428249
     34          1           0        3.871647   -3.346929   -0.420000
 ---------------------------------------------------------------------
 Rotational constants (GHZ):           0.6504692           0.1053654           0.0925220
 Standard basis: 6-31G(2df,p) (6D, 7F)
 There are   668 symmetry adapted cartesian basis functions of A   symmetry.
 There are   611 symmetry adapted basis functions of A   symmetry.
   611 basis functions,   965 primitive gaussians,   668 cartesian basis functions
    71 alpha electrons       71 beta electrons
       nuclear repulsion energy      1247.8690927583 Hartrees.
 NAtoms=   34 NActive=   34 NUniq=   34 SFac= 1.00D+00 NAtFMM=   60 NAOKFM=F Big=F
 Integral buffers will be    131072 words long.
 Raffenetti 2 integral format.
 Two-electron integral symmetry is turned on.
 One-electron integrals computed using PRISM.
 PrsmSu:  requested number of processors reduced to:  12 ShMem   1 Linda.
 NBasis=   611 RedAO= T EigKep=  2.29D-04  NBF=   611
 NBsUse=   611 1.00D-06 EigRej= -1.00D+00 NBFU=   611
 Initial guess from the checkpoint file:  "CC1dCCdCCdCCdC2NdCCN3CdCSC23NdC1.chk"
 B after Tr=    -0.000000    0.000000   -0.000000
         Rot=    0.999997   -0.001168    0.000201    0.002308 Ang=  -0.30 deg.
 ExpMin= 1.17D-01 ExpMax= 2.19D+04 ExpMxC= 3.30D+03 IAcc=2 IRadAn=         4 AccDes= 0.00D+00
 Harris functional with IExCor=  402 and IRadAn=       4 diagonalized for initial guess.
 HarFok:  IExCor=  402 AccDes= 0.00D+00 IRadAn=         4 IDoV= 1 UseB2=F ITyADJ=14
 ICtDFT=  3500011 ScaDFX=  1.000000  1.000000  1.000000  1.000000
 FoFCou: FMM=F IPFlag=           0 FMFlag=      100000 FMFlg1=           0
         NFxFlg=           0 DoJE=T BraDBF=F KetDBF=T FulRan=T
         wScrn=  0.000000 ICntrl=       500 IOpCl=  0 I1Cent=   200000004 NGrid=           0
         NMat0=    1 NMatS0=      1 NMatT0=    0 NMatD0=    1 NMtDS0=    0 NMtDT0=    0
 Petite list used in FoFCou.
 Requested convergence on RMS density matrix=1.00D-08 within 128 cycles.
 Requested convergence on MAX density matrix=1.00D-06.
 Requested convergence on             energy=1.00D-06.
 No special actions if energy rises.
 Integral accuracy reduced to 1.0D-05 until final iterations.
 Initial convergence to 1.0D-05 achieved.  Increase integral accuracy.
 SCF Done:  E(RB3LYP) =  -1142.65473780     A.U. after   14 cycles
            NFock= 14  Conv=0.45D-08     -V/T= 2.0063
 PrsmSu:  requested number of processors reduced to:  13 ShMem   1 Linda.
 Calling FoFJK, ICntrl=      2127 FMM=F ISym2X=0 I1Cent= 0 IOpClX= 0 NMat=1 NMatS=1 NMatT=0.
 ***** Axes restored to original set *****
 -------------------------------------------------------------------
 Center     Atomic                   Forces (Hartrees/Bohr)
 Number     Number              X              Y              Z
 -------------------------------------------------------------------
      1        6           0.003393329    0.001091761    0.000742406
      2        6           0.000201494   -0.004046059   -0.003217045
      3        6          -0.005814200   -0.000454476   -0.009022669
      4        6           0.002521356    0.000749014    0.009200053
      5        6           0.000788529   -0.000016156   -0.004670820
      6        6          -0.002466183   -0.002455218   -0.001105607
      7        6           0.002849261   -0.002765754   -0.000988839
      8        6          -0.005718430   -0.002077297    0.001860157
      9        6          -0.004682398   -0.005502892   -0.005113237
     10        7          -0.001624880    0.001341294    0.005018655
     11        6           0.001269207    0.000442372   -0.002318081
     12        6          -0.000834628    0.000759322    0.000533525
     13        7          -0.005413338    0.001819233   -0.004357182
     14        6           0.000977983   -0.000486550    0.000887319
     15        6          -0.000648370    0.006226780   -0.002282732
     16       16           0.000774791   -0.006946815    0.002975693
     17        6           0.013487920    0.001594220    0.003686776
     18        7           0.001379530    0.000848402   -0.001952533
     19        6          -0.008706494    0.002748081   -0.008514817
     20        1           0.001459328    0.000599552    0.000735176
     21        1           0.000442256    0.001854700    0.002657342
     22        1           0.000228621   -0.001805734    0.001671404
     23        1           0.000229632   -0.000408805    0.001564137
     24        1          -0.003815637   -0.000147689    0.000088080
     25        1          -0.000016372    0.001162305    0.000575743
     26        1          -0.000627752    0.001033053    0.001771258
     27        1          -0.000456916    0.001301103    0.000094014
     28        1           0.001048394    0.002083205    0.002654811
     29        1           0.000281975   -0.000237582    0.000012517
     30        1           0.000138316    0.000152048   -0.000028191
     31        1           0.000344824   -0.000070587   -0.000321049
     32        1           0.000819208    0.000890742    0.001384547
     33        1          -0.001193452    0.000183805   -0.001185120
     34        1           0.009383096    0.000540623    0.006964307
 -------------------------------------------------------------------
 Cartesian Forces:  Max     0.013487920 RMS     0.003392619

 GradGradGradGradGradGradGradGradGradGradGradGradGradGradGradGradGradGrad
 Berny optimization.
 Using GEDIIS/GDIIS optimizer.
 FormGI is forming the generalized inverse of G from B-inverse, IUseBI=4.
 Internal  Forces:  Max     0.018511247 RMS     0.002538775
 Search for a local minimum.
 Step number  21 out of a maximum of  189
 All quantities printed in internal units (Hartrees-Bohrs-Radians)
 Mixed Optimization -- RFO/linear search
 Update second derivatives using D2CorX and points   19   20   21
 DE= -2.97D-03 DEPred=-3.91D-03 R= 7.59D-01
 TightC=F SS=  1.41D+00  RLast= 2.33D-01 DXNew= 5.0454D+00 6.9980D-01
 Trust test= 7.59D-01 RLast= 2.33D-01 DXMaxT set to 3.00D+00
 ITU=  1  1  1  1  1  1  1  0 -1 -1 -1  1  1  1  1  1  0  1  0  1
 ITU=  0
 Use linear search instead of GDIIS.
     Eigenvalues ---    0.00000   0.00258   0.00290   0.00589   0.00706
     Eigenvalues ---    0.00896   0.01226   0.01436   0.01695   0.01725
     Eigenvalues ---    0.01923   0.02072   0.02156   0.02208   0.02311
     Eigenvalues ---    0.02483   0.02624   0.02692   0.02932   0.03013
     Eigenvalues ---    0.03270   0.03395   0.03437   0.03650   0.03782
     Eigenvalues ---    0.03948   0.03990   0.04491   0.04820   0.04922
     Eigenvalues ---    0.05365   0.05909   0.06640   0.07267   0.08608
     Eigenvalues ---    0.08877   0.09757   0.10790   0.10887   0.12361
     Eigenvalues ---    0.12499   0.12831   0.13115   0.13154   0.13381
     Eigenvalues ---    0.14343   0.14502   0.14693   0.15641   0.15696
     Eigenvalues ---    0.15952   0.15991   0.16007   0.16041   0.16685
     Eigenvalues ---    0.16807   0.17032   0.17262   0.17521   0.18085
     Eigenvalues ---    0.18835   0.19274   0.19601   0.20023   0.20919
     Eigenvalues ---    0.21360   0.21858   0.22150   0.23212   0.24020
     Eigenvalues ---    0.26031   0.26516   0.27849   0.28726   0.29529
     Eigenvalues ---    0.30564   0.31643   0.32915   0.37317   0.38040
     Eigenvalues ---    0.38301   0.40602   0.41513   0.43161   0.44973
     Eigenvalues ---    0.47253   0.49202   0.55183   0.57290   0.59918
     Eigenvalues ---    0.62051   0.63302   0.66251   0.80179   0.84059
     Eigenvalues ---    2.61354
 RFO step:  Lambda=-6.86806070D-03 EMin= 3.65636086D-06
 Quartic linear search produced a step of  0.17383.
 SLEqS3 Cycle:  1021 Max:0.806513E-02 RMS:0.911629E-03 Conv:0.219250E-05
 SLEqS3 Cycle:  1021 Max:0.806513E-02 RMS:0.911629E-03 Conv:0.219250E-05
 New curvilinear step failed, DQL= 4.35D+00 SP=-8.79D-02.
 ITry= 1 IFail=1 DXMaxC= 0.00D+00 DCOld= 1.00D+10 DXMaxT= 3.00D+00 DXLimC= 3.00D+00 Rises=F
 SLEqS3 Cycle:  1021 Max:0.740223E-02 RMS:0.835030E-03 Conv:0.237985E-05
 SLEqS3 Cycle:  1021 Max:0.740223E-02 RMS:0.835030E-03 Conv:0.237985E-05
 New curvilinear step failed, DQL= 4.36D+00 SP=-1.01D-01.
 ITry= 2 IFail=1 DXMaxC= 0.00D+00 DCOld= 1.00D+10 DXMaxT= 3.00D+00 DXLimC= 3.00D+00 Rises=F
slurmstepd: error: *** JOB 27446661 ON lewis4-r630-hpc4-node238 CANCELLED AT 2023-05-17T14:35:42 DUE TO TIME LIMIT ***
