### Starting Gaussian ###
 Entering Gaussian System, Link 0=g16
 Initial command:
 /cluster/software/gaussian/gaussian-16-A.03/avx2/g16/l1.exe "/local/scratch/ks29c/Gau-4329.inp" -scrdir="/local/scratch/ks29c/"
 Entering Link 1 = /cluster/software/gaussian/gaussian-16-A.03/avx2/g16/l1.exe PID=      4330.
  
 Copyright (c) 1988,1990,1992,1993,1995,1998,2003,2009,2016,
            Gaussian, Inc.  All Rights Reserved.
  
 This is part of the Gaussian(R) 16 program.  It is based on
 the Gaussian(R) 09 system (copyright 2009, Gaussian, Inc.),
 the Gaussian(R) 03 system (copyright 2003, Gaussian, Inc.),
 the Gaussian(R) 98 system (copyright 1998, Gaussian, Inc.),
 the Gaussian(R) 94 system (copyright 1995, Gaussian, Inc.),
 the Gaussian 92(TM) system (copyright 1992, Gaussian, Inc.),
 the Gaussian 90(TM) system (copyright 1990, Gaussian, Inc.),
 the Gaussian 88(TM) system (copyright 1988, Gaussian, Inc.),
 the Gaussian 86(TM) system (copyright 1986, Carnegie Mellon
 University), and the Gaussian 82(TM) system (copyright 1983,
 Carnegie Mellon University). Gaussian is a federally registered
 trademark of Gaussian, Inc.
  
 This software contains proprietary and confidential information,
 including trade secrets, belonging to Gaussian, Inc.
  
 This software is provided under written license and may be
 used, copied, transmitted, or stored only in accord with that
 written license.
  
 The following legend is applicable only to US Government
 contracts under FAR:
  
                    RESTRICTED RIGHTS LEGEND
  
 Use, reproduction and disclosure by the US Government is
 subject to restrictions as set forth in subparagraphs (a)
 and (c) of the Commercial Computer Software - Restricted
 Rights clause in FAR 52.227-19.
  
 Gaussian, Inc.
 340 Quinnipiac St., Bldg. 40, Wallingford CT 06492
  
  
 ---------------------------------------------------------------
 Warning -- This program may not be used in any manner that
 competes with the business of Gaussian, Inc. or will provide
 assistance to any competitor of Gaussian, Inc.  The licensee
 of this program is prohibited from giving any competitor of
 Gaussian, Inc. access to this program.  By using this program,
 the user acknowledges that Gaussian, Inc. is engaged in the
 business of creating and licensing software in the field of
 computational chemistry and represents and warrants to the
 licensee that it is not a competitor of Gaussian, Inc. and that
 it will not use this program in any manner prohibited above.
 ---------------------------------------------------------------
  

 Cite this work as:
 Gaussian 16, Revision A.03,
 M. J. Frisch, G. W. Trucks, H. B. Schlegel, G. E. Scuseria, 
 M. A. Robb, J. R. Cheeseman, G. Scalmani, V. Barone, 
 G. A. Petersson, H. Nakatsuji, X. Li, M. Caricato, A. V. Marenich, 
 J. Bloino, B. G. Janesko, R. Gomperts, B. Mennucci, H. P. Hratchian, 
 J. V. Ortiz, A. F. Izmaylov, J. L. Sonnenberg, D. Williams-Young, 
 F. Ding, F. Lipparini, F. Egidi, J. Goings, B. Peng, A. Petrone, 
 T. Henderson, D. Ranasinghe, V. G. Zakrzewski, J. Gao, N. Rega, 
 G. Zheng, W. Liang, M. Hada, M. Ehara, K. Toyota, R. Fukuda, 
 J. Hasegawa, M. Ishida, T. Nakajima, Y. Honda, O. Kitao, H. Nakai, 
 T. Vreven, K. Throssell, J. A. Montgomery, Jr., J. E. Peralta, 
 F. Ogliaro, M. J. Bearpark, J. J. Heyd, E. N. Brothers, K. N. Kudin, 
 V. N. Staroverov, T. A. Keith, R. Kobayashi, J. Normand, 
 K. Raghavachari, A. P. Rendell, J. C. Burant, S. S. Iyengar, 
 J. Tomasi, M. Cossi, J. M. Millam, M. Klene, C. Adamo, R. Cammi, 
 J. W. Ochterski, R. L. Martin, K. Morokuma, O. Farkas, 
 J. B. Foresman, and D. J. Fox, Gaussian, Inc., Wallingford CT, 2016.
 
 ******************************************
 Gaussian 16:  ES64L-G16RevA.03 25-Dec-2016
                18-May-2023 
 ******************************************
 %chk=CCC1dCNdCC2dC3CqdC13rCqCrdCCqdOrO2.chk
 %NProcShared=20
 Will use up to   20 processors via shared memory.
 -----------------------------
 # opt freq b3lyp/6-31g(2df,p)
 -----------------------------
 1/18=20,19=15,26=3,38=1/1,3;
 2/9=110,12=2,17=6,18=5,40=1/2;
 3/5=1,6=6,7=104,11=2,25=1,30=1,71=1,74=-5/1,2,3;
 4//1;
 5/5=2,38=5/2;
 6/7=2,8=2,9=2,10=2,28=1/1;
 7//1,2,3,16;
 1/18=20,19=15,26=3/3(2);
 2/9=110/2;
 99//99;
 2/9=110/2;
 3/5=1,6=6,7=104,11=2,25=1,30=1,71=1,74=-5/1,2,3;
 4/5=5,16=3,69=1/1;
 5/5=2,38=5/2;
 7//1,2,3,16;
 1/18=20,19=15,26=3/3(-5);
 2/9=110/2;
 6/7=2,8=2,9=2,10=2,19=2,28=1/1;
 99/9=1/99;
 -------------------
 Title Card Required
 -------------------
 Symbolic Z-matrix:
 Charge =  0 Multiplicity = 1
 C                     1.07188   0.02295   0.05573 
 C                     2.60044   0.03725   0.05102 
 C                     3.20508   1.34957  -0.38712 
 C                     4.35429   1.85272   0.10922 
 N                     4.97386   3.03641  -0.25142 
 C                     4.33134   4.16419  -0.39976 
 C                     2.86301   4.53791  -0.24097 
 C                     2.07726   3.4798   -0.46092 
 C                     1.85433   3.19571  -1.75963 
 C                     2.49713   2.15159  -1.3164 
 C                     1.40236   3.92693  -2.83799 
 C                     1.51882   3.34996  -4.19583 
 C                     0.77149   5.07911  -2.54436 
 C                     1.54912   6.17386  -1.87737 
 O                     1.24604   7.32499  -2.19074 
 O                     2.45646   5.85185  -0.86721 
 H                     0.70141  -0.91399   0.48185 
 H                     0.66712   0.10796  -0.95947 
 H                     0.67349   0.84825   0.6555 
 H                     2.96173  -0.78873  -0.57491 
 H                     2.93276  -0.16734   1.07567 
 H                     4.90208   1.24994   0.8296 
 H                     4.95302   5.01506  -0.72361 
 H                     1.96548   2.34813  -4.17606 
 H                     2.13248   3.98108  -4.84391 
 H                     0.51141   3.26009  -4.60491 
 H                     0.09708   4.99005  -1.68015 
 

 GradGradGradGradGradGradGradGradGradGradGradGradGradGradGradGradGradGrad
 Berny optimization.
 Initialization pass.
                           ----------------------------
                           !    Initial Parameters    !
                           ! (Angstroms and Degrees)  !
 --------------------------                            --------------------------
 ! Name  Definition              Value          Derivative Info.                !
 --------------------------------------------------------------------------------
 ! R1    R(1,2)                  1.5286         estimate D2E/DX2                !
 ! R2    R(1,17)                 1.0939         estimate D2E/DX2                !
 ! R3    R(1,18)                 1.0962         estimate D2E/DX2                !
 ! R4    R(1,19)                 1.0952         estimate D2E/DX2                !
 ! R5    R(2,3)                  1.5099         estimate D2E/DX2                !
 ! R6    R(2,20)                 1.0975         estimate D2E/DX2                !
 ! R7    R(2,21)                 1.0964         estimate D2E/DX2                !
 ! R8    R(3,4)                  1.3491         estimate D2E/DX2                !
 ! R9    R(3,10)                 1.417          estimate D2E/DX2                !
 ! R10   R(4,5)                  1.3839         estimate D2E/DX2                !
 ! R11   R(4,22)                 1.0874         estimate D2E/DX2                !
 ! R12   R(5,6)                  1.3064         estimate D2E/DX2                !
 ! R13   R(6,7)                  1.5234         estimate D2E/DX2                !
 ! R14   R(6,23)                 1.1024         estimate D2E/DX2                !
 ! R15   R(7,8)                  1.3362         estimate D2E/DX2                !
 ! R16   R(7,16)                 1.5113         estimate D2E/DX2                !
 ! R17   R(8,9)                  1.348          estimate D2E/DX2                !
 ! R18   R(8,10)                 1.6347         estimate D2E/DX2                !
 ! R19   R(9,10)                 1.3038         estimate D2E/DX2                !
 ! R20   R(9,11)                 1.3791         estimate D2E/DX2                !
 ! R21   R(11,12)                1.4799         estimate D2E/DX2                !
 ! R22   R(11,13)                1.346          estimate D2E/DX2                !
 ! R23   R(12,24)                1.0971         estimate D2E/DX2                !
 ! R24   R(12,25)                1.0931         estimate D2E/DX2                !
 ! R25   R(12,26)                1.091          estimate D2E/DX2                !
 ! R26   R(13,14)                1.4994         estimate D2E/DX2                !
 ! R27   R(13,27)                1.0998         estimate D2E/DX2                !
 ! R28   R(14,15)                1.2309         estimate D2E/DX2                !
 ! R29   R(14,16)                1.3955         estimate D2E/DX2                !
 ! A1    A(2,1,17)             110.3562         estimate D2E/DX2                !
 ! A2    A(2,1,18)             111.4468         estimate D2E/DX2                !
 ! A3    A(2,1,19)             110.9999         estimate D2E/DX2                !
 ! A4    A(17,1,18)            107.5849         estimate D2E/DX2                !
 ! A5    A(17,1,19)            107.9925         estimate D2E/DX2                !
 ! A6    A(18,1,19)            108.3246         estimate D2E/DX2                !
 ! A7    A(1,2,3)              114.171          estimate D2E/DX2                !
 ! A8    A(1,2,20)             108.8982         estimate D2E/DX2                !
 ! A9    A(1,2,21)             107.3644         estimate D2E/DX2                !
 ! A10   A(3,2,20)             110.9034         estimate D2E/DX2                !
 ! A11   A(3,2,21)             108.1789         estimate D2E/DX2                !
 ! A12   A(20,2,21)            107.0236         estimate D2E/DX2                !
 ! A13   A(2,3,4)              123.9519         estimate D2E/DX2                !
 ! A14   A(2,3,10)             118.8265         estimate D2E/DX2                !
 ! A15   A(4,3,10)             117.1128         estimate D2E/DX2                !
 ! A16   A(3,4,5)              127.1919         estimate D2E/DX2                !
 ! A17   A(3,4,22)             117.7821         estimate D2E/DX2                !
 ! A18   A(5,4,22)             114.9148         estimate D2E/DX2                !
 ! A19   A(4,5,6)              123.2159         estimate D2E/DX2                !
 ! A20   A(5,6,7)              132.3735         estimate D2E/DX2                !
 ! A21   A(5,6,23)             114.9792         estimate D2E/DX2                !
 ! A22   A(7,6,23)             112.6315         estimate D2E/DX2                !
 ! A23   A(6,7,8)              110.8158         estimate D2E/DX2                !
 ! A24   A(6,7,16)             115.4279         estimate D2E/DX2                !
 ! A25   A(8,7,16)             117.5221         estimate D2E/DX2                !
 ! A26   A(7,8,9)              115.0077         estimate D2E/DX2                !
 ! A27   A(7,8,10)             125.3465         estimate D2E/DX2                !
 ! A28   A(8,9,11)             134.0928         estimate D2E/DX2                !
 ! A29   A(10,9,11)            148.4348         estimate D2E/DX2                !
 ! A30   A(3,10,8)             104.1815         estimate D2E/DX2                !
 ! A31   A(3,10,9)             157.2979         estimate D2E/DX2                !
 ! A32   A(9,11,12)            119.0082         estimate D2E/DX2                !
 ! A33   A(9,11,13)            115.9064         estimate D2E/DX2                !
 ! A34   A(12,11,13)           124.8031         estimate D2E/DX2                !
 ! A35   A(11,12,24)           111.8096         estimate D2E/DX2                !
 ! A36   A(11,12,25)           111.2877         estimate D2E/DX2                !
 ! A37   A(11,12,26)           107.6664         estimate D2E/DX2                !
 ! A38   A(24,12,25)           108.0206         estimate D2E/DX2                !
 ! A39   A(24,12,26)           107.9073         estimate D2E/DX2                !
 ! A40   A(25,12,26)           110.0981         estimate D2E/DX2                !
 ! A41   A(11,13,14)           118.6177         estimate D2E/DX2                !
 ! A42   A(11,13,27)           112.9236         estimate D2E/DX2                !
 ! A43   A(14,13,27)            91.5818         estimate D2E/DX2                !
 ! A44   A(13,14,15)           116.223          estimate D2E/DX2                !
 ! A45   A(13,14,16)           119.3903         estimate D2E/DX2                !
 ! A46   A(15,14,16)           124.0678         estimate D2E/DX2                !
 ! A47   A(7,16,14)            132.4929         estimate D2E/DX2                !
 ! D1    D(17,1,2,3)          -173.985          estimate D2E/DX2                !
 ! D2    D(17,1,2,20)           61.4731         estimate D2E/DX2                !
 ! D3    D(17,1,2,21)          -54.0752         estimate D2E/DX2                !
 ! D4    D(18,1,2,3)            66.5449         estimate D2E/DX2                !
 ! D5    D(18,1,2,20)          -57.997          estimate D2E/DX2                !
 ! D6    D(18,1,2,21)         -173.5453         estimate D2E/DX2                !
 ! D7    D(19,1,2,3)           -54.2934         estimate D2E/DX2                !
 ! D8    D(19,1,2,20)         -178.8353         estimate D2E/DX2                !
 ! D9    D(19,1,2,21)           65.6165         estimate D2E/DX2                !
 ! D10   D(1,2,3,4)            145.735          estimate D2E/DX2                !
 ! D11   D(1,2,3,10)           -30.3576         estimate D2E/DX2                !
 ! D12   D(20,2,3,4)           -90.7993         estimate D2E/DX2                !
 ! D13   D(20,2,3,10)           93.1082         estimate D2E/DX2                !
 ! D14   D(21,2,3,4)            26.2832         estimate D2E/DX2                !
 ! D15   D(21,2,3,10)         -149.8094         estimate D2E/DX2                !
 ! D16   D(2,3,4,5)            179.29           estimate D2E/DX2                !
 ! D17   D(2,3,4,22)             3.3399         estimate D2E/DX2                !
 ! D18   D(10,3,4,5)            -4.5558         estimate D2E/DX2                !
 ! D19   D(10,3,4,22)          179.4941         estimate D2E/DX2                !
 ! D20   D(2,3,10,8)           113.1078         estimate D2E/DX2                !
 ! D21   D(2,3,10,9)           116.8034         estimate D2E/DX2                !
 ! D22   D(4,3,10,8)           -63.2511         estimate D2E/DX2                !
 ! D23   D(4,3,10,9)           -59.5556         estimate D2E/DX2                !
 ! D24   D(3,4,5,6)             45.1651         estimate D2E/DX2                !
 ! D25   D(22,4,5,6)          -138.7855         estimate D2E/DX2                !
 ! D26   D(4,5,6,7)              0.4471         estimate D2E/DX2                !
 ! D27   D(4,5,6,23)          -177.9702         estimate D2E/DX2                !
 ! D28   D(5,6,7,8)            -27.0141         estimate D2E/DX2                !
 ! D29   D(5,6,7,16)          -163.7444         estimate D2E/DX2                !
 ! D30   D(23,6,7,8)           151.4316         estimate D2E/DX2                !
 ! D31   D(23,6,7,16)           14.7013         estimate D2E/DX2                !
 ! D32   D(6,7,8,9)            -80.2847         estimate D2E/DX2                !
 ! D33   D(6,7,8,10)           -21.9811         estimate D2E/DX2                !
 ! D34   D(16,7,8,9)            55.4464         estimate D2E/DX2                !
 ! D35   D(16,7,8,10)          113.75           estimate D2E/DX2                !
 ! D36   D(6,7,16,14)          118.5034         estimate D2E/DX2                !
 ! D37   D(8,7,16,14)          -15.2393         estimate D2E/DX2                !
 ! D38   D(7,8,9,11)           -52.9029         estimate D2E/DX2                !
 ! D39   D(7,8,10,3)            83.08           estimate D2E/DX2                !
 ! D40   D(11,9,10,3)          160.6391         estimate D2E/DX2                !
 ! D41   D(8,9,11,12)          168.585          estimate D2E/DX2                !
 ! D42   D(8,9,11,13)          -17.2224         estimate D2E/DX2                !
 ! D43   D(10,9,11,12)           8.8979         estimate D2E/DX2                !
 ! D44   D(10,9,11,13)        -176.9096         estimate D2E/DX2                !
 ! D45   D(9,11,12,24)           0.7164         estimate D2E/DX2                !
 ! D46   D(9,11,12,25)        -120.1827         estimate D2E/DX2                !
 ! D47   D(9,11,12,26)         119.0774         estimate D2E/DX2                !
 ! D48   D(13,11,12,24)       -172.9196         estimate D2E/DX2                !
 ! D49   D(13,11,12,25)         66.1813         estimate D2E/DX2                !
 ! D50   D(13,11,12,26)        -54.5586         estimate D2E/DX2                !
 ! D51   D(9,11,13,14)          64.4996         estimate D2E/DX2                !
 ! D52   D(9,11,13,27)         -40.8605         estimate D2E/DX2                !
 ! D53   D(12,11,13,14)       -121.6871         estimate D2E/DX2                !
 ! D54   D(12,11,13,27)        132.9527         estimate D2E/DX2                !
 ! D55   D(11,13,14,15)        145.4682         estimate D2E/DX2                !
 ! D56   D(11,13,14,16)        -40.7522         estimate D2E/DX2                !
 ! D57   D(27,13,14,15)        -97.2128         estimate D2E/DX2                !
 ! D58   D(27,13,14,16)         76.5669         estimate D2E/DX2                !
 ! D59   D(13,14,16,7)          -0.1408         estimate D2E/DX2                !
 ! D60   D(15,14,16,7)         173.1206         estimate D2E/DX2                !
 --------------------------------------------------------------------------------
 Trust Radius=3.00D-01 FncErr=1.00D-07 GrdErr=1.00D-06 EigMax=2.50D+02 EigMin=1.00D-04
 Number of steps in this run=    146 maximum allowed number of steps=    162.
 GradGradGradGradGradGradGradGradGradGradGradGradGradGradGradGradGradGrad

                          Input orientation:                          
 ---------------------------------------------------------------------
 Center     Atomic      Atomic             Coordinates (Angstroms)
 Number     Number       Type             X           Y           Z
 ---------------------------------------------------------------------
      1          6           0        1.071880    0.022950    0.055730
      2          6           0        2.600440    0.037250    0.051020
      3          6           0        3.205080    1.349570   -0.387120
      4          6           0        4.354290    1.852720    0.109220
      5          7           0        4.973860    3.036410   -0.251420
      6          6           0        4.331340    4.164190   -0.399760
      7          6           0        2.863010    4.537910   -0.240970
      8          6           0        2.077260    3.479800   -0.460920
      9          6           0        1.854330    3.195710   -1.759630
     10          6           0        2.497130    2.151590   -1.316400
     11          6           0        1.402360    3.926930   -2.837990
     12          6           0        1.518820    3.349960   -4.195830
     13          6           0        0.771490    5.079110   -2.544360
     14          6           0        1.549120    6.173860   -1.877370
     15          8           0        1.246040    7.324990   -2.190740
     16          8           0        2.456460    5.851850   -0.867210
     17          1           0        0.701410   -0.913990    0.481850
     18          1           0        0.667120    0.107960   -0.959470
     19          1           0        0.673490    0.848250    0.655500
     20          1           0        2.961730   -0.788730   -0.574910
     21          1           0        2.932760   -0.167340    1.075670
     22          1           0        4.902080    1.249940    0.829600
     23          1           0        4.953020    5.015060   -0.723610
     24          1           0        1.965480    2.348130   -4.176060
     25          1           0        2.132480    3.981080   -4.843910
     26          1           0        0.511410    3.260090   -4.604910
     27          1           0        0.097080    4.990050   -1.680150
 ---------------------------------------------------------------------
                    Distance matrix (angstroms):
                    1          2          3          4          5
     1  C    0.000000
     2  C    1.528634   0.000000
     3  C    2.550800   1.509881   0.000000
     4  C    3.758342   2.524937   1.349147   0.000000
     5  N    4.939710   3.836607   2.447943   1.383853   0.000000
     6  C    5.289747   4.497872   3.031618   2.366956   1.306417
     7  C    4.866317   4.517758   3.209966   3.091407   2.590425
     8  C    3.636967   3.519510   2.411494   2.856101   2.937818
     9  C    3.738204   3.716316   2.667685   3.397944   3.468651
    10  C    2.906060   2.520108   1.417036   2.360246   2.837478
    11  C    4.870718   4.991131   3.987399   4.658571   4.498776
    12  C    5.417058   5.493604   4.620747   5.367967   5.252998
    13  C    5.693457   5.958306   4.948284   5.503411   5.204816
    14  C    6.465163   6.517817   5.313833   5.521573   4.920991
    15  O    7.641776   7.744097   6.541905   6.700505   6.004125
    16  O    6.061762   5.888417   4.589275   4.533014   3.826644
    17  H    1.093930   2.167207   3.485280   4.597507   5.864910
    18  H    1.096215   2.182617   2.882780   4.216813   5.255965
    19  H    1.095244   2.176293   2.783402   3.854305   4.909555
    20  H    2.151294   1.097525   2.160280   3.063416   4.334168
    21  H    2.130578   1.096449   2.124836   2.652436   4.023838
    22  H    4.095706   2.715576   2.090489   1.087366   2.089314
    23  H    6.371168   5.559971   4.074842   3.324527   2.034319
    24  H    4.910502   4.859171   4.109720   4.931072   4.992683
    25  H    6.387342   6.303421   5.285669   5.830939   5.482409
    26  H    5.702172   6.035597   5.356836   6.242711   6.238298
    27  H    5.351224   5.813260   4.958295   5.582878   5.444351
                    6          7          8          9         10
     6  C    0.000000
     7  C    1.523441   0.000000
     8  C    2.356482   1.336180   0.000000
     9  C    2.987102   2.263905   1.347981   0.000000
    10  C    2.873171   2.642904   1.634711   1.303776   0.000000
    11  C    3.818400   3.041596   2.511151   1.379065   2.581780
    12  C    4.794099   4.342694   3.778659   2.464027   3.268684
    13  C    4.255458   3.157999   2.933181   2.309879   3.613322
    14  C    3.736690   2.660910   3.089211   2.996063   4.170380
    15  O    4.766271   3.766166   4.297521   4.196049   5.393864
    16  O    2.565518   1.511257   2.436285   2.866017   3.727647
    17  H    6.304089   5.909162   4.699699   4.821109   3.981971
    18  H    5.494796   4.996262   3.688679   3.403516   2.766362
    19  H    5.048653   4.383064   3.184654   3.569006   2.985423
    20  H    5.141782   5.338010   4.360691   4.301820   3.067759
    21  H    4.784880   4.886490   4.049027   4.529022   3.359942
    22  H    3.214020   4.014309   3.823261   4.447349   3.346950
    23  H    1.102427   2.197443   3.270478   3.739686   3.818672
    24  H    4.812048   4.591909   3.885285   2.563178   2.915293
    25  H    4.961752   4.693697   4.411908   3.194833   3.990405
    26  H    5.752612   5.119260   4.435404   3.146935   3.998269
    27  H    4.500045   3.150562   2.772813   2.512748   3.734891
                   11         12         13         14         15
    11  C    0.000000
    12  C    1.479928   0.000000
    13  C    1.346007   2.505158   0.000000
    14  C    2.448065   3.653845   1.499354   0.000000
    15  O    3.462684   4.460455   2.322546   1.230918   0.000000
    16  O    2.949647   4.268294   2.499817   1.395485   2.320989
    17  H    5.911614   6.382015   6.714172   7.518121   8.678718
    18  H    4.319022   4.659397   5.218726   6.198033   7.344161
    19  H    4.713172   5.523453   5.305552   5.961902   7.097680
    20  H    5.458078   5.685227   6.565625   7.222848   8.449080
    21  H    5.867018   6.493022   6.730598   7.130619   8.345626
    22  H    5.732847   6.411823   6.565662   6.543318   7.706836
    23  H    4.273385   5.159709   4.561187   3.776310   4.607597
    24  H    2.144795   1.097069   3.397986   4.482582   5.406313
    25  H    2.135351   1.093114   2.888926   3.734830   4.359681
    26  H    2.088175   1.091008   2.760859   4.123878   4.784486
    27  H    2.043177   3.322632   1.099827   1.883805   2.651934
                   16         17         18         19         20
    16  O    0.000000
    17  H    7.118761   0.000000
    18  H    6.016853   1.767190   0.000000
    19  H    5.525725   1.770995   1.776569   0.000000
    20  H    6.666186   2.498295   2.493426   3.070774   0.000000
    21  H    6.342893   2.426733   3.057893   2.512422   1.763910
    22  H    5.480675   4.738054   4.737064   4.251193   3.145438
    23  H    2.636977   7.394792   6.519524   6.130141   6.137697
    24  H    4.844131   5.825412   4.129231   5.221384   4.878595
    25  H    4.406687   7.373832   5.677782   6.495136   6.454696
    26  H    4.946801   6.582870   4.821763   5.789228   6.215940
    27  H    2.640122   6.316419   4.967809   4.789783   6.543858
                   21         22         23         24         25
    21  H    0.000000
    22  H    2.438740   0.000000
    23  H    5.846035   4.073228   0.000000
    24  H    5.902871   5.906460   5.287468   0.000000
    25  H    7.272638   6.878846   5.099160   1.772128   0.000000
    26  H    7.062521   7.269978   6.154048   1.769153   1.790200
    27  H    6.498792   6.585992   4.949318   4.086591   3.894901
                   26         27
    26  H    0.000000
    27  H    3.423252   0.000000
 Stoichiometry    C13H11NO2
 Framework group  C1[X(C13H11NO2)]
 Deg. of freedom    75
 Full point group                 C1      NOp   1
 Largest Abelian subgroup         C1      NOp   1
 Largest concise Abelian subgroup C1      NOp   1
                         Standard orientation:                         
 ---------------------------------------------------------------------
 Center     Atomic      Atomic             Coordinates (Angstroms)
 Number     Number       Type             X           Y           Z
 ---------------------------------------------------------------------
      1          6           0       -3.217698   -1.707866   -1.255133
      2          6           0       -3.553881   -0.586973   -0.271618
      3          6           0       -2.351014    0.171132    0.236445
      4          6           0       -2.357083    1.489513    0.522855
      5          7           0       -1.302498    2.246123    1.002900
      6          6           0       -0.090274    2.170729    0.521700
      7          6           0        0.519163    1.339783   -0.600346
      8          6           0       -0.160735    0.202398   -0.772022
      9          6           0        0.138533   -0.778062    0.103300
     10          6           0       -1.112982   -0.508789    0.350349
     11          6           0        1.312188   -1.380748    0.504700
     12          6           0        1.294792   -2.267996    1.689046
     13          6           0        2.372736   -1.199802   -0.304146
     14          6           0        2.914469    0.187340   -0.478570
     15          8           0        4.133432    0.281192   -0.621672
     16          8           0        2.028219    1.258257   -0.601359
     17          1           0       -4.134329   -2.143464   -1.663452
     18          1           0       -2.656547   -2.513712   -0.767887
     19          1           0       -2.620813   -1.329812   -2.092010
     20          1           0       -4.132751   -1.006494    0.561132
     21          1           0       -4.208882    0.120735   -0.793466
     22          1           0       -3.299649    2.023813    0.430889
     23          1           0        0.652300    2.808762    1.028496
     24          1           0        0.289712   -2.351949    2.120701
     25          1           0        1.968202   -1.902473    2.468669
     26          1           0        1.603784   -3.262100    1.362582
     27          1           0        2.113968   -1.265717   -1.371064
 ---------------------------------------------------------------------
 Rotational constants (GHZ):           0.9485621           0.4141550           0.3390915
 Standard basis: 6-31G(2df,p) (6D, 7F)
 There are   551 symmetry adapted cartesian basis functions of A   symmetry.
 There are   503 symmetry adapted basis functions of A   symmetry.
   503 basis functions,   781 primitive gaussians,   551 cartesian basis functions
    56 alpha electrons       56 beta electrons
       nuclear repulsion energy      1041.6510670445 Hartrees.
 NAtoms=   27 NActive=   27 NUniq=   27 SFac= 1.00D+00 NAtFMM=   60 NAOKFM=F Big=F
 Integral buffers will be    131072 words long.
 Raffenetti 2 integral format.
 Two-electron integral symmetry is turned on.
 One-electron integrals computed using PRISM.
 PrsmSu:  requested number of processors reduced to:  12 ShMem   1 Linda.
 NBasis=   503 RedAO= T EigKep=  2.03D-04  NBF=   503
 NBsUse=   503 1.00D-06 EigRej= -1.00D+00 NBFU=   503
 ExpMin= 1.61D-01 ExpMax= 5.48D+03 ExpMxC= 8.25D+02 IAcc=3 IRadAn=         5 AccDes= 0.00D+00
 Harris functional with IExCor=  402 and IRadAn=       5 diagonalized for initial guess.
 HarFok:  IExCor=  402 AccDes= 0.00D+00 IRadAn=         5 IDoV= 1 UseB2=F ITyADJ=14
 ICtDFT=  3500011 ScaDFX=  1.000000  1.000000  1.000000  1.000000
 FoFCou: FMM=F IPFlag=           0 FMFlag=      100000 FMFlg1=           0
         NFxFlg=           0 DoJE=T BraDBF=F KetDBF=T FulRan=T
         wScrn=  0.000000 ICntrl=       500 IOpCl=  0 I1Cent=   200000004 NGrid=           0
         NMat0=    1 NMatS0=      1 NMatT0=    0 NMatD0=    1 NMtDS0=    0 NMtDT0=    0
 Petite list used in FoFCou.
 Requested convergence on RMS density matrix=1.00D-08 within 128 cycles.
 Requested convergence on MAX density matrix=1.00D-06.
 Requested convergence on             energy=1.00D-06.
 No special actions if energy rises.
 Integral accuracy reduced to 1.0D-05 until final iterations.
 EnCoef did     2 forward-backward iterations
 EnCoef did     4 forward-backward iterations
 Problem detected with inexpensive integrals.
 Switching to full accuracy and repeating last cycle.
 EnCoef did     3 forward-backward iterations
 EnCoef did     2 forward-backward iterations
 EnCoef did     3 forward-backward iterations
 Restarting incremental Fock formation.
 SCF Done:  E(RB3LYP) =  -706.792876684     A.U. after   27 cycles
            NFock= 27  Conv=0.49D-08     -V/T= 2.0069

 **********************************************************************

            Population analysis using the SCF density.

 **********************************************************************

 Orbital symmetries:
       Occupied  (A) (A) (A) (A) (A) (A) (A) (A) (A) (A) (A) (A)
                 (A) (A) (A) (A) (A) (A) (A) (A) (A) (A) (A) (A)
                 (A) (A) (A) (A) (A) (A) (A) (A) (A) (A) (A) (A)
                 (A) (A) (A) (A) (A) (A) (A) (A) (A) (A) (A) (A)
                 (A) (A) (A) (A) (A) (A) (A) (A)
       Virtual   (A) (A) (A) (A) (A) (A) (A) (A) (A) (A) (A) (A)
                 (A) (A) (A) (A) (A) (A) (A) (A) (A) (A) (A) (A)
                 (A) (A) (A) (A) (A) (A) (A) (A) (A) (A) (A) (A)
                 (A) (A) (A) (A) (A) (A) (A) (A) (A) (A) (A) (A)
                 (A) (A) (A) (A) (A) (A) (A) (A) (A) (A) (A) (A)
                 (A) (A) (A) (A) (A) (A) (A) (A) (A) (A) (A) (A)
                 (A) (A) (A) (A) (A) (A) (A) (A) (A) (A) (A) (A)
                 (A) (A) (A) (A) (A) (A) (A) (A) (A) (A) (A) (A)
                 (A) (A) (A) (A) (A) (A) (A) (A) (A) (A) (A) (A)
                 (A) (A) (A) (A) (A) (A) (A) (A) (A) (A) (A) (A)
                 (A) (A) (A) (A) (A) (A) (A) (A) (A) (A) (A) (A)
                 (A) (A) (A) (A) (A) (A) (A) (A) (A) (A) (A) (A)
                 (A) (A) (A) (A) (A) (A) (A) (A) (A) (A) (A) (A)
                 (A) (A) (A) (A) (A) (A) (A) (A) (A) (A) (A) (A)
                 (A) (A) (A) (A) (A) (A) (A) (A) (A) (A) (A) (A)
                 (A) (A) (A) (A) (A) (A) (A) (A) (A) (A) (A) (A)
                 (A) (A) (A) (A) (A) (A) (A) (A) (A) (A) (A) (A)
                 (A) (A) (A) (A) (A) (A) (A) (A) (A) (A) (A) (A)
                 (A) (A) (A) (A) (A) (A) (A) (A) (A) (A) (A) (A)
                 (A) (A) (A) (A) (A) (A) (A) (A) (A) (A) (A) (A)
                 (A) (A) (A) (A) (A) (A) (A) (A) (A) (A) (A) (A)
                 (A) (A) (A) (A) (A) (A) (A) (A) (A) (A) (A) (A)
                 (A) (A) (A) (A) (A) (A) (A) (A) (A) (A) (A) (A)
                 (A) (A) (A) (A) (A) (A) (A) (A) (A) (A) (A) (A)
                 (A) (A) (A) (A) (A) (A) (A) (A) (A) (A) (A) (A)
                 (A) (A) (A) (A) (A) (A) (A) (A) (A) (A) (A) (A)
                 (A) (A) (A) (A) (A) (A) (A) (A) (A) (A) (A) (A)
                 (A) (A) (A) (A) (A) (A) (A) (A) (A) (A) (A) (A)
                 (A) (A) (A) (A) (A) (A) (A) (A) (A) (A) (A) (A)
                 (A) (A) (A) (A) (A) (A) (A) (A) (A) (A) (A) (A)
                 (A) (A) (A) (A) (A) (A) (A) (A) (A) (A) (A) (A)
                 (A) (A) (A) (A) (A) (A) (A) (A) (A) (A) (A) (A)
                 (A) (A) (A) (A) (A) (A) (A) (A) (A) (A) (A) (A)
                 (A) (A) (A) (A) (A) (A) (A) (A) (A) (A) (A) (A)
                 (A) (A) (A) (A) (A) (A) (A) (A) (A) (A) (A) (A)
                 (A) (A) (A) (A) (A) (A) (A) (A) (A) (A) (A) (A)
                 (A) (A) (A) (A) (A) (A) (A) (A) (A) (A) (A) (A)
                 (A) (A) (A)
 The electronic state is 1-A.
 Alpha  occ. eigenvalues --  -19.19595 -19.11231 -14.36548 -10.31915 -10.28555
 Alpha  occ. eigenvalues --  -10.27539 -10.26454 -10.24564 -10.24055 -10.23605
 Alpha  occ. eigenvalues --  -10.23007 -10.22805 -10.21666 -10.20276 -10.19774
 Alpha  occ. eigenvalues --  -10.17042  -1.07109  -0.99852  -0.97113  -0.93881
 Alpha  occ. eigenvalues --   -0.84961  -0.83526  -0.77894  -0.74597  -0.73557
 Alpha  occ. eigenvalues --   -0.69507  -0.65842  -0.63810  -0.59773  -0.59529
 Alpha  occ. eigenvalues --   -0.55156  -0.53845  -0.50644  -0.48986  -0.48397
 Alpha  occ. eigenvalues --   -0.47512  -0.46001  -0.44573  -0.43759  -0.43102
 Alpha  occ. eigenvalues --   -0.42017  -0.40957  -0.40375  -0.39909  -0.38214
 Alpha  occ. eigenvalues --   -0.37995  -0.37396  -0.36839  -0.35405  -0.32683
 Alpha  occ. eigenvalues --   -0.31158  -0.30662  -0.27421  -0.24497  -0.20205
 Alpha  occ. eigenvalues --   -0.18335
 Alpha virt. eigenvalues --   -0.13272  -0.12031  -0.03138  -0.01405   0.01930
 Alpha virt. eigenvalues --    0.02870   0.06743   0.08605   0.09522   0.11596
 Alpha virt. eigenvalues --    0.11980   0.13069   0.13730   0.13983   0.14877
 Alpha virt. eigenvalues --    0.15146   0.15826   0.16723   0.17190   0.18007
 Alpha virt. eigenvalues --    0.21401   0.22011   0.23061   0.23884   0.25079
 Alpha virt. eigenvalues --    0.27580   0.29616   0.30586   0.31891   0.33304
 Alpha virt. eigenvalues --    0.35941   0.38153   0.38286   0.38753   0.39792
 Alpha virt. eigenvalues --    0.40865   0.42571   0.42816   0.43726   0.44785
 Alpha virt. eigenvalues --    0.45039   0.45691   0.46883   0.47619   0.48045
 Alpha virt. eigenvalues --    0.49102   0.50145   0.50845   0.51166   0.52422
 Alpha virt. eigenvalues --    0.53911   0.54338   0.55010   0.55478   0.56160
 Alpha virt. eigenvalues --    0.56698   0.57573   0.58579   0.59610   0.60067
 Alpha virt. eigenvalues --    0.61161   0.62421   0.65407   0.66362   0.66514
 Alpha virt. eigenvalues --    0.67422   0.68530   0.68773   0.69710   0.70032
 Alpha virt. eigenvalues --    0.71177   0.71470   0.72253   0.72837   0.73493
 Alpha virt. eigenvalues --    0.74491   0.74756   0.75742   0.76578   0.76862
 Alpha virt. eigenvalues --    0.77632   0.77929   0.78957   0.79977   0.80867
 Alpha virt. eigenvalues --    0.81500   0.83163   0.84209   0.84390   0.86068
 Alpha virt. eigenvalues --    0.86917   0.87148   0.87534   0.90797   0.92025
 Alpha virt. eigenvalues --    0.93168   0.94821   0.96737   0.97451   0.98737
 Alpha virt. eigenvalues --    0.98970   1.00864   1.02383   1.03356   1.05282
 Alpha virt. eigenvalues --    1.06108   1.06295   1.06701   1.08186   1.09436
 Alpha virt. eigenvalues --    1.10479   1.12929   1.14360   1.15175   1.15856
 Alpha virt. eigenvalues --    1.16539   1.20247   1.20450   1.22084   1.23744
 Alpha virt. eigenvalues --    1.23904   1.25253   1.25970   1.27942   1.29304
 Alpha virt. eigenvalues --    1.30698   1.32053   1.32639   1.33530   1.34789
 Alpha virt. eigenvalues --    1.36520   1.36744   1.39519   1.39645   1.41448
 Alpha virt. eigenvalues --    1.42816   1.43405   1.44481   1.46403   1.46731
 Alpha virt. eigenvalues --    1.48815   1.49203   1.50045   1.51859   1.51946
 Alpha virt. eigenvalues --    1.53860   1.54932   1.55681   1.56389   1.58690
 Alpha virt. eigenvalues --    1.60041   1.60439   1.61885   1.63700   1.64566
 Alpha virt. eigenvalues --    1.65239   1.67050   1.67375   1.69366   1.71469
 Alpha virt. eigenvalues --    1.72358   1.73501   1.74446   1.76803   1.80087
 Alpha virt. eigenvalues --    1.81304   1.83095   1.83702   1.86700   1.88545
 Alpha virt. eigenvalues --    1.89517   1.92135   1.92768   1.93307   1.95689
 Alpha virt. eigenvalues --    1.97893   1.98465   1.99390   2.01780   2.03037
 Alpha virt. eigenvalues --    2.03582   2.07009   2.09369   2.11650   2.12088
 Alpha virt. eigenvalues --    2.14642   2.14900   2.16918   2.18883   2.20333
 Alpha virt. eigenvalues --    2.24117   2.25265   2.27331   2.28232   2.32049
 Alpha virt. eigenvalues --    2.32724   2.33967   2.36356   2.40189   2.41358
 Alpha virt. eigenvalues --    2.43756   2.44305   2.47203   2.48271   2.50089
 Alpha virt. eigenvalues --    2.53227   2.56850   2.59769   2.62355   2.64939
 Alpha virt. eigenvalues --    2.66245   2.68886   2.69323   2.71648   2.73451
 Alpha virt. eigenvalues --    2.74398   2.75342   2.78089   2.79685   2.80680
 Alpha virt. eigenvalues --    2.81800   2.82683   2.85098   2.86097   2.86928
 Alpha virt. eigenvalues --    2.87103   2.88338   2.89441   2.90291   2.91819
 Alpha virt. eigenvalues --    2.93374   2.93742   2.94616   2.95786   2.96459
 Alpha virt. eigenvalues --    2.98170   3.00048   3.01100   3.03133   3.04329
 Alpha virt. eigenvalues --    3.06894   3.07533   3.08601   3.08888   3.11720
 Alpha virt. eigenvalues --    3.12864   3.13720   3.15547   3.16326   3.18714
 Alpha virt. eigenvalues --    3.19443   3.20826   3.21547   3.22659   3.23296
 Alpha virt. eigenvalues --    3.25889   3.27358   3.27867   3.29033   3.30997
 Alpha virt. eigenvalues --    3.31275   3.33282   3.35455   3.36396   3.38113
 Alpha virt. eigenvalues --    3.38791   3.39795   3.41931   3.42897   3.43834
 Alpha virt. eigenvalues --    3.47121   3.48248   3.49154   3.50654   3.52107
 Alpha virt. eigenvalues --    3.52659   3.55060   3.56442   3.56774   3.58426
 Alpha virt. eigenvalues --    3.59412   3.61415   3.63589   3.64571   3.64981
 Alpha virt. eigenvalues --    3.66836   3.67936   3.70085   3.73334   3.73841
 Alpha virt. eigenvalues --    3.76245   3.76980   3.77871   3.80410   3.81148
 Alpha virt. eigenvalues --    3.83816   3.85587   3.86298   3.88772   3.90173
 Alpha virt. eigenvalues --    3.91651   3.92781   3.95195   3.97917   4.01004
 Alpha virt. eigenvalues --    4.02050   4.03101   4.06096   4.09378   4.11361
 Alpha virt. eigenvalues --    4.12034   4.13840   4.15107   4.15939   4.18376
 Alpha virt. eigenvalues --    4.19455   4.19732   4.23147   4.24428   4.25217
 Alpha virt. eigenvalues --    4.26454   4.28452   4.31378   4.32006   4.33369
 Alpha virt. eigenvalues --    4.35143   4.36508   4.37953   4.38913   4.40082
 Alpha virt. eigenvalues --    4.42205   4.42874   4.44219   4.45024   4.45222
 Alpha virt. eigenvalues --    4.46701   4.47718   4.48317   4.49428   4.50597
 Alpha virt. eigenvalues --    4.51159   4.52368   4.53612   4.54930   4.56067
 Alpha virt. eigenvalues --    4.57093   4.57565   4.59153   4.59744   4.61015
 Alpha virt. eigenvalues --    4.61863   4.63201   4.63992   4.64472   4.67794
 Alpha virt. eigenvalues --    4.68189   4.69346   4.69798   4.71709   4.72538
 Alpha virt. eigenvalues --    4.74339   4.74523   4.77303   4.77952   4.80220
 Alpha virt. eigenvalues --    4.81541   4.82474   4.83713   4.84984   4.86815
 Alpha virt. eigenvalues --    4.88061   4.88959   4.91243   4.93003   4.93891
 Alpha virt. eigenvalues --    4.95147   4.96915   4.98450   4.99268   5.00927
 Alpha virt. eigenvalues --    5.04098   5.05277   5.06459   5.10385   5.11340
 Alpha virt. eigenvalues --    5.12728   5.13842   5.14942   5.16807   5.17369
 Alpha virt. eigenvalues --    5.19790   5.21405   5.25290   5.26554   5.29499
 Alpha virt. eigenvalues --    5.31275   5.34479   5.36260   5.39373   5.42238
 Alpha virt. eigenvalues --    5.46945   5.47582   5.50489   5.52037   5.53750
 Alpha virt. eigenvalues --    5.55940   5.59006   5.62249   5.65900   5.67479
 Alpha virt. eigenvalues --    5.71041   5.72429   5.79116   5.81534   5.83925
 Alpha virt. eigenvalues --    5.89277   5.95524   6.00112   6.01882   6.05458
 Alpha virt. eigenvalues --    6.10366   6.13297   6.23922   6.42810   6.48580
 Alpha virt. eigenvalues --    6.62337   6.77346   6.91880   7.01275   7.22279
 Alpha virt. eigenvalues --   10.22316  10.44468  10.73127  11.00562  11.14522
 Alpha virt. eigenvalues --   11.35445  11.41412  11.52072  11.77465  11.82139
 Alpha virt. eigenvalues --   11.90413  12.29662  12.47125  12.56657  13.08381
 Alpha virt. eigenvalues --   13.61521  16.27107
          Condensed to atoms (all electrons):
               1          2          3          4          5          6
     1  C    4.974569   0.391458  -0.031008   0.000331  -0.000048  -0.000019
     2  C    0.391458   4.964574   0.413544  -0.040827   0.004530  -0.000074
     3  C   -0.031008   0.413544   4.618331   0.605926  -0.006119  -0.012304
     4  C    0.000331  -0.040827   0.605926   4.844868   0.432369  -0.079303
     5  N   -0.000048   0.004530  -0.006119   0.432369   6.292348   0.620247
     6  C   -0.000019  -0.000074  -0.012304  -0.079303   0.620247   4.800295
     7  C    0.000075  -0.000085   0.001618  -0.007056  -0.029685   0.395595
     8  C    0.000851   0.000859  -0.045472  -0.025112  -0.010695  -0.047760
     9  C   -0.000168  -0.001275   0.011708  -0.006192   0.001567   0.007457
    10  C   -0.004342  -0.079937   0.401591  -0.020580  -0.023994  -0.005276
    11  C    0.000014  -0.000035   0.000901   0.000397   0.000099   0.002854
    12  C   -0.000001  -0.000011  -0.000391   0.000005  -0.000004   0.000117
    13  C    0.000004  -0.000010   0.000134  -0.000021   0.000011  -0.000135
    14  C   -0.000000   0.000000   0.000012   0.000000   0.000027   0.001006
    15  O    0.000000  -0.000000  -0.000000  -0.000000   0.000000  -0.000053
    16  O   -0.000000   0.000001   0.000105  -0.000122   0.001380  -0.021968
    17  H    0.375104  -0.021588   0.002728  -0.000044   0.000001   0.000000
    18  H    0.379406  -0.027483  -0.007663   0.000148   0.000002   0.000001
    19  H    0.377627  -0.029541   0.000307   0.000900  -0.000008   0.000008
    20  H   -0.040488   0.358662  -0.021844  -0.000403  -0.000062   0.000027
    21  H   -0.033312   0.363680  -0.023729  -0.005423   0.000090  -0.000002
    22  H    0.000114  -0.007664  -0.057341   0.366361  -0.035022   0.004099
    23  H    0.000000   0.000012   0.000810   0.002998  -0.026936   0.352730
    24  H   -0.000011   0.000005  -0.000027  -0.000025   0.000006   0.000033
    25  H    0.000000   0.000000   0.000007   0.000001  -0.000001  -0.000026
    26  H    0.000000   0.000000   0.000008  -0.000000   0.000000   0.000002
    27  H   -0.000003  -0.000001   0.000069   0.000007  -0.000000   0.000232
               7          8          9         10         11         12
     1  C    0.000075   0.000851  -0.000168  -0.004342   0.000014  -0.000001
     2  C   -0.000085   0.000859  -0.001275  -0.079937  -0.000035  -0.000011
     3  C    0.001618  -0.045472   0.011708   0.401591   0.000901  -0.000391
     4  C   -0.007056  -0.025112  -0.006192  -0.020580   0.000397   0.000005
     5  N   -0.029685  -0.010695   0.001567  -0.023994   0.000099  -0.000004
     6  C    0.395595  -0.047760   0.007457  -0.005276   0.002854   0.000117
     7  C    4.863010   0.562347  -0.083337  -0.036199  -0.019435   0.000327
     8  C    0.562347   5.353396   0.288920   0.129879  -0.045898   0.009741
     9  C   -0.083337   0.288920   4.615657   0.455777   0.517761  -0.025621
    10  C   -0.036199   0.129879   0.455777   5.180162  -0.020307  -0.028157
    11  C   -0.019435  -0.045898   0.517761  -0.020307   4.726722   0.392090
    12  C    0.000327   0.009741  -0.025621  -0.028157   0.392090   5.148091
    13  C    0.015641  -0.044408  -0.007767   0.017516   0.350902  -0.089485
    14  C   -0.031857  -0.000915  -0.003503  -0.000248  -0.001857  -0.000600
    15  O    0.001674  -0.000515   0.000225   0.000004  -0.001264  -0.000009
    16  O    0.265153  -0.034424  -0.011517   0.003109   0.009551   0.000039
    17  H   -0.000000  -0.000009   0.000016   0.000196  -0.000000   0.000000
    18  H    0.000019   0.000023   0.000957   0.008504  -0.000028   0.000019
    19  H    0.000080   0.002299  -0.000075  -0.002010  -0.000021  -0.000001
    20  H   -0.000001  -0.000163  -0.000089  -0.002310   0.000002  -0.000001
    21  H   -0.000001  -0.000322   0.000074   0.004252   0.000000   0.000000
    22  H    0.000083  -0.000020   0.000393   0.006307   0.000006  -0.000000
    23  H   -0.062506   0.004773   0.000030  -0.000563  -0.000038  -0.000013
    24  H   -0.000054   0.000112  -0.006134   0.008822  -0.022688   0.359472
    25  H    0.000026   0.000019   0.000929   0.000236  -0.023174   0.351657
    26  H   -0.000037  -0.000385  -0.003546   0.000958  -0.010202   0.369868
    27  H   -0.000107   0.008562  -0.019603   0.000575  -0.052315   0.006976
              13         14         15         16         17         18
     1  C    0.000004  -0.000000   0.000000  -0.000000   0.375104   0.379406
     2  C   -0.000010   0.000000  -0.000000   0.000001  -0.021588  -0.027483
     3  C    0.000134   0.000012  -0.000000   0.000105   0.002728  -0.007663
     4  C   -0.000021   0.000000  -0.000000  -0.000122  -0.000044   0.000148
     5  N    0.000011   0.000027   0.000000   0.001380   0.000001   0.000002
     6  C   -0.000135   0.001006  -0.000053  -0.021968   0.000000   0.000001
     7  C    0.015641  -0.031857   0.001674   0.265153  -0.000000   0.000019
     8  C   -0.044408  -0.000915  -0.000515  -0.034424  -0.000009   0.000023
     9  C   -0.007767  -0.003503   0.000225  -0.011517   0.000016   0.000957
    10  C    0.017516  -0.000248   0.000004   0.003109   0.000196   0.008504
    11  C    0.350902  -0.001857  -0.001264   0.009551  -0.000000  -0.000028
    12  C   -0.089485  -0.000600  -0.000009   0.000039   0.000000   0.000019
    13  C    5.669052   0.343178  -0.080608  -0.086471   0.000000   0.000002
    14  C    0.343178   4.319770   0.677581   0.363663  -0.000000  -0.000000
    15  O   -0.080608   0.677581   7.748609  -0.029096   0.000000   0.000000
    16  O   -0.086471   0.363663  -0.029096   7.833646  -0.000000  -0.000000
    17  H    0.000000  -0.000000   0.000000  -0.000000   0.581816  -0.030155
    18  H    0.000002  -0.000000   0.000000  -0.000000  -0.030155   0.579383
    19  H   -0.000001   0.000000   0.000000  -0.000000  -0.028308  -0.032149
    20  H   -0.000000   0.000000  -0.000000  -0.000000  -0.001223  -0.004490
    21  H    0.000000  -0.000000   0.000000  -0.000000  -0.003534   0.005225
    22  H   -0.000000   0.000000  -0.000000  -0.000000  -0.000011   0.000002
    23  H    0.000161   0.000053  -0.000002   0.004703   0.000000   0.000000
    24  H    0.004209   0.000021  -0.000001  -0.000003  -0.000000   0.000027
    25  H    0.007352   0.001110  -0.000085   0.000028  -0.000000  -0.000000
    26  H   -0.006245  -0.000032   0.000006  -0.000005   0.000000  -0.000003
    27  H    0.320228  -0.044106   0.002229  -0.002219   0.000000  -0.000001
              19         20         21         22         23         24
     1  C    0.377627  -0.040488  -0.033312   0.000114   0.000000  -0.000011
     2  C   -0.029541   0.358662   0.363680  -0.007664   0.000012   0.000005
     3  C    0.000307  -0.021844  -0.023729  -0.057341   0.000810  -0.000027
     4  C    0.000900  -0.000403  -0.005423   0.366361   0.002998  -0.000025
     5  N   -0.000008  -0.000062   0.000090  -0.035022  -0.026936   0.000006
     6  C    0.000008   0.000027  -0.000002   0.004099   0.352730   0.000033
     7  C    0.000080  -0.000001  -0.000001   0.000083  -0.062506  -0.000054
     8  C    0.002299  -0.000163  -0.000322  -0.000020   0.004773   0.000112
     9  C   -0.000075  -0.000089   0.000074   0.000393   0.000030  -0.006134
    10  C   -0.002010  -0.002310   0.004252   0.006307  -0.000563   0.008822
    11  C   -0.000021   0.000002   0.000000   0.000006  -0.000038  -0.022688
    12  C   -0.000001  -0.000001   0.000000  -0.000000  -0.000013   0.359472
    13  C   -0.000001  -0.000000   0.000000  -0.000000   0.000161   0.004209
    14  C    0.000000   0.000000  -0.000000   0.000000   0.000053   0.000021
    15  O    0.000000  -0.000000   0.000000  -0.000000  -0.000002  -0.000001
    16  O   -0.000000  -0.000000  -0.000000  -0.000000   0.004703  -0.000003
    17  H   -0.028308  -0.001223  -0.003534  -0.000011   0.000000  -0.000000
    18  H   -0.032149  -0.004490   0.005225   0.000002   0.000000   0.000027
    19  H    0.578130   0.005521  -0.003639   0.000015  -0.000000   0.000001
    20  H    0.005521   0.618099  -0.035580   0.000174  -0.000000   0.000007
    21  H   -0.003639  -0.035580   0.602325   0.004814  -0.000000   0.000000
    22  H    0.000015   0.000174   0.004814   0.599634  -0.000270   0.000000
    23  H   -0.000000  -0.000000  -0.000000  -0.000270   0.579859  -0.000002
    24  H    0.000001   0.000007   0.000000   0.000000  -0.000002   0.586969
    25  H   -0.000000  -0.000000  -0.000000   0.000000   0.000003  -0.026567
    26  H    0.000000   0.000000  -0.000000   0.000000   0.000000  -0.030528
    27  H    0.000014   0.000000   0.000000  -0.000000  -0.000007  -0.000232
              25         26         27
     1  C    0.000000   0.000000  -0.000003
     2  C    0.000000   0.000000  -0.000001
     3  C    0.000007   0.000008   0.000069
     4  C    0.000001  -0.000000   0.000007
     5  N   -0.000001   0.000000  -0.000000
     6  C   -0.000026   0.000002   0.000232
     7  C    0.000026  -0.000037  -0.000107
     8  C    0.000019  -0.000385   0.008562
     9  C    0.000929  -0.003546  -0.019603
    10  C    0.000236   0.000958   0.000575
    11  C   -0.023174  -0.010202  -0.052315
    12  C    0.351657   0.369868   0.006976
    13  C    0.007352  -0.006245   0.320228
    14  C    0.001110  -0.000032  -0.044106
    15  O   -0.000085   0.000006   0.002229
    16  O    0.000028  -0.000005  -0.002219
    17  H   -0.000000   0.000000   0.000000
    18  H   -0.000000  -0.000003  -0.000001
    19  H   -0.000000   0.000000   0.000014
    20  H   -0.000000   0.000000   0.000000
    21  H   -0.000000  -0.000000   0.000000
    22  H    0.000000   0.000000  -0.000000
    23  H    0.000003   0.000000  -0.000007
    24  H   -0.026567  -0.030528  -0.000232
    25  H    0.567826  -0.025925  -0.000384
    26  H   -0.025925   0.540526   0.000305
    27  H   -0.000384   0.000305   0.660020
 Mulliken charges:
               1
     1  C   -0.390154
     2  C   -0.288796
     3  C    0.148099
     4  C   -0.069203
     5  N   -0.220101
     6  C   -0.017784
     7  C    0.164716
     8  C   -0.105681
     9  C    0.267355
    10  C    0.006034
    11  C    0.195963
    12  C   -0.494110
    13  C   -0.413241
    14  C    0.376697
    15  O   -0.318693
    16  O   -0.295553
    17  H    0.125010
    18  H    0.128256
    19  H    0.130851
    20  H    0.124163
    21  H    0.125082
    22  H    0.118328
    23  H    0.144208
    24  H    0.126586
    25  H    0.146968
    26  H    0.165234
    27  H    0.119764
 Sum of Mulliken charges =  -0.00000
 Mulliken charges with hydrogens summed into heavy atoms:
               1
     1  C   -0.006037
     2  C   -0.039550
     3  C    0.148099
     4  C    0.049125
     5  N   -0.220101
     6  C    0.126424
     7  C    0.164716
     8  C   -0.105681
     9  C    0.267355
    10  C    0.006034
    11  C    0.195963
    12  C   -0.055322
    13  C   -0.293476
    14  C    0.376697
    15  O   -0.318693
    16  O   -0.295553
 Electronic spatial extent (au):  <R**2>=           3395.3479
 Charge=             -0.0000 electrons
 Dipole moment (field-independent basis, Debye):
    X=             -6.4846    Y=             -2.1380    Z=              0.9084  Tot=              6.8881
 Quadrupole moment (field-independent basis, Debye-Ang):
   XX=           -107.1094   YY=            -90.3993   ZZ=            -90.8080
   XY=             -0.2886   XZ=              7.2692   YZ=             -1.8577
 Traceless Quadrupole moment (field-independent basis, Debye-Ang):
   XX=            -11.0038   YY=              5.7063   ZZ=              5.2975
   XY=             -0.2886   XZ=              7.2692   YZ=             -1.8577
 Octapole moment (field-independent basis, Debye-Ang**2):
  XXX=           -131.2440  YYY=             -4.5374  ZZZ=             -3.5775  XYY=              5.1880
  XXY=             -6.4635  XXZ=             11.4357  XZZ=             12.0896  YZZ=             -7.0090
  YYZ=              1.2498  XYZ=              5.3220
 Hexadecapole moment (field-independent basis, Debye-Ang**3):
 XXXX=          -3193.4490 YYYY=          -1156.6053 ZZZZ=           -462.2622 XXXY=             -4.7443
 XXXZ=             79.3692 YYYX=             23.7660 YYYZ=            -22.3952 ZZZX=             -0.8509
 ZZZY=            -10.3919 XXYY=           -672.1083 XXZZ=           -544.7995 YYZZ=           -279.8649
 XXYZ=              7.2780 YYXZ=             21.0784 ZZXY=              9.3439
 N-N= 1.041651067044D+03 E-N=-3.727354235796D+03  KE= 7.019840374280D+02
 PrsmSu:  requested number of processors reduced to:  13 ShMem   1 Linda.
 Calling FoFJK, ICntrl=      2127 FMM=F ISym2X=0 I1Cent= 0 IOpClX= 0 NMat=1 NMatS=1 NMatT=0.
 ***** Axes restored to original set *****
 -------------------------------------------------------------------
 Center     Atomic                   Forces (Hartrees/Bohr)
 Number     Number              X              Y              Z
 -------------------------------------------------------------------
      1        6          -0.004367642    0.000584772   -0.002788588
      2        6           0.002087712   -0.007564022    0.002907448
      3        6           0.018697714   -0.020467047    0.003520846
      4        6           0.000792302   -0.013682512    0.013703696
      5        7          -0.028288718    0.024405108   -0.010359613
      6        6           0.006716259    0.027691885    0.021286623
      7        6           0.026768498    0.005182988   -0.013813622
      8        6           0.020653302    0.021676933    0.000739570
      9        6          -0.086511206   -0.038334641   -0.057137250
     10        6           0.004682068   -0.001359176    0.041508316
     11        6          -0.002865502   -0.059562888   -0.026892603
     12        6           0.024362142   -0.000356195   -0.009045726
     13        6          -0.003251789    0.050167669    0.035956421
     14        6          -0.030872610    0.051867340   -0.054588709
     15        8           0.035656061   -0.026528874    0.041095756
     16        8           0.014765352    0.000315642    0.011467736
     17        1           0.000609620    0.000149832   -0.000188345
     18        1          -0.000259956    0.000857212    0.001640759
     19        1          -0.000595672   -0.000521190   -0.000458912
     20        1           0.000572880   -0.000166032   -0.000628514
     21        1           0.004588631   -0.000014710   -0.002100915
     22        1           0.003395428    0.000215792   -0.001003185
     23        1          -0.004220742   -0.004470826    0.002491539
     24        1           0.001063399    0.002468885    0.000699764
     25        1          -0.002920419    0.001497359   -0.007975819
     26        1          -0.000062291    0.003382704   -0.003087971
     27        1          -0.001194821   -0.017436010    0.013051297
 -------------------------------------------------------------------
 Cartesian Forces:  Max     0.086511206 RMS     0.022193460

 GradGradGradGradGradGradGradGradGradGradGradGradGradGradGradGradGradGrad
 Berny optimization.
 FormGI is forming the generalized inverse of G from B-inverse, IUseBI=4.
 Internal  Forces:  Max     0.066661267 RMS     0.014724075
 Search for a local minimum.
 Step number   1 out of a maximum of  146
 All quantities printed in internal units (Hartrees-Bohrs-Radians)
 Mixed Optimization -- RFO/linear search
 Second derivative matrix not updated -- first step.
 ITU=  0
     Eigenvalues ---    0.00387   0.00635   0.00995   0.01031   0.01177
     Eigenvalues ---    0.01232   0.01629   0.01742   0.02006   0.02267
     Eigenvalues ---    0.02343   0.02524   0.02684   0.02962   0.03470
     Eigenvalues ---    0.03958   0.04964   0.05484   0.05487   0.05533
     Eigenvalues ---    0.05613   0.07320   0.07730   0.07744   0.09545
     Eigenvalues ---    0.10821   0.12919   0.13000   0.15051   0.15985
     Eigenvalues ---    0.16000   0.16000   0.16000   0.16000   0.16000
     Eigenvalues ---    0.16000   0.16001   0.20204   0.21797   0.21996
     Eigenvalues ---    0.22479   0.22875   0.23650   0.24000   0.24900
     Eigenvalues ---    0.24921   0.24956   0.29240   0.29550   0.30573
     Eigenvalues ---    0.31362   0.31387   0.33415   0.33701   0.33957
     Eigenvalues ---    0.34008   0.34078   0.34104   0.34214   0.34362
     Eigenvalues ---    0.34455   0.34578   0.34696   0.35119   0.41084
     Eigenvalues ---    0.41782   0.46025   0.46756   0.48312   0.52073
     Eigenvalues ---    0.54104   0.55255   0.56058   0.63048   0.90705
 RFO step:  Lambda=-9.24011365D-02 EMin= 3.87172689D-03
 Linear search not attempted -- first point.
 Maximum step size (   0.300) exceeded in Quadratic search.
    -- Step size scaled by   0.735
 Iteration  1 RMS(Cart)=  0.08563542 RMS(Int)=  0.00288996
 Iteration  2 RMS(Cart)=  0.00383570 RMS(Int)=  0.00105953
 Iteration  3 RMS(Cart)=  0.00001073 RMS(Int)=  0.00105950
 Iteration  4 RMS(Cart)=  0.00000003 RMS(Int)=  0.00105950
 Variable       Old X    -DE/DX   Delta X   Delta X   Delta X     New X
                                 (Linear)    (Quad)   (Total)
    R1        2.88870   0.00460   0.00000   0.00872   0.00872   2.89742
    R2        2.06723  -0.00041   0.00000  -0.00069  -0.00069   2.06654
    R3        2.07155  -0.00136   0.00000  -0.00230  -0.00230   2.06924
    R4        2.06971  -0.00043   0.00000  -0.00072  -0.00072   2.06899
    R5        2.85326   0.00428   0.00000   0.00775   0.00775   2.86101
    R6        2.07402   0.00067   0.00000   0.00114   0.00114   2.07517
    R7        2.07199  -0.00057   0.00000  -0.00097  -0.00097   2.07102
    R8        2.54952   0.00763   0.00000   0.01080   0.01085   2.56037
    R9        2.67781   0.02559   0.00000   0.04343   0.04297   2.72078
   R10        2.61510   0.02166   0.00000   0.02434   0.02480   2.63990
   R11        2.05482   0.00093   0.00000   0.00154   0.00154   2.05636
   R12        2.46877  -0.01298   0.00000  -0.01881  -0.01834   2.45043
   R13        2.87889  -0.03024   0.00000  -0.06564  -0.06549   2.81340
   R14        2.08328  -0.00656   0.00000  -0.01132  -0.01132   2.07197
   R15        2.52501   0.02392   0.00000   0.02646   0.02571   2.55073
   R16        2.85586  -0.01936   0.00000  -0.04440  -0.04511   2.81075
   R17        2.54731   0.04413   0.00000   0.04833   0.05043   2.59775
   R18        3.08916   0.00355   0.00000  -0.00479  -0.00609   3.08307
   R19        2.46378   0.02813   0.00000   0.04139   0.04130   2.50508
   R20        2.60605   0.01141   0.00000   0.01932   0.02025   2.62630
   R21        2.79666   0.01685   0.00000   0.02828   0.02828   2.82494
   R22        2.54358   0.06666   0.00000   0.08154   0.08143   2.62502
   R23        2.07316  -0.00181   0.00000  -0.00308  -0.00308   2.07008
   R24        2.06569   0.00395   0.00000   0.00665   0.00665   2.07234
   R25        2.06171   0.00094   0.00000   0.00157   0.00157   2.06327
   R26        2.83337   0.02609   0.00000   0.04772   0.04785   2.88122
   R27        2.07837   0.01240   0.00000   0.02124   0.02124   2.09961
   R28        2.32610  -0.04405   0.00000  -0.03242  -0.03242   2.29368
   R29        2.63709  -0.00138   0.00000  -0.00699  -0.00756   2.62953
    A1        1.92608  -0.00102   0.00000  -0.00292  -0.00292   1.92316
    A2        1.94511   0.00110   0.00000   0.00330   0.00329   1.94841
    A3        1.93731   0.00099   0.00000   0.00277   0.00277   1.94008
    A4        1.87771   0.00011   0.00000   0.00056   0.00056   1.87827
    A5        1.88483  -0.00008   0.00000  -0.00038  -0.00038   1.88445
    A6        1.89062  -0.00118   0.00000  -0.00351  -0.00351   1.88711
    A7        1.99266  -0.00013   0.00000   0.00022   0.00022   1.99288
    A8        1.90063   0.00028   0.00000   0.00109   0.00108   1.90171
    A9        1.87386   0.00357   0.00000   0.01373   0.01373   1.88759
   A10        1.93563  -0.00065   0.00000  -0.00397  -0.00398   1.93165
   A11        1.88808  -0.00201   0.00000  -0.00663  -0.00666   1.88142
   A12        1.86791  -0.00100   0.00000  -0.00423  -0.00428   1.86363
   A13        2.16337   0.00182   0.00000  -0.00767  -0.00706   2.15631
   A14        2.07391   0.01076   0.00000   0.00998   0.01061   2.08453
   A15        2.04400  -0.01253   0.00000  -0.00183  -0.00310   2.04090
   A16        2.21992   0.00211   0.00000   0.01191   0.01161   2.23153
   A17        2.05568   0.00147   0.00000   0.00150   0.00165   2.05733
   A18        2.00564  -0.00343   0.00000  -0.01371  -0.01356   1.99208
   A19        2.15052   0.02794   0.00000   0.06061   0.06045   2.21097
   A20        2.31035  -0.01597   0.00000  -0.04076  -0.04137   2.26898
   A21        2.00677   0.00883   0.00000   0.02244   0.02251   2.02927
   A22        1.96579   0.00707   0.00000   0.01760   0.01765   1.98344
   A23        1.93410   0.00842   0.00000   0.04784   0.04613   1.98023
   A24        2.01460   0.00377   0.00000  -0.00242  -0.00290   2.01169
   A25        2.05115  -0.00029   0.00000   0.00936   0.00850   2.05964
   A26        2.00726   0.01830   0.00000   0.08141   0.08157   2.08884
   A27        2.18771   0.01018   0.00000   0.02306   0.02515   2.21285
   A28        2.34036  -0.00970   0.00000  -0.04990  -0.04855   2.29182
   A29        2.59068   0.02699   0.00000   0.05954   0.05569   2.64636
   A30        1.81831   0.00671   0.00000   0.03117   0.03058   1.84889
   A31        2.74537   0.02194   0.00000   0.05074   0.04974   2.79511
   A32        2.07709   0.01486   0.00000   0.03545   0.03434   2.11143
   A33        2.02295  -0.02623   0.00000  -0.05897  -0.05961   1.96334
   A34        2.17823   0.01279   0.00000   0.03085   0.02985   2.20807
   A35        1.95145  -0.00169   0.00000  -0.00315  -0.00317   1.94828
   A36        1.94234   0.00731   0.00000   0.02076   0.02075   1.96308
   A37        1.87913   0.00012   0.00000  -0.00086  -0.00084   1.87829
   A38        1.88532  -0.00123   0.00000  -0.00140  -0.00144   1.88388
   A39        1.88334   0.00184   0.00000   0.00662   0.00662   1.88996
   A40        1.92157  -0.00666   0.00000  -0.02294  -0.02291   1.89866
   A41        2.07027   0.01479   0.00000   0.05786   0.05770   2.12797
   A42        1.97089  -0.01258   0.00000  -0.05447  -0.05647   1.91441
   A43        1.59840   0.00855   0.00000   0.03838   0.04074   1.63915
   A44        2.02847   0.04975   0.00000   0.10867   0.10755   2.13603
   A45        2.08375  -0.00341   0.00000  -0.01563  -0.01575   2.06800
   A46        2.16539  -0.04756   0.00000  -0.09957  -0.09984   2.06555
   A47        2.31244   0.00719   0.00000  -0.01354  -0.01422   2.29821
    D1       -3.03661  -0.00032   0.00000  -0.00306  -0.00306  -3.03967
    D2        1.07291   0.00040   0.00000   0.00116   0.00116   1.07407
    D3       -0.94379  -0.00045   0.00000  -0.00169  -0.00169  -0.94548
    D4        1.16143  -0.00051   0.00000  -0.00396  -0.00397   1.15746
    D5       -1.01224   0.00022   0.00000   0.00025   0.00025  -1.01198
    D6       -3.02894  -0.00063   0.00000  -0.00260  -0.00260  -3.03153
    D7       -0.94760  -0.00044   0.00000  -0.00365  -0.00366  -0.95126
    D8       -3.12126   0.00028   0.00000   0.00056   0.00057  -3.12070
    D9        1.14522  -0.00057   0.00000  -0.00229  -0.00229   1.14294
   D10        2.54355   0.00029   0.00000   0.00138   0.00131   2.54486
   D11       -0.52984  -0.00020   0.00000  -0.00727  -0.00721  -0.53705
   D12       -1.58475   0.00006   0.00000  -0.00015  -0.00023  -1.58497
   D13        1.62504  -0.00044   0.00000  -0.00880  -0.00875   1.61630
   D14        0.45873  -0.00273   0.00000  -0.01147  -0.01152   0.44721
   D15       -2.61467  -0.00322   0.00000  -0.02012  -0.02004  -2.63470
   D16        3.12920   0.00523   0.00000  -0.00528  -0.00504   3.12416
   D17        0.05829   0.00250   0.00000   0.00087   0.00087   0.05916
   D18       -0.07951   0.00655   0.00000   0.00366   0.00378  -0.07573
   D19        3.13276   0.00382   0.00000   0.00981   0.00969  -3.14073
   D20        1.97410   0.01972   0.00000   0.08133   0.08280   2.05691
   D21        2.03860   0.00391   0.00000   0.01127   0.01022   2.04883
   D22       -1.10394   0.01877   0.00000   0.07355   0.07504  -1.02890
   D23       -1.03944   0.00296   0.00000   0.00349   0.00246  -1.03698
   D24        0.78828  -0.00060   0.00000  -0.01035  -0.01075   0.77753
   D25       -2.42226   0.00223   0.00000  -0.01585  -0.01598  -2.43825
   D26        0.00780  -0.00953   0.00000  -0.05140  -0.05186  -0.04406
   D27       -3.10617  -0.00657   0.00000  -0.01598  -0.01635  -3.12252
   D28       -0.47149   0.00641   0.00000   0.06040   0.06030  -0.41119
   D29       -2.85788  -0.00638   0.00000  -0.00389  -0.00425  -2.86212
   D30        2.64298   0.00354   0.00000   0.02569   0.02563   2.66861
   D31        0.25659  -0.00926   0.00000  -0.03860  -0.03891   0.21767
   D32       -1.40123  -0.01078   0.00000  -0.05769  -0.05945  -1.46068
   D33       -0.38364   0.00799   0.00000   0.00551   0.00548  -0.37816
   D34        0.96772   0.00436   0.00000   0.00300   0.00224   0.96996
   D35        1.98531   0.02313   0.00000   0.06621   0.06717   2.05248
   D36        2.06827   0.02569   0.00000   0.11659   0.11556   2.18383
   D37       -0.26598   0.00799   0.00000   0.03132   0.03159  -0.23438
   D38       -0.92333   0.01078   0.00000   0.04317   0.03997  -0.88336
   D39        1.45002  -0.01305   0.00000  -0.07038  -0.07205   1.37797
   D40        2.80368  -0.00700   0.00000  -0.04575  -0.04758   2.75610
   D41        2.94236  -0.01692   0.00000  -0.09560  -0.09232   2.85005
   D42       -0.30059  -0.00166   0.00000  -0.01872  -0.01758  -0.31817
   D43        0.15530   0.01552   0.00000   0.06801   0.06905   0.22434
   D44       -3.08765   0.03078   0.00000   0.14489   0.14378  -2.94388
   D45        0.01250   0.00657   0.00000   0.03427   0.03516   0.04766
   D46       -2.09758   0.00419   0.00000   0.02372   0.02456  -2.07303
   D47        2.07829   0.00792   0.00000   0.04000   0.04089   2.11918
   D48       -3.01802  -0.00776   0.00000  -0.04445  -0.04531  -3.06332
   D49        1.15508  -0.01013   0.00000  -0.05500  -0.05590   1.09918
   D50       -0.95223  -0.00641   0.00000  -0.03871  -0.03957  -0.99180
   D51        1.12573   0.00314   0.00000   0.03228   0.03472   1.16045
   D52       -0.71315  -0.00795   0.00000  -0.01383  -0.01069  -0.72384
   D53       -2.12384   0.01934   0.00000   0.11402   0.11429  -2.00955
   D54        2.32046   0.00825   0.00000   0.06791   0.06888   2.38934
   D55        2.53890   0.00064   0.00000   0.00849   0.00971   2.54861
   D56       -0.71126  -0.01424   0.00000  -0.06125  -0.06126  -0.77252
   D57       -1.69668  -0.00422   0.00000  -0.01363  -0.01093  -1.70761
   D58        1.33634  -0.01910   0.00000  -0.08337  -0.08190   1.25444
   D59       -0.00246  -0.00075   0.00000   0.01031   0.00778   0.00532
   D60        3.02153  -0.01019   0.00000  -0.05101  -0.04681   2.97472
         Item               Value     Threshold  Converged?
 Maximum Force            0.066661     0.000450     NO 
 RMS     Force            0.014724     0.000300     NO 
 Maximum Displacement     0.280556     0.001800     NO 
 RMS     Displacement     0.084091     0.001200     NO 
 Predicted change in Energy=-5.305389D-02
 GradGradGradGradGradGradGradGradGradGradGradGradGradGradGradGradGradGrad

                          Input orientation:                          
 ---------------------------------------------------------------------
 Center     Atomic      Atomic             Coordinates (Angstroms)
 Number     Number       Type             X           Y           Z
 ---------------------------------------------------------------------
      1          6           0        1.085972   -0.060305    0.079336
      2          6           0        2.617785    0.005122    0.089919
      3          6           0        3.184519    1.340849   -0.342262
      4          6           0        4.318031    1.875237    0.172817
      5          7           0        4.929168    3.083590   -0.170600
      6          6           0        4.341298    4.225343   -0.350246
      7          6           0        2.895183    4.575616   -0.299852
      8          6           0        2.079478    3.524624   -0.527816
      9          6           0        1.789979    3.155343   -1.819922
     10          6           0        2.463396    2.139185   -1.299127
     11          6           0        1.340502    3.895613   -2.906871
     12          6           0        1.445024    3.360017   -4.298603
     13          6           0        0.784003    5.110841   -2.528544
     14          6           0        1.621159    6.221067   -1.903078
     15          8           0        1.394504    7.396786   -2.101915
     16          8           0        2.537129    5.883259   -0.911554
     17          1           0        0.745937   -1.011401    0.498476
     18          1           0        0.685630    0.015985   -0.936993
     19          1           0        0.651790    0.747111    0.677906
     20          1           0        3.013850   -0.805104   -0.536625
     21          1           0        2.960749   -0.189208    1.112509
     22          1           0        4.875650    1.284548    0.896889
     23          1           0        4.987208    5.064146   -0.635534
     24          1           0        1.855716    2.344548   -4.310648
     25          1           0        2.073860    3.986333   -4.942732
     26          1           0        0.436874    3.326813   -4.716503
     27          1           0        0.156577    4.969340   -1.622575
 ---------------------------------------------------------------------
                    Distance matrix (angstroms):
                    1          2          3          4          5
     1  C    0.000000
     2  C    1.533247   0.000000
     3  C    2.558296   1.513979   0.000000
     4  C    3.768457   2.528841   1.354889   0.000000
     5  N    4.971590   3.858409   2.471925   1.396976   0.000000
     6  C    5.398932   4.579793   3.107814   2.407724   1.296713
     7  C    4.990871   4.595464   3.247958   3.088682   2.525855
     8  C    3.769271   3.613621   2.454469   2.867487   2.905658
     9  C    3.800421   3.775797   2.724080   3.464206   3.546818
    10  C    2.938573   2.550981   1.439774   2.382427   2.871499
    11  C    4.963014   5.074260   4.062566   4.736251   4.585312
    12  C    5.567214   5.647106   4.770275   5.518364   5.408889
    13  C    5.799394   6.023907   4.975454   5.500530   5.181895
    14  C    6.608481   6.603277   5.356937   5.519845   4.877311
    15  O    7.775683   7.806231   6.555525   6.648978   5.901482
    16  O    6.197876   5.963383   4.623493   4.517932   3.756196
    17  H    1.093566   2.168883   3.490932   4.604192   5.892031
    18  H    1.094997   2.188124   2.890228   4.228809   5.291991
    19  H    1.094861   2.182066   2.794277   3.868992   4.947227
    20  H    2.156582   1.098131   2.161486   3.064054   4.350214
    21  H    2.144494   1.095938   2.123089   2.643325   4.028926
    22  H    4.103496   2.717735   2.097281   1.088179   2.092594
    23  H    6.480021   5.633308   4.147123   3.357137   2.035223
    24  H    5.064364   5.041691   4.303629   5.136605   5.208867
    25  H    6.524751   6.439990   5.421852   5.971756   5.633913
    26  H    5.907111   6.236320   5.534220   6.409048   6.395710
    27  H    5.390511   5.799452   4.896283   5.487677   5.333096
                    6          7          8          9         10
     6  C    0.000000
     7  C    1.488785   0.000000
     8  C    2.374525   1.349788   0.000000
     9  C    3.132743   2.355688   1.374669   0.000000
    10  C    2.962929   2.668556   1.631488   1.325630   0.000000
    11  C    3.955987   3.110625   2.518655   1.389780   2.632636
    12  C    4.972597   4.423873   3.827331   2.510925   3.394757
    13  C    4.264204   3.116186   2.863084   2.310433   3.628025
    14  C    3.713941   2.626971   3.061406   3.071495   4.211399
    15  O    4.670117   3.668578   4.235636   4.269164   5.424884
    16  O    2.513718   1.487384   2.433076   2.970671   3.764803
    17  H    6.408622   6.039151   4.838091   4.881265   4.013381
    18  H    5.605968   5.106692   3.797470   3.443068   2.792770
    19  H    5.173747   4.543817   3.347631   3.651602   3.021331
    20  H    5.205983   5.387235   4.429410   4.339338   3.090833
    21  H    4.851168   4.970172   4.154498   4.599552   3.388917
    22  H    3.238696   4.023129   3.855684   4.516890   3.372218
    23  H    1.096439   2.174376   3.291902   3.907502   3.919870
    24  H    5.039871   4.705809   3.968938   2.620196   3.079076
    25  H    5.127312   4.751648   4.438997   3.243929   4.103603
    26  H    5.925883   5.206688   4.503596   3.201637   4.146772
    27  H    4.436693   3.066688   2.642584   2.448986   3.665489
                   11         12         13         14         15
    11  C    0.000000
    12  C    1.494893   0.000000
    13  C    1.389100   2.575934   0.000000
    14  C    2.548354   3.735662   1.524678   0.000000
    15  O    3.592921   4.596030   2.404219   1.213764   0.000000
    16  O    3.060056   4.362516   2.506938   1.391487   2.239043
    17  H    6.002390   6.527633   6.829798   7.670859   8.824981
    18  H    4.400089   4.802046   5.338564   6.349140   7.505715
    19  H    4.820582   5.676454   5.416727   6.129057   7.245495
    20  H    5.524030   5.827687   6.628602   7.292042   8.505494
    21  H    5.955366   6.646394   6.788667   7.209708   8.386474
    22  H    5.812359   6.562766   6.566253   6.542228   7.646610
    23  H    4.452292   5.373006   4.610054   3.778282   4.527582
    24  H    2.154492   1.095441   3.460756   4.569334   5.533202
    25  H    2.165820   1.096636   2.959147   3.799799   4.490318
    26  H    2.101153   1.091838   2.844366   4.206495   4.931309
    27  H    2.050362   3.378038   1.111065   1.946922   2.766717
                   16         17         18         19         20
    16  O    0.000000
    17  H    7.261741   0.000000
    18  H    6.152527   1.766276   0.000000
    19  H    5.697446   1.770148   1.773017   0.000000
    20  H    6.715805   2.501483   2.501018   3.076326   0.000000
    21  H    6.414915   2.440989   3.068995   2.529202   1.761189
    22  H    5.466926   4.741797   4.746434   4.263541   3.144504
    23  H    2.598080   7.495774   6.639154   6.257615   6.192901
    24  H    4.953851   5.968390   4.262963   5.374654   5.050232
    25  H    4.479212   7.506496   5.808338   6.641266   6.576872
    26  H    5.042234   6.790555   5.030721   5.983368   6.417549
    27  H    2.647230   6.373027   5.028483   4.833701   6.533568
                   21         22         23         24         25
    21  H    0.000000
    22  H    2.425962   0.000000
    23  H    5.895754   4.079966   0.000000
    24  H    6.087007   6.112450   5.541563   0.000000
    25  H    7.408621   7.017894   5.310483   1.772731   0.000000
    26  H    7.260147   7.442026   6.354382   1.772759   1.779290
    27  H    6.477244   6.495771   4.931352   4.123390   3.957994
                   26         27
    26  H    0.000000
    27  H    3.514093   0.000000
 Stoichiometry    C13H11NO2
 Framework group  C1[X(C13H11NO2)]
 Deg. of freedom    75
 Full point group                 C1      NOp   1
 Largest Abelian subgroup         C1      NOp   1
 Largest concise Abelian subgroup C1      NOp   1
                         Standard orientation:                         
 ---------------------------------------------------------------------
 Center     Atomic      Atomic             Coordinates (Angstroms)
 Number     Number       Type             X           Y           Z
 ---------------------------------------------------------------------
      1          6           0       -3.364745   -1.625011   -1.252406
      2          6           0       -3.624156   -0.498860   -0.244767
      3          6           0       -2.372420    0.205276    0.234276
      4          6           0       -2.324359    1.525670    0.534233
      5          7           0       -1.230614    2.259986    0.999036
      6          6           0       -0.014365    2.204429    0.552813
      7          6           0        0.577400    1.343909   -0.508225
      8          6           0       -0.111415    0.202747   -0.720851
      9          6           0        0.117147   -0.889856    0.081454
     10          6           0       -1.136070   -0.527847    0.317451
     11          6           0        1.296058   -1.526803    0.450173
     12          6           0        1.332997   -2.462757    1.615218
     13          6           0        2.355531   -1.212499   -0.391450
     14          6           0        2.939035    0.194326   -0.462213
     15          8           0        4.119181    0.399558   -0.658068
     16          8           0        2.063144    1.274322   -0.513787
     17          1           0       -4.312260   -2.017669   -1.631773
     18          1           0       -2.819982   -2.457864   -0.795671
     19          1           0       -2.782240   -1.264633   -2.106535
     20          1           0       -4.190523   -0.903509    0.604574
     21          1           0       -4.265659    0.248393   -0.725563
     22          1           0       -3.250307    2.094434    0.477137
     23          1           0        0.717612    2.845719    1.057923
     24          1           0        0.340899   -2.591161    2.061586
     25          1           0        2.016675   -2.124595    2.403154
     26          1           0        1.671937   -3.433702    1.248482
     27          1           0        2.005710   -1.202688   -1.445962
 ---------------------------------------------------------------------
 Rotational constants (GHZ):           0.9200076           0.4092433           0.3292372
 Standard basis: 6-31G(2df,p) (6D, 7F)
 There are   551 symmetry adapted cartesian basis functions of A   symmetry.
 There are   503 symmetry adapted basis functions of A   symmetry.
   503 basis functions,   781 primitive gaussians,   551 cartesian basis functions
    56 alpha electrons       56 beta electrons
       nuclear repulsion energy      1032.6283521531 Hartrees.
[...]
 15,0.00023387,-0.00091429,0.00066551,0.00054561,0.00032430,-0.00061641
 ,-0.00025562,-0.00005290,0.00035462,-0.00027549,-0.00027070,0.00010447
 ,0.00033188,0.00040805,0.00048877,0.00068027,0.00009602,-0.00019651,-0
 .00244160,-0.00003929,-0.00101701,-0.06235781,0.08266125,-0.00998269,0
 .00394576,0.00751875,0.10985716,-0.04829954,-0.13831986,-0.00052447,-0
 .00205892,0.00115992,0.00040382,-0.00036395,0.00049922,-0.00035480,-0.
 00010704,-0.00011333,0.00009968,-0.00010802,0.00012888,-0.00015980,-0.
 00003019,0.00011886,0.00042778,0.00016570,-0.00004754,0.00042595,-0.00
 048385,0.00017833,-0.00121334,0.00115971,-0.00057910,-0.00022310,0.000
 15931,-0.00011650,-0.00001081,-0.00001593,-0.00000677,0.00004128,-0.00
 026020,0.00012034,0.00029132,0.00012537,-0.00007621,-0.00010701,-0.000
 03191,0.00008105,-0.00013337,0.00004460,-0.00011127,0.00076153,0.00036
 633,0.00029419,0.00042243,0.00040098,0.00084074,-0.00291422,-0.0006389
 3,0.00025774,-0.11890669,0.05480448,0.14890165,-0.00656644,0.01163483,
 -0.02818750,-0.05306612,0.01508657,-0.03705060,-0.00043470,0.00235202,
 0.00041317,0.00046881,-0.00112052,0.00063910,0.00016079,0.00045730,0.0
 0012094,-0.00011024,-0.00013749,0.00003898,-0.00012955,-0.00007535,0.0
 0003868,-0.00005020,0.00066243,0.00002318,0.00076867,-0.00057587,0.000
 52485,0.00002746,-0.00026737,-0.00068067,-0.00027657,0.00034213,-0.000
 32391,0.00009927,-0.00001173,0.00003102,0.00002601,-0.00029023,0.00009
 419,0.00021094,0.00009495,-0.00000586,-0.00005999,-0.00000975,0.000025
 18,-0.00012974,0.00008532,-0.00015804,0.00128833,0.00001778,0.00060998
 ,-0.00532739,-0.00215796,-0.00214412,0.00109516,0.00069669,0.00051441,
 0.00346405,-0.00924511,0.02178414,0.05850174,-0.00224597,0.00436700,-0
 .01089864,0.01675885,-0.08618157,0.09116200,0.00756917,-0.02163528,0.0
 2900160,0.00244824,0.00085641,0.00138103,-0.00013765,0.00060003,-0.000
 67805,0.00025052,-0.00034530,0.00032606,-0.00034701,0.00014043,-0.0000
 0379,0.00242667,-0.00031278,-0.00121085,0.00135084,-0.00144412,0.00072
 068,-0.00519060,-0.00190350,-0.00049435,-0.00071647,0.00072515,-0.0003
 3319,0.00009547,-0.00018408,0.00010832,-0.00000159,-0.00048921,0.00020
 546,0.00055317,0.00025531,-0.00019212,-0.00020966,-0.00006361,0.000183
 85,-0.00034199,0.00009273,-0.00017023,0.00055965,0.00053560,-0.0001758
 3,-0.00256037,-0.00008574,-0.00102889,0.00047233,0.00006700,0.00049242
 ,-0.00178691,0.00436432,-0.00884445,-0.01768066,0.10024385,-0.00229193
 ,0.00349085,-0.00990089,-0.03808301,0.08935722,-0.24462513,0.00047254,
 0.00031434,0.00516701,-0.00125544,-0.00085326,0.00004430,0.00060185,0.
 00021178,0.00040644,-0.00025759,-0.00004429,0.00001854,0.00009403,0.00
 005964,-0.00008535,-0.00008871,0.00001748,-0.00030557,0.00020074,0.000
 04883,0.00018101,0.00061489,-0.00084165,-0.00028130,-0.00002844,-0.000
 02838,0.00006234,0.00005394,-0.00004358,0.00000458,-0.00001144,0.00008
 691,-0.00005364,-0.00007582,-0.00005515,0.00008297,0.00003404,0.000020
 03,-0.00003918,0.00003899,0.00005284,-0.00001730,0.00014765,-0.0004390
 6,0.00012474,-0.00211225,-0.00113230,0.00089068,-0.00007067,-0.0000070
 0,0.00094151,-0.00266415,0.00805267,-0.02038609,0.04394849,-0.09863581
 ,0.26763833,-0.00011737,-0.00032085,0.00032033,-0.00003337,0.00198096,
 0.00014968,-0.00936703,0.01015002,-0.02280726,-0.08616866,0.06135482,-
 0.07902743,-0.00089640,-0.01542456,0.01434046,0.00854889,-0.00596525,-
 0.00313917,-0.00257137,-0.00242656,-0.00061852,0.00086488,0.00260643,-
 0.00140962,-0.00043590,0.00040995,0.00091206,0.00062722,-0.00522411,-0
 .00179052,-0.00014465,0.00013928,0.00036561,-0.00000979,-0.00002376,-0
 .00002361,0.00012118,0.00031633,-0.00018104,-0.00039404,-0.00033555,0.
 00008996,0.00014996,0.00006965,0.00005877,0.00097503,0.00085290,0.0012
 0017,-0.00005316,-0.00006096,0.00001156,0.00021034,0.00006892,0.000171
 66,0.00003882,0.00002640,-0.00003196,0.00001768,-0.00014696,0.00006287
 ,0.00009686,-0.00113413,0.00075662,0.08878650,-0.00005257,0.00011322,-
 0.00000349,0.00010965,0.00133570,-0.00070859,-0.00410997,0.00696074,-0
 .00339900,0.05311385,-0.12437804,0.09908462,0.00343035,-0.03478693,0.0
 2367169,-0.00333967,0.00164927,0.00346530,0.00162944,0.00104020,0.0001
 2252,-0.00126825,-0.00192899,0.00071717,-0.00010825,0.00033217,-0.0002
 2159,-0.00256924,0.00152376,-0.00136959,-0.00019546,0.00005868,0.00003
 290,-0.00003692,-0.00003721,0.00003301,0.00017891,0.00010911,0.0000729
 2,-0.00033005,0.00006243,-0.00065923,-0.00002655,-0.00007852,0.0002379
 7,0.00056193,-0.00115356,0.00020552,0.00002207,0.00001612,0.00001392,-
 0.00002445,-0.00008294,0.00001529,0.00000350,-0.00000858,0.00000380,-0
 .00003125,0.00000474,0.00003698,0.00014685,0.00025232,0.00036630,-0.04
 725021,0.14963456,0.00000348,-0.00037552,0.00025023,0.00060469,0.00048
 382,0.00008782,-0.00616232,0.01227624,-0.00190803,-0.08380088,0.098056
 37,-0.18906527,0.01133924,0.00933161,0.00048619,-0.00863643,0.00243656
 ,0.00593960,0.00261122,0.00288567,-0.00028284,-0.00075982,-0.00298664,
 0.00134504,-0.00079957,0.00008016,-0.00066549,-0.00445374,0.00187354,-
 0.00323750,-0.00001631,-0.00030855,0.00060177,-0.00010497,0.00004061,-
 0.00002512,0.00006671,0.00041824,-0.00029924,-0.00022320,0.00004189,0.
 00037181,0.00009474,0.00000479,-0.00030615,-0.00028064,-0.00088095,-0.
 00103299,-0.00005068,-0.00003618,-0.00002473,0.00015652,0.00008380,0.0
 0009436,0.00006030,0.00004330,-0.00001506,-0.00006511,-0.00020579,-0.0
 0023205,-0.00028108,-0.00076869,0.00008691,0.09031398,-0.12191690,0.18
 789497,0.00001613,-0.00001312,-0.00000274,0.00006446,0.00006191,-0.000
 01726,-0.00058500,-0.00034872,-0.00021798,0.00042646,0.00311683,-0.000
 80477,0.01133229,0.00022961,-0.00181654,-0.25188628,-0.10187334,0.0626
 5203,-0.01788109,-0.01537008,0.00833171,-0.00772341,0.00028326,-0.0024
 7750,0.00039267,0.00011851,-0.00017668,0.00100675,-0.00012317,0.000551
 74,0.00011591,-0.00041100,0.00036855,0.00003963,0.00007778,-0.00002488
 ,0.00029063,0.00061317,-0.00006896,-0.00115893,-0.00000970,-0.00084142
 ,0.00026850,-0.00009661,0.00017538,0.00252948,-0.00082041,0.00202328,-
 0.00000787,-0.00001009,-0.00000168,-0.00000438,0.00000306,0.00000309,0
 .00000164,0.00000528,-0.00000060,0.00000612,-0.00004167,0.00000069,0.0
 0001105,-0.00001044,0.00001151,-0.00026131,0.00018126,0.00033890,0.262
 96832,0.00004522,0.00002671,-0.00000399,0.00019495,0.00004754,-0.00007
 230,-0.00140776,0.00100790,-0.00052999,0.00226797,0.00175021,0.0048297
 2,-0.02058935,-0.01846624,0.01288773,-0.10520753,-0.10368456,0.0378302
 3,0.00558692,0.00841030,0.00185858,0.00381058,0.00509618,0.00648375,0.
 00220124,-0.00100667,-0.00020308,-0.00136169,-0.00196517,-0.00065141,-
 0.00029952,0.00017560,-0.00075565,-0.00001386,0.00010573,-0.00007120,-
 0.00000886,-0.00041712,-0.00000466,0.00068052,0.00008886,0.00058891,-0
 .00009005,0.00010158,-0.00054615,-0.00064003,0.00019878,-0.00342672,0.
 00000037,-0.00001794,0.00001003,0.00000012,0.00001528,0.00000540,0.000
 00976,0.00001468,-0.00000047,0.00000102,-0.00012088,-0.00003782,-0.000
 02495,-0.00001944,-0.00001264,0.00036494,-0.00065909,-0.00051146,0.114
 53391,0.10933247,-0.00004818,0.00015420,0.00000327,0.00049255,-0.00022
 771,0.00042384,-0.00015961,0.00162511,0.00071464,0.00183866,0.00164274
 ,0.00045082,0.01148024,0.01983264,-0.01135016,0.06334368,0.03297618,-0
 .06795378,-0.01034174,-0.00109533,0.01192669,0.00037378,0.00731212,0.0
 0707627,0.00308022,-0.00255462,0.00012682,-0.00291976,-0.00028799,-0.0
 0208278,-0.00062426,0.00010969,-0.00122064,0.00013818,0.00022048,-0.00
 008927,-0.00004132,-0.00073065,0.00018223,0.00103767,0.00000207,0.0006
 1569,-0.00013766,0.00015422,-0.00066316,0.00038653,-0.00154627,-0.0029
 8455,0.00006243,0.00001463,0.00002661,0.00001625,0.00000869,0.00003082
 ,0.00001075,0.00000517,-0.00000607,-0.00007620,-0.00006247,-0.00002994
 ,-0.00003704,-0.00013688,0.00000498,0.00024894,0.00022289,-0.00002820,
 -0.06806585,-0.05765110,0.06494047,0.00015588,-0.00006632,0.00041635,0
 .00012357,0.00011020,-0.00003451,-0.00021758,0.00017740,-0.00002597,0.
 00016761,0.00013782,-0.00001568,-0.00006343,-0.00022302,0.00015766,-0.
 00005837,0.00001696,-0.00006047,-0.00003508,0.00051996,-0.00027132,-0.
 00002284,-0.00006781,0.00034543,0.00007481,0.00021618,-0.00044164,0.00
 072969,-0.00045303,0.00039741,-0.00196814,0.00131812,-0.00152272,-0.15
 527338,0.12726728,-0.02395096,-0.00012714,0.00015829,-0.00038316,-0.00
 066533,-0.00053724,0.00075671,0.00019963,0.00002673,-0.00033351,0.0005
 5759,-0.00006735,0.00045232,-0.00004000,0.00003045,-0.00011336,-0.0000
 9646,-0.00011941,-0.00013047,-0.00001316,0.00003010,-0.00007527,-0.000
 01226,-0.00004104,-0.00000683,-0.00007770,-0.00005379,-0.00003847,-0.0
 0000180,0.00000269,0.00002954,-0.00002480,-0.00002669,-0.00002376,0.16
 675350,0.00006019,-0.00005545,0.00015136,0.00001028,0.00003988,-0.0000
 5592,-0.00005164,0.00000359,0.00005492,-0.00009410,-0.00005141,0.00003
 907,0.00001029,0.00006566,-0.00011596,-0.00009976,0.00005409,-0.000016
 89,-0.00000353,-0.00037602,0.00011434,-0.00038082,-0.00012804,-0.00073
 539,-0.00039402,-0.00002532,0.00222810,-0.00025197,0.00030687,-0.00048
 881,0.00976863,-0.01570543,-0.00039815,0.12654849,-0.18858763,0.034341
 17,0.00191048,0.00036083,-0.00373953,0.00133347,-0.00022883,0.00103150
 ,-0.00056822,-0.00007088,0.00001206,-0.00015729,0.00034954,-0.00032858
 ,-0.00000098,-0.00000314,-0.00001714,-0.00001768,0.00001991,-0.0000504
 2,-0.00000789,0.00001192,-0.00003174,-0.00000058,0.00001878,0.00002046
 ,-0.00001986,-0.00000393,-0.00000010,0.00001831,-0.00001067,-0.0000152
 7,-0.00000399,0.00000992,0.00001557,-0.14047726,0.20674472,-0.00003586
 ,-0.00002441,-0.00016673,-0.00004750,0.00007429,0.00004246,-0.00031935
 ,0.00032471,0.00009276,-0.00034841,-0.00011150,-0.00011453,0.00019144,
 0.00015568,-0.00005400,-0.00011358,0.00007106,-0.00006704,0.00032774,-
 0.00082957,0.00048704,0.00005018,-0.00018333,0.00025785,0.00010774,-0.
 00041836,0.00051901,0.00044341,-0.00006701,-0.00003035,0.01912741,-0.0
 2064209,0.00606029,-0.02508745,0.03334097,-0.05604297,0.00114141,-0.00
 276582,-0.00289695,0.00134945,0.00029046,-0.00086333,-0.00045254,0.000
 13392,0.00056761,-0.00104542,0.00007630,-0.00044959,-0.00000053,-0.000
 04331,0.00006324,0.00007463,0.00012675,0.00010124,0.00000377,-0.000006
 90,0.00001600,0.00000345,0.00001997,-0.00003629,0.00001122,-0.00003939
 ,0.00001086,0.00004733,-0.00000287,0.00000602,0.00002559,0.00002973,0.
 00003865,0.02890363,-0.03099311,0.05766457,0.00004787,-0.00001161,0.00
 009660,0.00002114,0.00002005,0.00002466,0.00013469,0.00000139,0.000097
 72,0.00005598,-0.00003098,-0.00002059,-0.00002104,-0.00001311,-0.00004
 908,0.00009699,-0.00003850,0.00014121,-0.00029030,0.00039999,-0.000296
 80,0.00054479,0.00012795,0.00011785,0.00071224,0.00017590,-0.00065669,
 -0.00009590,0.00002343,0.00020879,-0.00226048,-0.00510231,0.00281469,-
 0.07623318,-0.05100439,0.06684829,-0.00045600,0.00050408,-0.00125260,0
 .00077536,-0.00044102,-0.00106296,-0.00075360,0.00012828,0.00068508,0.
 00038925,-0.00020504,0.00042122,-0.00000600,0.00000600,-0.00003295,-0.
 00007988,-0.00004084,-0.00002021,0.00000089,0.00001604,-0.00004280,0.0
 0001302,-0.00002989,0.00000235,-0.00000588,-0.00001587,-0.00001275,-0.
 00000088,-0.00000322,0.00001216,-0.00001053,-0.00002201,-0.00002120,0.
 00816902,0.01261783,-0.01643560,0.07833187,-0.00005453,0.00003907,-0.0
 0016140,0.00000302,-0.00003110,-0.00010938,-0.00004020,0.00015274,-0.0
 0001007,-0.00012933,-0.00007178,0.00014268,0.00004162,0.00011920,-0.00
 020732,0.00009932,-0.00020965,0.00031982,-0.00026958,0.00028723,-0.000
 30236,-0.00035056,0.00040644,-0.00031806,-0.00060744,-0.00172778,-0.00
 248919,-0.00020221,-0.00035141,-0.00003818,0.00701857,0.01428712,-0.01
 375935,-0.05246527,-0.14903219,0.11974980,0.00035160,-0.00089475,0.001
 56100,0.00000777,0.00038154,-0.00406870,-0.00035548,-0.00025476,0.0013
 9862,0.00002555,-0.00076188,0.00079378,0.00001870,-0.00002092,0.000051
 23,0.00002853,0.00004355,0.00005783,0.00000288,-0.00001160,0.00002644,
 -0.00000336,0.00001192,-0.00000145,0.00002756,0.00005007,0.00002309,-0
 .00000419,-0.00000130,-0.00000918,-0.00002023,0.00000592,-0.00001726,-
 0.00902895,-0.01198089,0.01407674,0.05927009,0.15778076,-0.00004258,0.
 00003735,-0.00005830,0.00008238,-0.00004755,-0.00015894,0.00005187,0.0
 0020479,0.00013441,-0.00023552,-0.00024949,0.00026595,-0.00001110,0.00
 041895,-0.00055071,0.00036761,-0.00048999,0.00078212,-0.00098504,0.000
 86289,-0.00061315,0.00113693,0.00014388,-0.00027304,0.00086377,-0.0030
 4254,-0.00193303,0.00000415,-0.00020442,0.00027547,0.00887386,0.016481
 40,-0.02488225,0.06564458,0.11770495,-0.18425908,-0.00064221,-0.000297
 60,0.00218617,0.00002611,0.00000182,-0.00386748,-0.00043250,0.00054649
 ,0.00197233,0.00026049,-0.00089712,0.00116847,0.00001432,0.00000659,0.
 00001273,-0.00000555,0.00000165,0.00001163,-0.00000041,-0.00000326,0.0
 0000047,-0.00000320,0.00000345,0.00000262,0.00002306,0.00006780,0.0000
 0619,-0.00000553,0.00000789,-0.00001774,-0.00003321,-0.00004361,-0.000
 09028,0.00075818,0.00120747,-0.00242267,-0.07182787,-0.12643201,0.2041
 7234,-0.00000099,0.00001769,-0.00009530,-0.00000491,-0.00004794,0.0000
 3103,-0.00004559,0.00003773,-0.00006954,0.00003701,0.00006503,0.000041
 02,0.00000806,-0.00005967,0.00009572,-0.00003903,-0.00001231,-0.000062
 65,0.00007789,0.00024336,-0.00008414,-0.00046012,-0.00003681,-0.000218
 55,0.00016262,-0.00054587,0.00046290,0.00025317,-0.00021567,-0.0000188
 2,0.00715365,0.00257871,-0.00012206,-0.23374767,-0.09081710,-0.0673825
 2,-0.00017106,0.00086940,-0.00002551,-0.00081974,-0.00067340,0.0013333
 8,0.00030278,-0.00005026,-0.00058961,0.00035905,0.00020469,0.00017929,
 0.00000888,-0.00000488,0.00001101,-0.00004885,-0.00000880,0.00002879,0
 .00000469,0.00000487,0.00000558,0.00001048,-0.00002695,-0.00000284,0.0
 0001849,0.00000715,0.00000075,-0.00000356,0.00000557,0.00000939,0.0000
 0132,-0.00000133,-0.00001507,-0.01861358,-0.00875139,-0.00617452,-0.00
 894988,-0.00319617,-0.00348099,0.25501044,0.00000399,-0.00002162,0.000
 08090,0.00002326,0.00002168,-0.00003034,-0.00007415,-0.00007100,-0.000
 01982,-0.00001537,-0.00000301,-0.00002251,-0.00002149,0.00006570,-0.00
 006775,0.00002240,0.00001320,0.00001509,0.00000101,-0.00033165,0.00029
 019,0.00018202,-0.00014270,-0.00001167,0.00016441,0.00022396,-0.000057
 34,-0.00012309,0.00054211,0.00008732,-0.01429676,-0.01247996,-0.007789
 02,-0.09319118,-0.08311884,-0.03213665,0.00071469,0.00131865,-0.000604
 32,0.00054737,0.00078377,-0.00029832,0.00004427,-0.00000984,-0.0002416
 1,-0.00019809,0.00001634,-0.00037840,-0.00000449,0.00000852,-0.0000100
 3,0.00003562,0.00000098,-0.00000719,-0.00000484,-0.00000223,-0.0000096
 9,-0.00001060,0.00002073,0.00000590,-0.00002089,-0.00000130,-0.0000061
 5,-0.00000480,-0.00000098,-0.00001303,0.00000865,-0.00001583,0.0000011
 4,0.02123184,0.00984264,0.00813064,-0.01628810,-0.00842988,-0.00643214
 ,0.10024231,0.09240619,-0.00003950,0.00004760,-0.00013857,-0.00008522,
 -0.00004732,0.00000623,0.00015236,-0.00007877,0.00016044,-0.00008910,-
 0.00015762,-0.00004447,0.00000299,0.00021860,-0.00024178,0.00020380,-0
 .00000057,0.00025388,-0.00024227,-0.00026398,0.00042052,0.00171562,0.0
 0050863,0.00065200,0.00147267,0.00060409,-0.00227758,-0.00074332,0.000
 34431,0.00047234,-0.02464392,-0.01830199,-0.01118554,-0.07233490,-0.03
 310152,-0.06615261,0.00106683,0.00207648,-0.00117304,0.00147742,0.0015
 5591,-0.00171564,-0.00052476,0.00005908,0.00109940,-0.00028788,-0.0003
 0068,-0.00024604,0.00003050,-0.00000775,0.00004233,-0.00005264,0.00003
 204,0.00006311,0.00000417,-0.00000271,-0.00002080,0.00002755,0.0000436
 0,0.00000439,0.00004995,0.00004798,0.00001799,-0.00000803,0.00000168,-
 0.00002897,0.00001872,-0.00002174,0.00000350,-0.00483723,-0.00156977,-
 0.00199087,0.02039869,0.00953969,0.00804242,0.07641399,0.03918910,0.07
 358017,0.00001935,-0.00000739,-0.00001700,0.00001171,0.00006508,0.0000
 8512,0.00050327,-0.00030746,0.00010301,-0.00022161,-0.00009069,-0.0007
 1375,0.00011547,-0.00004220,0.00064032,-0.00053939,0.00068579,-0.00062
 312,-0.00082728,-0.00093078,0.00118138,-0.00150430,0.00020222,0.000430
 88,-0.00093942,0.00159895,0.00030753,-0.00127093,0.00047414,0.00066495
 ,0.00009531,-0.00455341,-0.00833215,0.00853286,-0.00180764,0.00183009,
 -0.05532545,0.01372845,0.05363565,-0.00469248,0.00706281,0.02670021,-0
 .00379423,-0.00344581,0.00024282,-0.00197734,0.00050500,-0.00266372,-0
 .00001428,-0.00003195,0.00000339,0.00001124,0.00001995,0.00001356,-0.0
 0000853,0.00000239,0.00001080,-0.00002520,-0.00006127,-0.00004102,-0.0
 0000311,-0.00005893,0.00001464,0.00002193,-0.00004003,-0.00000612,0.00
 007221,-0.00000389,0.00000180,0.00037975,-0.00099698,-0.00174762,-0.00
 012952,-0.00016771,-0.00040160,-0.00050357,0.00103200,0.00085352,0.062
 01354,-0.00006216,0.00004729,-0.00007830,-0.00002239,-0.00008983,-0.00
 017071,-0.00101275,0.00047792,-0.00030715,0.00051090,0.00041982,0.0008
 4044,-0.00017887,-0.00029457,-0.00052484,0.00048706,-0.00048799,0.0005
 7628,-0.00050155,0.00140082,-0.00118537,0.00315941,0.00026042,-0.00031
 355,-0.00089297,-0.00276472,-0.00220985,0.00079376,-0.00044445,-0.0003
 0346,0.00754784,-0.01418614,-0.03235027,-0.00174981,-0.00387473,0.0014
 1363,0.01259171,-0.06994367,-0.07792935,-0.00584601,0.00428799,0.01813
 972,-0.00406161,-0.00194633,0.00040082,0.00202274,-0.00083368,0.001431
 45,0.00002924,0.00003658,0.00002140,0.00001590,-0.00001457,0.00001143,
 0.00000848,-0.00001300,0.00001120,0.00003029,0.00010687,0.00004664,0.0
 0003331,0.00011964,-0.00000260,-0.00003701,0.00003380,-0.00002841,-0.0
 0008066,-0.00001472,0.00001274,-0.00008210,-0.00060068,-0.00072356,-0.
 00004414,0.00021434,0.00044236,0.00017203,-0.00063562,-0.00041435,-0.0
 1283063,0.08873921,0.00003078,-0.00001718,0.00001351,-0.00003281,0.000
 03268,0.00017260,0.00099153,-0.00032089,0.00026612,-0.00057473,-0.0004
 9562,-0.00085143,0.00012693,0.00056137,0.00016361,-0.00026408,0.000097
 23,-0.00001212,0.00005920,-0.00094618,0.00172389,0.00015662,0.00083029
 ,-0.00011991,-0.00191836,0.00279191,0.00051451,-0.00246350,0.00258206,
 0.00036658,-0.00163017,-0.00137009,-0.00421259,0.00411169,-0.00051480,
 0.00218658,0.07223538,-0.09631071,-0.27759165,0.00187978,-0.00104098,-
 0.01616019,0.00330851,-0.00014786,0.00142364,-0.00342546,0.00138195,0.
 00038699,-0.00002130,-0.00002431,-0.00000331,0.00000783,0.00001205,-0.
 00000003,-0.00001456,-0.00000330,0.00001338,-0.00004978,-0.00005372,-0
 .00005173,-0.00002172,-0.00008605,0.00000508,-0.00000729,-0.00003110,0
 .00000465,0.00004889,0.00001990,-0.00006646,0.00004811,-0.00065922,-0.
 00079228,-0.00013721,0.00018323,0.00009336,-0.00027073,0.00033572,0.00
 039718,-0.07217356,0.09319365,0.29213003\\0.00000356,0.00000270,0.0000
 0084,-0.00000637,-0.00000057,-0.00000728,0.00003752,0.00000386,0.00001
 695,-0.00003627,0.00001088,-0.00001373,0.00001153,-0.00002237,-0.00001
 056,-0.00004119,0.00005643,-0.00001127,-0.00001364,-0.00006308,0.00001
 845,0.00004361,0.00005244,-0.00002231,-0.00004718,0.00005925,-0.000031
 26,0.00002128,-0.00007979,0.00002423,-0.00001936,-0.00006057,0.0000209
 5,0.00000169,0.00001237,0.00001617,0.00003026,0.00006071,-0.00000244,-
 0.00002074,-0.00001929,0.00004680,0.00001373,0.00000668,-0.00001799,0.
 00001331,-0.00000266,-0.00001706,0.00000043,0.00000029,-0.00000008,-0.
 00000111,-0.00000024,0.00000023,-0.00000039,-0.00000003,-0.00000112,0.
 00000027,-0.00000091,-0.00000094,0.00000314,0.00000136,0.00000065,0.00
 000478,0.00000347,0.00000332,-0.00000087,-0.00000767,0.00000082,0.0000
 0363,-0.00000298,0.00000011,-0.00000756,0.00000065,-0.00000663,0.00000
 697,-0.00000618,-0.00001061,-0.00000104,-0.00000474,0.00000375\\\@


 HONESTY IN A LAWYER IS LIKE A HEN'S HIND LEGS.
  -- MAGNUS OLESON, LAKE WOBEGON PATRIARCH, C.1875
 Job cpu time:       0 days  9 hours  8 minutes 13.0 seconds.
 Elapsed time:       0 days  2 hours 17 minutes  3.9 seconds.
 File lengths (MBytes):  RWF=    501 Int=      0 D2E=      0 Chk=     21 Scr=      1
 Normal termination of Gaussian 16 at Fri May 19 06:36:59 2023.
### All Done ###
