### Starting Gaussian ###
 Entering Gaussian System, Link 0=g16
 Initial command:
 /cluster/software/gaussian/gaussian-16-A.03/avx2/g16/l1.exe "/local/scratch/ks29c/Gau-8390.inp" -scrdir="/local/scratch/ks29c/"
 Entering Link 1 = /cluster/software/gaussian/gaussian-16-A.03/avx2/g16/l1.exe PID=      8391.
  
 Copyright (c) 1988,1990,1992,1993,1995,1998,2003,2009,2016,
            Gaussian, Inc.  All Rights Reserved.
  
 This is part of the Gaussian(R) 16 program.  It is based on
 the Gaussian(R) 09 system (copyright 2009, Gaussian, Inc.),
 the Gaussian(R) 03 system (copyright 2003, Gaussian, Inc.),
 the Gaussian(R) 98 system (copyright 1998, Gaussian, Inc.),
 the Gaussian(R) 94 system (copyright 1995, Gaussian, Inc.),
 the Gaussian 92(TM) system (copyright 1992, Gaussian, Inc.),
 the Gaussian 90(TM) system (copyright 1990, Gaussian, Inc.),
 the Gaussian 88(TM) system (copyright 1988, Gaussian, Inc.),
 the Gaussian 86(TM) system (copyright 1986, Carnegie Mellon
 University), and the Gaussian 82(TM) system (copyright 1983,
 Carnegie Mellon University). Gaussian is a federally registered
 trademark of Gaussian, Inc.
  
 This software contains proprietary and confidential information,
 including trade secrets, belonging to Gaussian, Inc.
  
 This software is provided under written license and may be
 used, copied, transmitted, or stored only in accord with that
 written license.
  
 The following legend is applicable only to US Government
 contracts under FAR:
  
                    RESTRICTED RIGHTS LEGEND
  
 Use, reproduction and disclosure by the US Government is
 subject to restrictions as set forth in subparagraphs (a)
 and (c) of the Commercial Computer Software - Restricted
 Rights clause in FAR 52.227-19.
  
 Gaussian, Inc.
 340 Quinnipiac St., Bldg. 40, Wallingford CT 06492
  
  
 ---------------------------------------------------------------
 Warning -- This program may not be used in any manner that
 competes with the business of Gaussian, Inc. or will provide
 assistance to any competitor of Gaussian, Inc.  The licensee
 of this program is prohibited from giving any competitor of
 Gaussian, Inc. access to this program.  By using this program,
 the user acknowledges that Gaussian, Inc. is engaged in the
 business of creating and licensing software in the field of
 computational chemistry and represents and warrants to the
 licensee that it is not a competitor of Gaussian, Inc. and that
 it will not use this program in any manner prohibited above.
 ---------------------------------------------------------------
  

 Cite this work as:
 Gaussian 16, Revision A.03,
 M. J. Frisch, G. W. Trucks, H. B. Schlegel, G. E. Scuseria, 
 M. A. Robb, J. R. Cheeseman, G. Scalmani, V. Barone, 
 G. A. Petersson, H. Nakatsuji, X. Li, M. Caricato, A. V. Marenich, 
 J. Bloino, B. G. Janesko, R. Gomperts, B. Mennucci, H. P. Hratchian, 
 J. V. Ortiz, A. F. Izmaylov, J. L. Sonnenberg, D. Williams-Young, 
 F. Ding, F. Lipparini, F. Egidi, J. Goings, B. Peng, A. Petrone, 
 T. Henderson, D. Ranasinghe, V. G. Zakrzewski, J. Gao, N. Rega, 
 G. Zheng, W. Liang, M. Hada, M. Ehara, K. Toyota, R. Fukuda, 
 J. Hasegawa, M. Ishida, T. Nakajima, Y. Honda, O. Kitao, H. Nakai, 
 T. Vreven, K. Throssell, J. A. Montgomery, Jr., J. E. Peralta, 
 F. Ogliaro, M. J. Bearpark, J. J. Heyd, E. N. Brothers, K. N. Kudin, 
 V. N. Staroverov, T. A. Keith, R. Kobayashi, J. Normand, 
 K. Raghavachari, A. P. Rendell, J. C. Burant, S. S. Iyengar, 
 J. Tomasi, M. Cossi, J. M. Millam, M. Klene, C. Adamo, R. Cammi, 
 J. W. Ochterski, R. L. Martin, K. Morokuma, O. Farkas, 
 J. B. Foresman, and D. J. Fox, Gaussian, Inc., Wallingford CT, 2016.
 
 ******************************************
 Gaussian 16:  ES64L-G16RevA.03 25-Dec-2016
                19-May-2023 
 ******************************************
 %chk=CCC1dCCdCCdCCdCCdCqCOrCdC1.chk
 %NProcShared=20
 Will use up to   20 processors via shared memory.
 -----------------------------
 # opt freq b3lyp/6-31g(2df,p)
 -----------------------------
 1/18=20,19=15,26=3,38=1/1,3;
 2/9=110,12=2,17=6,18=5,40=1/2;
 3/5=1,6=6,7=104,11=2,25=1,30=1,71=1,74=-5/1,2,3;
 4//1;
 5/5=2,38=5/2;
 6/7=2,8=2,9=2,10=2,28=1/1;
 7//1,2,3,16;
 1/18=20,19=15,26=3/3(2);
 2/9=110/2;
 99//99;
 2/9=110/2;
 3/5=1,6=6,7=104,11=2,25=1,30=1,71=1,74=-5/1,2,3;
 4/5=5,16=3,69=1/1;
 5/5=2,38=5/2;
 7//1,2,3,16;
 1/18=20,19=15,26=3/3(-5);
 2/9=110/2;
 6/7=2,8=2,9=2,10=2,19=2,28=1/1;
 99/9=1/99;
 -------------------
 Title Card Required
 -------------------
 Symbolic Z-matrix:
 Charge =  0 Multiplicity = 1
 C                     1.37113   0.22708  -0.25525 
 C                     3.26465   1.12178  -0.88641 
 C                     4.42275   2.87929  -1.97094 
 C                     4.6332    1.48322  -1.18674 
 C                     5.29211   2.4368   -1.95353 
 C                     6.53629   2.54528  -2.01828 
 C                     7.24916   3.36564  -2.72921 
 C                     8.39836   3.6833   -2.84582 
 C                     8.57239   4.37772  -3.99182 
 C                     9.77711   4.95858  -3.91017 
 C                     9.50289   5.4845   -5.29003 
 C                     9.83746   6.14045  -4.19102 
 C                     12.07577   5.88482  -4.43102 
 O                     12.24854   4.75537  -3.59919 
 C                     7.62408   5.78778  -3.47011 
 C                     5.91912   4.66054  -2.94667 
 H                     0.80351  -0.79606   0.51159 
 H                     0.72405  -0.12998  -1.10128 
 H                     0.72335   0.93766   0.31727 
 H                     3.09624  -0.54391  -0.63919 
 H                     3.09319   0.37863   0.6004 
 H                     5.18992   0.69064  -0.61276 
 H                     5.37154   3.32792  -2.83411 
 H                     7.04599   1.91905  -1.52919 
 H                     7.12373   4.31423  -3.62253 
 H                     9.05582   3.16839  -2.46127 
 H                     7.14082   5.10511  -4.6445 
 H                     10.61496   4.46437  -3.58641 
 H                     9.19424   6.89776  -5.72114 
 H                     13.29169   6.37696  -3.78962 
 H                     13.2769   5.32844  -5.18481 
 H                     11.66962   5.23961  -2.95758 
 H                     8.89737   6.70626  -4.28356 
 H                     4.38068   4.19201  -3.1634 
 
 Add virtual bond connecting atoms H27        and H25        Dist= 2.44D+00.
 Add virtual bond connecting atoms H25        and C7         Dist= 2.47D+00.
 Add virtual bond connecting atoms H27        and C15        Dist= 2.72D+00.
 Add virtual bond connecting atoms H34        and H23        Dist= 2.56D+00.
 Add virtual bond connecting atoms H17        and C1         Dist= 2.64D+00.
 Add virtual bond connecting atoms H23        and C16        Dist= 2.73D+00.
 Add virtual bond connecting atoms H25        and C16        Dist= 2.69D+00.
 Add virtual bond connecting atoms H32        and H28        Dist= 2.74D+00.
 Add virtual bond connecting atoms H30        and C13        Dist= 2.76D+00.
 Add virtual bond connecting atoms C11        and H29        Dist= 2.85D+00.
 Add virtual bond connecting atoms H33        and H29        Dist= 2.80D+00.
 Add virtual bond connecting atoms H31        and C13        Dist= 2.88D+00.
 Add virtual bond connecting atoms H21        and H20        Dist= 2.92D+00.
 Add virtual bond connecting atoms H20        and C2         Dist= 3.20D+00.
 Add virtual bond connecting atoms H21        and C2         Dist= 3.16D+00.
 Add virtual bond connecting atoms H20        and C1         Dist= 3.64D+00.
 Add virtual bond connecting atoms H21        and C1         Dist= 3.65D+00.

 GradGradGradGradGradGradGradGradGradGradGradGradGradGradGradGradGradGrad
 Berny optimization.
 Initialization pass.
                           ----------------------------
                           !    Initial Parameters    !
                           ! (Angstroms and Degrees)  !
 --------------------------                            --------------------------
 ! Name  Definition              Value          Derivative Info.                !
 --------------------------------------------------------------------------------
 ! R1    R(1,17)                 1.3989         estimate D2E/DX2                !
 ! R2    R(1,18)                 1.1234         estimate D2E/DX2                !
 ! R3    R(1,19)                 1.1191         estimate D2E/DX2                !
 ! R4    R(1,20)                 1.9282         estimate D2E/DX2                !
 ! R5    R(1,21)                 1.9289         estimate D2E/DX2                !
 ! R6    R(2,4)                  1.447          estimate D2E/DX2                !
 ! R7    R(2,20)                 1.6923         estimate D2E/DX2                !
 ! R8    R(2,21)                 1.671          estimate D2E/DX2                !
 ! R9    R(3,4)                  1.615          estimate D2E/DX2                !
 ! R10   R(3,5)                  0.9756         estimate D2E/DX2                !
 ! R11   R(4,5)                  1.3898         estimate D2E/DX2                !
 ! R12   R(4,22)                 1.1259         estimate D2E/DX2                !
 ! R13   R(5,6)                  1.2506         estimate D2E/DX2                !
 ! R14   R(5,23)                 1.2553         estimate D2E/DX2                !
 ! R15   R(6,7)                  1.2987         estimate D2E/DX2                !
 ! R16   R(6,24)                 0.944          estimate D2E/DX2                !
 ! R17   R(7,8)                  1.198          estimate D2E/DX2                !
 ! R18   R(7,25)                 1.309          estimate D2E/DX2                !
 ! R19   R(8,9)                  1.3512         estimate D2E/DX2                !
 ! R20   R(8,26)                 0.9194         estimate D2E/DX2                !
 ! R21   R(9,10)                 1.3399         estimate D2E/DX2                !
 ! R22   R(9,15)                 1.7776         estimate D2E/DX2                !
 ! R23   R(10,11)                1.5019         estimate D2E/DX2                !
 ! R24   R(10,12)                1.2163         estimate D2E/DX2                !
 ! R25   R(10,28)                1.0252         estimate D2E/DX2                !
 ! R26   R(11,12)                1.3229         estimate D2E/DX2                !
 ! R27   R(11,29)                1.5094         estimate D2E/DX2                !
 ! R28   R(12,33)                1.1011         estimate D2E/DX2                !
 ! R29   R(13,14)                1.4133         estimate D2E/DX2                !
 ! R30   R(13,30)                1.4602         estimate D2E/DX2                !
 ! R31   R(13,31)                1.5233         estimate D2E/DX2                !
 ! R32   R(14,32)                0.9906         estimate D2E/DX2                !
 ! R33   R(15,27)                1.4418         estimate D2E/DX2                !
 ! R34   R(16,23)                1.4451         estimate D2E/DX2                !
 ! R35   R(16,25)                1.424          estimate D2E/DX2                !
 ! R36   R(20,21)                1.5452         estimate D2E/DX2                !
 ! R37   R(23,34)                1.3553         estimate D2E/DX2                !
 ! R38   R(25,27)                1.2924         estimate D2E/DX2                !
 ! R39   R(28,32)                1.4521         estimate D2E/DX2                !
 ! R40   R(29,33)                1.4804         estimate D2E/DX2                !
 ! A1    A(17,1,18)             86.9416         estimate D2E/DX2                !
 ! A2    A(17,1,19)             87.0818         estimate D2E/DX2                !
 ! A3    A(17,1,20)            100.3539         estimate D2E/DX2                !
 ! A4    A(17,1,21)            100.1685         estimate D2E/DX2                !
 ! A5    A(18,1,19)            104.696          estimate D2E/DX2                !
 ! A6    A(18,1,20)            103.7862         estimate D2E/DX2                !
 ! A7    A(18,1,21)            150.8449         estimate D2E/DX2                !
 ! A8    A(19,1,20)            150.8871         estimate D2E/DX2                !
 ! A9    A(19,1,21)            103.8837         estimate D2E/DX2                !
 ! A10   A(4,2,20)             111.7338         estimate D2E/DX2                !
 ! A11   A(4,2,21)             113.1296         estimate D2E/DX2                !
 ! A12   A(2,4,3)              101.1549         estimate D2E/DX2                !
 ! A13   A(2,4,5)              137.2502         estimate D2E/DX2                !
 ! A14   A(2,4,22)             100.7206         estimate D2E/DX2                !
 ! A15   A(3,4,22)             157.0025         estimate D2E/DX2                !
 ! A16   A(5,4,22)             121.9967         estimate D2E/DX2                !
 ! A17   A(3,5,6)              147.8046         estimate D2E/DX2                !
 ! A18   A(3,5,23)              73.8538         estimate D2E/DX2                !
 ! A19   A(4,5,6)              124.0404         estimate D2E/DX2                !
 ! A20   A(4,5,23)             154.704          estimate D2E/DX2                !
 ! A21   A(6,5,23)              80.7439         estimate D2E/DX2                !
 ! A22   A(5,6,7)              128.9944         estimate D2E/DX2                !
 ! A23   A(5,6,24)             116.9233         estimate D2E/DX2                !
 ! A24   A(7,6,24)             113.9714         estimate D2E/DX2                !
 ! A25   A(6,7,8)              138.3609         estimate D2E/DX2                !
 ! A26   A(6,7,25)             141.144          estimate D2E/DX2                !
 ! A27   A(8,7,25)              80.4064         estimate D2E/DX2                !
 ! A28   A(7,8,9)              110.0216         estimate D2E/DX2                !
 ! A29   A(7,8,26)             119.7865         estimate D2E/DX2                !
 ! A30   A(9,8,26)             123.3989         estimate D2E/DX2                !
 ! A31   A(8,9,10)             106.6724         estimate D2E/DX2                !
 ! A32   A(8,9,15)              95.1657         estimate D2E/DX2                !
 ! A33   A(10,9,15)             96.7706         estimate D2E/DX2                !
 ! A34   A(9,10,11)             86.0812         estimate D2E/DX2                !
 ! A35   A(9,10,12)            116.8577         estimate D2E/DX2                !
 ! A36   A(9,10,28)            123.0281         estimate D2E/DX2                !
 ! A37   A(11,10,28)           127.4552         estimate D2E/DX2                !
 ! A38   A(12,10,28)           120.0522         estimate D2E/DX2                !
 ! A39   A(10,11,29)           128.8716         estimate D2E/DX2                !
 ! A40   A(12,11,29)            79.9061         estimate D2E/DX2                !
 ! A41   A(10,12,33)           118.4476         estimate D2E/DX2                !
 ! A42   A(11,12,33)            88.2264         estimate D2E/DX2                !
 ! A43   A(14,13,30)            84.7797         estimate D2E/DX2                !
 ! A44   A(14,13,31)            84.4318         estimate D2E/DX2                !
 ! A45   A(30,13,31)            71.5704         estimate D2E/DX2                !
 ! A46   A(13,14,32)            85.3609         estimate D2E/DX2                !
 ! A47   A(9,15,27)             64.161          estimate D2E/DX2                !
 ! A48   A(23,16,25)            97.657          estimate D2E/DX2                !
 ! A49   A(1,20,2)              74.0119         estimate D2E/DX2                !
 ! A50   A(1,21,2)              74.4457         estimate D2E/DX2                !
 ! A51   A(5,23,16)            137.1573         estimate D2E/DX2                !
 ! A52   A(5,23,34)            125.2228         estimate D2E/DX2                !
 ! A53   A(16,23,34)            70.742          estimate D2E/DX2                !
 ! A54   A(7,25,16)             86.1809         estimate D2E/DX2                !
 ! A55   A(16,25,27)           103.7495         estimate D2E/DX2                !
 ! A56   A(15,27,25)            69.5173         estimate D2E/DX2                !
 ! A57   A(10,28,32)           118.2259         estimate D2E/DX2                !
 ! A58   A(11,29,33)            69.0552         estimate D2E/DX2                !
 ! A59   A(14,32,28)            83.2811         estimate D2E/DX2                !
 ! A60   A(12,33,29)            88.6748         estimate D2E/DX2                !
 ! A61   L(7,25,27,16,-1)      189.9304         estimate D2E/DX2                !
 ! A62   L(7,25,27,16,-2)      184.644          estimate D2E/DX2                !
 ! D1    D(17,1,20,2)         -160.2085         estimate D2E/DX2                !
 ! D2    D(18,1,20,2)          110.4227         estimate D2E/DX2                !
 ! D3    D(19,1,20,2)          -57.3993         estimate D2E/DX2                !
 ! D4    D(17,1,21,2)          162.0255         estimate D2E/DX2                !
 ! D5    D(18,1,21,2)           59.8882         estimate D2E/DX2                !
 ! D6    D(19,1,21,2)         -108.4871         estimate D2E/DX2                !
 ! D7    D(20,2,4,3)           156.7173         estimate D2E/DX2                !
 ! D8    D(20,2,4,5)           147.4001         estimate D2E/DX2                !
 ! D9    D(20,2,4,22)          -30.4222         estimate D2E/DX2                !
 ! D10   D(21,2,4,3)          -143.6971         estimate D2E/DX2                !
 ! D11   D(21,2,4,5)          -153.0142         estimate D2E/DX2                !
 ! D12   D(21,2,4,22)           29.1635         estimate D2E/DX2                !
 ! D13   D(4,2,20,1)           175.0358         estimate D2E/DX2                !
 ! D14   D(4,2,21,1)          -171.9771         estimate D2E/DX2                !
 ! D15   D(2,4,5,6)            178.5908         estimate D2E/DX2                !
 ! D16   D(2,4,5,23)           -14.2262         estimate D2E/DX2                !
 ! D17   D(22,4,5,6)            -3.9323         estimate D2E/DX2                !
 ! D18   D(22,4,5,23)          163.2507         estimate D2E/DX2                !
 ! D19   D(3,5,6,7)            -34.8987         estimate D2E/DX2                !
 ! D20   D(3,5,6,24)           149.196          estimate D2E/DX2                !
 ! D21   D(4,5,6,7)            177.6231         estimate D2E/DX2                !
 ! D22   D(4,5,6,24)             1.7178         estimate D2E/DX2                !
 ! D23   D(23,5,6,7)             3.1343         estimate D2E/DX2                !
 ! D24   D(23,5,6,24)         -172.7709         estimate D2E/DX2                !
 ! D25   D(3,5,23,16)          100.7581         estimate D2E/DX2                !
 ! D26   D(3,5,23,34)            1.113          estimate D2E/DX2                !
 ! D27   D(4,5,23,16)          131.4757         estimate D2E/DX2                !
 ! D28   D(4,5,23,34)           31.8307         estimate D2E/DX2                !
 ! D29   D(6,5,23,16)          -59.2583         estimate D2E/DX2                !
 ! D30   D(6,5,23,34)         -158.9033         estimate D2E/DX2                !
 ! D31   D(5,6,7,8)            172.6391         estimate D2E/DX2                !
 ! D32   D(5,6,7,25)            -2.4565         estimate D2E/DX2                !
 ! D33   D(24,6,7,8)           -11.3563         estimate D2E/DX2                !
 ! D34   D(24,6,7,25)          173.5482         estimate D2E/DX2                !
 ! D35   D(6,7,8,9)            165.2596         estimate D2E/DX2                !
 ! D36   D(6,7,8,26)            13.1753         estimate D2E/DX2                !
 ! D37   D(25,7,8,9)           -17.8586         estimate D2E/DX2                !
 ! D38   D(25,7,8,26)         -169.943          estimate D2E/DX2                !
 ! D39   D(6,7,25,16)           34.0466         estimate D2E/DX2                !
 ! D40   D(8,7,25,16)         -142.6506         estimate D2E/DX2                !
 ! D41   D(6,7,27,15)          119.4692         estimate D2E/DX2                !
 ! D42   D(8,7,27,15)          -62.5297         estimate D2E/DX2                !
 ! D43   D(7,8,9,10)           165.9838         estimate D2E/DX2                !
 ! D44   D(7,8,9,15)            67.3195         estimate D2E/DX2                !
 ! D45   D(26,8,9,10)          -43.1395         estimate D2E/DX2                !
 ! D46   D(26,8,9,15)         -141.8039         estimate D2E/DX2                !
 ! D47   D(8,9,10,11)          178.1648         estimate D2E/DX2                !
 ! D48   D(8,9,10,12)         -132.0122         estimate D2E/DX2                !
 ! D49   D(8,9,10,28)           45.1237         estimate D2E/DX2                !
 ! D50   D(15,9,10,11)         -84.3538         estimate D2E/DX2                !
 ! D51   D(15,9,10,12)         -34.5308         estimate D2E/DX2                !
 ! D52   D(15,9,10,28)         142.6051         estimate D2E/DX2                !
 ! D53   D(8,9,15,27)         -119.6593         estimate D2E/DX2                !
 ! D54   D(10,9,15,27)         132.8335         estimate D2E/DX2                !
 ! D55   D(9,10,11,29)         108.5822         estimate D2E/DX2                !
 ! D56   D(28,10,11,29)       -121.9429         estimate D2E/DX2                !
 ! D57   D(9,10,12,33)          12.7135         estimate D2E/DX2                !
 ! D58   D(28,10,12,33)       -164.5124         estimate D2E/DX2                !
 ! D59   D(9,10,28,32)        -152.1293         estimate D2E/DX2                !
 ! D60   D(11,10,28,32)         94.5828         estimate D2E/DX2                !
 ! D61   D(12,10,28,32)         24.9187         estimate D2E/DX2                !
 ! D62   D(29,11,12,33)         45.8762         estimate D2E/DX2                !
 ! D63   D(10,11,29,33)        -21.4988         estimate D2E/DX2                !
 ! D64   D(12,11,29,33)        -34.8513         estimate D2E/DX2                !
 ! D65   D(10,12,33,29)       -114.9581         estimate D2E/DX2                !
 ! D66   D(11,12,33,29)        -46.1213         estimate D2E/DX2                !
 ! D67   D(30,13,14,32)         91.7336         estimate D2E/DX2                !
 ! D68   D(31,13,14,32)        163.6711         estimate D2E/DX2                !
 ! D69   D(14,13,30,31)         85.8564         estimate D2E/DX2                !
 ! D70   D(13,14,32,28)         94.2592         estimate D2E/DX2                !
 ! D71   D(9,15,27,25)          61.7698         estimate D2E/DX2                !
 ! D72   D(25,16,23,5)          99.9224         estimate D2E/DX2                !
 ! D73   D(25,16,23,34)       -138.6286         estimate D2E/DX2                !
 ! D74   D(23,16,25,7)         -46.8582         estimate D2E/DX2                !
 ! D75   D(23,16,25,27)        128.4978         estimate D2E/DX2                !
 ! D76   D(16,25,27,15)         81.4658         estimate D2E/DX2                !
 ! D77   D(10,28,32,14)       -130.1353         estimate D2E/DX2                !
 ! D78   D(11,29,33,12)         42.5389         estimate D2E/DX2                !
 --------------------------------------------------------------------------------
 Trust Radius=3.00D-01 FncErr=1.00D-07 GrdErr=1.00D-06 EigMax=2.50D+02 EigMin=1.00D-04
 Number of steps in this run=    190 maximum allowed number of steps=    204.
 GradGradGradGradGradGradGradGradGradGradGradGradGradGradGradGradGradGrad

                          Input orientation:                          
 ---------------------------------------------------------------------
 Center     Atomic      Atomic             Coordinates (Angstroms)
 Number     Number       Type             X           Y           Z
 ---------------------------------------------------------------------
      1          6           0        1.371130    0.227080   -0.255250
      2          6           0        3.264650    1.121780   -0.886410
      3          6           0        4.422750    2.879290   -1.970940
      4          6           0        4.633200    1.483220   -1.186740
      5          6           0        5.292110    2.436800   -1.953530
      6          6           0        6.536290    2.545280   -2.018280
      7          6           0        7.249160    3.365640   -2.729210
      8          6           0        8.398360    3.683300   -2.845820
      9          6           0        8.572390    4.377720   -3.991820
     10          6           0        9.777110    4.958580   -3.910170
     11          6           0        9.502890    5.484500   -5.290030
     12          6           0        9.837460    6.140450   -4.191020
     13          6           0       12.075770    5.884820   -4.431020
     14          8           0       12.248540    4.755370   -3.599190
     15          6           0        7.624080    5.787780   -3.470110
     16          6           0        5.919120    4.660540   -2.946670
     17          1           0        0.803510   -0.796060    0.511590
     18          1           0        0.724050   -0.129980   -1.101280
     19          1           0        0.723350    0.937660    0.317270
     20          1           0        3.096240   -0.543910   -0.639190
     21          1           0        3.093190    0.378630    0.600400
     22          1           0        5.189920    0.690640   -0.612760
     23          1           0        5.371540    3.327920   -2.834110
     24          1           0        7.045990    1.919050   -1.529190
     25          1           0        7.123730    4.314230   -3.622530
     26          1           0        9.055820    3.168390   -2.461270
     27          1           0        7.140820    5.105110   -4.644500
     28          1           0       10.614960    4.464370   -3.586410
     29          1           0        9.194240    6.897760   -5.721140
     30          1           0       13.291690    6.376960   -3.789620
     31          1           0       13.276900    5.328440   -5.184810
     32          1           0       11.669620    5.239610   -2.957580
     33          1           0        8.897370    6.706260   -4.283560
     34          1           0        4.380680    4.192010   -3.163400
 ---------------------------------------------------------------------
                    Distance matrix (angstroms):
                    1          2          3          4          5
     1  C    0.000000
     2  C    2.187297   0.000000
     3  C    4.392060   2.367750   0.000000
     4  C    3.617549   1.446985   1.615014   0.000000
     5  C    4.810520   2.641707   0.975647   1.389764   0.000000
     6  C    5.929688   3.743142   2.140293   2.332634   1.250578
     7  C    7.107902   4.930227   2.966497   3.572949   2.300971
     8  C    8.248544   6.062644   4.149376   4.665761   3.463919
     9  C    9.113063   6.958220   4.852707   5.635940   4.322272
    10  C   10.315330   8.141025   6.062444   6.779012   5.504820
    11  C   10.913982   8.794364   6.603885   7.520712   6.176680
    12  C   11.051560   8.905578   6.699478   7.602619   6.275635
    13  C   12.807669  10.624813   8.582186   9.235328   8.002802
    14  O   12.247669  10.063420   8.210595   8.632513   7.515044
    15  C    8.964156   6.888519   4.577700   5.717375   4.355131
    16  C    6.898081   4.879929   2.522702   3.853090   2.514854
    17  H    1.398947   3.419024   5.724513   4.769273   6.056049
    18  H    1.123375   2.840373   4.846896   4.229796   5.308659
    19  H    1.119072   2.817969   4.763548   4.224525   5.317661
    20  H    1.928170   1.692337   3.905315   2.602175   3.928609
    21  H    1.928884   1.671010   3.825287   2.604922   3.948908
    22  H    3.863400   1.991841   2.687637   1.125866   2.203901
    23  H    5.680582   3.619333   1.358872   2.581064   1.255319
    24  H    6.057204   3.917568   2.828178   2.475636   1.877292
    25  H    7.818937   5.707065   3.475931   4.488923   3.108880
    26  H    8.518937   6.340855   4.667905   4.901407   3.867627
    27  H    8.737850   6.709311   4.414760   5.600210   4.216506
    28  H   10.700451   8.514104   6.592851   7.101206   5.925375
    29  H   11.643667   9.586271   7.278682   8.407206   7.022939
    30  H   13.871285  11.687047   9.705637  10.280716   9.104360
    31  H   13.858997  11.679785   9.732588  10.270532   9.086233
    32  H   11.768047   9.585916   7.685161   8.170529   7.038217
    33  H   10.716872   8.628707   6.325831   7.419810   6.054356
    34  H    5.765015   3.982024   1.773969   3.362810   2.318459
                    6          7          8          9         10
     6  C    0.000000
     7  C    1.298690   0.000000
     8  C    2.333927   1.197984   0.000000
     9  C    3.376152   2.090318   1.351230   0.000000
    10  C    4.461634   3.212889   2.158734   1.339931   0.000000
    11  C    5.305099   4.015802   3.230862   1.943230   1.501933
    12  C    5.342637   4.066418   3.149311   2.178830   1.216279
    13  C    6.903599   5.704261   4.569780   3.839000   2.532399
    14  O    6.325628   5.261370   4.067037   3.716296   2.499194
    15  C    3.715495   2.560519   2.327678   1.777566   2.348779
    16  C    2.391052   1.868973   2.666796   2.865688   3.987637
    17  H    7.101377   8.328802   9.434968  10.363600  11.540942
    18  H    6.463748   7.579352   8.745259   9.501106  10.758308
    19  H    6.467574   7.600153   8.743538   9.592169  10.770776
    20  H    4.824824   6.074497   7.130988   8.090166   9.252607
    21  H    4.838057   6.105786   7.137374   8.191632   9.273401
    22  H    2.688473   3.984401   4.923074   6.037691   7.080292
    23  H    1.623190   1.880926   3.047634   3.561996   4.819336
    24  H    0.944016   1.890489   2.583602   3.799934   4.729358
    25  H    2.459245   1.309036   1.620504   1.496336   2.745605
    26  H    2.632971   1.837041   0.919383   2.009668   2.413369
    27  H    3.716883   2.589562   2.614995   1.733344   2.740572
    28  H    4.772577   3.642885   2.464114   2.084216   1.025211
    29  H    6.302377   5.021041   4.385618   3.118950   2.716573
    30  H    7.965855   6.834083   5.664913   5.129292   3.791913
    31  H    7.950391   6.798250   5.654866   4.945655   3.742998
    32  H    5.873055   4.806702   3.624325   3.377179   2.137288
    33  H    5.293387   4.036377   3.384434   2.369140   1.991921
    34  H    2.944431   3.016552   4.062191   4.276821   5.501523
                   11         12         13         14         15
    11  C    0.000000
    12  C    1.322887   0.000000
    13  C    2.741873   2.265608   0.000000
    14  O    3.305929   2.842889   1.413311   0.000000
    15  C    2.633252   2.354387   4.555251   4.740059   0.000000
    16  C    4.360465   4.369431   6.450310   6.363673   2.109869
    17  H   12.197682  12.322417  14.004549  13.368081  10.282075
    18  H   11.231030  11.485601  13.271267  12.764015   9.393703
    19  H   11.366437  11.421940  13.262658  12.757099   9.245971
    20  H    9.950739  10.136085  11.676408  10.982193   8.282858
    21  H   10.092142  10.081739  11.675618  10.982388   8.145976
    22  H    7.966157   8.006497   9.432579   8.675535   6.330120
    23  H    5.267868   5.449401   7.350820   7.065132   3.395489
    24  H    5.735217   5.718204   7.031830   6.276634   4.366741
    25  H    3.132170   3.320029   5.257671   5.143814   1.563628
    26  H    3.683221   3.526491   4.514311   3.742570   3.151006
    27  H    2.477906   2.923943   5.000725   5.225303   1.441794
    28  H    2.275892   1.944043   2.205677   1.659346   3.272660
    29  H    1.509445   1.824423   3.315671   4.291999   2.960506
    30  H    4.171657   3.485508   1.460157   1.937519   5.707103
    31  H    3.778700   3.671066   1.523309   1.974873   5.924995
    32  H    3.192963   2.385309   1.658999   0.990606   4.114556
    33  H    1.694796   1.101124   3.286143   3.937598   1.768212
    34  H    5.694745   5.884630   7.980406   7.900032   3.627699
                   16         17         18         19         20
    16  C    0.000000
    17  H    8.240359   0.000000
    18  H    7.303650   1.746805   0.000000
    19  H    7.176989   1.746417   1.775427   0.000000
    20  H    6.354480   2.577690   2.451969   2.956429   0.000000
    21  H    6.237174   2.574960   2.960950   2.451289   1.545210
    22  H    4.662507   4.766029   4.566844   4.569050   2.430701
    23  H    1.445126   7.004842   6.046399   6.103295   4.998573
    24  H    3.285552   7.106698   6.659471   6.659453   4.739071
    25  H    1.424009   9.118728   8.189237   8.239424   6.980152
    26  H    3.507280   9.625767   9.063510   9.062367   7.253809
    27  H    2.138415  10.078223   9.007525   9.119798   8.019511
    28  H    4.743276  11.862979  11.185438  11.203586   9.502638
    29  H    4.840377  12.978680  11.936346  11.989210  10.880729
    30  H    7.616525  15.030212  14.405312  14.297402  12.718917
    31  H    7.719604  15.018120  14.284383  14.392479  12.601309
    32  H    5.779593  12.904914  12.332228  12.208695  10.598438
    33  H    3.852560  12.032823  11.120443  11.011766   9.974944
    34  H    1.622741   7.154197   6.025187   6.006823   5.518185
                   21         22         23         24         25
    21  H    0.000000
    22  H    2.442414   0.000000
    23  H    5.068042   3.452916   0.000000
    24  H    4.746860   2.407038   2.547845   0.000000
    25  H    7.040408   5.092027   2.159765   3.181981   0.000000
    26  H    7.260134   4.949891   3.706532   2.543431   2.528724
    27  H    8.138298   6.288759   3.092938   4.457031   1.292364
    28  H    9.528886   7.246702   5.417650   4.842350   3.494644
    29  H   10.940006   8.981006   5.974256   6.853829   3.919924
    30  H   12.619891  10.395449   8.540399   7.999455   6.505882
    31  H   12.715236  10.383259   8.486612   7.988225   6.428907
    32  H   10.480625   8.256986   6.582979   5.868933   4.686534
    33  H    9.878283   7.962892   5.093679   5.825079   3.050339
    34  H    5.510507   4.406839   1.355318   3.865342   2.783893
                   26         27         28         29         30
    26  H    0.000000
    27  H    3.490645   0.000000
    28  H    2.318711   3.687784   0.000000
    29  H    4.955211   2.930748   3.535096   0.000000
    30  H    5.477411   6.338898   3.296085   4.559726   0.000000
    31  H    5.468181   6.163870   3.222953   4.406646   1.745327
    32  H    3.371680   4.834648   1.452147   4.063771   2.148713
    33  H    3.982759   2.404044   2.908987   1.480351   4.434238
    34  H    4.837119   3.262787   6.254548   6.085514   9.196318
                   31         32         33         34
    31  H    0.000000
    32  H    2.748053   0.000000
    33  H    4.678774   3.405093   0.000000
    34  H    9.193492   7.366714   5.289301   0.000000
 Stoichiometry    C15H18O
 Framework group  C1[X(C15H18O)]
 Deg. of freedom    96
 Full point group                 C1      NOp   1
 Largest Abelian subgroup         C1      NOp   1
 Largest concise Abelian subgroup C1      NOp   1
                         Standard orientation:                         
 ---------------------------------------------------------------------
 Center     Atomic      Atomic             Coordinates (Angstroms)
 Number     Number       Type             X           Y           Z
 ---------------------------------------------------------------------
      1          6           0        7.307274   -0.104598    0.056685
      2          6           0        5.129073   -0.296667    0.003616
      3          6           0        2.999469    0.727581   -0.144528
      4          6           0        3.739611   -0.700584   -0.000286
      5          6           0        2.496814   -0.081987    0.064816
      6          6           0        1.407042   -0.693474    0.015578
      7          6           0        0.200535   -0.222069    0.108919
      8          6           0       -0.925303   -0.612714   -0.013770
      9          6           0       -1.785622    0.278400    0.526218
     10          6           0       -3.007880   -0.053744    0.088975
     11          6           0       -3.506316    1.085237    0.931642
     12          6           0       -3.695647    0.845563   -0.355503
     13          6           0       -5.493286   -0.506761   -0.085886
     14          8           0       -4.827553   -1.752625   -0.131392
     15          6           0       -1.472244    1.551188   -0.674426
     16          6           0        0.620388    1.524650   -0.406595
     17          1           0        8.507224   -0.823180    0.028181
     18          1           0        7.703990    0.404718    0.976025
     19          1           0        7.712362    0.494805   -0.797095
     20          1           0        6.114620   -1.449229    0.754815
     21          1           0        6.128689   -1.376217   -0.788605
     22          1           0        3.847217   -1.820646   -0.038434
     23          1           0        1.716723    0.878164    0.277872
     24          1           0        1.447392   -1.634612   -0.046065
     25          1           0       -0.442735    0.900777    0.306394
     26          1           0       -1.093224   -1.515560   -0.057786
     27          1           0       -1.175441    1.892021    0.694702
     28          1           0       -3.354043   -1.018673    0.077204
     29          1           0       -4.050588    2.422351    0.490826
     30          1           0       -6.488498   -1.158336   -0.932679
     31          1           0       -6.484777   -1.236996    0.810871
     32          1           0       -4.351171   -1.378549   -0.915246
     33          1           0       -3.217777    1.813882   -0.571074
     34          1           0        2.017017    2.186158    0.088505
 ---------------------------------------------------------------------
 Rotational constants (GHZ):           2.2401686           0.1666967           0.1580623
 Standard basis: 6-31G(2df,p) (6D, 7F)
 There are   586 symmetry adapted cartesian basis functions of A   symmetry.
 There are   538 symmetry adapted basis functions of A   symmetry.
   538 basis functions,   830 primitive gaussians,   586 cartesian basis functions
    58 alpha electrons       58 beta electrons
       nuclear repulsion energy      1000.7413850247 Hartrees.
 NAtoms=   34 NActive=   34 NUniq=   34 SFac= 1.00D+00 NAtFMM=   60 NAOKFM=F Big=F
 Integral buffers will be    131072 words long.
 Raffenetti 2 integral format.
 Two-electron integral symmetry is turned on.
 One-electron integrals computed using PRISM.
 PrsmSu:  requested number of processors reduced to:  12 ShMem   1 Linda.
 NBasis=   538 RedAO= T EigKep=  9.93D-05  NBF=   538
 NBsUse=   538 1.00D-06 EigRej= -1.00D+00 NBFU=   538
 ExpMin= 1.61D-01 ExpMax= 5.48D+03 ExpMxC= 8.25D+02 IAcc=3 IRadAn=         5 AccDes= 0.00D+00
 Harris functional with IExCor=  402 and IRadAn=       5 diagonalized for initial guess.
 HarFok:  IExCor=  402 AccDes= 0.00D+00 IRadAn=         5 IDoV= 1 UseB2=F ITyADJ=14
 ICtDFT=  3500011 ScaDFX=  1.000000  1.000000  1.000000  1.000000
 FoFCou: FMM=F IPFlag=           0 FMFlag=      100000 FMFlg1=           0
         NFxFlg=           0 DoJE=T BraDBF=F KetDBF=T FulRan=T
         wScrn=  0.000000 ICntrl=       500 IOpCl=  0 I1Cent=   200000004 NGrid=           0
         NMat0=    1 NMatS0=      1 NMatT0=    0 NMatD0=    1 NMtDS0=    0 NMtDT0=    0
 Petite list used in FoFCou.
 Requested convergence on RMS density matrix=1.00D-08 within 128 cycles.
 Requested convergence on MAX density matrix=1.00D-06.
 Requested convergence on             energy=1.00D-06.
 No special actions if energy rises.
 Integral accuracy reduced to 1.0D-05 until final iterations.
 EnCoef did     9 forward-backward iterations
 EnCoef did   100 forward-backward iterations
 EnCoef did   100 forward-backward iterations
 EnCoef did     2 forward-backward iterations
 EnCoef did     9 forward-backward iterations
 EnCoef did     6 forward-backward iterations
 EnCoef did     2 forward-backward iterations
 EnCoef did    12 forward-backward iterations
 EnCoef did    17 forward-backward iterations
 EnCoef did    11 forward-backward iterations
 Initial convergence to 2.8D-05 achieved.  Increase integral accuracy.
 SCF Done:  E(RB3LYP) =  -655.016720630     A.U. after   35 cycles
            NFock= 35  Conv=0.94D-08     -V/T= 1.9985

 **********************************************************************

            Population analysis using the SCF density.

 **********************************************************************

 Orbital symmetries:
       Occupied  (A) (A) (A) (A) (A) (A) (A) (A) (A) (A) (A) (A)
                 (A) (A) (A) (A) (A) (A) (A) (A) (A) (A) (A) (A)
                 (A) (A) (A) (A) (A) (A) (A) (A) (A) (A) (A) (A)
                 (A) (A) (A) (A) (A) (A) (A) (A) (A) (A) (A) (A)
                 (A) (A) (A) (A) (A) (A) (A) (A) (A) (A)
       Virtual   (A) (A) (A) (A) (A) (A) (A) (A) (A) (A) (A) (A)
                 (A) (A) (A) (A) (A) (A) (A) (A) (A) (A) (A) (A)
                 (A) (A) (A) (A) (A) (A) (A) (A) (A) (A) (A) (A)
                 (A) (A) (A) (A) (A) (A) (A) (A) (A) (A) (A) (A)
                 (A) (A) (A) (A) (A) (A) (A) (A) (A) (A) (A) (A)
                 (A) (A) (A) (A) (A) (A) (A) (A) (A) (A) (A) (A)
                 (A) (A) (A) (A) (A) (A) (A) (A) (A) (A) (A) (A)
                 (A) (A) (A) (A) (A) (A) (A) (A) (A) (A) (A) (A)
                 (A) (A) (A) (A) (A) (A) (A) (A) (A) (A) (A) (A)
                 (A) (A) (A) (A) (A) (A) (A) (A) (A) (A) (A) (A)
                 (A) (A) (A) (A) (A) (A) (A) (A) (A) (A) (A) (A)
                 (A) (A) (A) (A) (A) (A) (A) (A) (A) (A) (A) (A)
                 (A) (A) (A) (A) (A) (A) (A) (A) (A) (A) (A) (A)
                 (A) (A) (A) (A) (A) (A) (A) (A) (A) (A) (A) (A)
                 (A) (A) (A) (A) (A) (A) (A) (A) (A) (A) (A) (A)
                 (A) (A) (A) (A) (A) (A) (A) (A) (A) (A) (A) (A)
                 (A) (A) (A) (A) (A) (A) (A) (A) (A) (A) (A) (A)
                 (A) (A) (A) (A) (A) (A) (A) (A) (A) (A) (A) (A)
                 (A) (A) (A) (A) (A) (A) (A) (A) (A) (A) (A) (A)
                 (A) (A) (A) (A) (A) (A) (A) (A) (A) (A) (A) (A)
                 (A) (A) (A) (A) (A) (A) (A) (A) (A) (A) (A) (A)
                 (A) (A) (A) (A) (A) (A) (A) (A) (A) (A) (A) (A)
                 (A) (A) (A) (A) (A) (A) (A) (A) (A) (A) (A) (A)
                 (A) (A) (A) (A) (A) (A) (A) (A) (A) (A) (A) (A)
                 (A) (A) (A) (A) (A) (A) (A) (A) (A) (A) (A) (A)
                 (A) (A) (A) (A) (A) (A) (A) (A) (A) (A) (A) (A)
                 (A) (A) (A) (A) (A) (A) (A) (A) (A) (A) (A) (A)
                 (A) (A) (A) (A) (A) (A) (A) (A) (A) (A) (A) (A)
                 (A) (A) (A) (A) (A) (A) (A) (A) (A) (A) (A) (A)
                 (A) (A) (A) (A) (A) (A) (A) (A) (A) (A) (A) (A)
                 (A) (A) (A) (A) (A) (A) (A) (A) (A) (A) (A) (A)
                 (A) (A) (A) (A) (A) (A) (A) (A) (A) (A) (A) (A)
                 (A) (A) (A) (A) (A) (A) (A) (A) (A) (A) (A) (A)
                 (A) (A) (A) (A) (A) (A) (A) (A) (A) (A) (A) (A)
                 (A) (A) (A) (A) (A) (A) (A) (A) (A) (A) (A) (A)
                 (A) (A) (A) (A) (A) (A) (A) (A) (A) (A) (A) (A)
                 (A) (A) (A) (A) (A) (A) (A) (A) (A) (A) (A) (A)
                 (A) (A) (A) (A) (A) (A) (A) (A) (A) (A) (A) (A)
                 (A) (A) (A) (A) (A) (A) (A) (A) (A) (A) (A) (A)
                 (A) (A) (A) (A) (A) (A) (A) (A) (A) (A) (A) (A)
 The electronic state is 1-A.
 Alpha  occ. eigenvalues --  -19.18798 -10.29136 -10.27646 -10.27037 -10.26871
 Alpha  occ. eigenvalues --  -10.25849 -10.25650 -10.24331 -10.23695 -10.23679
 Alpha  occ. eigenvalues --  -10.23583 -10.23166 -10.22567 -10.21595 -10.19141
 Alpha  occ. eigenvalues --  -10.18749  -1.07860  -1.05587  -1.04576  -0.95814
 Alpha  occ. eigenvalues --   -0.86711  -0.79479  -0.75944  -0.74465  -0.70327
 Alpha  occ. eigenvalues --   -0.66901  -0.65599  -0.63327  -0.61103  -0.59699
 Alpha  occ. eigenvalues --   -0.56928  -0.55378  -0.54501  -0.52755  -0.51029
 Alpha  occ. eigenvalues --   -0.50888  -0.49285  -0.48021  -0.45370  -0.44191
 Alpha  occ. eigenvalues --   -0.41299  -0.39573  -0.39359  -0.37242  -0.35743
 Alpha  occ. eigenvalues --   -0.33463  -0.33203  -0.32742  -0.31469  -0.30825
 Alpha  occ. eigenvalues --   -0.29116  -0.27918  -0.24421  -0.23230  -0.22726
 Alpha  occ. eigenvalues --   -0.22036  -0.19104  -0.16361
 Alpha virt. eigenvalues --   -0.14529  -0.13600  -0.11486  -0.10026  -0.08576
 Alpha virt. eigenvalues --   -0.07362  -0.05166  -0.02945  -0.00652   0.00354
 Alpha virt. eigenvalues --    0.01281   0.02694   0.04766   0.05235   0.07548
 Alpha virt. eigenvalues --    0.07772   0.07966   0.08728   0.11048   0.13260
 Alpha virt. eigenvalues --    0.13995   0.14145   0.15163   0.15699   0.17047
 Alpha virt. eigenvalues --    0.17569   0.18062   0.19382   0.20812   0.23584
 Alpha virt. eigenvalues --    0.25183   0.26169   0.31023   0.32111   0.33247
 Alpha virt. eigenvalues --    0.35005   0.36250   0.36658   0.37411   0.39944
 Alpha virt. eigenvalues --    0.40482   0.41846   0.42336   0.44571   0.45369
 Alpha virt. eigenvalues --    0.45792   0.45962   0.46680   0.46777   0.48462
 Alpha virt. eigenvalues --    0.49976   0.50725   0.51157   0.51881   0.52218
 Alpha virt. eigenvalues --    0.53428   0.55139   0.55324   0.56283   0.56527
 Alpha virt. eigenvalues --    0.57698   0.58203   0.58519   0.59036   0.60346
 Alpha virt. eigenvalues --    0.60902   0.61124   0.62619   0.63048   0.64192
 Alpha virt. eigenvalues --    0.64554   0.64939   0.65391   0.65480   0.65964
 Alpha virt. eigenvalues --    0.66666   0.67685   0.68307   0.69148   0.69246
 Alpha virt. eigenvalues --    0.69873   0.70338   0.70831   0.72441   0.73166
 Alpha virt. eigenvalues --    0.74055   0.74636   0.75347   0.75569   0.76597
 Alpha virt. eigenvalues --    0.76996   0.77992   0.78436   0.80212   0.81028
 Alpha virt. eigenvalues --    0.81623   0.82179   0.82671   0.82755   0.83463
 Alpha virt. eigenvalues --    0.84772   0.85485   0.86971   0.87250   0.88382
 Alpha virt. eigenvalues --    0.88845   0.89642   0.90202   0.91465   0.91904
 Alpha virt. eigenvalues --    0.92862   0.93995   0.95326   0.96796   0.98433
 Alpha virt. eigenvalues --    0.98588   0.99541   1.00424   1.01164   1.02049
 Alpha virt. eigenvalues --    1.03447   1.05101   1.05810   1.07259   1.09703
 Alpha virt. eigenvalues --    1.10522   1.12450   1.13486   1.14407   1.14843
 Alpha virt. eigenvalues --    1.15984   1.18293   1.18981   1.19410   1.20003
 Alpha virt. eigenvalues --    1.22194   1.24443   1.24988   1.25490   1.27291
 Alpha virt. eigenvalues --    1.28399   1.30827   1.32119   1.33059   1.34313
 Alpha virt. eigenvalues --    1.34585   1.35219   1.35851   1.36578   1.36960
 Alpha virt. eigenvalues --    1.39680   1.41447   1.42584   1.42903   1.44016
 Alpha virt. eigenvalues --    1.44907   1.46570   1.48892   1.49911   1.51465
 Alpha virt. eigenvalues --    1.51892   1.52455   1.52975   1.53360   1.55144
 Alpha virt. eigenvalues --    1.55829   1.57566   1.58283   1.59212   1.61096
 Alpha virt. eigenvalues --    1.62444   1.63924   1.65147   1.67133   1.68691
 Alpha virt. eigenvalues --    1.69678   1.72003   1.73430   1.74427   1.75514
 Alpha virt. eigenvalues --    1.77041   1.79896   1.81050   1.82161   1.82942
 Alpha virt. eigenvalues --    1.84252   1.86164   1.88191   1.90553   1.91171
 Alpha virt. eigenvalues --    1.94865   1.94981   1.97834   1.99545   2.01218
 Alpha virt. eigenvalues --    2.02438   2.03937   2.05312   2.07017   2.08437
 Alpha virt. eigenvalues --    2.10206   2.10479   2.12459   2.12934   2.15214
 Alpha virt. eigenvalues --    2.15624   2.16819   2.18181   2.20419   2.23119
 Alpha virt. eigenvalues --    2.25157   2.26010   2.26670   2.27729   2.29271
 Alpha virt. eigenvalues --    2.29717   2.30036   2.31800   2.33111   2.33441
 Alpha virt. eigenvalues --    2.35350   2.36044   2.36754   2.38360   2.39303
 Alpha virt. eigenvalues --    2.40366   2.41433   2.42627   2.44739   2.46553
 Alpha virt. eigenvalues --    2.47923   2.48463   2.50390   2.52733   2.53341
 Alpha virt. eigenvalues --    2.54376   2.55613   2.57300   2.59270   2.60387
 Alpha virt. eigenvalues --    2.61276   2.63290   2.64905   2.67246   2.68611
 Alpha virt. eigenvalues --    2.69348   2.70377   2.70950   2.72009   2.72490
 Alpha virt. eigenvalues --    2.73151   2.75497   2.78431   2.79514   2.81006
 Alpha virt. eigenvalues --    2.81754   2.83031   2.84105   2.85082   2.86521
 Alpha virt. eigenvalues --    2.87631   2.88621   2.89393   2.90859   2.91230
 Alpha virt. eigenvalues --    2.92000   2.92109   2.92989   2.93444   2.95880
 Alpha virt. eigenvalues --    2.96757   2.97311   2.99566   2.99866   3.00715
 Alpha virt. eigenvalues --    3.01633   3.03630   3.04304   3.05239   3.07681
 Alpha virt. eigenvalues --    3.08877   3.09892   3.10926   3.11599   3.12920
 Alpha virt. eigenvalues --    3.14380   3.15589   3.16110   3.17312   3.18549
 Alpha virt. eigenvalues --    3.20166   3.21169   3.21622   3.23928   3.24708
 Alpha virt. eigenvalues --    3.25274   3.26150   3.27068   3.27298   3.28507
 Alpha virt. eigenvalues --    3.29452   3.30257   3.32220   3.32778   3.33273
 Alpha virt. eigenvalues --    3.33770   3.35292   3.37206   3.39225   3.39476
 Alpha virt. eigenvalues --    3.40947   3.41397   3.43271   3.44159   3.45055
 Alpha virt. eigenvalues --    3.47008   3.47776   3.49405   3.50202   3.52483
 Alpha virt. eigenvalues --    3.54501   3.55173   3.56425   3.57575   3.59707
 Alpha virt. eigenvalues --    3.62219   3.64372   3.66113   3.67308   3.68052
 Alpha virt. eigenvalues --    3.69155   3.71200   3.71794   3.73688   3.74610
 Alpha virt. eigenvalues --    3.77126   3.77176   3.79256   3.79923   3.80816
 Alpha virt. eigenvalues --    3.82013   3.86653   3.88223   3.89507   3.90657
 Alpha virt. eigenvalues --    3.92064   3.93834   3.96516   3.97600   4.00192
 Alpha virt. eigenvalues --    4.00475   4.04186   4.06413   4.06919   4.10337
 Alpha virt. eigenvalues --    4.11922   4.13484   4.16656   4.18828   4.20607
 Alpha virt. eigenvalues --    4.23956   4.26438   4.26550   4.28305   4.29524
 Alpha virt. eigenvalues --    4.31478   4.32743   4.34061   4.34307   4.34863
 Alpha virt. eigenvalues --    4.35119   4.38169   4.39179   4.39884   4.41080
 Alpha virt. eigenvalues --    4.41689   4.43348   4.44996   4.45708   4.47950
 Alpha virt. eigenvalues --    4.49646   4.51745   4.52539   4.54701   4.55385
 Alpha virt. eigenvalues --    4.56422   4.58128   4.58416   4.60014   4.60687
 Alpha virt. eigenvalues --    4.62107   4.63395   4.65013   4.65555   4.66297
 Alpha virt. eigenvalues --    4.68160   4.68666   4.69509   4.69756   4.71645
 Alpha virt. eigenvalues --    4.73368   4.73752   4.75727   4.76463   4.76582
 Alpha virt. eigenvalues --    4.78492   4.80509   4.83715   4.83722   4.84942
 Alpha virt. eigenvalues --    4.86691   4.87685   4.89531   4.92467   4.93990
 Alpha virt. eigenvalues --    4.94685   4.97377   4.99862   5.01216   5.03808
 Alpha virt. eigenvalues --    5.06654   5.07205   5.11243   5.14433   5.15254
 Alpha virt. eigenvalues --    5.16298   5.20816   5.25498   5.26863   5.28741
 Alpha virt. eigenvalues --    5.30615   5.31132   5.33889   5.34704   5.36807
 Alpha virt. eigenvalues --    5.37979   5.44105   5.46475   5.48382   5.51809
 Alpha virt. eigenvalues --    5.57195   5.60843   5.62366   5.64507   5.67447
 Alpha virt. eigenvalues --    5.68053   5.78776   5.82092   5.83266   5.85885
 Alpha virt. eigenvalues --    5.89208   5.97883   6.01212   6.07757   6.17688
 Alpha virt. eigenvalues --    6.19907   6.30897   6.34302   6.52541   6.84974
 Alpha virt. eigenvalues --    6.89224   7.09310   7.41627   8.61764  10.18173
 Alpha virt. eigenvalues --   10.28993  10.55268  10.69628  10.78142  10.98611
 Alpha virt. eigenvalues --   11.08211  11.28353  11.38565  11.64793  11.94129
 Alpha virt. eigenvalues --   12.09613  12.27430  12.52621  12.95746  13.13450
          Condensed to atoms (all electrons):
               1          2          3          4          5          6
     1  C    5.498490   0.026812   0.000021  -0.015051  -0.000834   0.000018
     2  C    0.026812   5.760191  -0.066977   0.433112   0.020807   0.002727
     3  C    0.000021  -0.066977   6.286899   0.134721   0.095598  -0.001013
     4  C   -0.015051   0.433112   0.134721   5.328641  -0.083657   0.000977
     5  C   -0.000834   0.020807   0.095598  -0.083657   5.307388   0.187388
     6  C    0.000018   0.002727  -0.001013   0.000977   0.187388   5.854502
     7  C    0.000000   0.000111  -0.163147   0.011587   0.241635   0.076094
     8  C    0.000000   0.000008   0.002843  -0.000653   0.022979  -0.065036
     9  C    0.000000   0.000000  -0.000055   0.000038  -0.001280   0.011583
    10  C   -0.000000   0.000000  -0.000000  -0.000000   0.000062  -0.001197
    11  C   -0.000000  -0.000000   0.000000   0.000000   0.000003   0.000057
    12  C   -0.000000  -0.000000   0.000000  -0.000000  -0.000004   0.000090
    13  C    0.000000  -0.000000   0.000000   0.000000   0.000000  -0.000000
    14  O    0.000000   0.000000  -0.000000  -0.000000  -0.000000  -0.000000
    15  C    0.000000   0.000000  -0.000181  -0.000006   0.002127  -0.002499
    16  C    0.000000   0.000222   0.015880   0.007677  -0.037520  -0.103046
    17  H    0.266016   0.005219  -0.000006  -0.000111  -0.000005   0.000000
    18  H    0.322762  -0.000951   0.000015   0.000342   0.000032  -0.000000
    19  H    0.364299  -0.013278   0.000024   0.000314   0.000032  -0.000000
    20  H    0.115222  -0.067950   0.001305   0.014147   0.003276  -0.000174
    21  H   -0.166263   0.205337   0.000107   0.002447   0.004361  -0.000070
    22  H    0.001482  -0.024365  -0.019063   0.358920  -0.034739   0.001269
    23  H    0.000023   0.000548   0.026402  -0.008349  -0.226393   0.027808
    24  H    0.000004   0.000153   0.033725  -0.008736  -0.054700   0.311578
    25  H   -0.000000  -0.000012  -0.001877  -0.000596  -0.001129  -0.053696
    26  H   -0.000000  -0.000001  -0.000076  -0.000065   0.003069  -0.034363
    27  H    0.000000   0.000000  -0.000338   0.000003  -0.000779   0.003679
    28  H   -0.000000  -0.000000   0.000000  -0.000000   0.000004  -0.000032
    29  H    0.000000   0.000000   0.000000   0.000000  -0.000000  -0.000001
    30  H    0.000000   0.000000  -0.000000  -0.000000  -0.000000   0.000000
    31  H    0.000000   0.000000  -0.000000  -0.000000  -0.000000   0.000000
    32  H    0.000000   0.000000  -0.000000   0.000000   0.000000   0.000000
    33  H   -0.000000   0.000000   0.000000   0.000000  -0.000001   0.000004
    34  H   -0.000015  -0.000809   0.028273  -0.006299  -0.000959  -0.010161
               7          8          9         10         11         12
     1  C    0.000000   0.000000   0.000000  -0.000000  -0.000000  -0.000000
     2  C    0.000111   0.000008   0.000000   0.000000  -0.000000  -0.000000
     3  C   -0.163147   0.002843  -0.000055  -0.000000   0.000000   0.000000
     4  C    0.011587  -0.000653   0.000038  -0.000000   0.000000  -0.000000
     5  C    0.241635   0.022979  -0.001280   0.000062   0.000003  -0.000004
     6  C    0.076094  -0.065036   0.011583  -0.001197   0.000057   0.000090
     7  C    5.290118   0.379804   0.055881  -0.027791   0.005019   0.003587
     8  C    0.379804   5.206506   0.405655  -0.036575  -0.003303  -0.005733
     9  C    0.055881   0.405655   5.613330   0.398328  -0.042084   0.000889
    10  C   -0.027791  -0.036575   0.398328   4.847561   0.081443   0.306865
    11  C    0.005019  -0.003303  -0.042084   0.081443   5.597194   0.334043
    12  C    0.003587  -0.005733   0.000889   0.306865   0.334043   5.382008
    13  C    0.000013   0.000375   0.001045  -0.013618   0.009082   0.094039
    14  O   -0.000013  -0.000676   0.003084  -0.066757   0.000376  -0.007956
    15  C   -0.103805   0.013000   0.094486   0.005424  -0.003145  -0.066279
    16  C    0.177477  -0.015230  -0.044100   0.001711  -0.000189   0.000702
    17  H    0.000000  -0.000000  -0.000000   0.000000   0.000000   0.000000
    18  H    0.000000  -0.000000  -0.000000   0.000000   0.000000   0.000000
    19  H   -0.000000   0.000000  -0.000000   0.000000   0.000000   0.000000
    20  H   -0.000001   0.000000   0.000000  -0.000000  -0.000000  -0.000000
    21  H    0.000001  -0.000000  -0.000000   0.000000   0.000000   0.000000
    22  H   -0.000174  -0.000074  -0.000000  -0.000000   0.000000   0.000000
    23  H   -0.059301  -0.006590  -0.000047   0.000048  -0.000090  -0.000032
    24  H   -0.067414  -0.020100   0.000308  -0.000015   0.000001   0.000001
    25  H    0.018944  -0.081231  -0.065619   0.009227  -0.012164   0.000464
    26  H   -0.023397   0.343511  -0.081026   0.000795   0.000114  -0.000437
    27  H    0.012578  -0.035062  -0.032193  -0.017054   0.021905  -0.003966
    28  H   -0.000302   0.003379  -0.065626   0.316185  -0.003165  -0.081894
    29  H   -0.000146  -0.000387   0.008474   0.003556   0.250512  -0.046324
    30  H   -0.000000  -0.000005  -0.000068  -0.001061  -0.000294  -0.001117
    31  H   -0.000000  -0.000006   0.000101   0.000929   0.002726  -0.002320
    32  H    0.000031   0.000213   0.000680   0.010384   0.001052   0.003179
    33  H    0.002641   0.003711  -0.046351  -0.047340  -0.010240   0.333200
    34  H   -0.005383  -0.000283  -0.000338   0.000004  -0.000011   0.000005
              13         14         15         16         17         18
     1  C    0.000000   0.000000   0.000000   0.000000   0.266016   0.322762
     2  C   -0.000000   0.000000   0.000000   0.000222   0.005219  -0.000951
     3  C    0.000000  -0.000000  -0.000181   0.015880  -0.000006   0.000015
     4  C    0.000000  -0.000000  -0.000006   0.007677  -0.000111   0.000342
     5  C    0.000000  -0.000000   0.002127  -0.037520  -0.000005   0.000032
     6  C   -0.000000  -0.000000  -0.002499  -0.103046   0.000000  -0.000000
     7  C    0.000013  -0.000013  -0.103805   0.177477   0.000000   0.000000
     8  C    0.000375  -0.000676   0.013000  -0.015230  -0.000000  -0.000000
     9  C    0.001045   0.003084   0.094486  -0.044100  -0.000000  -0.000000
    10  C   -0.013618  -0.066757   0.005424   0.001711   0.000000   0.000000
    11  C    0.009082   0.000376  -0.003145  -0.000189   0.000000   0.000000
    12  C    0.094039  -0.007956  -0.066279   0.000702   0.000000   0.000000
    13  C    5.518482   0.259880   0.000575  -0.000001   0.000000   0.000000
    14  O    0.259880   7.845288  -0.000060   0.000000   0.000000   0.000000
    15  C    0.000575  -0.000060   6.023291   0.111903  -0.000000  -0.000000
    16  C   -0.000001   0.000000   0.111903   6.159687  -0.000000  -0.000000
    17  H    0.000000   0.000000  -0.000000  -0.000000   0.794369  -0.028315
    18  H    0.000000   0.000000  -0.000000  -0.000000  -0.028315   0.582940
    19  H    0.000000   0.000000  -0.000000   0.000000  -0.052048  -0.029712
    20  H   -0.000000   0.000000  -0.000000   0.000001  -0.022976  -0.006801
    21  H    0.000000  -0.000000  -0.000000  -0.000001   0.004660   0.005569
    22  H    0.000000  -0.000000   0.000000   0.000018  -0.000004  -0.000019
    23  H   -0.000000   0.000000  -0.005889   0.066492  -0.000000  -0.000001
    24  H    0.000000  -0.000000  -0.000363   0.011054  -0.000000  -0.000000
    25  H   -0.000050   0.000007  -0.002994   0.029234   0.000000   0.000000
    26  H   -0.000025  -0.000030   0.013233   0.003339   0.000000   0.000000
    27  H    0.000046  -0.000003   0.148936   0.010932  -0.000000  -0.000000
    28  H   -0.029289   0.068852   0.003401  -0.000074   0.000000   0.000000
    29  H   -0.005804   0.000115  -0.000611  -0.000017   0.000000  -0.000000
    30  H    0.255172  -0.050463  -0.000001   0.000000   0.000000   0.000000
    31  H    0.221085  -0.043893  -0.000002   0.000000   0.000000   0.000000
    32  H   -0.090617   0.303806  -0.000007   0.000000   0.000000  -0.000000
    33  H    0.001677  -0.000136   0.059634  -0.000500   0.000000   0.000000
    34  H   -0.000000   0.000000  -0.001174   0.039669   0.000000   0.000001
              19         20         21         22         23         24
     1  C    0.364299   0.115222  -0.166263   0.001482   0.000023   0.000004
     2  C   -0.013278  -0.067950   0.205337  -0.024365   0.000548   0.000153
     3  C    0.000024   0.001305   0.000107  -0.019063   0.026402   0.033725
     4  C    0.000314   0.014147   0.002447   0.358920  -0.008349  -0.008736
     5  C    0.000032   0.003276   0.004361  -0.034739  -0.226393  -0.054700
     6  C   -0.000000  -0.000174  -0.000070   0.001269   0.027808   0.311578
     7  C   -0.000000  -0.000001   0.000001  -0.000174  -0.059301  -0.067414
     8  C    0.000000   0.000000  -0.000000  -0.000074  -0.006590  -0.020100
     9  C   -0.000000   0.000000  -0.000000  -0.000000  -0.000047   0.000308
    10  C    0.000000  -0.000000   0.000000  -0.000000   0.000048  -0.000015
    11  C    0.000000  -0.000000   0.000000   0.000000  -0.000090   0.000001
    12  C    0.000000  -0.000000   0.000000   0.000000  -0.000032   0.000001
    13  C    0.000000  -0.000000   0.000000   0.000000  -0.000000   0.000000
    14  O    0.000000   0.000000  -0.000000  -0.000000   0.000000  -0.000000
    15  C   -0.000000  -0.000000  -0.000000   0.000000  -0.005889  -0.000363
    16  C    0.000000   0.000001  -0.000001   0.000018   0.066492   0.011054
    17  H   -0.052048  -0.022976   0.004660  -0.000004  -0.000000  -0.000000
    18  H   -0.029712  -0.006801   0.005569  -0.000019  -0.000001  -0.000000
    19  H    0.548185   0.000684   0.007004  -0.000024  -0.000000  -0.000000
    20  H    0.000684   0.908120   0.029039  -0.002985   0.000043   0.000021
    21  H    0.007004   0.029039   0.825000  -0.003755  -0.000027  -0.000083
    22  H   -0.000024  -0.002985  -0.003755   0.495292  -0.001462   0.006204
    23  H   -0.000000   0.000043  -0.000027  -0.001462   0.850377   0.013292
    24  H   -0.000000   0.000021  -0.000083   0.006204   0.013292   0.701346
    25  H    0.000000  -0.000000   0.000000  -0.000009   0.009481  -0.000983
    26  H    0.000000  -0.000000   0.000000   0.000002  -0.000000   0.002065
    27  H   -0.000000   0.000000  -0.000000   0.000000   0.003054  -0.000003
    28  H    0.000000  -0.000000   0.000000  -0.000000  -0.000005  -0.000011
    29  H   -0.000000   0.000000  -0.000000  -0.000000   0.000002   0.000000
    30  H    0.000000   0.000000  -0.000000  -0.000000   0.000000  -0.000000
    31  H    0.000000   0.000000  -0.000000  -0.000000   0.000000   0.000000
    32  H   -0.000000   0.000000  -0.000000   0.000000  -0.000000   0.000000
    33  H    0.000000  -0.000000   0.000000   0.000000  -0.000012   0.000001
    34  H    0.000000  -0.000006   0.000013  -0.000194   0.079274  -0.001456
              25         26         27         28         29         30
     1  C   -0.000000  -0.000000   0.000000  -0.000000   0.000000   0.000000
     2  C   -0.000012  -0.000001   0.000000  -0.000000   0.000000   0.000000
     3  C   -0.001877  -0.000076  -0.000338   0.000000   0.000000  -0.000000
     4  C   -0.000596  -0.000065   0.000003  -0.000000   0.000000  -0.000000
     5  C   -0.001129   0.003069  -0.000779   0.000004  -0.000000  -0.000000
     6  C   -0.053696  -0.034363   0.003679  -0.000032  -0.000001   0.000000
     7  C    0.018944  -0.023397   0.012578  -0.000302  -0.000146  -0.000000
     8  C   -0.081231   0.343511  -0.035062   0.003379  -0.000387  -0.000005
     9  C   -0.065619  -0.081026  -0.032193  -0.065626   0.008474  -0.000068
    10  C    0.009227   0.000795  -0.017054   0.316185   0.003556  -0.001061
    11  C   -0.012164   0.000114   0.021905  -0.003165   0.250512  -0.000294
    12  C    0.000464  -0.000437  -0.003966  -0.081894  -0.046324  -0.001117
    13  C   -0.000050  -0.000025   0.000046  -0.029289  -0.005804   0.255172
    14  O    0.000007  -0.000030  -0.000003   0.068852   0.000115  -0.050463
    15  C   -0.002994   0.013233   0.148936   0.003401  -0.000611  -0.000001
    16  C    0.029234   0.003339   0.010932  -0.000074  -0.000017   0.000000
    17  H    0.000000   0.000000  -0.000000   0.000000   0.000000   0.000000
    18  H    0.000000   0.000000  -0.000000   0.000000  -0.000000   0.000000
    19  H    0.000000   0.000000  -0.000000   0.000000  -0.000000   0.000000
    20  H   -0.000000  -0.000000   0.000000  -0.000000   0.000000   0.000000
    21  H    0.000000   0.000000  -0.000000   0.000000  -0.000000  -0.000000
    22  H   -0.000009   0.000002   0.000000  -0.000000  -0.000000  -0.000000
    23  H    0.009481  -0.000000   0.003054  -0.000005   0.000002   0.000000
    24  H   -0.000983   0.002065  -0.000003  -0.000011   0.000000  -0.000000
    25  H    0.937370   0.021432  -0.022937   0.000773  -0.000129   0.000000
    26  H    0.021432   0.666061  -0.003238   0.004904   0.000004   0.000001
    27  H   -0.022937  -0.003238   0.750168  -0.000805  -0.000463  -0.000000
    28  H    0.000773   0.004904  -0.000805   0.634681  -0.000621   0.004689
    29  H   -0.000129   0.000004  -0.000463  -0.000621   0.686081   0.000089
    30  H    0.000000   0.000001  -0.000000   0.004689   0.000089   0.796558
    31  H    0.000000   0.000001  -0.000000  -0.001023   0.000087  -0.047806
    32  H    0.000005   0.000209   0.000001  -0.028521   0.000038  -0.011328
    33  H   -0.004938  -0.000440   0.013506   0.004632  -0.094622  -0.000087
    34  H    0.018046  -0.000003  -0.001349   0.000000  -0.000001   0.000000
              31         32         33         34
     1  C    0.000000   0.000000  -0.000000  -0.000015
     2  C    0.000000   0.000000   0.000000  -0.000809
     3  C   -0.000000  -0.000000   0.000000   0.028273
     4  C   -0.000000   0.000000   0.000000  -0.006299
     5  C   -0.000000   0.000000  -0.000001  -0.000959
     6  C    0.000000   0.000000   0.000004  -0.010161
     7  C   -0.000000   0.000031   0.002641  -0.005383
     8  C   -0.000006   0.000213   0.003711  -0.000283
     9  C    0.000101   0.000680  -0.046351  -0.000338
    10  C    0.000929   0.010384  -0.047340   0.000004
    11  C    0.002726   0.001052  -0.010240  -0.000011
    12  C   -0.002320   0.003179   0.333200   0.000005
    13  C    0.221085  -0.090617   0.001677  -0.000000
    14  O   -0.043893   0.303806  -0.000136   0.000000
    15  C   -0.000002  -0.000007   0.059634  -0.001174
    16  C    0.000000   0.000000  -0.000500   0.039669
    17  H    0.000000   0.000000   0.000000   0.000000
    18  H    0.000000  -0.000000   0.000000   0.000001
    19  H    0.000000  -0.000000   0.000000   0.000000
    20  H    0.000000   0.000000  -0.000000  -0.000006
    21  H   -0.000000  -0.000000   0.000000   0.000013
    22  H   -0.000000   0.000000   0.000000  -0.000194
    23  H    0.000000  -0.000000  -0.000012   0.079274
    24  H    0.000000   0.000000   0.000001  -0.001456
    25  H    0.000000   0.000005  -0.004938   0.018046
    26  H    0.000001   0.000209  -0.000440  -0.000003
    27  H   -0.000000   0.000001   0.013506  -0.001349
    28  H   -0.001023  -0.028521   0.004632   0.000000
    29  H    0.000087   0.000038  -0.094622  -0.000001
    30  H   -0.047806  -0.011328  -0.000087   0.000000
    31  H    0.854140   0.013577  -0.000037  -0.000000
    32  H    0.013577   0.486629  -0.000133  -0.000000
    33  H   -0.000037  -0.000133   0.598444  -0.000009
    34  H   -0.000000  -0.000000  -0.000009   0.696214
 Mulliken charges:
               1
     1  C   -0.412985
     2  C   -0.280905
     3  C   -0.373082
     4  C   -0.169401
     5  C    0.553240
     6  C   -0.206486
     7  C    0.175352
     8  C   -0.111038
     9  C   -0.215094
    10  C    0.228886
    11  C   -0.228845
    12  C   -0.243011
    13  C   -0.222069
    14  O   -0.311421
    15  C   -0.288993
    16  C   -0.435321
    17  H    0.033201
    18  H    0.154140
    19  H    0.174519
    20  H    0.029035
    21  H    0.086663
    22  H    0.223680
    23  H    0.231354
    24  H    0.074112
    25  H    0.203380
    26  H    0.084360
    27  H    0.153384
    28  H    0.169869
    29  H    0.200168
    30  H    0.055721
    31  H    0.002440
    32  H    0.310802
    33  H    0.187397
    34  H    0.166950
 Sum of Mulliken charges =  -0.00000
 Mulliken charges with hydrogens summed into heavy atoms:
               1
     1  C   -0.051125
     2  C   -0.165208
     3  C   -0.373082
     4  C    0.054279
     5  C    0.784594
     6  C   -0.132374
     7  C    0.378732
     8  C   -0.026678
     9  C   -0.215094
    10  C    0.398755
    11  C   -0.028677
    12  C   -0.055614
    13  C   -0.163909
    14  O   -0.000618
    15  C   -0.135610
    16  C   -0.268372
 Electronic spatial extent (au):  <R**2>=           6859.9808
 Charge=             -0.0000 electrons
 Dipole moment (field-independent basis, Debye):
    X=              1.8247    Y=             -2.7950    Z=             -0.0193  Tot=              3.3379
 Quadrupole moment (field-independent basis, Debye-Ang):
   XX=           -127.1936   YY=            -99.5597   ZZ=           -106.2666
   XY=             -7.8958   XZ=              6.3425   YZ=              4.1772
 Traceless Quadrupole moment (field-independent basis, Debye-Ang):
   XX=            -16.1870   YY=             11.4470   ZZ=              4.7400
   XY=             -7.8958   XZ=              6.3425   YZ=              4.1772
 Octapole moment (field-independent basis, Debye-Ang**2):
  XXX=             84.6054  YYY=            -19.9695  ZZZ=             -4.6775  XYY=            -15.3163
  XXY=              5.4266  XXZ=            -35.3727  XZZ=              0.7899  YZZ=            -13.5999
  YYZ=             -0.2312  XYZ=             -1.8245
 Hexadecapole moment (field-independent basis, Debye-Ang**3):
 XXXX=         -10052.5378 YYYY=           -696.2790 ZZZZ=           -219.9576 XXXY=             82.3814
 XXXZ=             18.0282 YYYX=            -19.7334 YYYZ=             11.5153 ZZZX=             29.2462
 ZZZY=              4.5489 XXYY=          -1626.8640 XXZZ=          -1621.4097 YYZZ=           -161.1500
 XXYZ=             41.4416 YYXZ=             11.5048 ZZXY=             47.5906
 N-N= 1.000741385025D+03 E-N=-3.522438332892D+03  KE= 6.559800226855D+02
 PrsmSu:  requested number of processors reduced to:  13 ShMem   1 Linda.
 Calling FoFJK, ICntrl=      2127 FMM=F ISym2X=0 I1Cent= 0 IOpClX= 0 NMat=1 NMatS=1 NMatT=0.
 ***** Axes restored to original set *****
 -------------------------------------------------------------------
 Center     Atomic                   Forces (Hartrees/Bohr)
 Number     Number              X              Y              Z
 -------------------------------------------------------------------
      1        6          -0.104269674   -0.080651929    0.000558700
      2        6          -0.020867875   -0.018722426    0.077630581
      3        6          -1.057097479    0.515562041   -0.006588748
      4        6          -0.104558836   -0.129241515    0.087846139
      5        6           0.882231779   -0.471423859    0.025206561
      6        6           0.133488373   -0.017108200   -0.025679949
      7        6          -0.284588318   -0.003337798    0.054620665
      8        6           0.121224369    0.034479706   -0.090226452
      9        6          -0.007632326    0.029427778    0.105433757
     10        6           0.027003503   -0.216144935    0.031077080
     11        6          -0.019359969    0.055721502   -0.198567773
     12        6           0.027078579    0.335946624    0.033444316
     13        6           0.201101275   -0.009258031   -0.024007848
     14        8          -0.052366589    0.009059558    0.038943441
     15        6          -0.074921548   -0.032922634   -0.104864667
     16        6           0.035551527   -0.020245174   -0.004290094
     17        1           0.053781240    0.033930705   -0.028170714
     18        1           0.016334025    0.017784339   -0.003322494
     19        1           0.032785572    0.018877291   -0.014787868
     20        1          -0.008791185    0.022387454    0.013449163
     21        1           0.047281834    0.029810762   -0.057855464
     22        1           0.014453102    0.032184026   -0.016109891
     23        1           0.011512242    0.084298713   -0.071157544
     24        1           0.080001483   -0.106567248    0.073685497
     25        1          -0.080128299    0.003737827   -0.009318438
     26        1           0.142271006   -0.100725206    0.079800307
     27        1          -0.002438931    0.067130391    0.013073457
     28        1           0.026393081   -0.049191755   -0.000732515
     29        1           0.031071187   -0.083138706   -0.030193152
     30        1          -0.068475366    0.019971385   -0.025804227
     31        1          -0.067959379    0.032067121   -0.004687483
     32        1           0.031736901   -0.030349884    0.027975569
     33        1           0.006306582    0.027105067    0.059530312
     34        1           0.031848115   -0.000452994   -0.005910222
 -------------------------------------------------------------------
 Cartesian Forces:  Max     1.057097479 RMS     0.171052466

 GradGradGradGradGradGradGradGradGradGradGradGradGradGradGradGradGradGrad
 Berny optimization.
 FormGI is forming the generalized inverse of G from B-inverse, IUseBI=4.
 Internal  Forces:  Max     0.986230277 RMS     0.096801048
 Search for a local minimum.
 Step number   1 out of a maximum of  190
 All quantities printed in internal units (Hartrees-Bohrs-Radians)
 Mixed Optimization -- RFO/linear search
 Second derivative matrix not updated -- first step.
 ITU=  0
     Eigenvalues ---    0.00230   0.00659   0.00701   0.01092   0.01153
     Eigenvalues ---    0.01260   0.01374   0.01461   0.01467   0.01516
     Eigenvalues ---    0.01745   0.02006   0.02037   0.02333   0.02395
     Eigenvalues ---    0.02723   0.02766   0.02883   0.02984   0.03043
     Eigenvalues ---    0.03813   0.03926   0.03972   0.04005   0.04282
     Eigenvalues ---    0.04451   0.05293   0.05558   0.06281   0.06499
     Eigenvalues ---    0.06551   0.06610   0.07108   0.07290   0.07681
     Eigenvalues ---    0.07781   0.07855   0.08333   0.09524   0.09583
     Eigenvalues ---    0.10161   0.10291   0.10709   0.10750   0.11149
     Eigenvalues ---    0.11441   0.12081   0.12293   0.12430   0.12916
     Eigenvalues ---    0.13555   0.14061   0.14248   0.14408   0.14658
     Eigenvalues ---    0.14935   0.15234   0.15935   0.15936   0.15962
     Eigenvalues ---    0.15983   0.15996   0.16000   0.16000   0.16000
     Eigenvalues ---    0.16000   0.16840   0.17323   0.18701   0.19445
     Eigenvalues ---    0.19911   0.20410   0.20585   0.21038   0.21839
     Eigenvalues ---    0.22763   0.23409   0.29146   0.30976   0.31224
     Eigenvalues ---    0.31658   0.38643   0.41572   0.42350   0.43484
     Eigenvalues ---    0.43517   0.49379   0.50332   0.57220   0.59058
     Eigenvalues ---    0.62356   0.65214   0.78739   0.83338   0.98911
     Eigenvalues ---    3.36363
 RFO step:  Lambda=-7.19585478D-01 EMin= 2.30000000D-03
 Linear search not attempted -- first point.
 Maximum step size (   0.300) exceeded in Quadratic search.
    -- Step size scaled by   0.471
 Iteration  1 RMS(Cart)=  0.08349274 RMS(Int)=  0.00075289
 Iteration  2 RMS(Cart)=  0.00144485 RMS(Int)=  0.00020045
 Iteration  3 RMS(Cart)=  0.00000103 RMS(Int)=  0.00020045
 Iteration  4 RMS(Cart)=  0.00000000 RMS(Int)=  0.00020045
 Variable       Old X    -DE/DX   Delta X   Delta X   Delta X     New X
                                 (Linear)    (Quad)   (Total)
    R1        2.64363  -0.06208   0.00000  -0.03386  -0.03386   2.60976
    R2        2.12287  -0.01256   0.00000  -0.00573  -0.00573   2.11714
    R3        2.11474  -0.01456   0.00000  -0.00662  -0.00662   2.10812
    R4        3.64371  -0.02447   0.00000  -0.01508  -0.01504   3.62867
    R5        3.64506   0.03090   0.00000   0.01904   0.01896   3.66403
    R6        2.73441  -0.02382   0.00000  -0.01014  -0.01014   2.72426
    R7        3.19805  -0.01593   0.00000  -0.00908  -0.00908   3.18897
    R8        3.15775  -0.07810   0.00000  -0.04607  -0.04602   3.11173
    R9        3.05193   0.20187   0.00000   0.02477   0.02417   3.07611
   R10        1.84371   0.98623   0.00000   0.11404   0.11440   1.95811
   R11        2.62627   0.01678   0.00000   0.03506   0.03549   2.66177
   R12        2.12758  -0.02372   0.00000  -0.01086  -0.01086   2.11672
   R13        2.36325   0.21739   0.00000   0.06841   0.06857   2.43182
   R14        2.37221   0.10869   0.00000   0.05111   0.05102   2.42323
   R15        2.45417   0.08075   0.00000   0.03075   0.03090   2.48507
   R16        1.78393   0.15206   0.00000   0.05468   0.05468   1.83861
   R17        2.26386   0.30528   0.00000   0.08505   0.08503   2.34889
   R18        2.47372   0.06614   0.00000   0.03460   0.03438   2.50810
   R19        2.55345   0.08782   0.00000   0.03654   0.03675   2.59020
   R20        1.73738   0.19153   0.00000   0.06578   0.06578   1.80316
   R21        2.53210   0.16227   0.00000   0.05918   0.05918   2.59128
   R22        3.35911   0.04401   0.00000   0.01996   0.02028   3.37940
   R23        2.83824   0.11408   0.00000   0.04556   0.04552   2.88376
   R24        2.29843   0.26232   0.00000   0.07868   0.07887   2.37731
   R25        1.93737   0.07460   0.00000   0.03044   0.03044   1.96780
   R26        2.49989   0.09022   0.00000   0.03433   0.03425   2.53415
   R27        2.85244  -0.04686   0.00000  -0.03208  -0.03226   2.82018
   R28        2.08082  -0.01441   0.00000  -0.00593  -0.00591   2.07491
   R29        2.67077   0.05836   0.00000   0.02381   0.02381   2.69459
   R30        2.75930  -0.06163   0.00000  -0.03440  -0.03440   2.72489
   R31        2.87864  -0.06298   0.00000  -0.03587  -0.03587   2.84277
   R32        1.87197  -0.00808   0.00000  -0.00314  -0.00314   1.86884
   R33        2.72460  -0.06450   0.00000  -0.03581  -0.03590   2.68869
   R34        2.73089  -0.00841   0.00000  -0.01167  -0.01180   2.71909
   R35        2.69099  -0.05514   0.00000  -0.03193  -0.03206   2.65893
   R36        2.92002  -0.01358   0.00000  -0.00872  -0.00872   2.91131
   R37        2.56118  -0.02214   0.00000  -0.01307  -0.01307   2.54811
   R38        2.44221   0.06380   0.00000   0.03221   0.03195   2.47417
   R39        2.74416   0.04883   0.00000   0.02932   0.02932   2.77348
   R40        2.79746   0.04708   0.00000   0.02846   0.02856   2.82602
    A1        1.51742   0.01969   0.00000   0.01102   0.01102   1.52844
    A2        1.51986   0.03055   0.00000   0.01674   0.01671   1.53657
    A3        1.75151  -0.03299   0.00000  -0.01789  -0.01797   1.73353
    A4        1.74827  -0.01688   0.00000  -0.00859  -0.00852   1.73975
    A5        1.82729   0.01182   0.00000   0.00625   0.00622   1.83351
    A6        1.81141   0.00409   0.00000   0.00249   0.00255   1.81396
    A7        2.63274  -0.00261   0.00000  -0.00170  -0.00180   2.63094
    A8        2.63348  -0.01693   0.00000  -0.00937  -0.00940   2.62407
    A9        1.81311  -0.01271   0.00000  -0.00665  -0.00665   1.80646
   A10        1.95012  -0.02058   0.00000  -0.01117  -0.01111   1.93901
   A11        1.97448  -0.02019   0.00000  -0.01019  -0.01032   1.96416
   A12        1.76549  -0.17562   0.00000  -0.02007  -0.01999   1.74550
   A13        2.39547   0.15946   0.00000   0.01687   0.01678   2.41224
   A14        1.75791   0.01611   0.00000   0.01164   0.01163   1.76954
   A15        2.74021   0.13527   0.00000   0.00656   0.00645   2.74666
   A16        2.12924  -0.17556   0.00000  -0.02858  -0.02848   2.10077
   A17        2.57968   0.10494   0.00000   0.02391   0.02358   2.60325
   A18        1.28899   0.10603   0.00000   0.02165   0.02117   1.31016
   A19        2.16491   0.10894   0.00000   0.01795   0.01746   2.18237
   A20        2.70009  -0.10222   0.00000  -0.01886  -0.01847   2.68162
   A21        1.40925  -0.00895   0.00000   0.00019   0.00029   1.40953
   A22        2.25138  -0.07036   0.00000  -0.03099  -0.03078   2.22059
   A23        2.04070   0.03435   0.00000   0.01477   0.01467   2.05536
[...]
 --------------------------------------------------------------------------------
 Trust Radius=3.00D-01 FncErr=1.00D-07 GrdErr=1.00D-07 EigMax=2.50D+02 EigMin=1.00D-04
 Number of steps in this run=      2 maximum allowed number of steps=      2.
 GradGradGradGradGradGradGradGradGradGradGradGradGradGradGradGradGradGrad

                          Input orientation:                          
 ---------------------------------------------------------------------
 Center     Atomic      Atomic             Coordinates (Angstroms)
 Number     Number       Type             X           Y           Z
 ---------------------------------------------------------------------
      1          6           0        2.568051    1.143729    0.304911
      2          6           0        2.570843   -0.178653   -0.459908
      3          6           0        4.101765    0.815021   -2.188564
      4          6           0        3.409548   -0.181945   -1.722767
      5          6           0        4.808805    1.825037   -2.670635
      6          6           0        6.181357    2.091302   -2.348658
      7          6           0        6.926524    3.133152   -2.844402
      8          6           0        8.281504    3.412399   -2.576470
      9          6           0        8.716530    4.566585   -3.279189
     10          6           0       10.014456    5.242590   -3.224795
     11          6           0       10.383511    6.203952   -4.374198
     12          6           0        9.956845    6.723801   -3.079683
     13          6           0       11.857676    6.294251   -4.765802
     14          8           0       12.709438    6.289838   -3.642229
     15          6           0        7.654034    5.052915   -4.011614
     16          6           0        6.445785    4.197270   -3.816361
     17          1           0        1.944647    1.070943    1.200697
     18          1           0        2.178803    1.956821   -0.315368
     19          1           0        3.579663    1.421715    0.615782
     20          1           0        1.544130   -0.459539   -0.732443
     21          1           0        2.929530   -0.989544    0.188930
     22          1           0        3.416892   -1.123367   -2.277524
     23          1           0        4.312437    2.504302   -3.363991
     24          1           0        6.665395    1.402625   -1.661310
     25          1           0        6.083564    3.774907   -4.763890
     26          1           0        8.909593    2.823098   -1.919866
     27          1           0        7.671569    5.934055   -4.637438
     28          1           0       10.843699    4.682569   -2.793720
     29          1           0        9.713211    6.218311   -5.241242
     30          1           0       12.147539    5.444334   -5.395582
     31          1           0       11.990212    7.210338   -5.368123
     32          1           0       12.237994    6.806998   -2.968631
     33          1           0        9.053898    7.273068   -2.829915
     34          1           0        5.609184    4.786361   -3.414303
 ---------------------------------------------------------------------
                    Distance matrix (angstroms):
                    1          2          3          4          5
     1  C    0.000000
     2  C    1.527629   0.000000
     3  C    2.945802   2.513835   0.000000
     4  C    2.564567   1.515998   1.300029   0.000000
     5  C    3.786691   3.729686   1.323793   2.623804   0.000000
     6  C    4.582062   4.664320   2.445245   3.638999   1.434735
     7  C    5.733434   5.968737   3.712562   4.961558   2.495215
     8  C    6.789165   7.070158   4.936300   6.114252   3.819454
     9  C    7.897184   8.260454   6.046466   7.289380   4.812146
    10  C    9.203718   9.614668   7.459024   8.677930   6.251845
    11  C   10.420236  10.821141   8.560251   9.820689   7.290705
    12  C    9.858345  10.443186   8.365986   9.612370   7.118113
    13  C   11.770180  12.111337   9.839627  11.071226   8.605242
    14  O   12.037861  12.440244  10.304310  11.491574   9.126799
    15  C    7.731839   8.113122   5.822530   7.117460   4.506967
    16  C    6.430071   6.740153   4.425354   5.725330   3.101594
    17  H    1.093784   2.170535   4.025637   3.501758   4.874348
    18  H    1.094248   2.175968   2.917252   2.840744   3.532925
    19  H    1.094201   2.176237   2.916338   2.840682   3.531854
    20  H    2.166791   1.098778   3.207225   2.130161   4.431024
    21  H    2.166789   1.098722   3.206723   2.130074   4.430649
    22  H    3.539664   2.216305   2.057745   1.092741   3.284058
    23  H    4.284260   4.320313   2.068739   3.274867   1.090196
    24  H    4.552063   4.550732   2.682438   3.621489   2.155016
    25  H    6.706316   6.818659   4.395537   5.661755   3.131888
    26  H    6.927125   7.163919   5.217258   6.270536   4.286752
    27  H    8.568543   8.990793   6.704102   8.004098   5.380313
    28  H    9.518994   9.875136   7.796012   8.948578   6.678367
    29  H   10.371330  10.714276   8.366761   9.647751   7.068386
    30  H   11.948113  12.152859   9.820895  11.022571   8.624481
    31  H   12.560420  12.938789  10.641299  11.897994   9.372861
    32  H   11.674608  12.187978  10.134619  11.328678   8.949949
    33  H    9.458443  10.157514   8.163413   9.416034   6.908490
    34  H    6.029080   6.527736   4.421118   5.690673   3.156437
                    6          7          8          9         10
     6  C    0.000000
     7  C    1.373495   0.000000
     8  C    2.491548   1.409161   0.000000
     9  C    3.663335   2.334072   1.419580   0.000000
    10  C    5.038936   3.758956   2.602508   1.464428   0.000000
    11  C    6.218907   4.870405   3.929762   2.580472   1.543226
    12  C    6.020694   4.704356   3.745047   2.496350   1.489418
    13  C    7.465117   6.164461   5.087952   3.880934   2.622624
    14  O    7.868728   6.636512   5.387217   4.364025   2.921286
    15  C    3.702074   2.361598   2.268182   1.379080   2.495326
    16  C    2.580538   1.519264   2.350153   2.362463   3.765376
    17  H    5.620388   6.740522   7.739843   8.840096  10.104921
    18  H    4.491413   5.506418   6.668902   7.637866   8.981008
    19  H    4.000633   5.109146   6.021678   7.172755   8.411640
    20  H    5.533788   6.807200   7.986523   9.120919  10.510590
    21  H    5.148334   6.494127   7.461110   8.740011  10.034400
    22  H    4.240450   5.545883   6.657851   7.839965   9.216863
    23  H    2.166641   2.738408   4.147086   4.863768   6.326974
    24  H    1.086746   2.112491   2.736515   4.103088   5.329730
    25  H    2.945749   2.192457   3.122044   3.124677   4.469320
    26  H    2.857037   2.209855   1.083005   2.219184   2.962685
    27  H    4.714446   3.408097   3.313361   2.192432   2.821844
    28  H    5.352586   4.212780   2.867991   2.184943   1.089538
    29  H    6.154124   4.798819   4.126007   2.751585   2.260274
    30  H    7.491455   6.253725   5.198306   4.125698   3.050092
    31  H    8.310505   6.973775   5.997681   4.697878   3.517029
    32  H    7.700974   6.459434   5.227897   4.185283   2.730772
    33  H    5.944224   4.654550   3.945326   2.764184   2.280668
    34  H    2.954035   2.189355   3.119460   3.118038   4.432886
                   11         12         13         14         15
    11  C    0.000000
    12  C    1.458786   0.000000
    13  C    1.527963   2.576950   0.000000
    14  O    2.439896   2.842807   1.409941   0.000000
    15  C    2.984359   2.993876   4.447508   5.217618   0.000000
    16  C    4.454620   4.387892   5.881100   6.606248   1.493357
    17  H   11.342031  10.699149  12.694495  12.906260   8.696056
    18  H   10.091058   9.532234  11.502185  11.863277   7.295628
    19  H    9.698559   9.079484  11.010384  11.188480   7.155341
    20  H   11.653289  11.308567  12.971156  13.367313   8.858388
    21  H   11.319468  10.934472  12.542521  12.779429   8.745102
    22  H   10.325668  10.246584  11.509102  11.965343   7.688101
    23  H    7.180937   7.052967   8.559171   9.215060   4.252189
    24  H    6.651081   6.415632   7.779824   8.021182   4.452634
    25  H    4.953955   5.151198   6.299800   7.175320   2.160000
    26  H    4.430164   4.202071   5.370238   5.424357   3.305136
    27  H    2.738023   2.876245   4.203536   5.147538   1.080912
    28  H    2.241492   2.243861   2.741309   2.604662   3.434295
    29  H    1.096026   2.233207   2.197849   3.396960   2.666522
    30  H    2.175325   3.435049   1.096815   2.026044   4.718068
    31  H    2.140604   3.099718   1.104341   2.084062   5.029615
    32  H    2.403828   2.285365   1.907190   0.971313   5.017700
    33  H    2.301237   1.085998   3.544984   3.871637   2.878387
    34  H    5.071998   4.771562   6.568405   7.261268   2.146915
                   16         17         18         19         20
    16  C    0.000000
    17  H    7.430010   0.000000
    18  H    5.956820   1.771457   0.000000
    19  H    5.963410   1.771565   1.765159   0.000000
    20  H    7.431194   2.497963   2.532894   3.082243   0.000000
    21  H    7.437032   2.497855   3.082041   2.533584   1.746187
    22  H    6.312796   4.368126   3.856226   3.856832   2.516978
    23  H    2.760788   5.338289   3.761149   4.188980   4.834555
    24  H    3.535890   5.530512   4.716800   3.835004   5.527911
    25  H    1.098821   7.747152   6.192088   6.383409   7.401996
    26  H    3.399322   7.830609   6.973406   6.066427   8.150811
    27  H    2.278845   9.514795   8.041714   8.043708   9.678457
    28  H    4.541250  10.401555   9.415538   8.661645  10.824607
    29  H    4.097677  11.328926   9.959510   9.743330  11.474181
    30  H    6.046413  12.912647  11.719515  11.212781  13.001264
    31  H    6.498247  13.481652  12.222664  11.834382  13.763617
    32  H    6.409290  12.499544  11.478299  10.808144  13.121045
    33  H    4.151609  10.259320   9.047230   8.722294  10.981312
    34  H    1.099355   6.966447   5.420075   5.628622   7.157967
                   21         22         23         24         25
    21  H    0.000000
    22  H    2.517702   0.000000
    23  H    5.171329   3.891323   0.000000
    24  H    4.806511   4.160904   3.106320   0.000000
    25  H    7.561637   6.106246   2.590568   3.948703   0.000000
    26  H    7.398947   6.772907   4.829179   2.668524   4.120783
    27  H    9.680753   8.571970   4.966753   5.513944   2.683220
    28  H   10.183474   9.441017   6.908504   5.431262   5.231090
    29  H   11.289741  10.115705   6.818085   6.730224   4.401412
    30  H   12.552022  11.361390   8.611618   7.767503   6.321220
    31  H   13.424412  12.349261   9.225591   8.707678   6.859721
    32  H   12.546065  11.881925   9.026845   7.872114   7.091794
    33  H   10.718772  10.128232   6.745948   6.444586   4.979988
    34  H    7.316072   6.404943   2.625238   3.954521   1.751988
                   26         27         28         29         30
    26  H    0.000000
    27  H    4.312303   0.000000
    28  H    2.821705   3.876586   0.000000
    29  H    4.817137   2.147948   3.102719   0.000000
    30  H    5.425475   4.566061   3.008316   2.559065   0.000000
    31  H    6.374054   4.562179   3.785717   2.486956   1.773210
    32  H    5.296189   4.939553   2.547125   3.447585   2.784802
    33  H    4.544364   2.640252   3.148870   2.713246   4.415601
    34  H    4.120733   2.658325   5.272195   4.715000   6.863562
                   31         32         33         34
    31  H    0.000000
    32  H    2.445739   0.000000
    33  H    3.881800   3.221014   0.000000
    34  H    7.100042   6.944258   4.288505   0.000000
 Stoichiometry    C15H18O
 Framework group  C1[X(C15H18O)]
 Deg. of freedom    96
 Full point group                 C1      NOp   1
 Largest Abelian subgroup         C1      NOp   1
 Largest concise Abelian subgroup C1      NOp   1
                         Standard orientation:                         
 ---------------------------------------------------------------------
 Center     Atomic      Atomic             Coordinates (Angstroms)
 Number     Number       Type             X           Y           Z
 ---------------------------------------------------------------------
      1          6           0        5.914987    0.822457    1.391115
      2          6           0        6.426142    0.550011   -0.022442
      3          6           0        4.179277   -0.376207   -0.665158
      4          6           0        5.408079   -0.070060   -0.959089
      5          6           0        2.926950   -0.691862   -0.374529
      6          6           0        1.803688    0.187182   -0.529546
      7          6           0        0.499994   -0.129257   -0.235033
      8          6           0       -0.632506    0.693012   -0.399510
      9          6           0       -1.817324    0.020991    0.000242
     10          6           0       -3.188109    0.532132    0.065306
     11          6           0       -4.344073   -0.488757    0.120793
     12          6           0       -3.924946    0.224153    1.322519
     13          6           0       -5.655877   -0.099184   -0.558970
     14          8           0       -5.990226    1.252650   -0.338314
     15          6           0       -1.473306   -1.243734    0.429176
     16          6           0        0.000093   -1.456159    0.310487
     17          1           0        6.701092    1.268286    2.007264
     18          1           0        5.585633   -0.101591    1.875925
     19          1           0        5.063016    1.508912    1.376987
     20          1           0        7.302620   -0.111640    0.013828
     21          1           0        6.786364    1.481717   -0.479994
     22          1           0        5.764822   -0.269801   -1.972461
     23          1           0        2.734206   -1.693569    0.010126
     24          1           0        2.009520    1.180315   -0.919846
     25          1           0        0.241789   -2.303634   -0.345848
     26          1           0       -0.603038    1.706034   -0.781371
     27          1           0       -2.158850   -1.987477    0.810288
     28          1           0       -3.397067    1.452039   -0.479855
     29          1           0       -4.082025   -1.541392   -0.035932
     30          1           0       -5.591798   -0.244215   -1.644263
     31          1           0       -6.443572   -0.775538   -0.182603
     32          1           0       -5.715113    1.432630    0.575671
     33          1           0       -3.454836   -0.169041    2.219061
     34          1           0        0.440636   -1.701532    1.287368
 ---------------------------------------------------------------------
 Rotational constants (GHZ):           2.1262370           0.1371463           0.1359852
 Standard basis: 6-31G(2df,p) (6D, 7F)
 There are   586 symmetry adapted cartesian basis functions of A   symmetry.
 There are   538 symmetry adapted basis functions of A   symmetry.
   538 basis functions,   830 primitive gaussians,   586 cartesian basis functions
    58 alpha electrons       58 beta electrons
       nuclear repulsion energy       945.5386551420 Hartrees.
 NAtoms=   34 NActive=   34 NUniq=   34 SFac= 1.00D+00 NAtFMM=   60 NAOKFM=F Big=F
 Integral buffers will be    131072 words long.
 Raffenetti 2 integral format.
 Two-electron integral symmetry is turned on.
 One-electron integrals computed using PRISM.
 PrsmSu:  requested number of processors reduced to:  12 ShMem   1 Linda.
 NBasis=   538 RedAO= T EigKep=  1.63D-04  NBF=   538
 NBsUse=   538 1.00D-06 EigRej= -1.00D+00 NBFU=   538
 Initial guess from the checkpoint file:  "CCC1dCCdCCdCCdCCdCqCOrCdC1.chk"
 B after Tr=     0.000000   -0.000000    0.000000
         Rot=    1.000000    0.000000   -0.000000    0.000000 Ang=   0.00 deg.
 Requested convergence on RMS density matrix=1.00D-08 within 128 cycles.
 Requested convergence on MAX density matrix=1.00D-06.
 Requested convergence on             energy=1.00D-06.
 No special actions if energy rises.
 SCF Done:  E(RB3LYP) =  -657.463687555     A.U. after    1 cycles
            NFock=  1  Conv=0.23D-08     -V/T= 2.0083
 DoSCS=F DFT=T ScalE2(SS,OS)=  1.000000  1.000000
 Range of M.O.s used for correlation:     1   538
 NBasis=   538 NAE=    58 NBE=    58 NFC=     0 NFV=     0
 NROrb=    538 NOA=    58 NOB=    58 NVA=   480 NVB=   480

 **** Warning!!: The largest alpha MO coefficient is  0.18431381D+02


 **** Warning!!: The smallest alpha delta epsilon is  0.37720944D-01

 PrsmSu:  requested number of processors reduced to:  11 ShMem   1 Linda.
 PrsmSu:  requested number of processors reduced to:   4 ShMem   1 Linda.
 Symmetrizing basis deriv contribution to polar:
 IMax=3 JMax=2 DiffMx= 0.00D+00
 G2DrvN: will do     1 centers at a time, making   35 passes.
 Calling FoFCou, ICntrl=  3107 FMM=F I1Cent=   0 AccDes= 0.00D+00.
 Calling FoFCou, ICntrl=  3107 FMM=F I1Cent=   0 AccDes= 0.00D+00.
 Calling FoFCou, ICntrl=  3107 FMM=F I1Cent=   0 AccDes= 0.00D+00.
 Calling FoFCou, ICntrl=  3107 FMM=F I1Cent=   0 AccDes= 0.00D+00.
 Calling FoFCou, ICntrl=  3107 FMM=F I1Cent=   0 AccDes= 0.00D+00.
 Calling FoFCou, ICntrl=  3107 FMM=F I1Cent=   0 AccDes= 0.00D+00.
 Calling FoFCou, ICntrl=  3107 FMM=F I1Cent=   0 AccDes= 0.00D+00.
 Calling FoFCou, ICntrl=  3107 FMM=F I1Cent=   0 AccDes= 0.00D+00.
 Calling FoFCou, ICntrl=  3107 FMM=F I1Cent=   0 AccDes= 0.00D+00.
 Calling FoFCou, ICntrl=  3107 FMM=F I1Cent=   0 AccDes= 0.00D+00.
 Calling FoFCou, ICntrl=  3107 FMM=F I1Cent=   0 AccDes= 0.00D+00.
 Calling FoFCou, ICntrl=  3107 FMM=F I1Cent=   0 AccDes= 0.00D+00.
 Calling FoFCou, ICntrl=  3107 FMM=F I1Cent=   0 AccDes= 0.00D+00.
 Calling FoFCou, ICntrl=  3107 FMM=F I1Cent=   0 AccDes= 0.00D+00.
 Calling FoFCou, ICntrl=  3107 FMM=F I1Cent=   0 AccDes= 0.00D+00.
 Calling FoFCou, ICntrl=  3107 FMM=F I1Cent=   0 AccDes= 0.00D+00.
 Calling FoFCou, ICntrl=  3107 FMM=F I1Cent=   0 AccDes= 0.00D+00.
 Calling FoFCou, ICntrl=  3107 FMM=F I1Cent=   0 AccDes= 0.00D+00.
 Calling FoFCou, ICntrl=  3107 FMM=F I1Cent=   0 AccDes= 0.00D+00.
 Calling FoFCou, ICntrl=  3107 FMM=F I1Cent=   0 AccDes= 0.00D+00.
 Calling FoFCou, ICntrl=  3107 FMM=F I1Cent=   0 AccDes= 0.00D+00.
 Calling FoFCou, ICntrl=  3107 FMM=F I1Cent=   0 AccDes= 0.00D+00.
 Calling FoFCou, ICntrl=  3107 FMM=F I1Cent=   0 AccDes= 0.00D+00.
 Calling FoFCou, ICntrl=  3107 FMM=F I1Cent=   0 AccDes= 0.00D+00.
 Calling FoFCou, ICntrl=  3107 FMM=F I1Cent=   0 AccDes= 0.00D+00.
 Calling FoFCou, ICntrl=  3107 FMM=F I1Cent=   0 AccDes= 0.00D+00.
 Calling FoFCou, ICntrl=  3107 FMM=F I1Cent=   0 AccDes= 0.00D+00.
 Calling FoFCou, ICntrl=  3107 FMM=F I1Cent=   0 AccDes= 0.00D+00.
 Calling FoFCou, ICntrl=  3107 FMM=F I1Cent=   0 AccDes= 0.00D+00.
 Calling FoFCou, ICntrl=  3107 FMM=F I1Cent=   0 AccDes= 0.00D+00.
 Calling FoFCou, ICntrl=  3107 FMM=F I1Cent=   0 AccDes= 0.00D+00.
 Calling FoFCou, ICntrl=  3107 FMM=F I1Cent=   0 AccDes= 0.00D+00.
 Calling FoFCou, ICntrl=  3107 FMM=F I1Cent=   0 AccDes= 0.00D+00.
 Calling FoFCou, ICntrl=  3107 FMM=F I1Cent=   0 AccDes= 0.00D+00.
 Calling FoFCou, ICntrl=  3107 FMM=F I1Cent=   0 AccDes= 0.00D+00.
 End of G2Drv F.D. properties file   721 does not exist.
 End of G2Drv F.D. properties file   722 does not exist.
 End of G2Drv F.D. properties file   788 does not exist.
          IDoAtm=1111111111111111111111111111111111
          Differentiating once with respect to electric field.
                with respect to dipole field.
          Differentiating once with respect to nuclear coordinates.
 CalDSu exits because no D1Ps are significant.
          There are   105 degrees of freedom in the 1st order CPHF.  IDoFFX=6 NUNeed=     3.
    105 vectors produced by pass  0 Test12= 2.78D-14 1.00D-09 XBig12= 1.41D+04 1.16D+02.
 AX will form     6 AO Fock derivatives at one time.
slurmstepd: error: *** JOB 27448476 ON lewis4-r630-hpc4-node302 CANCELLED AT 2023-05-20T09:31:16 DUE TO TIME LIMIT ***
