### Starting Gaussian ###
 Entering Gaussian System, Link 0=g16
 Initial command:
 /cluster/software/gaussian/gaussian-16-A.03/avx2/g16/l1.exe "/local/scratch/linjian/Gau-26115.inp" -scrdir="/local/scratch/linjian/"
 Entering Link 1 = /cluster/software/gaussian/gaussian-16-A.03/avx2/g16/l1.exe PID=     26116.
  
 Copyright (c) 1988,1990,1992,1993,1995,1998,2003,2009,2016,
            Gaussian, Inc.  All Rights Reserved.
  
 This is part of the Gaussian(R) 16 program.  It is based on
 the Gaussian(R) 09 system (copyright 2009, Gaussian, Inc.),
 the Gaussian(R) 03 system (copyright 2003, Gaussian, Inc.),
 the Gaussian(R) 98 system (copyright 1998, Gaussian, Inc.),
 the Gaussian(R) 94 system (copyright 1995, Gaussian, Inc.),
 the Gaussian 92(TM) system (copyright 1992, Gaussian, Inc.),
 the Gaussian 90(TM) system (copyright 1990, Gaussian, Inc.),
 the Gaussian 88(TM) system (copyright 1988, Gaussian, Inc.),
 the Gaussian 86(TM) system (copyright 1986, Carnegie Mellon
 University), and the Gaussian 82(TM) system (copyright 1983,
 Carnegie Mellon University). Gaussian is a federally registered
 trademark of Gaussian, Inc.
  
 This software contains proprietary and confidential information,
 including trade secrets, belonging to Gaussian, Inc.
  
 This software is provided under written license and may be
 used, copied, transmitted, or stored only in accord with that
 written license.
  
 The following legend is applicable only to US Government
 contracts under FAR:
  
                    RESTRICTED RIGHTS LEGEND
  
 Use, reproduction and disclosure by the US Government is
 subject to restrictions as set forth in subparagraphs (a)
 and (c) of the Commercial Computer Software - Restricted
 Rights clause in FAR 52.227-19.
  
 Gaussian, Inc.
 340 Quinnipiac St., Bldg. 40, Wallingford CT 06492
  
  
 ---------------------------------------------------------------
 Warning -- This program may not be used in any manner that
 competes with the business of Gaussian, Inc. or will provide
 assistance to any competitor of Gaussian, Inc.  The licensee
 of this program is prohibited from giving any competitor of
 Gaussian, Inc. access to this program.  By using this program,
 the user acknowledges that Gaussian, Inc. is engaged in the
 business of creating and licensing software in the field of
 computational chemistry and represents and warrants to the
 licensee that it is not a competitor of Gaussian, Inc. and that
 it will not use this program in any manner prohibited above.
 ---------------------------------------------------------------
  

 Cite this work as:
 Gaussian 16, Revision A.03,
 M. J. Frisch, G. W. Trucks, H. B. Schlegel, G. E. Scuseria, 
 M. A. Robb, J. R. Cheeseman, G. Scalmani, V. Barone, 
 G. A. Petersson, H. Nakatsuji, X. Li, M. Caricato, A. V. Marenich, 
 J. Bloino, B. G. Janesko, R. Gomperts, B. Mennucci, H. P. Hratchian, 
 J. V. Ortiz, A. F. Izmaylov, J. L. Sonnenberg, D. Williams-Young, 
 F. Ding, F. Lipparini, F. Egidi, J. Goings, B. Peng, A. Petrone, 
 T. Henderson, D. Ranasinghe, V. G. Zakrzewski, J. Gao, N. Rega, 
 G. Zheng, W. Liang, M. Hada, M. Ehara, K. Toyota, R. Fukuda, 
 J. Hasegawa, M. Ishida, T. Nakajima, Y. Honda, O. Kitao, H. Nakai, 
 T. Vreven, K. Throssell, J. A. Montgomery, Jr., J. E. Peralta, 
 F. Ogliaro, M. J. Bearpark, J. J. Heyd, E. N. Brothers, K. N. Kudin, 
 V. N. Staroverov, T. A. Keith, R. Kobayashi, J. Normand, 
 K. Raghavachari, A. P. Rendell, J. C. Burant, S. S. Iyengar, 
 J. Tomasi, M. Cossi, J. M. Millam, M. Klene, C. Adamo, R. Cammi, 
 J. W. Ochterski, R. L. Martin, K. Morokuma, O. Farkas, 
 J. B. Foresman, and D. J. Fox, Gaussian, Inc., Wallingford CT, 2016.
 
 ******************************************
 Gaussian 16:  ES64L-G16RevA.03 25-Dec-2016
                19-May-2023 
 ******************************************
 %chk=CCC1CdCC2dCCdCCdNCdCCdCC2CC1.chk
 %NProcShared=20
 Will use up to   20 processors via shared memory.
 -----------------------------
 # opt freq b3lyp/6-31g(2df,p)
 -----------------------------
 1/18=20,19=15,26=3,38=1/1,3;
 2/9=110,12=2,17=6,18=5,40=1/2;
 3/5=1,6=6,7=104,11=2,25=1,30=1,71=1,74=-5/1,2,3;
 4//1;
 5/5=2,38=5/2;
 6/7=2,8=2,9=2,10=2,28=1/1;
 7//1,2,3,16;
 1/18=20,19=15,26=3/3(2);
 2/9=110/2;
 99//99;
 2/9=110/2;
 3/5=1,6=6,7=104,11=2,25=1,30=1,71=1,74=-5/1,2,3;
 4/5=5,16=3,69=1/1;
 5/5=2,38=5/2;
 7//1,2,3,16;
 1/18=20,19=15,26=3/3(-5);
 2/9=110/2;
 6/7=2,8=2,9=2,10=2,19=2,28=1/1;
 99/9=1/99;
 -------------------
 Title Card Required
 -------------------
 Symbolic Z-matrix:
 Charge =  0 Multiplicity = 1
 C                     0.9656   -0.03572   0.09561 
 C                     2.45318  -0.03977   0.1041 
 C                     3.06671   1.24654  -0.42465 
 C                     2.38649   2.47992  -0.9178 
 C                     1.94695   2.7335   -2.18084 
 C                     1.81979   2.00405  -3.59166 
 C                     2.17004   2.82383  -4.57665 
 C                     2.58712   2.16278  -5.7567 
 C                     2.5484    2.5934   -6.9888 
 C                     3.02283   1.53918  -7.89578 
 N                     3.1485    1.64287  -9.18104 
 C                     2.68892   0.45895  -9.73521 
 C                     1.3862    0.50018  -9.47955 
 C                     0.97362  -0.00156  -7.78271 
 C                     1.13629  -0.05206  -6.17064 
 C                     1.73027   0.37323  -4.23089 
 C                     3.14108  -0.05836  -3.08149 
 C                     3.89568   0.78614  -1.64664 
 H                     0.62588  -1.05301   0.29322 
 H                     0.60067   0.26838  -0.88846 
 H                     0.59557   0.64776   0.85986 
 H                     2.79434  -0.87494  -0.51242 
 H                     2.87196  -0.30253   1.08872 
 H                     3.59668   1.62044   0.49583 
 H                     2.56037   3.34373  -0.21567 
 H                     1.79572   3.82814  -2.24778 
 H                     2.35433   3.87757  -4.46334 
 H                     2.96358   1.14639  -5.63828 
 H                     2.17054   3.56013  -7.23693 
 H                     3.06923   0.49378  -7.48303 
 H                     3.05365  -0.54018  -9.49858 
 H                     1.14346   1.29338  -10.28529 
 H                     0.39402  -0.71019  -8.51473 
 H                     0.4202   -0.82683  -5.84741 
 H                     0.85677   0.0016   -3.67496 
 H                     4.04209  -0.06765  -3.69522 
 H                     2.96473  -1.05905  -2.65515 
 H                     4.54703   1.61571  -1.96469 
 H                     4.62012   0.08936  -1.17274 
 

 GradGradGradGradGradGradGradGradGradGradGradGradGradGradGradGradGradGrad
 Berny optimization.
 Initialization pass.
                           ----------------------------
                           !    Initial Parameters    !
                           ! (Angstroms and Degrees)  !
 --------------------------                            --------------------------
 ! Name  Definition              Value          Derivative Info.                !
 --------------------------------------------------------------------------------
 ! R1    R(1,2)                  1.4876         estimate D2E/DX2                !
 ! R2    R(1,19)                 1.0906         estimate D2E/DX2                !
 ! R3    R(1,20)                 1.0927         estimate D2E/DX2                !
 ! R4    R(1,21)                 1.09           estimate D2E/DX2                !
 ! R5    R(2,3)                  1.5201         estimate D2E/DX2                !
 ! R6    R(2,22)                 1.0927         estimate D2E/DX2                !
 ! R7    R(2,23)                 1.1018         estimate D2E/DX2                !
 ! R8    R(3,4)                  1.4924         estimate D2E/DX2                !
 ! R9    R(3,18)                 1.5467         estimate D2E/DX2                !
 ! R10   R(3,24)                 1.126          estimate D2E/DX2                !
 ! R11   R(4,5)                  1.3612         estimate D2E/DX2                !
 ! R12   R(4,25)                 1.1267         estimate D2E/DX2                !
 ! R13   R(5,6)                  1.5933         estimate D2E/DX2                !
 ! R14   R(5,26)                 1.1071         estimate D2E/DX2                !
 ! R15   R(6,7)                  1.3285         estimate D2E/DX2                !
 ! R16   R(6,16)                 1.7539         estimate D2E/DX2                !
 ! R17   R(7,8)                  1.4154         estimate D2E/DX2                !
 ! R18   R(7,27)                 1.0757         estimate D2E/DX2                !
 ! R19   R(8,9)                  1.3058         estimate D2E/DX2                !
 ! R20   R(8,28)                 1.0903         estimate D2E/DX2                !
 ! R21   R(9,10)                 1.4694         estimate D2E/DX2                !
 ! R22   R(9,29)                 1.0672         estimate D2E/DX2                !
 ! R23   R(10,11)                1.2955         estimate D2E/DX2                !
 ! R24   R(10,30)                1.1249         estimate D2E/DX2                !
 ! R25   R(11,12)                1.3856         estimate D2E/DX2                !
 ! R26   R(12,13)                1.3282         estimate D2E/DX2                !
 ! R27   R(12,31)                1.0896         estimate D2E/DX2                !
 ! R28   R(13,14)                1.8169         estimate D2E/DX2                !
 ! R29   R(13,32)                1.1564         estimate D2E/DX2                !
 ! R30   R(14,15)                1.621          estimate D2E/DX2                !
 ! R31   R(14,33)                1.1722         estimate D2E/DX2                !
 ! R32   R(15,34)                1.1034         estimate D2E/DX2                !
 ! R33   R(16,35)                1.1001         estimate D2E/DX2                !
 ! R34   R(17,18)                1.8279         estimate D2E/DX2                !
 ! R35   R(17,36)                1.0902         estimate D2E/DX2                !
 ! R36   R(17,37)                1.1019         estimate D2E/DX2                !
 ! R37   R(18,38)                1.1016         estimate D2E/DX2                !
 ! R38   R(18,39)                1.1113         estimate D2E/DX2                !
 ! A1    A(2,1,19)             107.9344         estimate D2E/DX2                !
 ! A2    A(2,1,20)             109.868          estimate D2E/DX2                !
 ! A3    A(2,1,21)             109.7045         estimate D2E/DX2                !
 ! A4    A(19,1,20)            108.5871         estimate D2E/DX2                !
 ! A5    A(19,1,21)            110.6164         estimate D2E/DX2                !
 ! A6    A(20,1,21)            110.093          estimate D2E/DX2                !
 ! A7    A(1,2,3)              113.536          estimate D2E/DX2                !
 ! A8    A(1,2,22)             108.1238         estimate D2E/DX2                !
 ! A9    A(1,2,23)             112.6959         estimate D2E/DX2                !
 ! A10   A(3,2,22)             108.9355         estimate D2E/DX2                !
 ! A11   A(3,2,23)             111.0548         estimate D2E/DX2                !
 ! A12   A(22,2,23)            101.7282         estimate D2E/DX2                !
 ! A13   A(2,3,4)              129.0758         estimate D2E/DX2                !
 ! A14   A(2,3,18)             103.8422         estimate D2E/DX2                !
 ! A15   A(2,3,24)             100.7547         estimate D2E/DX2                !
 ! A16   A(4,3,18)             103.2511         estimate D2E/DX2                !
 ! A17   A(4,3,24)             102.1355         estimate D2E/DX2                !
 ! A18   A(18,3,24)            119.4994         estimate D2E/DX2                !
 ! A19   A(3,4,5)              127.4293         estimate D2E/DX2                !
 ! A20   A(3,4,25)             110.9386         estimate D2E/DX2                !
 ! A21   A(5,4,25)             119.0301         estimate D2E/DX2                !
 ! A22   A(4,5,6)              139.6504         estimate D2E/DX2                !
 ! A23   A(4,5,26)             106.5245         estimate D2E/DX2                !
 ! A24   A(6,5,26)             112.8448         estimate D2E/DX2                !
 ! A25   A(5,6,7)              110.6683         estimate D2E/DX2                !
 ! A26   A(5,6,16)             138.8051         estimate D2E/DX2                !
 ! A27   A(7,6,16)             108.4816         estimate D2E/DX2                !
 ! A28   A(6,7,8)              114.0558         estimate D2E/DX2                !
 ! A29   A(6,7,27)             124.8571         estimate D2E/DX2                !
 ! A30   A(8,7,27)             119.6581         estimate D2E/DX2                !
 ! A31   A(7,8,9)              128.6025         estimate D2E/DX2                !
 ! A32   A(7,8,28)             116.5228         estimate D2E/DX2                !
 ! A33   A(9,8,28)             114.8439         estimate D2E/DX2                !
 ! A34   A(8,9,10)             109.6487         estimate D2E/DX2                !
 ! A35   A(8,9,29)             121.9128         estimate D2E/DX2                !
 ! A36   A(10,9,29)            128.3688         estimate D2E/DX2                !
 ! A37   A(9,10,11)            125.8914         estimate D2E/DX2                !
 ! A38   A(9,10,30)            116.9744         estimate D2E/DX2                !
 ! A39   A(11,10,30)           115.7465         estimate D2E/DX2                !
 ! A40   A(10,11,12)           107.2299         estimate D2E/DX2                !
 ! A41   A(11,12,13)           102.815          estimate D2E/DX2                !
 ! A42   A(11,12,31)           125.8445         estimate D2E/DX2                !
 ! A43   A(13,12,31)           108.3589         estimate D2E/DX2                !
 ! A44   A(12,13,14)           113.1979         estimate D2E/DX2                !
 ! A45   A(12,13,32)            95.3394         estimate D2E/DX2                !
 ! A46   A(14,13,32)           142.4151         estimate D2E/DX2                !
 ! A47   A(13,14,15)           156.1422         estimate D2E/DX2                !
 ! A48   A(13,14,33)            72.3018         estimate D2E/DX2                !
 ! A49   A(15,14,33)           130.6803         estimate D2E/DX2                !
 ! A50   A(14,15,34)           104.363          estimate D2E/DX2                !
 ! A51   A(6,16,35)             99.8145         estimate D2E/DX2                !
 ! A52   A(18,17,36)            96.007          estimate D2E/DX2                !
 ! A53   A(18,17,37)           100.4812         estimate D2E/DX2                !
 ! A54   A(36,17,37)           110.0189         estimate D2E/DX2                !
 ! A55   A(3,18,17)            122.4398         estimate D2E/DX2                !
 ! A56   A(3,18,38)            108.7128         estimate D2E/DX2                !
 ! A57   A(3,18,39)            101.4849         estimate D2E/DX2                !
 ! A58   A(17,18,38)           111.4294         estimate D2E/DX2                !
 ! A59   A(17,18,39)           108.3115         estimate D2E/DX2                !
 ! A60   A(38,18,39)           102.113          estimate D2E/DX2                !
 ! D1    D(19,1,2,3)           168.6356         estimate D2E/DX2                !
 ! D2    D(19,1,2,22)           47.639          estimate D2E/DX2                !
 ! D3    D(19,1,2,23)          -63.9979         estimate D2E/DX2                !
 ! D4    D(20,1,2,3)            50.3944         estimate D2E/DX2                !
 ! D5    D(20,1,2,22)          -70.6023         estimate D2E/DX2                !
 ! D6    D(20,1,2,23)          177.7609         estimate D2E/DX2                !
 ! D7    D(21,1,2,3)           -70.7654         estimate D2E/DX2                !
 ! D8    D(21,1,2,22)          168.2379         estimate D2E/DX2                !
 ! D9    D(21,1,2,23)           56.601          estimate D2E/DX2                !
 ! D10   D(1,2,3,4)              0.8984         estimate D2E/DX2                !
 ! D11   D(1,2,3,18)          -119.3781         estimate D2E/DX2                !
 ! D12   D(1,2,3,24)           116.3576         estimate D2E/DX2                !
 ! D13   D(22,2,3,4)           121.4381         estimate D2E/DX2                !
 ! D14   D(22,2,3,18)            1.1617         estimate D2E/DX2                !
 ! D15   D(22,2,3,24)         -123.1027         estimate D2E/DX2                !
 ! D16   D(23,2,3,4)          -127.3178         estimate D2E/DX2                !
 ! D17   D(23,2,3,18)          112.4057         estimate D2E/DX2                !
 ! D18   D(23,2,3,24)          -11.8587         estimate D2E/DX2                !
 ! D19   D(2,3,4,5)            -86.9287         estimate D2E/DX2                !
 ! D20   D(2,3,4,25)           111.7815         estimate D2E/DX2                !
 ! D21   D(18,3,4,5)            33.5905         estimate D2E/DX2                !
 ! D22   D(18,3,4,25)         -127.6992         estimate D2E/DX2                !
 ! D23   D(24,3,4,5)           158.2073         estimate D2E/DX2                !
 ! D24   D(24,3,4,25)           -3.0825         estimate D2E/DX2                !
 ! D25   D(2,3,18,17)           59.7463         estimate D2E/DX2                !
 ! D26   D(2,3,18,38)         -168.0039         estimate D2E/DX2                !
 ! D27   D(2,3,18,39)          -60.8522         estimate D2E/DX2                !
 ! D28   D(4,3,18,17)          -76.7214         estimate D2E/DX2                !
 ! D29   D(4,3,18,38)           55.5285         estimate D2E/DX2                !
 ! D30   D(4,3,18,39)          162.6801         estimate D2E/DX2                !
 ! D31   D(24,3,18,17)         170.8598         estimate D2E/DX2                !
 ! D32   D(24,3,18,38)         -56.8904         estimate D2E/DX2                !
 ! D33   D(24,3,18,39)          50.2613         estimate D2E/DX2                !
 ! D34   D(3,4,5,6)              4.4563         estimate D2E/DX2                !
 ! D35   D(3,4,5,26)          -162.6253         estimate D2E/DX2                !
 ! D36   D(25,4,5,6)           164.4181         estimate D2E/DX2                !
 ! D37   D(25,4,5,26)           -2.6635         estimate D2E/DX2                !
 ! D38   D(4,5,6,7)           -137.8067         estimate D2E/DX2                !
 ! D39   D(4,5,6,16)            23.1736         estimate D2E/DX2                !
 ! D40   D(26,5,6,7)            28.7447         estimate D2E/DX2                !
 ! D41   D(26,5,6,16)         -170.275          estimate D2E/DX2                !
 ! D42   D(5,6,7,8)            156.6878         estimate D2E/DX2                !
 ! D43   D(5,6,7,27)            -9.548          estimate D2E/DX2                !
 ! D44   D(16,6,7,8)           -10.2322         estimate D2E/DX2                !
 ! D45   D(16,6,7,27)         -176.468          estimate D2E/DX2                !
 ! D46   D(5,6,16,35)           56.5521         estimate D2E/DX2                !
 ! D47   D(7,6,16,35)         -142.2016         estimate D2E/DX2                !
 ! D48   D(6,7,8,9)            153.9209         estimate D2E/DX2                !
 ! D49   D(6,7,8,28)           -23.9402         estimate D2E/DX2                !
 ! D50   D(27,7,8,9)           -39.0626         estimate D2E/DX2                !
 ! D51   D(27,7,8,28)          143.0763         estimate D2E/DX2                !
 ! D52   D(7,8,9,10)          -177.0719         estimate D2E/DX2                !
 ! D53   D(7,8,9,29)             0.1303         estimate D2E/DX2                !
 ! D54   D(28,8,9,10)            0.8191         estimate D2E/DX2                !
 ! D55   D(28,8,9,29)          178.0213         estimate D2E/DX2                !
 ! D56   D(8,9,10,11)         -177.9919         estimate D2E/DX2                !
 ! D57   D(8,9,10,30)           16.0862         estimate D2E/DX2                !
 ! D58   D(29,9,10,11)           5.0374         estimate D2E/DX2                !
 ! D59   D(29,9,10,30)        -160.8845         estimate D2E/DX2                !
 ! D60   D(9,10,11,12)        -138.4569         estimate D2E/DX2                !
 ! D61   D(30,10,11,12)         27.6168         estimate D2E/DX2                !
 ! D62   D(10,11,12,13)         67.9716         estimate D2E/DX2                !
 ! D63   D(10,11,12,31)        -56.2788         estimate D2E/DX2                !
 ! D64   D(11,12,13,14)        -80.3905         estimate D2E/DX2                !
 ! D65   D(11,12,13,32)         74.5632         estimate D2E/DX2                !
 ! D66   D(31,12,13,14)         54.7015         estimate D2E/DX2                !
 ! D67   D(31,12,13,32)       -150.3448         estimate D2E/DX2                !
 ! D68   D(12,13,14,15)         43.8238         estimate D2E/DX2                !
 ! D69   D(12,13,14,33)       -122.1341         estimate D2E/DX2                !
 ! D70   D(32,13,14,15)        -92.4608         estimate D2E/DX2                !
 ! D71   D(32,13,14,33)        101.5813         estimate D2E/DX2                !
 ! D72   D(13,14,15,34)       -171.9554         estimate D2E/DX2                !
 ! D73   D(33,14,15,34)         -9.7019         estimate D2E/DX2                !
 ! D74   D(36,17,18,3)         173.5941         estimate D2E/DX2                !
 ! D75   D(36,17,18,38)         42.4588         estimate D2E/DX2                !
 ! D76   D(36,17,18,39)        -69.0928         estimate D2E/DX2                !
 ! D77   D(37,17,18,3)         -74.7193         estimate D2E/DX2                !
 ! D78   D(37,17,18,38)        154.1453         estimate D2E/DX2                !
 ! D79   D(37,17,18,39)         42.5937         estimate D2E/DX2                !
 --------------------------------------------------------------------------------
 Trust Radius=3.00D-01 FncErr=1.00D-07 GrdErr=1.00D-06 EigMax=2.50D+02 EigMin=1.00D-04
 Number of steps in this run=    187 maximum allowed number of steps=    234.
 GradGradGradGradGradGradGradGradGradGradGradGradGradGradGradGradGradGrad

                          Input orientation:                          
 ---------------------------------------------------------------------
 Center     Atomic      Atomic             Coordinates (Angstroms)
 Number     Number       Type             X           Y           Z
 ---------------------------------------------------------------------
      1          6           0        0.965600   -0.035720    0.095610
      2          6           0        2.453180   -0.039770    0.104100
      3          6           0        3.066710    1.246540   -0.424650
      4          6           0        2.386490    2.479920   -0.917800
      5          6           0        1.946950    2.733500   -2.180840
      6          6           0        1.819790    2.004050   -3.591660
      7          6           0        2.170040    2.823830   -4.576650
      8          6           0        2.587120    2.162780   -5.756700
      9          6           0        2.548400    2.593400   -6.988800
     10          6           0        3.022830    1.539180   -7.895780
     11          7           0        3.148500    1.642870   -9.181040
     12          6           0        2.688920    0.458950   -9.735210
     13          6           0        1.386200    0.500180   -9.479550
     14          6           0        0.973620   -0.001560   -7.782710
     15          6           0        1.136290   -0.052060   -6.170640
     16          6           0        1.730270    0.373230   -4.230890
     17          6           0        3.141080   -0.058360   -3.081490
     18          6           0        3.895680    0.786140   -1.646640
     19          1           0        0.625880   -1.053010    0.293220
     20          1           0        0.600670    0.268380   -0.888460
     21          1           0        0.595570    0.647760    0.859860
     22          1           0        2.794340   -0.874940   -0.512420
     23          1           0        2.871960   -0.302530    1.088720
     24          1           0        3.596680    1.620440    0.495830
     25          1           0        2.560370    3.343730   -0.215670
     26          1           0        1.795720    3.828140   -2.247780
     27          1           0        2.354330    3.877570   -4.463340
     28          1           0        2.963580    1.146390   -5.638280
     29          1           0        2.170540    3.560130   -7.236930
     30          1           0        3.069230    0.493780   -7.483030
     31          1           0        3.053650   -0.540180   -9.498580
     32          1           0        1.143460    1.293380  -10.285290
     33          1           0        0.394020   -0.710190   -8.514730
     34          1           0        0.420200   -0.826830   -5.847410
     35          1           0        0.856770    0.001600   -3.674960
     36          1           0        4.042090   -0.067650   -3.695220
     37          1           0        2.964730   -1.059050   -2.655150
     38          1           0        4.547030    1.615710   -1.964690
     39          1           0        4.620120    0.089360   -1.172740
 ---------------------------------------------------------------------
                    Distance matrix (angstroms):
                    1          2          3          4          5
     1  C    0.000000
     2  C    1.487610   0.000000
     3  C    2.515855   1.520062   0.000000
     4  C    3.061760   2.719846   1.492355   0.000000
     5  C    3.716699   3.628808   2.559124   1.361164   0.000000
     6  C    4.299565   4.270483   3.486916   2.774370   1.593324
     7  C    5.608718   5.494524   4.531111   3.681346   2.407869
     8  C    6.458503   6.262439   5.431414   4.853430   3.677270
     9  C    7.720518   7.566497   6.720918   6.074219   4.847458
    10  C    8.400882   8.174085   7.476988   7.069804   5.936704
    11  N    9.676722   9.461954   8.765736   8.340410   7.185819
    12  C    9.992975   9.854761   9.351446   9.051105   7.924178
    13  C    9.599364   9.657968   9.239718   8.844406   7.653321
    14  C    7.878398   8.024483   7.751118   7.435115   6.309427
    15  C    6.268596   6.411452   6.199136   5.963745   4.933054
    16  C    4.412546   4.414216   4.127494   3.980620   3.133772
    17  C    3.850609   3.259070   2.960928   3.419624   3.167270
    18  C    3.506602   2.414130   1.546745   2.382804   2.806266
    19  H    1.090568   2.097963   3.429420   4.128912   4.712097
    20  H    1.092723   2.124129   2.693190   2.842696   3.091849
    21  H    1.090021   2.120044   2.848690   3.118378   3.927136
    22  H    2.101971   1.092701   2.140693   3.403786   4.064792
    23  H    2.166025   1.101770   2.174358   3.464655   4.556659
    24  H    3.134585   2.053617   1.126034   2.049784   3.335427
    25  H    3.749783   3.400267   2.167547   1.126671   2.147221
    26  H    4.594561   4.574311   3.406446   1.983823   1.107063
    27  H    6.166558   6.018042   4.872455   3.811209   2.585471
    28  H    6.186017   5.885780   5.215612   4.939055   3.937810
    29  H    8.255190   8.181069   7.250033   6.414428   5.128095
    30  H    7.882983   7.630776   7.098407   6.892977   5.864220
    31  H    9.831730   9.634440   9.248175   9.121178   8.092656
    32  H   10.467150  10.556139  10.046557   9.523805   8.270529
    33  H    8.655609   8.886722   8.741937   8.477033   7.374873
    34  H    6.020200   6.338213   6.380377   6.253155   5.333915
    35  H    3.772325   4.102625   4.122890   4.010492   3.299116
    36  H    4.882233   4.118282   3.657197   4.116453   3.811745
    37  H    3.551113   2.985645   3.209560   3.984602   3.955285
    38  H    4.449573   3.377087   2.167800   2.551621   2.838414
    39  H    3.870384   2.518457   2.076484   3.281596   3.892760
                    6          7          8          9         10
     6  C    0.000000
     7  C    1.328503   0.000000
     8  C    2.302474   1.415437   0.000000
     9  C    3.524027   2.452493   1.305758   0.000000
    10  C    4.493201   3.659809   2.270327   1.469380   0.000000
    11  N    5.756482   4.853087   3.508783   2.463644   1.295545
    12  C    6.394210   5.698477   4.329196   3.481148   2.159142
    13  C    6.092362   5.481987   4.250419   3.454868   2.503279
    14  C    4.722645   4.437687   3.375273   3.137522   2.566306
    15  C    3.368367   3.446765   2.679883   3.108360   3.011177
    16  C    1.753911   2.513640   2.502954   3.633808   4.057286
    17  C    2.501922   3.389018   3.520949   4.759220   5.073806
    18  C    3.094467   3.964211   4.527699   5.798278   6.354580
    19  H    5.085600   6.413264   7.126661   8.367808   8.917653
    20  H    3.436000   4.753524   5.588783   6.812747   7.522255
    21  H    4.811888   6.063817   7.073926   8.318685   9.129483
    22  H    4.326667   5.530698   6.064087   7.350739   7.771370
    23  H    5.322906   6.508705   7.281392   8.587050   9.172562
    24  H    4.473485   5.404952   6.356687   7.620054   8.411601
    25  H    3.706819   4.409172   5.665543   6.814575   7.902807
    26  H    2.265810   2.563667   3.963869   4.956650   6.216514
    27  H    2.134394   1.075718   2.160434   2.839842   4.206733
    28  H    2.496495   2.137889   1.090318   2.022404   2.292183
    29  H    3.978995   2.760295   2.077789   1.067199   2.290135
    30  H    4.357152   3.832065   2.449124   2.218993   1.124890
    31  H    6.548834   6.026834   4.639538   4.046430   2.625577
    32  H    6.765143   5.998726   4.831991   3.811923   3.049952
    33  H    5.799701   5.581399   4.546468   4.228891   3.514741
    34  H    3.880869   4.243123   3.693445   4.186882   4.070320
    35  H    2.223545   3.240788   3.463878   4.534377   4.987112
    36  H    3.039948   3.555580   3.367708   4.489985   4.611453
    37  H    3.401547   4.404594   4.488027   5.682802   5.849648
    38  H    3.199325   3.732555   4.303472   5.494732   6.124285
    39  H    4.166421   5.006678   5.426311   6.662492   7.060636
                   11         12         13         14         15
    11  N    0.000000
    12  C    1.385635   0.000000
    13  C    2.121450   1.328210   0.000000
    14  C    3.064242   2.639428   1.816929   0.000000
    15  C    3.998035   3.921473   3.363972   1.621043   0.000000
    16  C    5.303522   5.587835   5.261457   3.650810   2.072755
    17  C    6.332357   6.689099   6.657833   5.177121   3.682672
    18  C    7.619675   8.184637   8.230051   6.841802   5.365015
    19  H   10.168234  10.349472   9.924592   8.151510   6.560785
    20  H    8.783367   9.091869   8.630041   6.909605   5.318928
    21  H   10.408043  10.801540  10.370645   8.675169   7.085905
    22  H    9.033813   9.319347   9.180590   7.545524   5.953294
    23  H   10.456052  10.852226  10.702344   9.077254   7.468172
    24  H    9.687269  10.336695  10.278590   8.834339   7.300178
    25  H    9.144216   9.947870   9.761348   8.424300   7.001504
    26  H    7.394289   8.258986   7.971294   6.780701   5.556944
    27  H    5.280273   6.292180   6.124247   5.288878   4.454266
    28  H    3.582155   4.163274   4.202508   3.142660   2.249151
    29  H    2.900320   4.015898   3.873994   3.796858   3.905709
    30  H    2.051811   2.284330   2.611268   2.174109   2.399284
    31  H    2.208061   1.089625   1.965477   2.749699   3.871655
    32  H    2.315534   1.840464   1.156419   2.822875   4.329042
    33  H    3.683479   2.850092   1.838558   1.172154   2.545360
    34  H    4.965494   4.681379   3.985794   2.175484   1.103418
    35  H    6.185686   6.347643   5.849970   4.109413   2.511858
    36  H    5.815376   6.212073   6.390200   5.111502   3.817279
    37  H    7.065507   7.246216   7.176029   5.601310   4.088507
    38  H    7.350669   8.072896   8.228510   7.016707   5.666094
    39  H    8.289266   8.785330   8.923570   7.549631   6.093938
                   16         17         18         19         20
    16  C    0.000000
    17  C    1.870234   0.000000
    18  C    3.396740   1.827949   0.000000
    19  H    4.870463   4.324838   4.223402   0.000000
    20  H    3.529707   3.371917   3.420527   1.772872   0.000000
    21  H    5.222896   4.744730   4.146374   1.792936   1.789016
    22  H    4.064135   2.717932   2.293162   2.320126   2.502154
    23  H    5.482550   4.186012   3.116954   2.498183   3.064953
    24  H    5.232676   3.977833   2.318542   4.001754   3.566567
    25  H    5.063095   4.486019   3.220558   4.830377   3.708214
    26  H    3.984145   4.196421   3.744992   5.625907   3.993468
    27  H    3.567055   4.245001   4.457185   7.065623   5.374136
    28  H    2.024741   2.831979   4.114824   6.744249   5.377270
    29  H    4.403004   5.594917   6.474756   8.964943   7.321419
    30  H    3.519057   4.436618   5.901859   8.296540   7.045065
    31  H    5.507650   6.435747   8.007565  10.101307   8.989163
    32  H    6.151974   7.596869   9.080654  10.847963   9.468139
    33  H    4.616346   6.123015   7.853107   8.817668   7.691573
    34  H    2.401992   3.955256   5.685693   6.148235   5.081657
    35  H    1.100077   2.360905   3.736918   4.112416   2.810932
    36  H    2.413675   1.090216   2.224202   5.343134   4.453559
    37  H    2.461356   1.101928   2.299671   3.763395   3.236054
    38  H    3.822768   2.454882   1.101635   5.253155   4.306661
    39  H    4.217119   2.419237   1.111259   4.405451   4.033465
                   21         22         23         24         25
    21  H    0.000000
    22  H    3.006053   0.000000
    23  H    2.477373   1.702154   0.000000
    24  H    3.175734   2.808423   2.138820   0.000000
    25  H    3.505062   4.235561   3.885065   2.133049   0.000000
    26  H    4.605714   5.111524   5.417837   3.955350   2.224593
    27  H    6.470036   6.195945   6.968970   5.588509   4.286040
    28  H    6.934113   5.512609   6.881881   6.184888   5.864775
    29  H    8.747596   8.079481   9.204813   8.098880   7.035403
    30  H    8.703248   7.109034   8.610919   8.075257   7.822766
    31  H   10.712172   8.996131  10.591525  10.239697  10.074746
    32  H   11.177271  10.145738  11.614764  11.061546  10.373467
    33  H    9.474576   8.356174   9.926360   9.842716   9.486925
    34  H    6.869690   5.839604   7.375359   7.504389   7.327373
    35  H    4.588065   3.811057   5.181325   5.246260   5.102820
    36  H    5.756654   3.512665   4.930563   4.540147   5.093160
    37  H    4.569619   2.157364   3.820666   4.184221   5.049658
    38  H    4.952681   3.374070   3.976030   2.637678   3.161003
    39  H    4.543157   2.167803   2.885107   2.485108   3.968561
                   26         27         28         29         30
    26  H    0.000000
    27  H    2.285431   0.000000
    28  H    4.477853   3.034965   0.000000
    29  H    5.010383   2.797740   3.001789   0.000000
    30  H    6.336216   4.591257   1.959634   3.204795   0.000000
    31  H    8.557962   6.734924   4.213614   4.765237   2.265338
    32  H    8.452930   6.483776   4.992909   3.935168   3.492937
    33  H    7.863578   6.426828   4.280595   4.798378   3.109774
    34  H    6.043024   5.271422   3.225851   4.923401   3.381808
    35  H    4.190570   4.229347   3.099003   5.203533   4.431548
    36  H    4.724240   4.359278   2.532303   5.404368   3.950844
    37  H    5.041543   5.292670   3.709856   6.554408   5.072537
    38  H    3.541849   4.020845   4.027759   6.101228   5.821915
    39  H    4.807434   5.505669   4.878779   7.404126   6.510651
                   31         32         33         34         35
    31  H    0.000000
    32  H    2.762188   0.000000
    33  H    2.840862   2.776839   0.000000
    34  H    4.510906   4.971235   2.669997   0.000000
    35  H    6.247748   6.741465   4.913670   2.365677   0.000000
    36  H    5.905869   7.326901   6.078565   4.280930   3.186137
    37  H    6.863648   8.189627   6.408192   4.088898   2.570698
    38  H    7.977314   8.995586   8.096933   6.170271   4.375888
    39  H    8.495279   9.827278   8.509055   6.350691   4.520134
                   36         37         38         39
    36  H    0.000000
    37  H    1.795919   0.000000
    38  H    2.466455   3.183512   0.000000
    39  H    2.592620   2.501340   1.721125   0.000000
 Stoichiometry    C17H21N
 Framework group  C1[X(C17H21N)]
 Deg. of freedom   111
 Full point group                 C1      NOp   1
 Largest Abelian subgroup         C1      NOp   1
 Largest concise Abelian subgroup C1      NOp   1
                         Standard orientation:                         
 ---------------------------------------------------------------------
 Center     Atomic      Atomic             Coordinates (Angstroms)
 Number     Number       Type             X           Y           Z
 ---------------------------------------------------------------------
      1          6           0        4.560032    1.532580   -0.957955
      2          6           0        4.603429    1.019513    0.437703
      3          6           0        4.076194   -0.399107    0.579579
      4          6           0        3.554759   -1.318636   -0.473841
      5          6           0        2.279257   -1.401982   -0.941728
      6          6           0        0.873311   -0.671876   -0.771613
      7          6           0       -0.111458   -1.560935   -0.702877
      8          6           0       -1.274646   -1.084375   -0.052228
      9          6           0       -2.511617   -1.473036   -0.206659
     10          6           0       -3.396494   -0.648099    0.627335
     11          7           0       -4.679440   -0.787242    0.741903
     12          6           0       -5.232201    0.483352    0.736397
     13          6           0       -5.007578    0.896966   -0.505621
     14          6           0       -3.315876    1.508486   -0.761394
     15          6           0       -1.700007    1.497127   -0.632477
     16          6           0        0.248722    0.889317   -0.272845
     17          6           0        1.435191    0.802274    1.170238
     18          6           0        2.878700   -0.253748    1.547721
     19          1           0        4.759927    2.604257   -0.928146
     20          1           0        3.564647    1.375558   -1.380562
     21          1           0        5.308432    1.019206   -1.561686
     22          1           0        4.003573    1.684957    1.063286
     23          1           0        5.600208    1.119060    0.896418
     24          1           0        5.005006   -0.935101    0.923048
     25          1           0        4.251979   -2.190000   -0.628751
     26          1           0        2.197699   -2.375790   -1.461954
     27          1           0       -0.004546   -2.613211   -0.898976
     28          1           0       -1.137138   -0.262267    0.650640
     29          1           0       -2.778322   -2.247915   -0.890285
     30          1           0       -2.972195    0.315489    1.023372
     31          1           0       -4.976972    1.293190    1.419261
     32          1           0       -5.826785    0.238619   -0.988099
     33          1           0       -4.054060    2.375344   -1.039941
     34          1           0       -1.385814    2.471990   -1.042910
     35          1           0        0.787763    1.540530   -0.976780
     36          1           0        0.842874    0.498770    2.033729
     37          1           0        1.867401    1.801312    1.341594
     38          1           0        2.567612   -1.257511    1.878302
     39          1           0        3.376489    0.147274    2.456723
 ---------------------------------------------------------------------
 Rotational constants (GHZ):           1.0569597           0.1789427           0.1694017
 Standard basis: 6-31G(2df,p) (6D, 7F)
 There are   663 symmetry adapted cartesian basis functions of A   symmetry.
 There are   609 symmetry adapted basis functions of A   symmetry.
   609 basis functions,   939 primitive gaussians,   663 cartesian basis functions
    65 alpha electrons       65 beta electrons
       nuclear repulsion energy      1213.2537022934 Hartrees.
 NAtoms=   39 NActive=   39 NUniq=   39 SFac= 1.00D+00 NAtFMM=   60 NAOKFM=F Big=F
 Integral buffers will be    131072 words long.
 Raffenetti 2 integral format.
 Two-electron integral symmetry is turned on.
 One-electron integrals computed using PRISM.
 PrsmSu:  requested number of processors reduced to:  12 ShMem   1 Linda.
 NBasis=   609 RedAO= T EigKep=  2.41D-04  NBF=   609
 NBsUse=   609 1.00D-06 EigRej= -1.00D+00 NBFU=   609
 ExpMin= 1.61D-01 ExpMax= 4.17D+03 ExpMxC= 6.27D+02 IAcc=3 IRadAn=         5 AccDes= 0.00D+00
 Harris functional with IExCor=  402 and IRadAn=       5 diagonalized for initial guess.
 HarFok:  IExCor=  402 AccDes= 0.00D+00 IRadAn=         5 IDoV= 1 UseB2=F ITyADJ=14
 ICtDFT=  3500011 ScaDFX=  1.000000  1.000000  1.000000  1.000000
 FoFCou: FMM=F IPFlag=           0 FMFlag=      100000 FMFlg1=           0
         NFxFlg=           0 DoJE=T BraDBF=F KetDBF=T FulRan=T
         wScrn=  0.000000 ICntrl=       500 IOpCl=  0 I1Cent=   200000004 NGrid=           0
         NMat0=    1 NMatS0=      1 NMatT0=    0 NMatD0=    1 NMtDS0=    0 NMtDT0=    0
 Petite list used in FoFCou.
 Requested convergence on RMS density matrix=1.00D-08 within 128 cycles.
 Requested convergence on MAX density matrix=1.00D-06.
 Requested convergence on             energy=1.00D-06.
 No special actions if energy rises.
 Integral accuracy reduced to 1.0D-05 until final iterations.
 EnCoef did     4 forward-backward iterations
 EnCoef did     1 forward-backward iterations
 Initial convergence to 1.0D-05 achieved.  Increase integral accuracy.
 SCF Done:  E(RB3LYP) =  -714.428750349     A.U. after   22 cycles
            NFock= 22  Conv=0.47D-08     -V/T= 2.0097

 **********************************************************************

            Population analysis using the SCF density.

 **********************************************************************

 Orbital symmetries:
       Occupied  (A) (A) (A) (A) (A) (A) (A) (A) (A) (A) (A) (A)
                 (A) (A) (A) (A) (A) (A) (A) (A) (A) (A) (A) (A)
                 (A) (A) (A) (A) (A) (A) (A) (A) (A) (A) (A) (A)
                 (A) (A) (A) (A) (A) (A) (A) (A) (A) (A) (A) (A)
                 (A) (A) (A) (A) (A) (A) (A) (A) (A) (A) (A) (A)
                 (A) (A) (A) (A) (A)
       Virtual   (A) (A) (A) (A) (A) (A) (A) (A) (A) (A) (A) (A)
                 (A) (A) (A) (A) (A) (A) (A) (A) (A) (A) (A) (A)
                 (A) (A) (A) (A) (A) (A) (A) (A) (A) (A) (A) (A)
                 (A) (A) (A) (A) (A) (A) (A) (A) (A) (A) (A) (A)
                 (A) (A) (A) (A) (A) (A) (A) (A) (A) (A) (A) (A)
                 (A) (A) (A) (A) (A) (A) (A) (A) (A) (A) (A) (A)
                 (A) (A) (A) (A) (A) (A) (A) (A) (A) (A) (A) (A)
                 (A) (A) (A) (A) (A) (A) (A) (A) (A) (A) (A) (A)
                 (A) (A) (A) (A) (A) (A) (A) (A) (A) (A) (A) (A)
                 (A) (A) (A) (A) (A) (A) (A) (A) (A) (A) (A) (A)
                 (A) (A) (A) (A) (A) (A) (A) (A) (A) (A) (A) (A)
                 (A) (A) (A) (A) (A) (A) (A) (A) (A) (A) (A) (A)
                 (A) (A) (A) (A) (A) (A) (A) (A) (A) (A) (A) (A)
                 (A) (A) (A) (A) (A) (A) (A) (A) (A) (A) (A) (A)
                 (A) (A) (A) (A) (A) (A) (A) (A) (A) (A) (A) (A)
                 (A) (A) (A) (A) (A) (A) (A) (A) (A) (A) (A) (A)
                 (A) (A) (A) (A) (A) (A) (A) (A) (A) (A) (A) (A)
                 (A) (A) (A) (A) (A) (A) (A) (A) (A) (A) (A) (A)
                 (A) (A) (A) (A) (A) (A) (A) (A) (A) (A) (A) (A)
                 (A) (A) (A) (A) (A) (A) (A) (A) (A) (A) (A) (A)
                 (A) (A) (A) (A) (A) (A) (A) (A) (A) (A) (A) (A)
                 (A) (A) (A) (A) (A) (A) (A) (A) (A) (A) (A) (A)
                 (A) (A) (A) (A) (A) (A) (A) (A) (A) (A) (A) (A)
                 (A) (A) (A) (A) (A) (A) (A) (A) (A) (A) (A) (A)
                 (A) (A) (A) (A) (A) (A) (A) (A) (A) (A) (A) (A)
                 (A) (A) (A) (A) (A) (A) (A) (A) (A) (A) (A) (A)
                 (A) (A) (A) (A) (A) (A) (A) (A) (A) (A) (A) (A)
                 (A) (A) (A) (A) (A) (A) (A) (A) (A) (A) (A) (A)
                 (A) (A) (A) (A) (A) (A) (A) (A) (A) (A) (A) (A)
                 (A) (A) (A) (A) (A) (A) (A) (A) (A) (A) (A) (A)
                 (A) (A) (A) (A) (A) (A) (A) (A) (A) (A) (A) (A)
                 (A) (A) (A) (A) (A) (A) (A) (A) (A) (A) (A) (A)
                 (A) (A) (A) (A) (A) (A) (A) (A) (A) (A) (A) (A)
                 (A) (A) (A) (A) (A) (A) (A) (A) (A) (A) (A) (A)
                 (A) (A) (A) (A) (A) (A) (A) (A) (A) (A) (A) (A)
                 (A) (A) (A) (A) (A) (A) (A) (A) (A) (A) (A) (A)
                 (A) (A) (A) (A) (A) (A) (A) (A) (A) (A) (A) (A)
                 (A) (A) (A) (A) (A) (A) (A) (A) (A) (A) (A) (A)
                 (A) (A) (A) (A) (A) (A) (A) (A) (A) (A) (A) (A)
                 (A) (A) (A) (A) (A) (A) (A) (A) (A) (A) (A) (A)
                 (A) (A) (A) (A) (A) (A) (A) (A) (A) (A) (A) (A)
                 (A) (A) (A) (A) (A) (A) (A) (A) (A) (A) (A) (A)
                 (A) (A) (A) (A) (A) (A) (A) (A) (A) (A) (A) (A)
                 (A) (A) (A) (A) (A) (A) (A) (A) (A) (A) (A) (A)
                 (A) (A) (A) (A) (A) (A) (A) (A) (A) (A) (A) (A)
                 (A) (A) (A) (A)
 The electronic state is 1-A.
 Alpha  occ. eigenvalues --  -14.32941 -10.28019 -10.27867 -10.27010 -10.23422
 Alpha  occ. eigenvalues --  -10.22554 -10.22125 -10.21212 -10.20921 -10.20455
 Alpha  occ. eigenvalues --  -10.20130 -10.19208 -10.19130 -10.17736 -10.17723
 Alpha  occ. eigenvalues --  -10.17464 -10.17340 -10.16879  -0.94994  -0.83938
 Alpha  occ. eigenvalues --   -0.82625  -0.78391  -0.75827  -0.74379  -0.72915
 Alpha  occ. eigenvalues --   -0.71233  -0.68410  -0.65003  -0.63007  -0.60513
 Alpha  occ. eigenvalues --   -0.60411  -0.56906  -0.56178  -0.54390  -0.52977
 Alpha  occ. eigenvalues --   -0.50051  -0.48969  -0.48008  -0.45951  -0.45410
 Alpha  occ. eigenvalues --   -0.44121  -0.42935  -0.42193  -0.41733  -0.40535
 Alpha  occ. eigenvalues --   -0.39583  -0.38961  -0.38658  -0.37917  -0.36785
 Alpha  occ. eigenvalues --   -0.35579  -0.34769  -0.34236  -0.32943  -0.31832
 Alpha  occ. eigenvalues --   -0.31488  -0.31100  -0.30671  -0.30129  -0.28231
 Alpha  occ. eigenvalues --   -0.26573  -0.25571  -0.23472  -0.21157  -0.16409
 Alpha virt. eigenvalues --   -0.11740  -0.08379  -0.06253  -0.05255   0.00553
 Alpha virt. eigenvalues --    0.03466   0.03665   0.05357   0.06208   0.07523
 Alpha virt. eigenvalues --    0.08420   0.09550   0.11175   0.11643   0.11826
 Alpha virt. eigenvalues --    0.12412   0.12946   0.13647   0.14816   0.15545
 Alpha virt. eigenvalues --    0.16260   0.16469   0.16818   0.17279   0.17906
 Alpha virt. eigenvalues --    0.18054   0.18601   0.19397   0.20290   0.20584
 Alpha virt. eigenvalues --    0.21047   0.21975   0.23501   0.25444   0.26952
 Alpha virt. eigenvalues --    0.27896   0.28766   0.29852   0.30888   0.33051
 Alpha virt. eigenvalues --    0.34677   0.35717   0.36696   0.37953   0.39724
 Alpha virt. eigenvalues --    0.41244   0.41345   0.43733   0.45278   0.45877
 Alpha virt. eigenvalues --    0.46650   0.47034   0.47248   0.48174   0.48772
 Alpha virt. eigenvalues --    0.49797   0.50420   0.51308   0.52461   0.52671
 Alpha virt. eigenvalues --    0.53353   0.53971   0.54520   0.54829   0.55403
 Alpha virt. eigenvalues --    0.56158   0.56560   0.56914   0.57708   0.58399
 Alpha virt. eigenvalues --    0.58960   0.59382   0.59886   0.60101   0.61495
 Alpha virt. eigenvalues --    0.62047   0.62849   0.63402   0.64416   0.65094
 Alpha virt. eigenvalues --    0.65201   0.66080   0.66937   0.67686   0.68308
 Alpha virt. eigenvalues --    0.68980   0.69505   0.70328   0.70958   0.71311
 Alpha virt. eigenvalues --    0.72125   0.72211   0.73075   0.74077   0.74370
 Alpha virt. eigenvalues --    0.74683   0.74861   0.75322   0.75667   0.76874
 Alpha virt. eigenvalues --    0.77040   0.77573   0.78005   0.78651   0.79164
 Alpha virt. eigenvalues --    0.79463   0.79970   0.80341   0.80889   0.82257
 Alpha virt. eigenvalues --    0.82860   0.83031   0.83439   0.83507   0.84473
 Alpha virt. eigenvalues --    0.85017   0.86029   0.86461   0.87554   0.88011
 Alpha virt. eigenvalues --    0.89278   0.90311   0.90518   0.91423   0.92724
 Alpha virt. eigenvalues --    0.93972   0.94314   0.95295   0.96695   0.97252
 Alpha virt. eigenvalues --    0.99284   1.00246   1.01167   1.02220   1.02592
 Alpha virt. eigenvalues --    1.04068   1.04857   1.06296   1.06354   1.08719
 Alpha virt. eigenvalues --    1.09551   1.10077   1.11001   1.13931   1.14696
 Alpha virt. eigenvalues --    1.16716   1.16993   1.18461   1.19015   1.20133
 Alpha virt. eigenvalues --    1.21042   1.21838   1.23221   1.24464   1.26475
 Alpha virt. eigenvalues --    1.27095   1.28485   1.31327   1.31613   1.32704
 Alpha virt. eigenvalues --    1.34417   1.35523   1.36098   1.37085   1.37223
 Alpha virt. eigenvalues --    1.39452   1.40739   1.41309   1.42323   1.43313
 Alpha virt. eigenvalues --    1.44486   1.45628   1.46239   1.46448   1.47003
 Alpha virt. eigenvalues --    1.47821   1.48092   1.49912   1.50152   1.51717
 Alpha virt. eigenvalues --    1.52474   1.53048   1.54015   1.54367   1.56583
 Alpha virt. eigenvalues --    1.58139   1.58500   1.59616   1.60249   1.61379
 Alpha virt. eigenvalues --    1.63176   1.63829   1.65273   1.65917   1.66170
 Alpha virt. eigenvalues --    1.67567   1.68539   1.70994   1.71089   1.72872
 Alpha virt. eigenvalues --    1.73803   1.75410   1.76241   1.77574   1.78481
 Alpha virt. eigenvalues --    1.79729   1.81579   1.81798   1.83066   1.83733
 Alpha virt. eigenvalues --    1.85310   1.86502   1.88590   1.88849   1.91836
 Alpha virt. eigenvalues --    1.92257   1.93692   1.94214   1.96467   1.97126
 Alpha virt. eigenvalues --    1.97666   2.00041   2.01928   2.04017   2.05494
 Alpha virt. eigenvalues --    2.07438   2.11175   2.11694   2.13991   2.15461
 Alpha virt. eigenvalues --    2.16565   2.18049   2.19515   2.20913   2.22061
 Alpha virt. eigenvalues --    2.22547   2.22792   2.24894   2.25729   2.26560
 Alpha virt. eigenvalues --    2.28757   2.30574   2.32241   2.33371   2.33931
 Alpha virt. eigenvalues --    2.34989   2.36631   2.37967   2.39593   2.40480
 Alpha virt. eigenvalues --    2.41255   2.43815   2.44194   2.44561   2.47402
 Alpha virt. eigenvalues --    2.48030   2.48746   2.50420   2.51379   2.51728
 Alpha virt. eigenvalues --    2.53055   2.55194   2.57572   2.58361   2.59530
 Alpha virt. eigenvalues --    2.61978   2.62161   2.64084   2.64485   2.66044
 Alpha virt. eigenvalues --    2.67305   2.68540   2.71520   2.72620   2.73864
 Alpha virt. eigenvalues --    2.74616   2.76200   2.77231   2.78747   2.78933
 Alpha virt. eigenvalues --    2.79565   2.79850   2.80731   2.81724   2.81994
 Alpha virt. eigenvalues --    2.82659   2.84278   2.84654   2.86004   2.87366
 Alpha virt. eigenvalues --    2.88367   2.89258   2.89895   2.91390   2.91870
 Alpha virt. eigenvalues --    2.91911   2.92366   2.92965   2.94742   2.95336
 Alpha virt. eigenvalues --    2.96029   2.96346   2.98348   2.98852   2.99388
 Alpha virt. eigenvalues --    3.00533   3.01890   3.02433   3.03014   3.05824
 Alpha virt. eigenvalues --    3.06244   3.07550   3.08554   3.09696   3.10509
 Alpha virt. eigenvalues --    3.11295   3.11585   3.13448   3.14151   3.14486
 Alpha virt. eigenvalues --    3.16874   3.17351   3.18401   3.19138   3.20814
 Alpha virt. eigenvalues --    3.21064   3.22032   3.23039   3.24762   3.24994
 Alpha virt. eigenvalues --    3.26318   3.26669   3.28720   3.30174   3.30221
 Alpha virt. eigenvalues --    3.31394   3.32288   3.32562   3.33630   3.33934
 Alpha virt. eigenvalues --    3.35014   3.36296   3.37293   3.38488   3.39178
 Alpha virt. eigenvalues --    3.39976   3.41129   3.41715   3.42031   3.43190
 Alpha virt. eigenvalues --    3.44604   3.45868   3.46466   3.47064   3.47758
 Alpha virt. eigenvalues --    3.48220   3.48869   3.50607   3.51427   3.52755
 Alpha virt. eigenvalues --    3.53725   3.54923   3.56714   3.57572   3.58255
 Alpha virt. eigenvalues --    3.59953   3.60844   3.62017   3.63749   3.63899
 Alpha virt. eigenvalues --    3.64479   3.65587   3.66838   3.67864   3.69816
 Alpha virt. eigenvalues --    3.70903   3.71876   3.72255   3.74910   3.75794
 Alpha virt. eigenvalues --    3.76854   3.77591   3.78756   3.79107   3.80851
 Alpha virt. eigenvalues --    3.82332   3.82578   3.84179   3.87015   3.87662
 Alpha virt. eigenvalues --    3.90259   3.91120   3.92198   3.94027   3.96326
 Alpha virt. eigenvalues --    3.96984   3.98481   3.99845   4.01789   4.03843
 Alpha virt. eigenvalues --    4.04634   4.05432   4.08941   4.10369   4.10990
 Alpha virt. eigenvalues --    4.13264   4.14829   4.16884   4.17747   4.19917
 Alpha virt. eigenvalues --    4.21787   4.24271   4.26257   4.26586   4.28449
 Alpha virt. eigenvalues --    4.28934   4.29866   4.33795   4.34362   4.36054
 Alpha virt. eigenvalues --    4.37595   4.38623   4.39743   4.40098   4.41196
 Alpha virt. eigenvalues --    4.42297   4.42782   4.44027   4.45147   4.45843
 Alpha virt. eigenvalues --    4.47087   4.47963   4.48617   4.49201   4.50363
 Alpha virt. eigenvalues --    4.51259   4.51827   4.52633   4.53753   4.54646
 Alpha virt. eigenvalues --    4.55957   4.56680   4.57670   4.58212   4.60485
 Alpha virt. eigenvalues --    4.61748   4.61854   4.63026   4.64518   4.64945
 Alpha virt. eigenvalues --    4.65622   4.67267   4.67968   4.69129   4.69520
 Alpha virt. eigenvalues --    4.70885   4.71884   4.72632   4.74235   4.75807
 Alpha virt. eigenvalues --    4.76225   4.77964   4.78232   4.79028   4.79850
 Alpha virt. eigenvalues --    4.81139   4.82512   4.83145   4.83269   4.84127
 Alpha virt. eigenvalues --    4.84397   4.86152   4.87458   4.89253   4.89976
 Alpha virt. eigenvalues --    4.91884   4.92173   4.92986   4.93794   4.94866
 Alpha virt. eigenvalues --    4.95366   4.96691   4.97328   4.97863   4.98080
 Alpha virt. eigenvalues --    5.00371   5.00780   5.02872   5.04695   5.05538
 Alpha virt. eigenvalues --    5.06543   5.10639   5.11512   5.13070   5.13535
 Alpha virt. eigenvalues --    5.15137   5.17650   5.17927   5.23421   5.25637
 Alpha virt. eigenvalues --    5.27134   5.28500   5.32855   5.34269   5.36490
 Alpha virt. eigenvalues --    5.39802   5.41593   5.42064   5.44619   5.46137
 Alpha virt. eigenvalues --    5.46359   5.49159   5.51994   5.57346   5.58539
 Alpha virt. eigenvalues --    5.61260   5.66996   5.69256   5.80998   5.83654
 Alpha virt. eigenvalues --    5.91894   5.95589   6.01261   6.40595   6.54623
 Alpha virt. eigenvalues --   10.13434  10.23120  10.52318  10.60786  10.83542
 Alpha virt. eigenvalues --   11.09274  11.22692  11.33110  11.40165  11.50555
 Alpha virt. eigenvalues --   11.76508  11.80013  11.84752  12.00663  12.25073
 Alpha virt. eigenvalues --   12.30723  12.35411  12.70391  15.71097
          Condensed to atoms (all electrons):
               1          2          3          4          5          6
     1  C    4.934980   0.411453  -0.037488  -0.010416  -0.000067  -0.000143
     2  C    0.411453   4.847839   0.396656  -0.027076  -0.004385   0.000584
     3  C   -0.037488   0.396656   4.679699   0.434540  -0.014687  -0.009555
     4  C   -0.010416  -0.027076   0.434540   4.880430   0.629697  -0.011903
     5  C   -0.000067  -0.004385  -0.014687   0.629697   4.883275   0.365854
     6  C   -0.000143   0.000584  -0.009555  -0.011903   0.365854   4.838474
     7  C    0.000011  -0.000021   0.000394  -0.002431  -0.020836   0.598322
     8  C   -0.000000  -0.000000   0.000006  -0.000154   0.003729   0.002869
     9  C    0.000000  -0.000000   0.000000  -0.000001  -0.000187   0.000250
    10  C   -0.000000   0.000000  -0.000000   0.000000   0.000002  -0.000088
    11  N   -0.000000   0.000000   0.000000   0.000000  -0.000000   0.000003
    12  C    0.000000  -0.000000  -0.000000  -0.000000   0.000000  -0.000001
    13  C    0.000000  -0.000000  -0.000000  -0.000000   0.000000   0.000001
    14  C    0.000000  -0.000000   0.000000  -0.000000   0.000001  -0.000033
    15  C    0.000001  -0.000000  -0.000001  -0.000004   0.000179  -0.001850
    16  C   -0.000276   0.000072   0.000206  -0.001071  -0.029440   0.288625
    17  C    0.000838  -0.008884  -0.014133  -0.004921  -0.000013  -0.022514
    18  C    0.002088  -0.032792   0.380036  -0.041569  -0.030859  -0.002486
    19  H    0.368848  -0.025673   0.005367   0.000406  -0.000002  -0.000002
    20  H    0.382522  -0.032986  -0.009832   0.005857   0.001198   0.001067
    21  H    0.380261  -0.029305  -0.004379   0.002570   0.000444  -0.000012
    22  H   -0.039313   0.374661  -0.035700   0.001961   0.000730  -0.000176
    23  H   -0.033053   0.364690  -0.023601   0.002612  -0.000146  -0.000003
    24  H    0.005992  -0.053701   0.344669  -0.036997   0.006945   0.000109
    25  H   -0.000130   0.004091  -0.052988   0.360736  -0.033815   0.003826
    26  H    0.000012  -0.000089   0.006221  -0.048415   0.360693  -0.042165
    27  H   -0.000000   0.000000  -0.000007   0.000036  -0.012418  -0.055363
    28  H   -0.000000   0.000001  -0.000008   0.000069   0.000242  -0.021063
    29  H   -0.000000   0.000000  -0.000000   0.000000  -0.000007   0.000066
    30  H    0.000000   0.000000  -0.000000   0.000000   0.000000   0.000091
    31  H    0.000000  -0.000000  -0.000000  -0.000000   0.000000   0.000000
    32  H    0.000000  -0.000000  -0.000000  -0.000000   0.000000  -0.000000
    33  H    0.000000  -0.000000  -0.000000  -0.000000   0.000000  -0.000001
    34  H   -0.000000   0.000000   0.000000   0.000000  -0.000007   0.000308
    35  H    0.000185  -0.000051   0.000057   0.000074   0.000681  -0.028767
    36  H    0.000005   0.000261   0.001427   0.000176  -0.000195  -0.000812
    37  H   -0.000384   0.000129  -0.000777  -0.000097   0.000082   0.002000
    38  H   -0.000272   0.005289  -0.032553  -0.002914   0.003267   0.000512
    39  H    0.000308  -0.005846  -0.038890   0.005797   0.001318  -0.000072
               7          8          9         10         11         12
     1  C    0.000011  -0.000000   0.000000  -0.000000  -0.000000   0.000000
     2  C   -0.000021  -0.000000  -0.000000   0.000000   0.000000  -0.000000
     3  C    0.000394   0.000006   0.000000  -0.000000   0.000000  -0.000000
     4  C   -0.002431  -0.000154  -0.000001   0.000000   0.000000  -0.000000
     5  C   -0.020836   0.003729  -0.000187   0.000002  -0.000000   0.000000
     6  C    0.598322   0.002869   0.000250  -0.000088   0.000003  -0.000001
     7  C    4.834215   0.458079  -0.028383   0.002785  -0.000205  -0.000003
     8  C    0.458079   4.669841   0.534255   0.001874  -0.004621  -0.000491
     9  C   -0.028383   0.534255   5.080172   0.403465  -0.016513   0.012624
    10  C    0.002785   0.001874   0.403465   4.802687   0.621305  -0.156017
    11  N   -0.000205  -0.004621  -0.016513   0.621305   6.463085   0.399432
    12  C   -0.000003  -0.000491   0.012624  -0.156017   0.399432   5.049160
    13  C    0.000011   0.001151   0.002891  -0.055409  -0.118337   0.556944
    14  C    0.000225  -0.002257  -0.009398  -0.000786  -0.001338  -0.014961
    15  C   -0.003502  -0.018698   0.000140  -0.003498   0.002011  -0.003015
    16  C   -0.008557  -0.053993  -0.000493  -0.001137  -0.000030   0.000063
    17  C   -0.009503   0.001437   0.000189   0.000033   0.000000  -0.000001
    18  C   -0.000321   0.000108  -0.000000   0.000000   0.000000   0.000000
    19  H   -0.000000   0.000000   0.000000  -0.000000  -0.000000   0.000000
    20  H    0.000037  -0.000001   0.000000   0.000000   0.000000  -0.000000
    21  H   -0.000000   0.000000   0.000000  -0.000000   0.000000   0.000000
    22  H   -0.000000   0.000000   0.000000   0.000000   0.000000   0.000000
    23  H    0.000000  -0.000000  -0.000000  -0.000000  -0.000000   0.000000
    24  H   -0.000002   0.000000   0.000000  -0.000000   0.000000   0.000000
    25  H   -0.000107  -0.000002  -0.000000  -0.000000  -0.000000   0.000000
    26  H   -0.005498   0.000436   0.000013   0.000000  -0.000000  -0.000000
    27  H    0.373645  -0.053977  -0.002832   0.000028  -0.000004   0.000000
    28  H   -0.049649   0.391874  -0.065786  -0.015663   0.000132  -0.000389
    29  H   -0.009115  -0.028241   0.359623  -0.030732  -0.001595  -0.000178
    30  H    0.000587   0.002388  -0.071461   0.377671  -0.071962  -0.020672
    31  H   -0.000000   0.000164  -0.000166   0.001045  -0.064536   0.351805
    32  H   -0.000000   0.000055   0.000475  -0.001710  -0.010874  -0.071394
    33  H   -0.000005   0.000033   0.000032   0.001952   0.002287  -0.004900
    34  H    0.000164   0.000965   0.000455   0.000293  -0.000042   0.000064
    35  H    0.002364   0.002233  -0.000047   0.000012   0.000000  -0.000000
    36  H    0.001242  -0.000067  -0.000024  -0.000044   0.000000  -0.000000
    37  H    0.000323  -0.000044  -0.000002  -0.000001  -0.000000   0.000000
    38  H    0.000388  -0.000024   0.000001  -0.000000  -0.000000  -0.000000
    39  H   -0.000014  -0.000000  -0.000000   0.000000   0.000000  -0.000000
              13         14         15         16         17         18
     1  C    0.000000   0.000000   0.000001  -0.000276   0.000838   0.002088
     2  C   -0.000000  -0.000000  -0.000000   0.000072  -0.008884  -0.032792
     3  C   -0.000000   0.000000  -0.000001   0.000206  -0.014133   0.380036
     4  C   -0.000000  -0.000000  -0.000004  -0.001071  -0.004921  -0.041569
     5  C    0.000000   0.000001   0.000179  -0.029440  -0.000013  -0.030859
     6  C    0.000001  -0.000033  -0.001850   0.288625  -0.022514  -0.002486
     7  C    0.000011   0.000225  -0.003502  -0.008557  -0.009503  -0.000321
     8  C    0.001151  -0.002257  -0.018698  -0.053993   0.001437   0.000108
     9  C    0.002891  -0.009398   0.000140  -0.000493   0.000189  -0.000000
    10  C   -0.055409  -0.000786  -0.003498  -0.001137   0.000033   0.000000
    11  N   -0.118337  -0.001338   0.002011  -0.000030   0.000000   0.000000
    12  C    0.556944  -0.014961  -0.003015   0.000063  -0.000001   0.000000
    13  C    5.383220   0.262833  -0.012293   0.000015  -0.000000   0.000000
    14  C    0.262833   5.155470   0.479405  -0.003638  -0.000058   0.000000
    15  C   -0.012293   0.479405   5.251713   0.232448  -0.004856   0.000065
    16  C    0.000015  -0.003638   0.232448   5.320117   0.266724  -0.007038
    17  C   -0.000000  -0.000058  -0.004856   0.266724   5.091278   0.325545
    18  C    0.000000   0.000000   0.000065  -0.007038   0.325545   5.053580
    19  H   -0.000000   0.000000  -0.000000   0.000002  -0.000085  -0.000189
    20  H   -0.000000  -0.000000  -0.000002  -0.000312   0.001172   0.000890
    21  H   -0.000000   0.000000  -0.000000   0.000007  -0.000012   0.000066
    22  H    0.000000   0.000000   0.000000   0.000119   0.001116  -0.023305
    23  H    0.000000   0.000000   0.000000  -0.000001   0.000186   0.004276
    24  H    0.000000  -0.000000   0.000000  -0.000012   0.002284  -0.026210
    25  H    0.000000  -0.000000   0.000000  -0.000036  -0.000036   0.006720
    26  H   -0.000000  -0.000000  -0.000006   0.001838   0.000076  -0.000063
    27  H    0.000000  -0.000011  -0.000028   0.007051  -0.000323  -0.000072
    28  H    0.000111  -0.001592  -0.016912  -0.007835   0.005188  -0.000029
    29  H    0.000311   0.000027  -0.000493  -0.000049   0.000000   0.000000
    30  H    0.000607   0.009701  -0.008650   0.001509  -0.000088   0.000001
    31  H   -0.098299  -0.000036  -0.000976   0.000020  -0.000000   0.000000
    32  H    0.328964  -0.015835  -0.000404   0.000002  -0.000000   0.000000
    33  H   -0.045964   0.319558  -0.020918   0.000260  -0.000001   0.000000
    34  H    0.001128  -0.031297   0.328199  -0.035451   0.000596  -0.000004
    35  H   -0.000001   0.000284  -0.023071   0.329003  -0.026849   0.000453
    36  H   -0.000000   0.000019  -0.000391  -0.025577   0.360087  -0.028635
    37  H    0.000000   0.000002   0.000303  -0.020203   0.351872  -0.037512
    38  H   -0.000000  -0.000000  -0.000001  -0.000024  -0.027860   0.359272
    39  H   -0.000000   0.000000  -0.000001   0.000706  -0.019087   0.344801
              19         20         21         22         23         24
     1  C    0.368848   0.382522   0.380261  -0.039313  -0.033053   0.005992
     2  C   -0.025673  -0.032986  -0.029305   0.374661   0.364690  -0.053701
     3  C    0.005367  -0.009832  -0.004379  -0.035700  -0.023601   0.344669
     4  C    0.000406   0.005857   0.002570   0.001961   0.002612  -0.036997
     5  C   -0.000002   0.001198   0.000444   0.000730  -0.000146   0.006945
     6  C   -0.000002   0.001067  -0.000012  -0.000176  -0.000003   0.000109
     7  C   -0.000000   0.000037  -0.000000  -0.000000   0.000000  -0.000002
     8  C    0.000000  -0.000001   0.000000   0.000000  -0.000000   0.000000
     9  C    0.000000   0.000000   0.000000   0.000000  -0.000000   0.000000
    10  C   -0.000000   0.000000  -0.000000   0.000000  -0.000000  -0.000000
    11  N   -0.000000   0.000000   0.000000   0.000000  -0.000000   0.000000
    12  C    0.000000  -0.000000   0.000000   0.000000   0.000000   0.000000
    13  C   -0.000000  -0.000000  -0.000000   0.000000   0.000000   0.000000
    14  C    0.000000  -0.000000   0.000000   0.000000   0.000000  -0.000000
    15  C   -0.000000  -0.000002  -0.000000   0.000000   0.000000   0.000000
    16  C    0.000002  -0.000312   0.000007   0.000119  -0.000001  -0.000012
    17  C   -0.000085   0.001172  -0.000012   0.001116   0.000186   0.002284
    18  C   -0.000189   0.000890   0.000066  -0.023305   0.004276  -0.026210
    19  H    0.617855  -0.031832  -0.029893  -0.006061  -0.001104  -0.000343
    20  H   -0.031832   0.586171  -0.031020  -0.004102   0.006071   0.000125
    21  H   -0.029893  -0.031020   0.598419   0.006525  -0.007081   0.000598
    22  H   -0.006061  -0.004102   0.006525   0.661835  -0.047758   0.006843
    23  H   -0.001104   0.006071  -0.007081  -0.047758   0.661146  -0.017270
    24  H   -0.000343   0.000125   0.000598   0.006843  -0.017270   0.712034
    25  H   -0.000002   0.000072  -0.000076  -0.000215  -0.000045  -0.014749
    26  H    0.000000   0.000004  -0.000004   0.000004   0.000004  -0.000362
    27  H    0.000000   0.000001  -0.000000   0.000000   0.000000  -0.000001
    28  H   -0.000000   0.000000   0.000000  -0.000000  -0.000000  -0.000000
    29  H   -0.000000   0.000000   0.000000   0.000000  -0.000000   0.000000
    30  H   -0.000000  -0.000000  -0.000000   0.000000   0.000000   0.000000
    31  H   -0.000000  -0.000000  -0.000000   0.000000   0.000000   0.000000
    32  H   -0.000000  -0.000000  -0.000000   0.000000   0.000000   0.000000
    33  H   -0.000000  -0.000000  -0.000000   0.000000   0.000000   0.000000
    34  H    0.000000   0.000000   0.000000  -0.000000  -0.000000  -0.000000
    35  H   -0.000012   0.002230  -0.000009  -0.000044   0.000001   0.000002
    36  H    0.000000  -0.000008  -0.000000  -0.000221  -0.000010  -0.000063
    37  H    0.000107  -0.000257   0.000008   0.005532  -0.000100  -0.000109
    38  H    0.000006  -0.000073   0.000013   0.000919  -0.000400  -0.002946
    39  H   -0.000001  -0.000003  -0.000019   0.002377   0.001067  -0.004217
              25         26         27         28         29         30
     1  C   -0.000130   0.000012  -0.000000  -0.000000  -0.000000   0.000000
     2  C    0.004091  -0.000089   0.000000   0.000001   0.000000   0.000000
     3  C   -0.052988   0.006221  -0.000007  -0.000008  -0.000000  -0.000000
     4  C    0.360736  -0.048415   0.000036   0.000069   0.000000   0.000000
     5  C   -0.033815   0.360693  -0.012418   0.000242  -0.000007   0.000000
     6  C    0.003826  -0.042165  -0.055363  -0.021063   0.000066   0.000091
     7  C   -0.000107  -0.005498   0.373645  -0.049649  -0.009115   0.000587
     8  C   -0.000002   0.000436  -0.053977   0.391874  -0.028241   0.002388
     9  C   -0.000000   0.000013  -0.002832  -0.065786   0.359623  -0.071461
    10  C   -0.000000   0.000000   0.000028  -0.015663  -0.030732   0.377671
    11  N   -0.000000  -0.000000  -0.000004   0.000132  -0.001595  -0.071962
    12  C    0.000000  -0.000000   0.000000  -0.000389  -0.000178  -0.020672
    13  C    0.000000  -0.000000   0.000000   0.000111   0.000311   0.000607
    14  C   -0.000000  -0.000000  -0.000011  -0.001592   0.000027   0.009701
    15  C    0.000000  -0.000006  -0.000028  -0.016912  -0.000493  -0.008650
    16  C   -0.000036   0.001838   0.007051  -0.007835  -0.000049   0.001509
    17  C   -0.000036   0.000076  -0.000323   0.005188   0.000000  -0.000088
    18  C    0.006720  -0.000063  -0.000072  -0.000029   0.000000   0.000001
    19  H   -0.000002   0.000000   0.000000  -0.000000  -0.000000  -0.000000
    20  H    0.000072   0.000004   0.000001   0.000000   0.000000  -0.000000
    21  H   -0.000076  -0.000004  -0.000000   0.000000   0.000000  -0.000000
    22  H   -0.000215   0.000004   0.000000  -0.000000   0.000000   0.000000
    23  H   -0.000045   0.000004   0.000000  -0.000000  -0.000000   0.000000
    24  H   -0.014749  -0.000362  -0.000001  -0.000000   0.000000   0.000000
    25  H    0.648938  -0.014387  -0.000038   0.000000  -0.000000   0.000000
    26  H   -0.014387   0.631270   0.005440  -0.000039  -0.000003  -0.000000
    27  H   -0.000038   0.005440   0.636608   0.003872   0.001972  -0.000009
    28  H    0.000000  -0.000039   0.003872   0.630020   0.007499   0.010331
    29  H   -0.000000  -0.000003   0.001972   0.007499   0.589355   0.003260
    30  H    0.000000  -0.000000  -0.000009   0.010331   0.003260   0.625616
    31  H    0.000000  -0.000000   0.000000   0.000024   0.000003   0.017073
    32  H    0.000000  -0.000000   0.000000  -0.000000   0.000085   0.001534
    33  H    0.000000  -0.000000  -0.000000   0.000001  -0.000004   0.000833
    34  H   -0.000000   0.000000   0.000004   0.001032   0.000014   0.000368
    35  H    0.000002  -0.000084  -0.000114   0.000380   0.000005  -0.000024
    36  H    0.000002  -0.000011   0.000023   0.001409   0.000001   0.000040
    37  H   -0.000001   0.000003   0.000007  -0.000373  -0.000000   0.000003
    38  H    0.000463  -0.000012   0.000072  -0.000031   0.000000   0.000000
    39  H   -0.000440  -0.000002   0.000000   0.000005  -0.000000  -0.000000
              31         32         33         34         35         36
     1  C    0.000000   0.000000   0.000000  -0.000000   0.000185   0.000005
     2  C   -0.000000  -0.000000  -0.000000   0.000000  -0.000051   0.000261
     3  C   -0.000000  -0.000000  -0.000000   0.000000   0.000057   0.001427
     4  C   -0.000000  -0.000000  -0.000000   0.000000   0.000074   0.000176
     5  C    0.000000   0.000000   0.000000  -0.000007   0.000681  -0.000195
     6  C    0.000000  -0.000000  -0.000001   0.000308  -0.028767  -0.000812
     7  C   -0.000000  -0.000000  -0.000005   0.000164   0.002364   0.001242
     8  C    0.000164   0.000055   0.000033   0.000965   0.002233  -0.000067
     9  C   -0.000166   0.000475   0.000032   0.000455  -0.000047  -0.000024
    10  C    0.001045  -0.001710   0.001952   0.000293   0.000012  -0.000044
    11  N   -0.064536  -0.010874   0.002287  -0.000042   0.000000   0.000000
    12  C    0.351805  -0.071394  -0.004900   0.000064  -0.000000  -0.000000
    13  C   -0.098299   0.328964  -0.045964   0.001128  -0.000001  -0.000000
    14  C   -0.000036  -0.015835   0.319558  -0.031297   0.000284   0.000019
    15  C   -0.000976  -0.000404  -0.020918   0.328199  -0.023071  -0.000391
    16  C    0.000020   0.000002   0.000260  -0.035451   0.329003  -0.025577
    17  C   -0.000000  -0.000000  -0.000001   0.000596  -0.026849   0.360087
    18  C    0.000000   0.000000   0.000000  -0.000004   0.000453  -0.028635
    19  H   -0.000000  -0.000000  -0.000000   0.000000  -0.000012   0.000000
    20  H   -0.000000  -0.000000  -0.000000   0.000000   0.002230  -0.000008
    21  H   -0.000000  -0.000000  -0.000000   0.000000  -0.000009  -0.000000
    22  H    0.000000   0.000000   0.000000  -0.000000  -0.000044  -0.000221
    23  H    0.000000   0.000000   0.000000  -0.000000   0.000001  -0.000010
    24  H    0.000000   0.000000   0.000000  -0.000000   0.000002  -0.000063
    25  H    0.000000   0.000000   0.000000  -0.000000   0.000002   0.000002
    26  H   -0.000000  -0.000000  -0.000000   0.000000  -0.000084  -0.000011
    27  H    0.000000   0.000000  -0.000000   0.000004  -0.000114   0.000023
    28  H    0.000024  -0.000000   0.000001   0.001032   0.000380   0.001409
    29  H    0.000003   0.000085  -0.000004   0.000014   0.000005   0.000001
    30  H    0.017073   0.001534   0.000833   0.000368  -0.000024   0.000040
    31  H    0.687159   0.015720  -0.001055   0.000034  -0.000000  -0.000000
    32  H    0.015720   0.619750   0.001043  -0.000002  -0.000000   0.000000
    33  H   -0.001055   0.001043   0.557741  -0.002094  -0.000015  -0.000000
    34  H    0.000034  -0.000002  -0.002094   0.572829   0.004857   0.000020
    35  H   -0.000000  -0.000000  -0.000015   0.004857   0.595088   0.002315
    36  H   -0.000000   0.000000  -0.000000   0.000020   0.002315   0.568685
    37  H    0.000000   0.000000   0.000000  -0.000035  -0.001808  -0.026814
    38  H   -0.000000  -0.000000  -0.000000   0.000000  -0.000022  -0.000589
    39  H   -0.000000  -0.000000  -0.000000   0.000000  -0.000033   0.000429
              37         38         39
     1  C   -0.000384  -0.000272   0.000308
     2  C    0.000129   0.005289  -0.005846
     3  C   -0.000777  -0.032553  -0.038890
     4  C   -0.000097  -0.002914   0.005797
     5  C    0.000082   0.003267   0.001318
     6  C    0.002000   0.000512  -0.000072
     7  C    0.000323   0.000388  -0.000014
     8  C   -0.000044  -0.000024  -0.000000
     9  C   -0.000002   0.000001  -0.000000
    10  C   -0.000001  -0.000000   0.000000
    11  N   -0.000000  -0.000000   0.000000
    12  C    0.000000  -0.000000  -0.000000
    13  C    0.000000  -0.000000  -0.000000
    14  C    0.000002  -0.000000   0.000000
    15  C    0.000303  -0.000001  -0.000001
    16  C   -0.020203  -0.000024   0.000706
    17  C    0.351872  -0.027860  -0.019087
    18  C   -0.037512   0.359272   0.344801
    19  H    0.000107   0.000006  -0.000001
    20  H   -0.000257  -0.000073  -0.000003
    21  H    0.000008   0.000013  -0.000019
    22  H    0.005532   0.000919   0.002377
    23  H   -0.000100  -0.000400   0.001067
    24  H   -0.000109  -0.002946  -0.004217
    25  H   -0.000001   0.000463  -0.000440
    26  H    0.000003  -0.000012  -0.000002
    27  H    0.000007   0.000072   0.000000
    28  H   -0.000373  -0.000031   0.000005
    29  H   -0.000000   0.000000  -0.000000
    30  H    0.000003   0.000000  -0.000000
    31  H    0.000000  -0.000000  -0.000000
    32  H    0.000000  -0.000000  -0.000000
    33  H    0.000000  -0.000000  -0.000000
    34  H   -0.000035   0.000000   0.000000
    35  H   -0.001808  -0.000022  -0.000033
    36  H   -0.026814  -0.000589   0.000429
    37  H    0.594816   0.003338  -0.002275
    38  H    0.003338   0.622567  -0.040412
    39  H   -0.002275  -0.040412   0.645495
 Mulliken charges:
               1
     1  C   -0.365962
     2  C   -0.184916
     3  C    0.025318
     4  C   -0.136992
     5  C   -0.111272
     6  C    0.094048
     7  C   -0.134638
     8  C    0.091071
     9  C   -0.199291
    10  C    0.051932
    11  N   -0.198201
    12  C   -0.098073
    13  C   -0.207884
    14  C   -0.146288
    15  C   -0.174895
    16  C   -0.253616
    17  C   -0.269399
    18  C   -0.246817
    19  H    0.102608
    20  H    0.123012
    21  H    0.112899
    22  H    0.094273
    23  H    0.090518
    24  H    0.077379
    25  H    0.092216
    26  H    0.105126
    27  H    0.096438
    28  H    0.127178
    29  H    0.108196
    30  H    0.121253
    31  H    0.092024
    32  H    0.132592
    33  H    0.191217
    34  H    0.157600
    35  H    0.140725
    36  H    0.147320
    37  H    0.132266
    38  H    0.112025
    39  H    0.109009
 Sum of Mulliken charges =  -0.00000
 Mulliken charges with hydrogens summed into heavy atoms:
               1
     1  C   -0.027442
     2  C   -0.000126
     3  C    0.102697
     4  C   -0.044775
     5  C   -0.006147
     6  C    0.094048
     7  C   -0.038200
     8  C    0.218249
     9  C   -0.091095
    10  C    0.173185
    11  N   -0.198201
    12  C   -0.006049
    13  C   -0.075292
    14  C    0.044928
    15  C   -0.017295
    16  C   -0.112890
    17  C    0.010186
    18  C   -0.025783
 Electronic spatial extent (au):  <R**2>=           6517.8348
 Charge=             -0.0000 electrons
 Dipole moment (field-independent basis, Debye):
    X=              3.2886    Y=              0.9932    Z=              0.3943  Tot=              3.4578
 Quadrupole moment (field-independent basis, Debye-Ang):
   XX=           -114.6726   YY=           -105.9941   ZZ=           -111.9501
   XY=             -6.3558   XZ=              5.5598   YZ=              2.0853
 Traceless Quadrupole moment (field-independent basis, Debye-Ang):
   XX=             -3.8003   YY=              4.8781   ZZ=             -1.0778
   XY=             -6.3558   XZ=              5.5598   YZ=              2.0853
 Octapole moment (field-independent basis, Debye-Ang**2):
  XXX=            100.1561  YYY=             -7.1076  ZZZ=             12.0899  XYY=             11.5633
  XXY=             15.7856  XXZ=             -2.3940  XZZ=              6.0574  YZZ=             -1.0465
  YYZ=            -10.3152  XYZ=             -3.4621
 Hexadecapole moment (field-independent basis, Debye-Ang**3):
 XXXX=          -7576.4967 YYYY=          -1004.0512 ZZZZ=           -612.0932 XXXY=           -146.5947
 XXXZ=            138.6381 YYYX=             -4.1298 YYYZ=             14.3734 ZZZX=              4.1473
 ZZZY=              4.1743 XXYY=          -1432.6752 XXZZ=          -1375.1449 YYZZ=           -270.2211
 XXYZ=             40.5510 YYXZ=             16.8852 ZZXY=              1.0529
 N-N= 1.213253702293D+03 E-N=-4.080200615446D+03  KE= 7.075788093428D+02
 PrsmSu:  requested number of processors reduced to:  12 ShMem   1 Linda.
 Calling FoFJK, ICntrl=      2127 FMM=F ISym2X=0 I1Cent= 0 IOpClX= 0 NMat=1 NMatS=1 NMatT=0.
 ***** Axes restored to original set *****
 -------------------------------------------------------------------
 Center     Atomic                   Forces (Hartrees/Bohr)
 Number     Number              X              Y              Z
 -------------------------------------------------------------------
      1        6          -0.011660785   -0.008580057    0.004733680
      2        6          -0.004321261   -0.015339466    0.003980411
      3        6           0.013655655    0.001063174   -0.004702699
      4        6          -0.014011999    0.004386223   -0.006493021
      5        6          -0.008742374   -0.003348647    0.000506559
      6        6          -0.000290243   -0.008681733    0.018266531
      7        6           0.007383531    0.002101059   -0.005648025
      8        6           0.012189525    0.001386326    0.019959881
      9        6           0.038758857   -0.015406218   -0.037860816
     10        6           0.004079659    0.028862425   -0.001713590
     11        7           0.004520950    0.013043508   -0.020123885
     12        6           0.058184475   -0.062121539    0.034062333
     13        6          -0.058642927    0.038032169   -0.011542402
     14        6          -0.020144009   -0.029532700    0.023678312
     15        6          -0.023112830   -0.024020278   -0.089542576
     16        6           0.012993253    0.053493062    0.094312266
     17        6           0.013099113   -0.002328794    0.007364833
     18        6           0.016093771    0.000777269   -0.007763562
     19        1          -0.009077691   -0.000056721    0.002962637
     20        1          -0.003829389    0.001392719    0.001369539
[...]
     5  C    4.292024   3.623436   2.573492   1.340228   0.000000
     6  C    5.185575   4.154408   3.158628   2.519005   1.485532
     7  C    6.435743   5.409978   4.240196   3.550754   2.401281
     8  C    7.608719   6.435782   5.346012   4.883632   3.790315
     9  C    8.821781   7.706720   6.640105   6.035287   4.829588
    10  C    9.409773   8.217299   7.349301   6.881357   5.711563
    11  N    9.834329   8.730872   8.005428   7.423534   6.205120
    12  C    9.283434   8.167840   7.671842   7.218829   6.111292
    13  C    7.926411   6.807127   6.361348   5.960214   4.932628
    14  C    7.048916   5.903129   5.735659   5.572543   4.801067
    15  C    5.783466   4.574671   4.440299   4.441123   3.881455
    16  C    4.792473   3.551467   3.055896   3.002651   2.508015
    17  C    4.640444   3.158342   2.627539   3.290808   3.280892
    18  C    3.954005   2.580845   1.546987   2.565536   3.019782
    19  H    1.094273   2.177245   3.529741   4.120480   5.238316
    20  H    1.094281   2.186365   2.896373   2.836963   3.900389
    21  H    1.096104   2.182808   2.828266   3.403145   4.713598
    22  H    2.155740   1.096008   2.184106   2.872297   3.604569
    23  H    2.157865   1.097824   2.153903   3.486408   4.519715
    24  H    2.737873   2.122579   1.101457   2.085615   3.264114
    25  H    2.962384   2.984901   2.204659   1.088004   2.071452
    26  H    4.935092   4.517752   3.520787   2.085437   1.088513
    27  H    6.734748   5.888433   4.609796   3.675491   2.504569
    28  H    7.539963   6.232107   5.269919   5.098874   4.176135
    29  H    9.150675   8.167877   7.056610   6.243976   4.966069
    30  H    9.259327   7.958990   7.155828   6.915631   5.875787
    31  H   10.013484   8.910396   8.542338   8.139190   7.073899
    32  H    7.486940   6.399561   5.756323   5.214324   4.084675
    33  H    7.575941   6.456494   6.496404   6.447025   5.776093
    34  H    5.472259   4.265009   4.476982   4.745706   4.468945
    35  H    3.914680   2.848895   2.685179   2.552680   2.351068
    36  H    5.692483   4.195275   3.536429   4.154388   3.961878
    37  H    4.500077   3.000453   3.015423   3.905761   4.086679
    38  H    4.724429   3.502788   2.150728   2.714817   2.916175
    39  H    4.189395   2.830129   2.158004   3.472102   4.088655
                    6          7          8          9         10
     6  C    0.000000
     7  C    1.358807   0.000000
     8  C    2.496427   1.444043   0.000000
     9  C    3.639486   2.502783   1.361357   0.000000
    10  C    4.368885   3.536978   2.275074   1.457894   0.000000
    11  N    4.951528   4.293007   3.285325   2.422586   1.302016
    12  C    4.832072   4.550694   3.717008   3.324308   2.179093
    13  C    3.658087   3.659031   3.120683   3.234585   2.530899
    14  C    3.627072   4.099710   3.857642   4.363805   3.795627
    15  C    2.822597   3.646019   3.765563   4.643991   4.444991
    16  C    1.555881   2.680135   3.280982   4.437030   4.721513
    17  C    2.528289   3.437781   3.889658   5.192484   5.499339
    18  C    2.872499   3.730577   4.510052   5.867298   6.481144
    19  H    6.026420   7.325729   8.432897   9.638135  10.114385
    20  H    4.965466   6.199753   7.455257   8.578236   9.205672
    21  H    5.716122   6.863674   8.081015   9.319590  10.022622
    22  H    3.902955   5.234545   6.158902   7.369652   7.720236
    23  H    4.860965   6.051974   6.942594   8.258673   8.704189
    24  H    4.005546   4.914292   6.046107   7.339427   8.162410
    25  H    3.468415   4.384959   5.783394   6.856175   7.776659
    26  H    2.192253   2.682648   4.094005   4.899546   5.889695
    27  H    2.084660   1.089355   2.171384   2.848010   4.120801
    28  H    2.739940   2.135965   1.087821   2.083647   2.376515
    29  H    4.016127   2.820064   2.148574   1.085566   2.216777
    30  H    4.429048   3.759231   2.419310   2.137949   1.098184
    31  H    5.819272   5.621623   4.784457   4.352414   3.094462
    32  H    2.806425   2.639094   2.231624   2.462620   2.252332
    33  H    4.665961   5.184768   4.878000   5.299381   4.532154
    34  H    3.620094   4.594378   4.773669   5.703448   5.450034
    35  H    2.063772   3.386171   4.224031   5.327119   5.645639
    36  H    2.928571   3.440228   3.505111   4.774479   4.995654
    37  H    3.456417   4.460529   4.840482   6.088310   6.212331
    38  H    2.720448   3.213279   3.993036   5.330215   6.125699
    39  H    3.944894   4.723199   5.360319   6.720160   7.269408
                   11         12         13         14         15
    11  N    0.000000
    12  C    1.408429   0.000000
    13  C    2.311224   1.365507   0.000000
    14  C    3.723713   2.609899   1.432760   0.000000
    15  C    4.664559   3.777775   2.453771   1.353398   0.000000
    16  C    5.202290   4.675211   3.340940   2.724844   1.542306
    17  C    6.211913   5.724620   4.468606   3.753963   2.520804
    18  C    7.291897   6.989871   5.743665   5.166552   3.911596
    19  H   10.473252   9.803083   8.444275   7.436917   6.202484
    20  H    9.533488   9.022823   7.693984   6.918207   5.744067
    21  H   10.536821  10.083594   8.734692   7.930693   6.638440
    22  H    8.115066   7.424054   6.059517   5.044954   3.754146
    23  H    9.292376   8.689841   7.342439   6.356288   5.011495
    24  H    8.895062   8.653430   7.369729   6.801861   5.512642
    25  H    8.264682   8.101296   6.867069   6.508397   5.413502
    26  H    6.273393   6.324085   5.268597   5.346564   4.618832
    27  H    4.818833   5.277473   4.510541   5.063321   4.639054
    28  H    3.442832   3.580423   2.903599   3.399252   3.276665
    29  H    2.767551   3.839542   3.844641   5.045314   5.338928
    30  H    2.071285   2.380981   2.545816   3.522839   4.112116
    31  H    2.173342   1.087524   2.194073   3.087858   4.396137
    32  H    2.353810   2.038172   1.076582   2.059781   2.550084
    33  H    4.300206   2.988848   2.188417   1.088620   2.080491
    34  H    5.645498   4.637391   3.385742   2.050271   1.091025
    35  H    5.984729   5.376464   4.016964   3.243066   2.030919
    36  H    5.850609   5.454745   4.343393   3.805494   2.824538
    37  H    6.820518   6.138017   4.871840   3.875845   2.617739
    38  H    7.050426   6.961405   5.812907   5.497272   4.375962
    39  H    8.136142   7.795123   6.572156   5.900893   4.640196
                   16         17         18         19         20
    16  C    0.000000
    17  C    1.556924   0.000000
    18  C    2.591936   1.538484   0.000000
    19  H    5.425985   5.252151   4.744640   0.000000
    20  H    4.758241   4.946427   4.361582   1.765167   0.000000
    21  H    5.507546   5.193771   4.217300   1.767678   1.769136
    22  H    3.002351   2.892726   2.883410   2.505459   2.509676
    23  H    4.103524   3.317175   2.711181   2.474053   3.079368
    24  H    4.097817   3.510478   2.124025   3.719627   3.165898
    25  H    4.035712   4.350934   3.501472   4.012328   2.483719
    26  H    3.405978   4.335074   4.073435   5.884043   4.348309
    27  H    3.594161   4.333395   4.331237   7.695949   6.395834
    28  H    3.003224   3.350096   4.212020   8.286020   7.518278
    29  H    5.040399   5.934105   6.469905  10.006125   8.794225
    30  H    4.496746   5.030376   6.119771   9.916264   9.178379
    31  H    5.500800   6.517742   7.864863  10.449620   9.759597
    32  H    2.904299   4.107814   5.187003   8.120373   7.210423
    33  H    3.604136   4.461000   5.935961   7.826010   7.489025
    34  H    2.120577   2.629826   4.017560   5.720700   5.561512
    35  H    1.096004   2.107707   2.782450   4.498603   3.792046
    36  H    2.186271   1.096284   2.161630   6.304808   6.021029
    37  H    2.161816   1.096323   2.171976   4.899469   4.941139
    38  H    2.975596   2.163089   1.095119   5.619909   5.011773
    39  H    3.506146   2.148953   1.096743   4.857297   4.825423
                   21         22         23         24         25
    21  H    0.000000
    22  H    3.076724   0.000000
    23  H    2.539793   1.754091   0.000000
    24  H    2.529294   3.046624   2.452375   0.000000
    25  H    3.071428   3.435778   3.936218   2.361335   0.000000
    26  H    5.302356   4.501736   5.477647   4.062723   2.340199
    27  H    7.054760   5.835595   6.604778   5.123370   4.294946
    28  H    8.053989   5.898195   6.599263   6.020067   6.099565
    29  H    9.619293   7.862799   8.817736   7.710493   6.936699
    30  H    9.876342   7.454728   8.320549   7.975208   7.892584
    31  H   10.867322   8.091707   9.398168   9.555527   9.016769
    32  H    8.214319   5.776320   7.007055   6.708070   6.098574
    33  H    8.515769   5.511742   6.823422   7.575962   7.363528
    34  H    6.383738   3.339628   4.557202   5.544018   5.680310
    35  H    4.734674   2.169372   3.578118   3.780431   3.460209
    36  H    6.177512   3.970484   4.225415   4.280146   5.228078
    37  H    5.147515   2.564744   2.934925   3.893732   4.890798
    38  H    4.851018   3.860022   3.709924   2.440184   3.605539
    39  H    4.314669   3.284253   2.519636   2.362188   4.278770
                   26         27         28         29         30
    26  H    0.000000
    27  H    2.386697   0.000000
    28  H    4.704640   3.072415   0.000000
    29  H    4.794530   2.774882   3.071973   0.000000
    30  H    6.243172   4.532513   2.011092   3.117399   0.000000
    31  H    7.294629   6.356222   4.564257   4.832099   3.178538
    32  H    4.351755   3.442203   2.301534   3.007734   2.491240
    33  H    6.338120   6.151749   4.332576   5.993682   4.170364
    34  H    5.293293   5.575745   4.189485   6.423702   5.011796
    35  H    3.224328   4.114915   4.067614   5.801613   5.504478
    36  H    4.950360   4.402316   2.755213   5.641485   4.379953
    37  H    5.145839   5.375090   4.197029   6.865629   5.655097
    38  H    3.847043   3.673815   3.839391   5.880502   5.835114
    39  H    5.128667   5.325955   4.934407   7.389341   6.789783
                   31         32         33         34         35
    31  H    0.000000
    32  H    3.054475   0.000000
    33  H    3.086939   3.045975   0.000000
    34  H    5.097496   3.622130   2.274750   0.000000
    35  H    6.133681   3.633521   3.983407   2.247936   0.000000
    36  H    6.247893   4.023286   4.501796   3.067449   3.028992
    37  H    6.798505   4.723252   4.344106   2.259599   2.387668
    38  H    7.914782   5.114186   6.375769   4.707782   3.374167
    39  H    8.624070   6.100588   6.564491   4.562554   3.677486
                   36         37         38         39
    36  H    0.000000
    37  H    1.753524   0.000000
    38  H    2.394836   3.052526   0.000000
    39  H    2.535621   2.394182   1.753162   0.000000
 Stoichiometry    C17H21N
 Framework group  C1[X(C17H21N)]
 Deg. of freedom   111
 Full point group                 C1      NOp   1
 Largest Abelian subgroup         C1      NOp   1
 Largest concise Abelian subgroup C1      NOp   1
                         Standard orientation:                         
 ---------------------------------------------------------------------
 Center     Atomic      Atomic             Coordinates (Angstroms)
 Number     Number       Type             X           Y           Z
 ---------------------------------------------------------------------
      1          6           0        5.145349    0.708407   -0.940667
      2          6           0        4.018492    0.802930    0.092724
      3          6           0        3.286341   -0.536022    0.357207
      4          6           0        2.670629   -1.155459   -0.882891
      5          6           0        1.373100   -1.325818   -1.172038
      6          6           0        0.226294   -0.829713   -0.368594
      7          6           0       -0.748590   -1.745358   -0.128693
      8          6           0       -1.963215   -1.513030    0.616941
      9          6           0       -3.226576   -1.821518    0.214391
     10          6           0       -4.061497   -0.649774    0.449715
     11          7           0       -4.653811   -0.004367   -0.513541
     12          6           0       -4.110530    1.294929   -0.532210
     13          6           0       -2.745842    1.299705   -0.485183
     14          6           0       -1.697660    2.241772   -0.227062
     15          6           0       -0.427251    1.881088    0.069001
     16          6           0        0.471385    0.628491    0.115488
     17          6           0        1.196113    0.580125    1.492602
     18          6           0        2.320579   -0.467465    1.563760
     19          1           0        5.672915    1.662794   -1.031515
     20          1           0        4.762680    0.447862   -1.932197
     21          1           0        5.881931   -0.051964   -0.656543
     22          1           0        3.302177    1.568580   -0.226502
     23          1           0        4.433294    1.151333    1.047592
     24          1           0        4.076739   -1.243004    0.654957
     25          1           0        3.387430   -1.589593   -1.576776
     26          1           0        1.119114   -1.922629   -2.046206
     27          1           0       -0.658852   -2.695407   -0.654094
     28          1           0       -1.878356   -0.746124    1.383757
     29          1           0       -3.425341   -2.481866   -0.623992
     30          1           0       -3.785347   -0.107774    1.364037
     31          1           0       -4.757246    2.163030   -0.636456
     32          1           0       -2.323959    0.316915   -0.608338
     33          1           0       -1.929037    3.303166   -0.156339
     34          1           0        0.217391    2.723401    0.324501
     35          1           0        1.254428    0.946941   -0.582120
     36          1           0        0.468289    0.379752    2.287561
     37          1           0        1.602473    1.578214    1.694131
     38          1           0        1.880804   -1.461595    1.696389
     39          1           0        2.912422   -0.271204    2.466007
 ---------------------------------------------------------------------
 Rotational constants (GHZ):           0.9451429           0.2274764           0.2058784
 Standard basis: 6-31G(2df,p) (6D, 7F)
 There are   663 symmetry adapted cartesian basis functions of A   symmetry.
 There are   609 symmetry adapted basis functions of A   symmetry.
   609 basis functions,   939 primitive gaussians,   663 cartesian basis functions
    65 alpha electrons       65 beta electrons
       nuclear repulsion energy      1271.3262014868 Hartrees.
 NAtoms=   39 NActive=   39 NUniq=   39 SFac= 1.00D+00 NAtFMM=   60 NAOKFM=F Big=F
 Integral buffers will be    131072 words long.
 Raffenetti 2 integral format.
 Two-electron integral symmetry is turned on.
 One-electron integrals computed using PRISM.
 PrsmSu:  requested number of processors reduced to:  12 ShMem   1 Linda.
 NBasis=   609 RedAO= T EigKep=  3.50D-04  NBF=   609
 NBsUse=   609 1.00D-06 EigRej= -1.00D+00 NBFU=   609
 Initial guess from the checkpoint file:  "CCC1CdCC2dCCdCCdNCdCCdCC2CC1.chk"
 B after Tr=    -0.000000   -0.000000   -0.000000
         Rot=    1.000000    0.000000   -0.000000   -0.000000 Ang=   0.00 deg.
 Requested convergence on RMS density matrix=1.00D-08 within 128 cycles.
 Requested convergence on MAX density matrix=1.00D-06.
 Requested convergence on             energy=1.00D-06.
 No special actions if energy rises.
 SCF Done:  E(RB3LYP) =  -715.051959655     A.U. after    1 cycles
            NFock=  1  Conv=0.26D-08     -V/T= 2.0086
 DoSCS=F DFT=T ScalE2(SS,OS)=  1.000000  1.000000
 Range of M.O.s used for correlation:     1   609
 NBasis=   609 NAE=    65 NBE=    65 NFC=     0 NFV=     0
 NROrb=    609 NOA=    65 NOB=    65 NVA=   544 NVB=   544

 **** Warning!!: The largest alpha MO coefficient is  0.32822475D+02

 PrsmSu:  requested number of processors reduced to:  11 ShMem   1 Linda.
 PrsmSu:  requested number of processors reduced to:   3 ShMem   1 Linda.
 Symmetrizing basis deriv contribution to polar:
 IMax=3 JMax=2 DiffMx= 0.00D+00
 G2DrvN: will do     1 centers at a time, making   40 passes.
 Calling FoFCou, ICntrl=  3107 FMM=F I1Cent=   0 AccDes= 0.00D+00.
 Calling FoFCou, ICntrl=  3107 FMM=F I1Cent=   0 AccDes= 0.00D+00.
 Calling FoFCou, ICntrl=  3107 FMM=F I1Cent=   0 AccDes= 0.00D+00.
 Calling FoFCou, ICntrl=  3107 FMM=F I1Cent=   0 AccDes= 0.00D+00.
 Calling FoFCou, ICntrl=  3107 FMM=F I1Cent=   0 AccDes= 0.00D+00.
 Calling FoFCou, ICntrl=  3107 FMM=F I1Cent=   0 AccDes= 0.00D+00.
 Calling FoFCou, ICntrl=  3107 FMM=F I1Cent=   0 AccDes= 0.00D+00.
 Calling FoFCou, ICntrl=  3107 FMM=F I1Cent=   0 AccDes= 0.00D+00.
 Calling FoFCou, ICntrl=  3107 FMM=F I1Cent=   0 AccDes= 0.00D+00.
 Calling FoFCou, ICntrl=  3107 FMM=F I1Cent=   0 AccDes= 0.00D+00.
 Calling FoFCou, ICntrl=  3107 FMM=F I1Cent=   0 AccDes= 0.00D+00.
 Calling FoFCou, ICntrl=  3107 FMM=F I1Cent=   0 AccDes= 0.00D+00.
 Calling FoFCou, ICntrl=  3107 FMM=F I1Cent=   0 AccDes= 0.00D+00.
 Calling FoFCou, ICntrl=  3107 FMM=F I1Cent=   0 AccDes= 0.00D+00.
 Calling FoFCou, ICntrl=  3107 FMM=F I1Cent=   0 AccDes= 0.00D+00.
 Calling FoFCou, ICntrl=  3107 FMM=F I1Cent=   0 AccDes= 0.00D+00.
 Calling FoFCou, ICntrl=  3107 FMM=F I1Cent=   0 AccDes= 0.00D+00.
 Calling FoFCou, ICntrl=  3107 FMM=F I1Cent=   0 AccDes= 0.00D+00.
 Calling FoFCou, ICntrl=  3107 FMM=F I1Cent=   0 AccDes= 0.00D+00.
 Calling FoFCou, ICntrl=  3107 FMM=F I1Cent=   0 AccDes= 0.00D+00.
 Calling FoFCou, ICntrl=  3107 FMM=F I1Cent=   0 AccDes= 0.00D+00.
 Calling FoFCou, ICntrl=  3107 FMM=F I1Cent=   0 AccDes= 0.00D+00.
 Calling FoFCou, ICntrl=  3107 FMM=F I1Cent=   0 AccDes= 0.00D+00.
 Calling FoFCou, ICntrl=  3107 FMM=F I1Cent=   0 AccDes= 0.00D+00.
 Calling FoFCou, ICntrl=  3107 FMM=F I1Cent=   0 AccDes= 0.00D+00.
 Calling FoFCou, ICntrl=  3107 FMM=F I1Cent=   0 AccDes= 0.00D+00.
 Calling FoFCou, ICntrl=  3107 FMM=F I1Cent=   0 AccDes= 0.00D+00.
 Calling FoFCou, ICntrl=  3107 FMM=F I1Cent=   0 AccDes= 0.00D+00.
 Calling FoFCou, ICntrl=  3107 FMM=F I1Cent=   0 AccDes= 0.00D+00.
 Calling FoFCou, ICntrl=  3107 FMM=F I1Cent=   0 AccDes= 0.00D+00.
 Calling FoFCou, ICntrl=  3107 FMM=F I1Cent=   0 AccDes= 0.00D+00.
 Calling FoFCou, ICntrl=  3107 FMM=F I1Cent=   0 AccDes= 0.00D+00.
 Calling FoFCou, ICntrl=  3107 FMM=F I1Cent=   0 AccDes= 0.00D+00.
 Calling FoFCou, ICntrl=  3107 FMM=F I1Cent=   0 AccDes= 0.00D+00.
 Calling FoFCou, ICntrl=  3107 FMM=F I1Cent=   0 AccDes= 0.00D+00.
 Calling FoFCou, ICntrl=  3107 FMM=F I1Cent=   0 AccDes= 0.00D+00.
 Calling FoFCou, ICntrl=  3107 FMM=F I1Cent=   0 AccDes= 0.00D+00.
 Calling FoFCou, ICntrl=  3107 FMM=F I1Cent=   0 AccDes= 0.00D+00.
 Calling FoFCou, ICntrl=  3107 FMM=F I1Cent=   0 AccDes= 0.00D+00.
 Calling FoFCou, ICntrl=  3107 FMM=F I1Cent=   0 AccDes= 0.00D+00.
 End of G2Drv F.D. properties file   721 does not exist.
 End of G2Drv F.D. properties file   722 does not exist.
 End of G2Drv F.D. properties file   788 does not exist.
          IDoAtm=111111111111111111111111111111111111111
          Differentiating once with respect to electric field.
                with respect to dipole field.
          Differentiating once with respect to nuclear coordinates.
 CalDSu exits because no D1Ps are significant.
          There are   120 degrees of freedom in the 1st order CPHF.  IDoFFX=6 NUNeed=     3.
    120 vectors produced by pass  0 Test12= 3.54D-14 1.00D-09 XBig12= 6.01D+02 1.66D+01.
 AX will form     5 AO Fock derivatives at one time.
    118 vectors produced by pass  1 Test12= 3.54D-14 1.00D-09 XBig12= 2.00D+02 2.26D+00.
    117 vectors produced by pass  2 Test12= 3.54D-14 1.00D-09 XBig12= 2.62D+00 1.62D-01.
    117 vectors produced by pass  3 Test12= 3.54D-14 1.00D-09 XBig12= 1.08D-02 7.44D-03.
slurmstepd: error: *** JOB 27449260 ON lewis4-r630-hpc4-node303 CANCELLED AT 2023-05-20T19:43:02 DUE TO TIME LIMIT ***
