### Starting Gaussian ###
 Entering Gaussian System, Link 0=g16
 Initial command:
 /cluster/software/gaussian/gaussian-16-A.03/avx2/g16/l1.exe "/local/scratch/cz9n3/Gau-32685.inp" -scrdir="/local/scratch/cz9n3/"
 Entering Link 1 = /cluster/software/gaussian/gaussian-16-A.03/avx2/g16/l1.exe PID=     32686.
  
 Copyright (c) 1988,1990,1992,1993,1995,1998,2003,2009,2016,
            Gaussian, Inc.  All Rights Reserved.
  
 This is part of the Gaussian(R) 16 program.  It is based on
 the Gaussian(R) 09 system (copyright 2009, Gaussian, Inc.),
 the Gaussian(R) 03 system (copyright 2003, Gaussian, Inc.),
 the Gaussian(R) 98 system (copyright 1998, Gaussian, Inc.),
 the Gaussian(R) 94 system (copyright 1995, Gaussian, Inc.),
 the Gaussian 92(TM) system (copyright 1992, Gaussian, Inc.),
 the Gaussian 90(TM) system (copyright 1990, Gaussian, Inc.),
 the Gaussian 88(TM) system (copyright 1988, Gaussian, Inc.),
 the Gaussian 86(TM) system (copyright 1986, Carnegie Mellon
 University), and the Gaussian 82(TM) system (copyright 1983,
 Carnegie Mellon University). Gaussian is a federally registered
 trademark of Gaussian, Inc.
  
 This software contains proprietary and confidential information,
 including trade secrets, belonging to Gaussian, Inc.
  
 This software is provided under written license and may be
 used, copied, transmitted, or stored only in accord with that
 written license.
  
 The following legend is applicable only to US Government
 contracts under FAR:
  
                    RESTRICTED RIGHTS LEGEND
  
 Use, reproduction and disclosure by the US Government is
 subject to restrictions as set forth in subparagraphs (a)
 and (c) of the Commercial Computer Software - Restricted
 Rights clause in FAR 52.227-19.
  
 Gaussian, Inc.
 340 Quinnipiac St., Bldg. 40, Wallingford CT 06492
  
  
 ---------------------------------------------------------------
 Warning -- This program may not be used in any manner that
 competes with the business of Gaussian, Inc. or will provide
 assistance to any competitor of Gaussian, Inc.  The licensee
 of this program is prohibited from giving any competitor of
 Gaussian, Inc. access to this program.  By using this program,
 the user acknowledges that Gaussian, Inc. is engaged in the
 business of creating and licensing software in the field of
 computational chemistry and represents and warrants to the
 licensee that it is not a competitor of Gaussian, Inc. and that
 it will not use this program in any manner prohibited above.
 ---------------------------------------------------------------
  

 Cite this work as:
 Gaussian 16, Revision A.03,
 M. J. Frisch, G. W. Trucks, H. B. Schlegel, G. E. Scuseria, 
 M. A. Robb, J. R. Cheeseman, G. Scalmani, V. Barone, 
 G. A. Petersson, H. Nakatsuji, X. Li, M. Caricato, A. V. Marenich, 
 J. Bloino, B. G. Janesko, R. Gomperts, B. Mennucci, H. P. Hratchian, 
 J. V. Ortiz, A. F. Izmaylov, J. L. Sonnenberg, D. Williams-Young, 
 F. Ding, F. Lipparini, F. Egidi, J. Goings, B. Peng, A. Petrone, 
 T. Henderson, D. Ranasinghe, V. G. Zakrzewski, J. Gao, N. Rega, 
 G. Zheng, W. Liang, M. Hada, M. Ehara, K. Toyota, R. Fukuda, 
 J. Hasegawa, M. Ishida, T. Nakajima, Y. Honda, O. Kitao, H. Nakai, 
 T. Vreven, K. Throssell, J. A. Montgomery, Jr., J. E. Peralta, 
 F. Ogliaro, M. J. Bearpark, J. J. Heyd, E. N. Brothers, K. N. Kudin, 
 V. N. Staroverov, T. A. Keith, R. Kobayashi, J. Normand, 
 K. Raghavachari, A. P. Rendell, J. C. Burant, S. S. Iyengar, 
 J. Tomasi, M. Cossi, J. M. Millam, M. Klene, C. Adamo, R. Cammi, 
 J. W. Ochterski, R. L. Martin, K. Morokuma, O. Farkas, 
 J. B. Foresman, and D. J. Fox, Gaussian, Inc., Wallingford CT, 2016.
 
 ******************************************
 Gaussian 16:  ES64L-G16RevA.03 25-Dec-2016
                18-May-2023 
 ******************************************
 %chk=CCC1dCCqCrdCdCCdCdCOC1dO.chk
 %NProcShared=20
 Will use up to   20 processors via shared memory.
 -----------------------------
 # opt freq b3lyp/6-31g(2df,p)
 -----------------------------
 1/18=20,19=15,26=3,38=1/1,3;
 2/9=110,12=2,17=6,18=5,40=1/2;
 3/5=1,6=6,7=104,11=2,25=1,30=1,71=1,74=-5/1,2,3;
 4//1;
 5/5=2,38=5/2;
 6/7=2,8=2,9=2,10=2,28=1/1;
 7//1,2,3,16;
 1/18=20,19=15,26=3/3(2);
 2/9=110/2;
 99//99;
 2/9=110/2;
 3/5=1,6=6,7=104,11=2,25=1,30=1,71=1,74=-5/1,2,3;
 4/5=5,16=3,69=1/1;
 5/5=2,38=5/2;
 7//1,2,3,16;
 1/18=20,19=15,26=3/3(-5);
 2/9=110/2;
 6/7=2,8=2,9=2,10=2,19=2,28=1/1;
 99/9=1/99;
 -------------------
 Title Card Required
 -------------------
 Symbolic Z-matrix:
 Charge =  0 Multiplicity = 1
 C                     1.32728  -0.13687   0.30952 
 C                     2.97182  -0.3506    0.4738 
 C                     4.21444  -0.33105   1.77127 
 C                     4.80158   0.84583   1.69791 
 C                     5.23948   1.38809   2.97575 
 C                     4.23231   1.16706   4.24996 
 C                     6.55789   1.31758   2.95974 
 C                     7.81026   0.98806   2.77623 
 C                     8.30881  -0.4018    2.24908 
 C                     8.97085  -1.06586   3.11786 
 C                     8.31014  -1.20951   4.22573 
 O                     6.57472  -1.07412   3.88042 
 C                     5.03114  -1.24647   3.11039 
 O                     4.23412  -1.71814   3.80582 
 H                     1.00608  -0.23797  -0.76444 
 H                     0.91579   0.86149   0.5525 
 H                     0.74494  -0.9037    0.82128 
 H                     3.23794   0.52682  -0.18386 
 H                     3.17569  -1.19901  -0.18113 
 H                     5.47784   0.7292    0.82196 
 H                     3.16738   0.99404   3.97512 
 H                     4.23374   2.02254   4.92666 
 H                     4.45615   0.31221   4.91921 
 H                     8.401     1.40037   3.6046 
 H                     7.63706  -1.24992   1.99082 
 H                     8.96837  -0.48606   4.81535 
 
 Add virtual bond connecting atoms C11        and O12        Dist= 3.35D+00.
 Add virtual bond connecting atoms C13        and O12        Dist= 3.28D+00.

 GradGradGradGradGradGradGradGradGradGradGradGradGradGradGradGradGradGrad
 Berny optimization.
 Initialization pass.
                           ----------------------------
                           !    Initial Parameters    !
                           ! (Angstroms and Degrees)  !
 --------------------------                            --------------------------
 ! Name  Definition              Value          Derivative Info.                !
 --------------------------------------------------------------------------------
 ! R1    R(1,2)                  1.6665         estimate D2E/DX2                !
 ! R2    R(1,15)                 1.1255         estimate D2E/DX2                !
 ! R3    R(1,16)                 1.1068         estimate D2E/DX2                !
 ! R4    R(1,17)                 1.0904         estimate D2E/DX2                !
 ! R5    R(2,3)                  1.7966         estimate D2E/DX2                !
 ! R6    R(2,18)                 1.1284         estimate D2E/DX2                !
 ! R7    R(2,19)                 1.091          estimate D2E/DX2                !
 ! R8    R(3,4)                  1.3173         estimate D2E/DX2                !
 ! R9    R(3,13)                 1.8161         estimate D2E/DX2                !
 ! R10   R(4,5)                  1.4556         estimate D2E/DX2                !
 ! R11   R(4,20)                 1.1128         estimate D2E/DX2                !
 ! R12   R(5,6)                  1.6392         estimate D2E/DX2                !
 ! R13   R(5,7)                  1.3204         estimate D2E/DX2                !
 ! R14   R(6,21)                 1.1134         estimate D2E/DX2                !
 ! R15   R(6,22)                 1.0908         estimate D2E/DX2                !
 ! R16   R(6,23)                 1.1085         estimate D2E/DX2                !
 ! R17   R(7,8)                  1.3079         estimate D2E/DX2                !
 ! R18   R(8,9)                  1.5678         estimate D2E/DX2                !
 ! R19   R(8,24)                 1.0978         estimate D2E/DX2                !
 ! R20   R(9,10)                 1.2783         estimate D2E/DX2                !
 ! R21   R(9,25)                 1.1123         estimate D2E/DX2                !
 ! R22   R(10,11)                1.2979         estimate D2E/DX2                !
 ! R23   R(11,12)                1.7746         estimate D2E/DX2                !
 ! R24   R(11,26)                1.1421         estimate D2E/DX2                !
 ! R25   R(12,13)                1.7336         estimate D2E/DX2                !
 ! R26   R(13,14)                1.1582         estimate D2E/DX2                !
 ! A1    A(2,1,15)             111.3562         estimate D2E/DX2                !
 ! A2    A(2,1,16)             117.4463         estimate D2E/DX2                !
 ! A3    A(2,1,17)             112.9891         estimate D2E/DX2                !
 ! A4    A(15,1,16)            100.626          estimate D2E/DX2                !
 ! A5    A(15,1,17)            103.4294         estimate D2E/DX2                !
 ! A6    A(16,1,17)            109.4353         estimate D2E/DX2                !
 ! A7    A(1,2,3)              138.7919         estimate D2E/DX2                !
 ! A8    A(1,2,18)              94.3331         estimate D2E/DX2                !
 ! A9    A(1,2,19)             103.0005         estimate D2E/DX2                !
 ! A10   A(3,2,18)             104.4378         estimate D2E/DX2                !
 ! A11   A(3,2,19)             108.2241         estimate D2E/DX2                !
 ! A12   A(18,2,19)            102.166          estimate D2E/DX2                !
 ! A13   A(2,3,4)              106.1281         estimate D2E/DX2                !
 ! A14   A(2,3,13)             146.9334         estimate D2E/DX2                !
 ! A15   A(4,3,13)             106.9155         estimate D2E/DX2                !
 ! A16   A(3,4,5)              114.7112         estimate D2E/DX2                !
 ! A17   A(3,4,20)             102.7727         estimate D2E/DX2                !
 ! A18   A(5,4,20)             123.1811         estimate D2E/DX2                !
 ! A19   A(4,5,6)              116.5739         estimate D2E/DX2                !
 ! A20   A(4,5,7)              105.6556         estimate D2E/DX2                !
 ! A21   A(6,5,7)              128.006          estimate D2E/DX2                !
 ! A22   A(5,6,21)             114.6313         estimate D2E/DX2                !
 ! A23   A(5,6,22)             112.0676         estimate D2E/DX2                !
 ! A24   A(5,6,23)             116.6947         estimate D2E/DX2                !
 ! A25   A(21,6,22)            106.0386         estimate D2E/DX2                !
 ! A26   A(21,6,23)            102.8467         estimate D2E/DX2                !
 ! A27   A(22,6,23)            103.2975         estimate D2E/DX2                !
 ! A28   A(7,8,9)              125.0987         estimate D2E/DX2                !
 ! A29   A(7,8,24)             108.3462         estimate D2E/DX2                !
 ! A30   A(9,8,24)             114.5531         estimate D2E/DX2                !
 ! A31   A(8,9,10)             113.3712         estimate D2E/DX2                !
 ! A32   A(8,9,25)             124.1906         estimate D2E/DX2                !
 ! A33   A(10,9,25)             94.271          estimate D2E/DX2                !
 ! A34   A(9,10,11)            111.9612         estimate D2E/DX2                !
 ! A35   A(10,11,12)           108.8614         estimate D2E/DX2                !
 ! A36   A(10,11,26)            94.4264         estimate D2E/DX2                !
 ! A37   A(12,11,26)           128.0068         estimate D2E/DX2                !
 ! A38   A(11,12,13)           161.7287         estimate D2E/DX2                !
 ! A39   A(3,13,12)            132.6738         estimate D2E/DX2                !
 ! A40   A(3,13,14)            109.7894         estimate D2E/DX2                !
 ! A41   A(12,13,14)           112.7386         estimate D2E/DX2                !
 ! A42   L(5,7,8,12,-1)        171.9717         estimate D2E/DX2                !
 ! A43   L(5,7,8,12,-2)        168.7119         estimate D2E/DX2                !
 ! D1    D(15,1,2,3)           179.042          estimate D2E/DX2                !
 ! D2    D(15,1,2,18)           61.2622         estimate D2E/DX2                !
 ! D3    D(15,1,2,19)          -42.2942         estimate D2E/DX2                !
 ! D4    D(16,1,2,3)            63.8161         estimate D2E/DX2                !
 ! D5    D(16,1,2,18)          -53.9637         estimate D2E/DX2                !
 ! D6    D(16,1,2,19)         -157.52           estimate D2E/DX2                !
 ! D7    D(17,1,2,3)           -65.06           estimate D2E/DX2                !
 ! D8    D(17,1,2,18)          177.1603         estimate D2E/DX2                !
 ! D9    D(17,1,2,19)           73.6039         estimate D2E/DX2                !
 ! D10   D(1,2,3,4)           -100.0832         estimate D2E/DX2                !
 ! D11   D(1,2,3,13)            82.1067         estimate D2E/DX2                !
 ! D12   D(18,2,3,4)            14.2748         estimate D2E/DX2                !
 ! D13   D(18,2,3,13)         -163.5354         estimate D2E/DX2                !
 ! D14   D(19,2,3,4)           122.5678         estimate D2E/DX2                !
 ! D15   D(19,2,3,13)          -55.2424         estimate D2E/DX2                !
 ! D16   D(2,3,4,5)            146.772          estimate D2E/DX2                !
 ! D17   D(2,3,4,20)           -77.0029         estimate D2E/DX2                !
 ! D18   D(13,3,4,5)           -34.4766         estimate D2E/DX2                !
 ! D19   D(13,3,4,20)          101.7485         estimate D2E/DX2                !
 ! D20   D(2,3,13,12)          157.143          estimate D2E/DX2                !
 ! D21   D(2,3,13,14)          -49.9278         estimate D2E/DX2                !
 ! D22   D(4,3,13,12)          -20.6582         estimate D2E/DX2                !
 ! D23   D(4,3,13,14)          132.2709         estimate D2E/DX2                !
 ! D24   D(3,4,5,6)            -39.7499         estimate D2E/DX2                !
 ! D25   D(3,4,5,7)            109.0299         estimate D2E/DX2                !
 ! D26   D(20,4,5,6)          -166.0279         estimate D2E/DX2                !
 ! D27   D(20,4,5,7)           -17.2481         estimate D2E/DX2                !
 ! D28   D(4,5,6,21)           -22.9156         estimate D2E/DX2                !
 ! D29   D(4,5,6,22)          -143.8357         estimate D2E/DX2                !
 ! D30   D(4,5,6,23)            97.3712         estimate D2E/DX2                !
 ! D31   D(7,5,6,21)          -163.6129         estimate D2E/DX2                !
 ! D32   D(7,5,6,22)            75.467          estimate D2E/DX2                !
 ! D33   D(7,5,6,23)           -43.3261         estimate D2E/DX2                !
 ! D34   D(4,5,8,9)            -45.1382         estimate D2E/DX2                !
 ! D35   D(4,5,8,24)           174.9547         estimate D2E/DX2                !
 ! D36   D(6,5,8,9)             92.667          estimate D2E/DX2                !
 ! D37   D(6,5,8,24)           -47.2402         estimate D2E/DX2                !
 ! D38   D(7,8,9,10)          -113.8217         estimate D2E/DX2                !
 ! D39   D(7,8,9,25)            -0.7637         estimate D2E/DX2                !
 ! D40   D(24,8,9,10)           24.2533         estimate D2E/DX2                !
 ! D41   D(24,8,9,25)          137.3113         estimate D2E/DX2                !
 ! D42   D(8,9,10,11)           54.108          estimate D2E/DX2                !
 ! D43   D(25,9,10,11)         -76.1441         estimate D2E/DX2                !
 ! D44   D(9,10,11,12)          24.4004         estimate D2E/DX2                !
 ! D45   D(9,10,11,26)        -108.3719         estimate D2E/DX2                !
 ! D46   D(10,11,12,13)         41.5994         estimate D2E/DX2                !
 ! D47   D(26,11,12,13)        153.3446         estimate D2E/DX2                !
 ! D48   D(11,12,13,3)         -84.5358         estimate D2E/DX2                !
 ! D49   D(11,12,13,14)        123.1292         estimate D2E/DX2                !
 --------------------------------------------------------------------------------
 Trust Radius=3.00D-01 FncErr=1.00D-07 GrdErr=1.00D-06 EigMax=2.50D+02 EigMin=1.00D-04
 Number of steps in this run=    128 maximum allowed number of steps=    156.
 GradGradGradGradGradGradGradGradGradGradGradGradGradGradGradGradGradGrad

                          Input orientation:                          
 ---------------------------------------------------------------------
 Center     Atomic      Atomic             Coordinates (Angstroms)
 Number     Number       Type             X           Y           Z
 ---------------------------------------------------------------------
      1          6           0        1.327280   -0.136870    0.309520
      2          6           0        2.971820   -0.350600    0.473800
      3          6           0        4.214440   -0.331050    1.771270
      4          6           0        4.801580    0.845830    1.697910
      5          6           0        5.239480    1.388090    2.975750
      6          6           0        4.232310    1.167060    4.249960
      7          6           0        6.557890    1.317580    2.959740
      8          6           0        7.810260    0.988060    2.776230
      9          6           0        8.308810   -0.401800    2.249080
     10          6           0        8.970850   -1.065860    3.117860
     11          6           0        8.310140   -1.209510    4.225730
     12          8           0        6.574720   -1.074120    3.880420
     13          6           0        5.031140   -1.246470    3.110390
     14          8           0        4.234120   -1.718140    3.805820
     15          1           0        1.006080   -0.237970   -0.764440
     16          1           0        0.915790    0.861490    0.552500
     17          1           0        0.744940   -0.903700    0.821280
     18          1           0        3.237940    0.526820   -0.183860
     19          1           0        3.175690   -1.199010   -0.181130
     20          1           0        5.477840    0.729200    0.821960
     21          1           0        3.167380    0.994040    3.975120
     22          1           0        4.233740    2.022540    4.926660
     23          1           0        4.456150    0.312210    4.919210
     24          1           0        8.401000    1.400370    3.604600
     25          1           0        7.637060   -1.249920    1.990820
     26          1           0        8.968370   -0.486060    4.815350
 ---------------------------------------------------------------------
                    Distance matrix (angstroms):
                    1          2          3          4          5
     1  C    0.000000
     2  C    1.666487   0.000000
     3  C    3.241930   1.796640   0.000000
     4  C    3.868344   2.505576   1.317255   0.000000
     5  C    4.973891   3.798036   2.336005   1.455568   0.000000
     6  C    5.066212   4.260459   2.896301   2.634429   1.639163
     7  C    6.041388   4.671469   3.101967   2.213456   1.320391
     8  C    7.027030   5.523015   3.959788   3.199243   2.609357
     9  C    7.250782   5.624740   4.122763   3.763115   3.626643
    10  C    8.195972   6.594771   4.997668   4.801419   4.468242
    11  C    8.077598   6.581213   4.854979   4.787932   4.211761
    12  O    6.416026   5.010931   3.251398   3.404935   2.943429
    13  C    4.774376   3.463378   1.816104   2.534860   2.646212
    14  O    4.813964   3.816533   2.462478   3.367378   3.368743
    15  H    1.125514   2.325953   4.090484   4.652269   5.878330
    16  H    1.106836   2.388015   3.713306   4.051120   4.984350
    17  H    1.090434   2.320702   3.642505   4.503961   5.485885
    18  H    2.081953   1.128363   2.347771   2.467346   3.838109
    19  H    2.187578   1.091007   2.375757   3.218024   4.573643
    20  H    4.270810   2.750876   1.903024   1.112753   2.264898
    21  H    4.254591   3.755735   2.776536   2.806824   2.334012
    22  H    5.867584   5.201173   3.936527   3.483090   2.284752
    23  H    5.589342   4.733310   3.222070   3.283420   2.355453
    24  H    7.953501   6.507211   4.887351   4.110816   3.223478
    25  H    6.624121   4.987443   3.550613   3.538066   3.698320
    26  H    8.877539   7.404459   5.647150   5.371639   4.560832
                    6          7          8          9         10
     6  C    0.000000
     7  C    2.663765   0.000000
     8  C    3.873712   1.307933   0.000000
     9  C    4.804445   2.554805   1.567849   0.000000
    10  C    5.359230   3.395315   2.383751   1.278300   0.000000
    11  C    4.719891   3.325552   2.679598   2.135309   1.297902
    12  O    3.262872   2.562843   2.645445   2.473935   2.514559
    13  C    2.786014   2.987978   3.581661   3.492627   3.943855
    14  O    2.919185   3.915527   4.601342   4.556236   4.830670
    15  H    6.125918   6.863807   7.767648   7.901772   8.899169
    16  H    4.976333   6.151107   7.245323   7.689670   8.670625
    17  H    5.310899   6.580082   7.570953   7.713796   8.542024
    18  H    4.588838   4.639999   5.466350   5.700461   6.804722
    19  H    5.133156   5.257144   5.916797   5.735014   6.669703
    20  H    3.673452   2.466334   3.053909   3.366040   4.549123
    21  H    1.113350   3.554045   4.795175   5.600168   6.217584
    22  H    1.090766   3.125287   4.299534   5.445462   5.937186
    23  H    1.108498   3.044274   4.037226   4.741560   5.052371
    24  H    4.224796   1.954419   1.097802   2.256934   2.577583
    25  H    4.747402   2.948808   2.378113   1.112319   1.755874
    26  H    5.048043   3.536498   2.769884   2.651011   1.793780
                   11         12         13         14         15
    11  C    0.000000
    12  O    1.774613   0.000000
    13  C    3.463696   1.733577   0.000000
    14  O    4.129040   2.428731   1.158161   0.000000
    15  H    8.899156   7.299563   5.677366   5.787782   0.000000
    16  H    8.512231   6.844350   5.284165   5.315063   1.717934
    17  H    8.301569   6.585872   4.871245   4.663172   1.739511
    18  H    6.941652   5.496861   4.148760   4.685058   2.429645
    19  H    6.766321   5.297659   3.778763   4.157588   2.443574
    20  H    4.833857   3.716085   3.056096   4.054594   4.842388
    21  H    5.600573   3.987006   3.039942   2.919335   5.352803
    22  H    5.249237   4.020461   3.823756   3.904993   6.922161
    23  H    4.201165   2.736665   2.455998   2.326211   6.671548
    24  H    2.684312   3.087795   4.313463   5.208501   8.743999
    25  H    2.334415   2.174870   2.836242   3.885030   7.251579
    26  H    1.142059   2.636185   4.357395   4.995027   9.725928
                   16         17         18         19         20
    16  H    0.000000
    17  H    1.793691   0.000000
    18  H    2.458986   3.044954   0.000000
    19  H    3.144999   2.645861   1.726954   0.000000
    20  H    4.571915   5.006666   2.463693   3.166082   0.000000
    21  H    4.098970   4.406398   4.185736   4.699356   3.918008
    22  H    5.611604   6.130967   5.417214   6.130854   4.479852
    23  H    5.648364   5.660790   5.250849   5.471456   4.243252
    24  H    8.101486   8.465865   6.463181   6.956464   4.091261
    25  H    7.190430   6.999215   5.219032   4.962235   3.153630
    26  H    9.210419   9.151602   7.671757   7.682985   5.441307
                   21         22         23         24         25
    21  H    0.000000
    22  H    1.760785   0.000000
    23  H    1.736988   1.724746   0.000000
    24  H    5.262430   4.415993   4.298155   0.000000
    25  H    5.380599   5.559743   4.597163   3.195611   0.000000
    26  H    6.045508   5.359308   4.583465   2.312238   3.214629
                   26
    26  H    0.000000
 Stoichiometry    C12H12O2
 Framework group  C1[X(C12H12O2)]
 Deg. of freedom    72
 Full point group                 C1      NOp   1
 Largest Abelian subgroup         C1      NOp   1
 Largest concise Abelian subgroup C1      NOp   1
                         Standard orientation:                         
 ---------------------------------------------------------------------
 Center     Atomic      Atomic             Coordinates (Angstroms)
 Number     Number       Type             X           Y           Z
 ---------------------------------------------------------------------
      1          6           0        4.706921   -0.305808   -0.499469
      2          6           0        3.122937   -0.664126   -0.873344
      3          6           0        1.470900   -0.132715   -0.408273
      4          6           0        1.027194   -1.027040    0.451069
      5          6           0        0.149337   -0.495768    1.483441
      6          6           0        0.554816    0.963044    2.111381
      7          6           0       -1.056371   -0.949647    1.194138
      8          6           0       -2.149510   -1.370250    0.612047
      9          6           0       -2.474409   -1.217081   -0.914101
     10          6           0       -3.462352   -0.439966   -1.146727
     11          6           0       -3.304115    0.724529   -0.595855
     12          8           0       -1.569419    1.018870   -0.364672
     13          6           0        0.140815    1.081732   -0.641144
     14          8           0        0.569302    2.154154   -0.553706
     15          1           0        5.421461   -0.957617   -1.075107
     16          1           0        5.043006   -0.500313    0.537016
     17          1           0        4.995142    0.704700   -0.790757
     18          1           0        3.188467   -1.730143   -0.509317
     19          1           0        3.148752   -0.789169   -1.956853
     20          1           0        0.748327   -1.881449   -0.205009
     21          1           0        1.630060    1.231445    2.004793
     22          1           0        0.332631    1.026403    3.177397
     23          1           0        0.036959    1.847921    1.689971
     24          1           0       -2.996422   -1.169624    1.281121
     25          1           0       -1.803462   -0.720433   -1.649238
     26          1           0       -4.100963    0.552664    0.204016
 ---------------------------------------------------------------------
 Rotational constants (GHZ):           1.2549841           0.4200559           0.4078867
 Standard basis: 6-31G(2df,p) (6D, 7F)
 There are   494 symmetry adapted cartesian basis functions of A   symmetry.
 There are   452 symmetry adapted basis functions of A   symmetry.
   452 basis functions,   700 primitive gaussians,   494 cartesian basis functions
    50 alpha electrons       50 beta electrons
       nuclear repulsion energy       823.8485330922 Hartrees.
 NAtoms=   26 NActive=   26 NUniq=   26 SFac= 1.00D+00 NAtFMM=   60 NAOKFM=F Big=F
 Integral buffers will be    131072 words long.
 Raffenetti 2 integral format.
 Two-electron integral symmetry is turned on.
 One-electron integrals computed using PRISM.
 PrsmSu:  requested number of processors reduced to:  12 ShMem   1 Linda.
 NBasis=   452 RedAO= T EigKep=  2.86D-04  NBF=   452
 NBsUse=   452 1.00D-06 EigRej= -1.00D+00 NBFU=   452
 ExpMin= 1.61D-01 ExpMax= 5.48D+03 ExpMxC= 8.25D+02 IAcc=3 IRadAn=         5 AccDes= 0.00D+00
 Harris functional with IExCor=  402 and IRadAn=       5 diagonalized for initial guess.
 HarFok:  IExCor=  402 AccDes= 0.00D+00 IRadAn=         5 IDoV= 1 UseB2=F ITyADJ=14
 ICtDFT=  3500011 ScaDFX=  1.000000  1.000000  1.000000  1.000000
 FoFCou: FMM=F IPFlag=           0 FMFlag=      100000 FMFlg1=           0
         NFxFlg=           0 DoJE=T BraDBF=F KetDBF=T FulRan=T
         wScrn=  0.000000 ICntrl=       500 IOpCl=  0 I1Cent=   200000004 NGrid=           0
         NMat0=    1 NMatS0=      1 NMatT0=    0 NMatD0=    1 NMtDS0=    0 NMtDT0=    0
 Petite list used in FoFCou.
 Requested convergence on RMS density matrix=1.00D-08 within 128 cycles.
 Requested convergence on MAX density matrix=1.00D-06.
 Requested convergence on             energy=1.00D-06.
 No special actions if energy rises.
 Integral accuracy reduced to 1.0D-05 until final iterations.
 EnCoef did     1 forward-backward iterations
 EnCoef did     3 forward-backward iterations
 EnCoef did     9 forward-backward iterations
 EnCoef did     3 forward-backward iterations
 EnCoef did     5 forward-backward iterations
 Initial convergence to 1.0D-05 achieved.  Increase integral accuracy.
 SCF Done:  E(RB3LYP) =  -614.234282137     A.U. after   23 cycles
            NFock= 23  Conv=0.78D-08     -V/T= 2.0082

 **********************************************************************

            Population analysis using the SCF density.

 **********************************************************************

 Orbital symmetries:
       Occupied  (A) (A) (A) (A) (A) (A) (A) (A) (A) (A) (A) (A)
                 (A) (A) (A) (A) (A) (A) (A) (A) (A) (A) (A) (A)
                 (A) (A) (A) (A) (A) (A) (A) (A) (A) (A) (A) (A)
                 (A) (A) (A) (A) (A) (A) (A) (A) (A) (A) (A) (A)
                 (A) (A)
       Virtual   (A) (A) (A) (A) (A) (A) (A) (A) (A) (A) (A) (A)
                 (A) (A) (A) (A) (A) (A) (A) (A) (A) (A) (A) (A)
                 (A) (A) (A) (A) (A) (A) (A) (A) (A) (A) (A) (A)
                 (A) (A) (A) (A) (A) (A) (A) (A) (A) (A) (A) (A)
                 (A) (A) (A) (A) (A) (A) (A) (A) (A) (A) (A) (A)
                 (A) (A) (A) (A) (A) (A) (A) (A) (A) (A) (A) (A)
                 (A) (A) (A) (A) (A) (A) (A) (A) (A) (A) (A) (A)
                 (A) (A) (A) (A) (A) (A) (A) (A) (A) (A) (A) (A)
                 (A) (A) (A) (A) (A) (A) (A) (A) (A) (A) (A) (A)
                 (A) (A) (A) (A) (A) (A) (A) (A) (A) (A) (A) (A)
                 (A) (A) (A) (A) (A) (A) (A) (A) (A) (A) (A) (A)
                 (A) (A) (A) (A) (A) (A) (A) (A) (A) (A) (A) (A)
                 (A) (A) (A) (A) (A) (A) (A) (A) (A) (A) (A) (A)
                 (A) (A) (A) (A) (A) (A) (A) (A) (A) (A) (A) (A)
                 (A) (A) (A) (A) (A) (A) (A) (A) (A) (A) (A) (A)
                 (A) (A) (A) (A) (A) (A) (A) (A) (A) (A) (A) (A)
                 (A) (A) (A) (A) (A) (A) (A) (A) (A) (A) (A) (A)
                 (A) (A) (A) (A) (A) (A) (A) (A) (A) (A) (A) (A)
                 (A) (A) (A) (A) (A) (A) (A) (A) (A) (A) (A) (A)
                 (A) (A) (A) (A) (A) (A) (A) (A) (A) (A) (A) (A)
                 (A) (A) (A) (A) (A) (A) (A) (A) (A) (A) (A) (A)
                 (A) (A) (A) (A) (A) (A) (A) (A) (A) (A) (A) (A)
                 (A) (A) (A) (A) (A) (A) (A) (A) (A) (A) (A) (A)
                 (A) (A) (A) (A) (A) (A) (A) (A) (A) (A) (A) (A)
                 (A) (A) (A) (A) (A) (A) (A) (A) (A) (A) (A) (A)
                 (A) (A) (A) (A) (A) (A) (A) (A) (A) (A) (A) (A)
                 (A) (A) (A) (A) (A) (A) (A) (A) (A) (A) (A) (A)
                 (A) (A) (A) (A) (A) (A) (A) (A) (A) (A) (A) (A)
                 (A) (A) (A) (A) (A) (A) (A) (A) (A) (A) (A) (A)
                 (A) (A) (A) (A) (A) (A) (A) (A) (A) (A) (A) (A)
                 (A) (A) (A) (A) (A) (A) (A) (A) (A) (A) (A) (A)
                 (A) (A) (A) (A) (A) (A) (A) (A) (A) (A) (A) (A)
                 (A) (A) (A) (A) (A) (A) (A) (A) (A) (A) (A) (A)
                 (A) (A) (A) (A) (A) (A)
 The electronic state is 1-A.
 Alpha  occ. eigenvalues --  -19.16270 -19.10164 -10.31340 -10.25315 -10.25169
 Alpha  occ. eigenvalues --  -10.24355 -10.24079 -10.23987 -10.22925 -10.22482
 Alpha  occ. eigenvalues --  -10.21529 -10.20889 -10.20100 -10.19704  -1.08815
 Alpha  occ. eigenvalues --   -0.90809  -0.86402  -0.84021  -0.79290  -0.75173
 Alpha  occ. eigenvalues --   -0.72373  -0.68930  -0.67327  -0.62847  -0.56557
 Alpha  occ. eigenvalues --   -0.54076  -0.50627  -0.50130  -0.49457  -0.45873
 Alpha  occ. eigenvalues --   -0.45471  -0.43966  -0.43564  -0.42659  -0.42392
 Alpha  occ. eigenvalues --   -0.41399  -0.39638  -0.38857  -0.38250  -0.37540
 Alpha  occ. eigenvalues --   -0.36638  -0.35584  -0.34276  -0.32225  -0.30719
 Alpha  occ. eigenvalues --   -0.25416  -0.24490  -0.22769  -0.21061  -0.17979
 Alpha virt. eigenvalues --   -0.12597  -0.09242  -0.05809  -0.04331  -0.02145
 Alpha virt. eigenvalues --    0.01258   0.03008   0.03875   0.08313   0.08719
 Alpha virt. eigenvalues --    0.10577   0.11781   0.12583   0.13316   0.13998
 Alpha virt. eigenvalues --    0.15302   0.16461   0.16913   0.17366   0.18166
 Alpha virt. eigenvalues --    0.18725   0.19659   0.20801   0.24771   0.26222
 Alpha virt. eigenvalues --    0.27916   0.29832   0.31472   0.33294   0.35099
 Alpha virt. eigenvalues --    0.36719   0.37924   0.42343   0.42769   0.43607
 Alpha virt. eigenvalues --    0.44657   0.46751   0.47948   0.48350   0.48799
 Alpha virt. eigenvalues --    0.49018   0.49861   0.51292   0.51594   0.52394
 Alpha virt. eigenvalues --    0.52855   0.54130   0.55067   0.55877   0.56574
 Alpha virt. eigenvalues --    0.57729   0.58011   0.59573   0.60219   0.60658
 Alpha virt. eigenvalues --    0.61766   0.62267   0.63490   0.65561   0.66325
 Alpha virt. eigenvalues --    0.66697   0.67408   0.68038   0.69809   0.69924
 Alpha virt. eigenvalues --    0.70761   0.71731   0.72254   0.73005   0.73518
 Alpha virt. eigenvalues --    0.74086   0.74629   0.75205   0.75802   0.75871
 Alpha virt. eigenvalues --    0.77551   0.77643   0.79606   0.80496   0.80613
 Alpha virt. eigenvalues --    0.81418   0.84865   0.85124   0.85569   0.86172
 Alpha virt. eigenvalues --    0.87095   0.88050   0.89391   0.90259   0.92407
 Alpha virt. eigenvalues --    0.93311   0.93786   0.95099   0.95739   0.97415
 Alpha virt. eigenvalues --    0.98227   0.98866   1.00428   1.03198   1.05468
 Alpha virt. eigenvalues --    1.06874   1.08349   1.10725   1.11664   1.12772
 Alpha virt. eigenvalues --    1.13952   1.14701   1.16094   1.16814   1.19475
 Alpha virt. eigenvalues --    1.22281   1.22784   1.24890   1.27255   1.29307
 Alpha virt. eigenvalues --    1.31445   1.31893   1.33168   1.35080   1.36276
 Alpha virt. eigenvalues --    1.38270   1.38656   1.40206   1.40633   1.42144
 Alpha virt. eigenvalues --    1.42638   1.44331   1.45631   1.46970   1.48057
 Alpha virt. eigenvalues --    1.48908   1.50296   1.51481   1.52985   1.53525
 Alpha virt. eigenvalues --    1.55063   1.57097   1.57267   1.58146   1.59053
 Alpha virt. eigenvalues --    1.59971   1.62186   1.63181   1.64804   1.66708
 Alpha virt. eigenvalues --    1.67722   1.68292   1.70003   1.70837   1.72472
 Alpha virt. eigenvalues --    1.73820   1.75468   1.77330   1.78438   1.81431
 Alpha virt. eigenvalues --    1.82684   1.84011   1.85311   1.88723   1.89683
 Alpha virt. eigenvalues --    1.92790   1.93295   1.96489   1.98511   1.98853
 Alpha virt. eigenvalues --    2.00071   2.02652   2.07030   2.08996   2.10488
 Alpha virt. eigenvalues --    2.15543   2.17181   2.19864   2.21446   2.23916
 Alpha virt. eigenvalues --    2.24427   2.28313   2.31620   2.33247   2.35050
 Alpha virt. eigenvalues --    2.37834   2.39512   2.40586   2.42883   2.43741
 Alpha virt. eigenvalues --    2.47277   2.48112   2.50064   2.50993   2.53461
 Alpha virt. eigenvalues --    2.55724   2.59568   2.60613   2.64372   2.65875
 Alpha virt. eigenvalues --    2.67131   2.68275   2.69573   2.71654   2.72218
 Alpha virt. eigenvalues --    2.73395   2.74787   2.76320   2.77927   2.80417
 Alpha virt. eigenvalues --    2.80677   2.81428   2.83546   2.83825   2.84870
 Alpha virt. eigenvalues --    2.87029   2.88293   2.88866   2.89946   2.91209
 Alpha virt. eigenvalues --    2.95041   2.95863   2.96503   2.98448   2.99749
 Alpha virt. eigenvalues --    3.01396   3.01608   3.02967   3.04663   3.06024
 Alpha virt. eigenvalues --    3.07184   3.07829   3.09461   3.09852   3.11097
 Alpha virt. eigenvalues --    3.11307   3.12778   3.13823   3.16919   3.17026
 Alpha virt. eigenvalues --    3.18115   3.20867   3.22416   3.25609   3.26794
 Alpha virt. eigenvalues --    3.28000   3.30330   3.30855   3.31747   3.34751
 Alpha virt. eigenvalues --    3.36471   3.37089   3.39726   3.40111   3.41498
 Alpha virt. eigenvalues --    3.41840   3.43772   3.45587   3.45930   3.49270
 Alpha virt. eigenvalues --    3.51338   3.51409   3.52334   3.54016   3.55633
 Alpha virt. eigenvalues --    3.56875   3.58493   3.60204   3.62920   3.64040
 Alpha virt. eigenvalues --    3.67339   3.68900   3.70174   3.70504   3.72830
 Alpha virt. eigenvalues --    3.74147   3.76392   3.78238   3.82657   3.83717
 Alpha virt. eigenvalues --    3.88249   3.89851   3.91396   3.92572   3.94442
 Alpha virt. eigenvalues --    3.97015   3.98609   4.01004   4.06753   4.07127
 Alpha virt. eigenvalues --    4.08087   4.11410   4.14259   4.15313   4.16031
 Alpha virt. eigenvalues --    4.18400   4.18862   4.21643   4.22919   4.23546
 Alpha virt. eigenvalues --    4.26799   4.27145   4.28215   4.30368   4.32484
 Alpha virt. eigenvalues --    4.33416   4.37054   4.37937   4.38347   4.39508
 Alpha virt. eigenvalues --    4.41149   4.43027   4.43947   4.44149   4.46011
 Alpha virt. eigenvalues --    4.46843   4.48448   4.52265   4.54953   4.55932
 Alpha virt. eigenvalues --    4.56891   4.57902   4.59735   4.60389   4.60628
 Alpha virt. eigenvalues --    4.62877   4.65544   4.66892   4.67332   4.68224
 Alpha virt. eigenvalues --    4.68941   4.70268   4.71083   4.71708   4.72761
 Alpha virt. eigenvalues --    4.73269   4.74678   4.76575   4.76854   4.77547
 Alpha virt. eigenvalues --    4.78146   4.79123   4.80857   4.81956   4.83129
 Alpha virt. eigenvalues --    4.85432   4.87787   4.89542   4.91493   4.93546
 Alpha virt. eigenvalues --    4.93874   4.95170   4.97637   4.99083   5.02645
 Alpha virt. eigenvalues --    5.03966   5.06456   5.07573   5.08696   5.10940
 Alpha virt. eigenvalues --    5.12125   5.13794   5.15687   5.17093   5.17926
 Alpha virt. eigenvalues --    5.19320   5.23035   5.25027   5.27793   5.29410
 Alpha virt. eigenvalues --    5.30752   5.32629   5.35436   5.36373   5.38822
 Alpha virt. eigenvalues --    5.43736   5.44633   5.48281   5.55698   5.61377
 Alpha virt. eigenvalues --    5.62946   5.71402   5.76830   5.80557   5.85500
 Alpha virt. eigenvalues --    6.07788   6.10193   6.21994   6.27911   6.30508
 Alpha virt. eigenvalues --    6.45399   6.83261   6.96740  10.19367  10.52637
 Alpha virt. eigenvalues --   10.66408  11.13194  11.17238  11.44467  11.53436
 Alpha virt. eigenvalues --   11.81649  11.89663  11.92278  12.19515  12.26917
 Alpha virt. eigenvalues --   13.11172  13.34552
          Condensed to atoms (all electrons):
               1          2          3          4          5          6
     1  C    5.005663   0.370418  -0.006743  -0.001351  -0.000094   0.000018
     2  C    0.370418   4.951512   0.322657  -0.027148   0.002659   0.000383
     3  C   -0.006743   0.322657   5.230983   0.485573  -0.037612  -0.022878
     4  C   -0.001351  -0.027148   0.485573   4.930483   0.415656  -0.030168
     5  C   -0.000094   0.002659  -0.037612   0.415656   5.051979   0.379817
     6  C    0.000018   0.000383  -0.022878  -0.030168   0.379817   5.097646
     7  C   -0.000001   0.000502  -0.016994   0.003677   0.580225  -0.040214
     8  C    0.000000  -0.000017   0.001674  -0.011634  -0.096134  -0.002365
     9  C    0.000000  -0.000011   0.000648  -0.000265  -0.010604  -0.000036
    10  C   -0.000000   0.000000  -0.000196  -0.000244   0.001111   0.000039
    11  C   -0.000000  -0.000000   0.000311  -0.000327   0.001215   0.000071
    12  O    0.000000   0.000030  -0.014864   0.001900  -0.015767  -0.000590
    13  C   -0.000031  -0.010407   0.236317  -0.063759  -0.012048  -0.004776
    14  O    0.000009  -0.000066  -0.050037   0.003625  -0.000868  -0.004370
    15  H    0.370443  -0.016094   0.000848   0.000009   0.000000   0.000000
    16  H    0.378282  -0.020794  -0.000213   0.000483  -0.000021  -0.000011
    17  H    0.381076  -0.024931  -0.000950   0.000029   0.000006  -0.000002
    18  H   -0.047984   0.355843  -0.023511   0.000001   0.000276  -0.000021
    19  H   -0.041379   0.357276  -0.030312   0.001571  -0.000063  -0.000011
    20  H   -0.000125  -0.003744  -0.062192   0.342893  -0.034218   0.003926
    21  H    0.000054   0.000051   0.010065  -0.002763  -0.020624   0.364301
    22  H   -0.000001  -0.000002   0.001156   0.001518  -0.021161   0.360290
    23  H    0.000002  -0.000035  -0.000430   0.000621  -0.019341   0.364898
    24  H   -0.000000   0.000000  -0.000057   0.000620   0.005451  -0.000096
    25  H    0.000000   0.000015   0.001532   0.001676   0.000231  -0.000011
    26  H    0.000000   0.000000  -0.000006   0.000016  -0.000026  -0.000004
               7          8          9         10         11         12
     1  C   -0.000001   0.000000   0.000000  -0.000000  -0.000000   0.000000
     2  C    0.000502  -0.000017  -0.000011   0.000000  -0.000000   0.000030
     3  C   -0.016994   0.001674   0.000648  -0.000196   0.000311  -0.014864
     4  C    0.003677  -0.011634  -0.000265  -0.000244  -0.000327   0.001900
     5  C    0.580225  -0.096134  -0.010604   0.001111   0.001215  -0.015767
     6  C   -0.040214  -0.002365  -0.000036   0.000039   0.000071  -0.000590
     7  C    4.447500   0.538259  -0.043330  -0.000621   0.010604   0.025060
     8  C    0.538259   5.279052   0.488182  -0.041160  -0.062207  -0.042362
     9  C   -0.043330   0.488182   4.986983   0.521515  -0.136657  -0.023624
    10  C   -0.000621  -0.041160   0.521515   5.101955   0.589716  -0.083802
    11  C    0.010604  -0.062207  -0.136657   0.589716   5.159887   0.213724
    12  O    0.025060  -0.042362  -0.023624  -0.083802   0.213724   8.253984
    13  C    0.004436  -0.001188  -0.003146   0.002238   0.000478   0.203558
    14  O   -0.000740   0.000015  -0.000024  -0.000114   0.000665  -0.041003
    15  H    0.000000  -0.000000  -0.000000   0.000000   0.000000   0.000000
    16  H    0.000000  -0.000000  -0.000000   0.000000   0.000000  -0.000000
    17  H   -0.000000  -0.000000   0.000000  -0.000000   0.000000  -0.000000
    18  H   -0.000089  -0.000003   0.000003   0.000000   0.000000  -0.000002
    19  H   -0.000016   0.000000   0.000001   0.000000   0.000000  -0.000001
    20  H   -0.003446  -0.002592   0.002100   0.000223   0.000173  -0.000646
    21  H    0.001967  -0.000029  -0.000003   0.000001   0.000001   0.000160
    22  H   -0.002518  -0.000278  -0.000014   0.000002   0.000007  -0.000033
    23  H   -0.000123   0.001083   0.000123  -0.000012   0.000038   0.007197
    24  H    0.004004   0.316325  -0.044738  -0.000560   0.003875   0.000683
    25  H   -0.002670  -0.022654   0.327337  -0.057926   0.005337   0.030589
    26  H   -0.000676  -0.000190  -0.000105  -0.030399   0.312772  -0.008532
              13         14         15         16         17         18
     1  C   -0.000031   0.000009   0.370443   0.378282   0.381076  -0.047984
     2  C   -0.010407  -0.000066  -0.016094  -0.020794  -0.024931   0.355843
     3  C    0.236317  -0.050037   0.000848  -0.000213  -0.000950  -0.023511
     4  C   -0.063759   0.003625   0.000009   0.000483   0.000029   0.000001
     5  C   -0.012048  -0.000868   0.000000  -0.000021   0.000006   0.000276
     6  C   -0.004776  -0.004370   0.000000  -0.000011  -0.000002  -0.000021
     7  C    0.004436  -0.000740   0.000000   0.000000  -0.000000  -0.000089
     8  C   -0.001188   0.000015  -0.000000  -0.000000  -0.000000  -0.000003
     9  C   -0.003146  -0.000024  -0.000000  -0.000000   0.000000   0.000003
    10  C    0.002238  -0.000114   0.000000   0.000000  -0.000000   0.000000
    11  C    0.000478   0.000665   0.000000   0.000000   0.000000   0.000000
    12  O    0.203558  -0.041003   0.000000  -0.000000  -0.000000  -0.000002
    13  C    4.813272   0.648395  -0.000001   0.000002   0.000012   0.000611
    14  O    0.648395   7.548144  -0.000000  -0.000000  -0.000002  -0.000026
    15  H   -0.000001  -0.000000   0.581834  -0.039179  -0.033258  -0.000363
    16  H    0.000002  -0.000000  -0.039179   0.574280  -0.029746  -0.003319
    17  H    0.000012  -0.000002  -0.033258  -0.029746   0.563026   0.004132
    18  H    0.000611  -0.000026  -0.000363  -0.003319   0.004132   0.596379
    19  H    0.000650  -0.000016  -0.002912   0.003880  -0.001145  -0.031509
    20  H    0.004294  -0.000222   0.000006   0.000023  -0.000000   0.003802
    21  H    0.001884  -0.000854  -0.000001   0.000074   0.000002   0.000022
    22  H    0.000441   0.000313   0.000000   0.000001   0.000000   0.000002
    23  H   -0.000186   0.002974  -0.000000  -0.000000   0.000000   0.000000
    24  H   -0.000131   0.000001   0.000000  -0.000000   0.000000   0.000000
    25  H   -0.000656  -0.000023  -0.000000  -0.000000   0.000000  -0.000000
    26  H    0.000135  -0.000008   0.000000  -0.000000  -0.000000  -0.000000
              19         20         21         22         23         24
     1  C   -0.041379  -0.000125   0.000054  -0.000001   0.000002  -0.000000
     2  C    0.357276  -0.003744   0.000051  -0.000002  -0.000035   0.000000
     3  C   -0.030312  -0.062192   0.010065   0.001156  -0.000430  -0.000057
     4  C    0.001571   0.342893  -0.002763   0.001518   0.000621   0.000620
     5  C   -0.000063  -0.034218  -0.020624  -0.021161  -0.019341   0.005451
     6  C   -0.000011   0.003926   0.364301   0.360290   0.364898  -0.000096
     7  C   -0.000016  -0.003446   0.001967  -0.002518  -0.000123   0.004004
     8  C    0.000000  -0.002592  -0.000029  -0.000278   0.001083   0.316325
     9  C    0.000001   0.002100  -0.000003  -0.000014   0.000123  -0.044738
    10  C    0.000000   0.000223   0.000001   0.000002  -0.000012  -0.000560
    11  C    0.000000   0.000173   0.000001   0.000007   0.000038   0.003875
    12  O   -0.000001  -0.000646   0.000160  -0.000033   0.007197   0.000683
    13  C    0.000650   0.004294   0.001884   0.000441  -0.000186  -0.000131
    14  O   -0.000016  -0.000222  -0.000854   0.000313   0.002974   0.000001
    15  H   -0.002912   0.000006  -0.000001   0.000000  -0.000000   0.000000
    16  H    0.003880   0.000023   0.000074   0.000001  -0.000000  -0.000000
    17  H   -0.001145  -0.000000   0.000002   0.000000   0.000000   0.000000
    18  H   -0.031509   0.003802   0.000022   0.000002   0.000000   0.000000
    19  H    0.603580   0.000991   0.000021   0.000000  -0.000001  -0.000000
    20  H    0.000991   0.608863   0.000243  -0.000017  -0.000173   0.000097
    21  H    0.000021   0.000243   0.565816  -0.027882  -0.034046   0.000001
    22  H    0.000000  -0.000017  -0.027882   0.598261  -0.032952   0.000042
    23  H   -0.000001  -0.000173  -0.034046  -0.032952   0.527772  -0.000081
    24  H   -0.000000   0.000097   0.000001   0.000042  -0.000081   0.556337
    25  H   -0.000007   0.000294  -0.000002  -0.000001  -0.000014   0.002941
    26  H   -0.000000  -0.000005  -0.000000  -0.000001  -0.000015   0.004511
              25         26
     1  C    0.000000   0.000000
     2  C    0.000015   0.000000
     3  C    0.001532  -0.000006
     4  C    0.001676   0.000016
     5  C    0.000231  -0.000026
     6  C   -0.000011  -0.000004
     7  C   -0.002670  -0.000676
     8  C   -0.022654  -0.000190
     9  C    0.327337  -0.000105
    10  C   -0.057926  -0.030399
    11  C    0.005337   0.312772
    12  O    0.030589  -0.008532
    13  C   -0.000656   0.000135
    14  O   -0.000023  -0.000008
    15  H   -0.000000   0.000000
    16  H   -0.000000  -0.000000
    17  H    0.000000  -0.000000
    18  H   -0.000000  -0.000000
    19  H   -0.000007  -0.000000
    20  H    0.000294  -0.000005
    21  H   -0.000002  -0.000000
    22  H   -0.000001  -0.000001
    23  H   -0.000014  -0.000015
    24  H    0.002941   0.004511
    25  H    0.508210   0.002436
    26  H    0.002436   0.538723
 Mulliken charges:
               1
     1  C   -0.408255
     2  C   -0.258097
     3  C   -0.024771
     4  C   -0.052693
     5  C   -0.170045
     6  C   -0.465835
     7  C    0.495202
     8  C   -0.341778
     9  C   -0.064335
    10  C   -0.001767
    11  C   -0.099682
    12  O   -0.505660
    13  C    0.179606
    14  O   -0.105768
    15  H    0.138670
    16  H    0.136259
    17  H    0.141750
    18  H    0.145756
    19  H    0.139402
    20  H    0.139452
    21  H    0.141541
    22  H    0.122830
    23  H    0.182703
    24  H    0.150775
    25  H    0.203365
    26  H    0.181373
 Sum of Mulliken charges =  -0.00000
 Mulliken charges with hydrogens summed into heavy atoms:
               1
     1  C    0.008424
     2  C    0.027062
     3  C   -0.024771
     4  C    0.086759
     5  C   -0.170045
     6  C   -0.018761
     7  C    0.495202
     8  C   -0.191003
     9  C    0.139030
    10  C   -0.001767
    11  C    0.081691
    12  O   -0.505660
    13  C    0.179606
    14  O   -0.105768
 Electronic spatial extent (au):  <R**2>=           3033.3115
 Charge=             -0.0000 electrons
 Dipole moment (field-independent basis, Debye):
    X=              1.6842    Y=             -3.4124    Z=              0.7705  Tot=              3.8826
 Quadrupole moment (field-independent basis, Debye-Ang):
   XX=            -70.6955   YY=            -89.6130   ZZ=            -78.8734
   XY=              1.8870   XZ=             -6.1934   YZ=              4.8676
 Traceless Quadrupole moment (field-independent basis, Debye-Ang):
   XX=              9.0318   YY=             -9.8857   ZZ=              0.8539
   XY=              1.8870   XZ=             -6.1934   YZ=              4.8676
 Octapole moment (field-independent basis, Debye-Ang**2):
  XXX=             40.2179  YYY=              6.1536  ZZZ=             -2.0845  XYY=             12.8597
  XXY=            -11.8036  XXZ=             10.8313  XZZ=              1.6035  YZZ=              7.8408
  YYZ=              1.4794  XYZ=              1.7717
 Hexadecapole moment (field-independent basis, Debye-Ang**3):
 XXXX=          -2664.0832 YYYY=           -660.4150 ZZZZ=           -596.4208 XXXY=            -33.5851
 XXXZ=           -123.9922 YYYX=             -9.0154 YYYZ=             16.2063 ZZZX=            -17.4668
 ZZZY=              8.8533 XXYY=           -617.0377 XXZZ=           -589.2603 YYZZ=           -206.8822
 XXYZ=              9.7948 YYXZ=             -8.2812 ZZXY=              4.4128
 N-N= 8.238485330922D+02 E-N=-3.077105173187D+03  KE= 6.092384406267D+02
 PrsmSu:  requested number of processors reduced to:  13 ShMem   1 Linda.
 Calling FoFJK, ICntrl=      2127 FMM=F ISym2X=0 I1Cent= 0 IOpClX= 0 NMat=1 NMatS=1 NMatT=0.
 ***** Axes restored to original set *****
 -------------------------------------------------------------------
 Center     Atomic                   Forces (Hartrees/Bohr)
 Number     Number              X              Y              Z
 -------------------------------------------------------------------
      1        6           0.009493311   -0.006089076    0.010876668
      2        6          -0.001165804    0.007299319   -0.024558746
      3        6          -0.043246444   -0.044198504   -0.024850150
      4        6           0.044830319    0.030301205   -0.030371719
      5        6          -0.021345386   -0.000044588    0.053321648
      6        6           0.011705550    0.003478929   -0.004409958
      7        6          -0.024696928   -0.016391060   -0.006368437
      8        6           0.029278006   -0.021110396   -0.016694370
      9        6          -0.072743624    0.056544375   -0.029241581
     10        6           0.064672401   -0.020944263    0.029065316
     11        6           0.004314879   -0.012290900    0.034126576
     12        8          -0.028450981   -0.020153665   -0.001802869
     13        6          -0.003988900    0.024339780    0.012200214
     14        8          -0.010229070   -0.033687137    0.016610753
     15        1           0.021437749   -0.003619920    0.011020218
     16        1           0.012409971   -0.006527633    0.009891512
     17        1           0.000614333    0.000758429    0.006385274
     18        1           0.014815083   -0.011242755    0.022016523
     19        1           0.002178295   -0.008908643    0.008555215
     20        1          -0.014659870    0.043046075   -0.009710893
     21        1           0.015416038    0.005612223   -0.011346879
     22        1           0.004810933    0.008519365   -0.005144731
     23        1           0.009430777    0.006889344   -0.012946803
     24        1           0.015389699    0.010237332   -0.020493279
     25        1          -0.008467043    0.024762196   -0.033700140
     26        1          -0.031803293   -0.016580030    0.017570639
 -------------------------------------------------------------------
 Cartesian Forces:  Max     0.072743624 RMS     0.023718568

 GradGradGradGradGradGradGradGradGradGradGradGradGradGradGradGradGradGrad
 Berny optimization.
 FormGI is forming the generalized inverse of G from B-inverse, IUseBI=4.
 Internal  Forces:  Max     0.120947814 RMS     0.027663950
 Search for a local minimum.
 Step number   1 out of a maximum of  128
 All quantities printed in internal units (Hartrees-Bohrs-Radians)
 Mixed Optimization -- RFO/linear search
 Second derivative matrix not updated -- first step.
 ITU=  0
     Eigenvalues ---    0.00230   0.00230   0.00230   0.00240   0.00326
     Eigenvalues ---    0.00488   0.00583   0.01019   0.01133   0.01592
     Eigenvalues ---    0.01810   0.01933   0.02020   0.03194   0.03492
     Eigenvalues ---    0.04377   0.04657   0.04900   0.04936   0.05358
     Eigenvalues ---    0.06026   0.06402   0.07064   0.10633   0.11308
     Eigenvalues ---    0.11955   0.13080   0.13367   0.13675   0.14065
     Eigenvalues ---    0.14759   0.14994   0.15060   0.16000   0.16000
     Eigenvalues ---    0.16000   0.16000   0.16000   0.16000   0.16084
     Eigenvalues ---    0.17059   0.18417   0.19676   0.19715   0.21271
     Eigenvalues ---    0.21604   0.22162   0.23736   0.24145   0.24329
     Eigenvalues ---    0.24466   0.24986   0.26005   0.29428   0.30731
     Eigenvalues ---    0.31011   0.32248   0.32310   0.32356   0.32760
     Eigenvalues ---    0.32937   0.33926   0.34697   0.34724   0.34763
     Eigenvalues ---    0.37081   0.59095   0.61780   0.63867   0.66976
     Eigenvalues ---    0.72330   1.29005
 RFO step:  Lambda=-2.05102779D-01 EMin= 2.30000000D-03
 Linear search not attempted -- first point.
 Maximum step size (   0.300) exceeded in Quadratic search.
    -- Step size scaled by   0.510
 Iteration  1 RMS(Cart)=  0.13577625 RMS(Int)=  0.00361460
 Iteration  2 RMS(Cart)=  0.00545650 RMS(Int)=  0.00057621
 Iteration  3 RMS(Cart)=  0.00001570 RMS(Int)=  0.00057611
 Iteration  4 RMS(Cart)=  0.00000003 RMS(Int)=  0.00057611
 Variable       Old X    -DE/DX   Delta X   Delta X   Delta X     New X
                                 (Linear)    (Quad)   (Total)
    R1        3.14920  -0.04913   0.00000  -0.06225  -0.06225   3.08696
    R2        2.12691  -0.01631   0.00000  -0.01613  -0.01613   2.11078
    R3        2.09162  -0.00833   0.00000  -0.00794  -0.00794   2.08367
    R4        2.06062   0.00214   0.00000   0.00197   0.00197   2.06259
    R5        3.39516  -0.07295   0.00000  -0.10754  -0.10754   3.28762
    R6        2.13230  -0.01808   0.00000  -0.01798  -0.01798   2.11431
    R7        2.06170   0.00220   0.00000   0.00203   0.00203   2.06373
    R8        2.48925   0.09889   0.00000   0.06306   0.06351   2.55277
    R9        3.43194  -0.00429   0.00000  -0.01163  -0.01194   3.42000
   R10        2.75062   0.01489   0.00000   0.01842   0.01889   2.76951
   R11        2.10280  -0.00578   0.00000  -0.00557  -0.00557   2.09722
   R12        3.09757  -0.05503   0.00000  -0.06713  -0.06713   3.03044
   R13        2.49518  -0.01498   0.00000  -0.00706  -0.00641   2.48877
   R14        2.10393  -0.01282   0.00000  -0.01238  -0.01238   2.09155
   R15        2.06125   0.00350   0.00000   0.00323   0.00323   2.06448
   R16        2.09476  -0.01123   0.00000  -0.01074  -0.01074   2.08402
   R17        2.47164   0.00805   0.00000   0.00595   0.00651   2.47815
   R18        2.96280  -0.04117   0.00000  -0.04790  -0.04795   2.91486
   R19        2.07455  -0.00334   0.00000  -0.00312  -0.00312   2.07142
   R20        2.41564   0.12095   0.00000   0.06725   0.06755   2.48319
   R21        2.10198  -0.00594   0.00000  -0.00573  -0.00573   2.09625
   R22        2.45268   0.07115   0.00000   0.04188   0.04164   2.49432
   R23        3.35353  -0.01306   0.00000  -0.02470  -0.02536   3.32817
   R24        2.15818  -0.01976   0.00000  -0.02017  -0.02017   2.13801
   R25        3.27599  -0.04134   0.00000  -0.06451  -0.06521   3.21078
   R26        2.18861   0.03073   0.00000   0.01048   0.01048   2.19908
    A1        1.94353  -0.02133   0.00000  -0.02911  -0.02920   1.91434
    A2        2.04982  -0.01199   0.00000  -0.01714  -0.01725   2.03258
    A3        1.97203   0.00345   0.00000   0.00456   0.00457   1.97660
    A4        1.75625   0.01934   0.00000   0.02743   0.02723   1.78349
    A5        1.80518   0.01107   0.00000   0.01625   0.01629   1.82148
    A6        1.91001   0.00329   0.00000   0.00362   0.00362   1.91362
    A7        2.42237  -0.04931   0.00000  -0.05940  -0.05945   2.36292
    A8        1.64642   0.03347   0.00000   0.04621   0.04587   1.69229
    A9        1.79770   0.02248   0.00000   0.02690   0.02650   1.82420
   A10        1.82278  -0.00958   0.00000  -0.01671  -0.01610   1.80668
   A11        1.88887   0.01281   0.00000   0.01259   0.01260   1.90147
   A12        1.78313   0.00148   0.00000   0.00760   0.00687   1.79000
   A13        1.85228   0.00746   0.00000   0.00396   0.00378   1.85606
   A14        2.56447  -0.07265   0.00000  -0.08605  -0.08618   2.47829
   A15        1.86603   0.06507   0.00000   0.08187   0.08215   1.94818
   A16        2.00209   0.00524   0.00000   0.02722   0.02784   2.02993
   A17        1.79372   0.01837   0.00000   0.02723   0.02747   1.82119
   A18        2.14992  -0.01567   0.00000  -0.02315  -0.02438   2.12553
   A19        2.03460   0.03223   0.00000   0.03432   0.03386   2.06846
   A20        1.84404  -0.02633   0.00000  -0.02066  -0.02046   1.82358
   A21        2.23413  -0.00599   0.00000  -0.01180  -0.01134   2.22279
   A22        2.00069  -0.01534   0.00000  -0.02167  -0.02181   1.97889
   A23        1.95595  -0.00751   0.00000  -0.01065  -0.01075   1.94520
   A24        2.03671  -0.01111   0.00000  -0.01508  -0.01516   2.02154
   A25        1.85072   0.01098   0.00000   0.01456   0.01442   1.86515
   A26        1.79501   0.01671   0.00000   0.02362   0.02352   1.81853
   A27        1.80288   0.01182   0.00000   0.01698   0.01693   1.81982
   A28        2.18338  -0.03006   0.00000  -0.03742  -0.03706   2.14632
   A29        1.89100   0.00949   0.00000   0.01870   0.01909   1.91009
   A30        1.99933   0.02278   0.00000   0.02609   0.02542   2.02475
   A31        1.97870   0.01403   0.00000   0.03141   0.03292   2.01162
   A32        2.16754   0.00825   0.00000   0.00712   0.00566   2.17320
   A33        1.64534   0.00458   0.00000   0.01884   0.01782   1.66316
   A34        1.95409   0.05045   0.00000   0.07342   0.07462   2.02871
   A35        1.89999  -0.02027   0.00000  -0.01124  -0.01128   1.88871
   A36        1.64805   0.03902   0.00000   0.05998   0.06065   1.70871
   A37        2.23414  -0.01125   0.00000  -0.02524  -0.02608   2.20806
   A38        2.82270  -0.02428   0.00000  -0.02369  -0.02282   2.79988
   A39        2.31560  -0.01876   0.00000  -0.02256  -0.02362   2.29197
   A40        1.91619   0.03057   0.00000   0.03989   0.03986   1.95605
   A41        1.96766  -0.00460   0.00000   0.00158   0.00162   1.96928
   A42        3.00147  -0.03993   0.00000  -0.06271  -0.06112   2.94035
   A43        2.94458   0.01290   0.00000   0.03302   0.03271   2.97729
    D1        3.12487   0.00018   0.00000   0.00155   0.00140   3.12627
    D2        1.06923   0.00548   0.00000   0.00873   0.00940   1.07862
    D3       -0.73817  -0.00761   0.00000  -0.01454  -0.01486  -0.75303
    D4        1.11380  -0.00096   0.00000  -0.00084  -0.00111   1.11269
    D5       -0.94184   0.00435   0.00000   0.00635   0.00689  -0.93495
    D6       -2.74924  -0.00874   0.00000  -0.01693  -0.01736  -2.76661
    D7       -1.13551   0.00225   0.00000   0.00571   0.00548  -1.13003
    D8        3.09203   0.00755   0.00000   0.01289   0.01348   3.10551
    D9        1.28463  -0.00554   0.00000  -0.01038  -0.01078   1.27385
   D10       -1.74678  -0.00558   0.00000  -0.01143  -0.01138  -1.75816
   D11        1.43303  -0.00232   0.00000  -0.00398  -0.00443   1.42860
   D12        0.24914  -0.00070   0.00000  -0.00255  -0.00184   0.24730
   D13       -2.85423   0.00256   0.00000   0.00490   0.00510  -2.84913
   D14        2.13921   0.00168   0.00000   0.00352   0.00352   2.14273
   D15       -0.96416   0.00494   0.00000   0.01097   0.01047  -0.95369
   D16        2.56166   0.02110   0.00000   0.03027   0.03054   2.59220
   D17       -1.34395   0.02051   0.00000   0.04520   0.04637  -1.29758
   D18       -0.60173   0.01638   0.00000   0.02260   0.02242  -0.57931
   D19        1.77585   0.01579   0.00000   0.03753   0.03825   1.81410
   D20        2.74266  -0.00128   0.00000  -0.00936  -0.00915   2.73351
   D21       -0.87141   0.02001   0.00000   0.04565   0.04563  -0.82577
   D22       -0.36055   0.00266   0.00000  -0.00097  -0.00090  -0.36145
   D23        2.30856   0.02396   0.00000   0.05404   0.05388   2.36245
   D24       -0.69377  -0.00368   0.00000  -0.00297  -0.00239  -0.69615
   D25        1.90293  -0.00782   0.00000  -0.00642  -0.00557   1.89736
   D26       -2.89773  -0.02247   0.00000  -0.05323  -0.05271  -2.95045
   D27       -0.30104  -0.02661   0.00000  -0.05668  -0.05590  -0.35693
   D28       -0.39995  -0.00440   0.00000  -0.00147  -0.00135  -0.40130
   D29       -2.51041  -0.00171   0.00000   0.00365   0.00372  -2.50669
   D30        1.69945  -0.00337   0.00000   0.00050   0.00064   1.70008
   D31       -2.85558   0.00339   0.00000   0.00038   0.00028  -2.85530
   D32        1.31715   0.00609   0.00000   0.00549   0.00535   1.32250
   D33       -0.75618   0.00443   0.00000   0.00235   0.00226  -0.75392
   D34       -0.78781   0.00744   0.00000   0.00940   0.01013  -0.77768
   D35        3.05354   0.01311   0.00000   0.01791   0.01701   3.07054
   D36        1.61734   0.00755   0.00000   0.01217   0.01333   1.63067
   D37       -0.82450   0.01322   0.00000   0.02068   0.02021  -0.80428
   D38       -1.98656   0.01117   0.00000   0.01770   0.01692  -1.96964
   D39       -0.01333   0.03690   0.00000   0.07897   0.07923   0.06590
   D40        0.42330   0.02075   0.00000   0.03925   0.03812   0.46142
   D41        2.39653   0.04648   0.00000   0.10052   0.10043   2.49696
   D42        0.94436   0.05584   0.00000   0.09255   0.09221   1.03658
   D43       -1.32897   0.03669   0.00000   0.05769   0.05663  -1.27234
   D44        0.42587   0.01020   0.00000   0.00037  -0.00113   0.42474
   D45       -1.89145   0.01059   0.00000   0.00161   0.00027  -1.89118
   D46        0.72605  -0.00149   0.00000  -0.00706  -0.00784   0.71820
   D47        2.67637   0.02722   0.00000   0.05115   0.05014   2.72650
   D48       -1.47543   0.03313   0.00000   0.07121   0.07016  -1.40527
   D49        2.14901   0.00451   0.00000   0.00761   0.00744   2.15645
         Item               Value     Threshold  Converged?
 Maximum Force            0.120948     0.000450     NO 
 RMS     Force            0.027664     0.000300     NO 
 Maximum Displacement     0.445818     0.001800     NO 
 RMS     Displacement     0.137213     0.001200     NO 
 Predicted change in Energy=-9.270940D-02
 GradGradGradGradGradGradGradGradGradGradGradGradGradGradGradGradGradGrad

                          Input orientation:                          
 ---------------------------------------------------------------------
 Center     Atomic      Atomic             Coordinates (Angstroms)
 Number     Number       Type             X           Y           Z
 ---------------------------------------------------------------------
      1          6           0        1.425072   -0.219963    0.374325
      2          6           0        3.048268   -0.375587    0.471752
      3          6           0        4.223114   -0.318616    1.753610
      4          6           0        4.787005    0.907678    1.698231
      5          6           0        5.230328    1.476909    2.973894
      6          6           0        4.307554    1.265691    4.268318
      7          6           0        6.545290    1.434298    2.914344
      8          6           0        7.795616    1.075896    2.747170
      9          6           0        8.207374   -0.315771    2.224721
     10          6           0        8.830958   -1.078991    3.093835
     11          6           0        8.170905   -1.361742    4.201364
     12          8           0        6.447824   -1.213810    3.868332
     13          6           0        4.957480   -1.331898    3.061009
     14          8           0        4.151134   -1.896364    3.681810
     15          1           0        1.100855   -0.318815   -0.689982
     16          1           0        1.007949    0.761517    0.654508
     17          1           0        0.884244   -1.011126    0.896710
     18          1           0        3.307622    0.510511   -0.160214
     19          1           0        3.282958   -1.214165   -0.187300
     20          1           0        5.456241    0.862935    0.814046
     21          1           0        3.247152    1.064005    4.023633
     22          1           0        4.321541    2.144828    4.916717
     23          1           0        4.594822    0.433507    4.932508
     24          1           0        8.403857    1.482141    3.563595
     25          1           0        7.494943   -1.098880    1.893508
     26          1           0        8.776714   -0.721977    4.911103
 ---------------------------------------------------------------------
                    Distance matrix (angstroms):
                    1          2          3          4          5
     1  C    0.000000
     2  C    1.633548   0.000000
     3  C    3.121090   1.739732   0.000000
     4  C    3.785089   2.484799   1.350865   0.000000
     5  C    4.910918   3.801821   2.393216   1.465563   0.000000
     6  C    5.067451   4.323600   2.973368   2.638825   1.603639
     7  C    5.950202   4.633691   3.132493   2.201777   1.316999
     8  C    6.920512   5.460919   3.961641   3.190660   2.606323
     9  C    7.030844   5.449115   4.012017   3.670551   3.554964
    10  C    7.936045   6.388239   4.858662   4.716791   4.417187
    11  C    7.839398   6.412794   4.760743   4.781916   4.267507
    12  O    6.198699   4.878151   3.197305   3.459533   3.085820
    13  C    4.575214   3.356170   1.809787   2.627152   2.823373
    14  O    4.602303   3.719348   2.492474   3.493074   3.611755
    15  H    1.116976   2.268318   3.964800   4.560213   5.805270
    16  H    1.102632   2.342927   3.565389   3.923262   4.870300
    17  H    1.091476   2.295103   3.515949   4.422193   5.421573
    18  H    2.088856   1.118846   2.277784   2.408347   3.801757
    19  H    2.180734   1.092081   2.335173   3.212414   4.585551
    20  H    4.197184   2.729366   1.949217   1.109803   2.256755
    21  H    4.276213   3.837687   2.831457   2.793399   2.281541
    22  H    5.883460   5.266064   4.010423   3.479346   2.246458
    23  H    5.590293   4.790074   3.287742   3.274495   2.308402
    24  H    7.859520   6.457010   4.898713   4.109892   3.227857
    25  H    6.318525   4.724136   3.366489   3.375994   3.595887
    26  H    8.653382   7.255544   5.555875   5.375509   4.600515
                    6          7          8          9         10
     6  C    0.000000
     7  C    2.620904   0.000000
     8  C    3.810051   1.311379   0.000000
     9  C    4.678237   2.510148   1.542477   0.000000
    10  C    5.228587   3.401928   2.415709   1.314047   0.000000
    11  C    4.672619   3.480932   2.863146   2.236628   1.319939
    12  O    3.299799   2.816393   2.883800   2.569814   2.509451
    13  C    2.937255   3.192881   3.735102   3.506238   3.881864
    14  O    3.219790   4.173043   4.794802   4.590693   4.786916
    15  H    6.113781   6.760653   7.653695   7.681023   8.640001
    16  H    4.919473   6.018441   7.109886   7.447002   8.398646
    17  H    5.317019   6.488326   7.452981   7.474982   8.245133
    18  H    4.602397   4.559472   5.377233   5.511645   6.604741
    19  H    5.201156   5.222773   5.849750   5.556512   6.447048
    20  H    3.662471   2.433872   3.042202   3.308789   4.511898
    21  H    1.106798   3.499336   4.724196   5.453776   6.052755
    22  H    1.092473   3.075616   4.233054   5.329268   5.835302
    23  H    1.102815   2.979747   3.928542   4.576468   4.859343
    24  H    4.162113   1.969287   1.096149   2.250262   2.638652
    25  H    4.624972   2.891528   2.355587   1.109287   1.796139
    26  H    4.933294   3.689963   2.979515   2.775932   1.852799
                   11         12         13         14         15
    11  C    0.000000
    12  O    1.761193   0.000000
    13  C    3.409898   1.699071   0.000000
    14  O    4.088315   2.403218   1.163705   0.000000
    15  H    8.660172   7.083031   5.474470   5.559265   0.000000
    16  H    8.270209   6.619881   5.076655   5.109648   1.727253
    17  H    8.008689   6.310709   4.623671   4.383263   1.744651
    18  H    6.795604   5.391043   4.061131   4.611476   2.416248
    19  H    6.570706   5.144369   3.656419   4.023573   2.411620
    20  H    4.877757   3.824235   3.180393   4.188211   4.756892
    21  H    5.491738   3.931522   3.097131   3.114131   5.360685
    22  H    5.255985   4.111039   3.991954   4.229097   6.919351
    23  H    4.067660   2.698099   2.598208   2.681306   6.662295
    24  H    2.923814   3.344709   4.477603   5.432672   8.641192
    25  H    2.419136   2.238213   2.802869   3.874928   6.940265
    26  H    1.131386   2.598653   4.287354   4.928117   9.510705
                   16         17         18         19         20
    16  H    0.000000
    17  H    1.793385   0.000000
    18  H    2.452604   3.050447   0.000000
    19  H    3.128518   2.640101   1.725065   0.000000
    20  H    4.452307   4.941872   2.385362   3.168628   0.000000
    21  H    4.056665   4.434766   4.220733   4.787828   3.901532
    22  H    5.573138   6.159181   5.429020   6.197780   4.445527
    23  H    5.592364   5.669481   5.253440   5.536085   4.229442
    24  H    7.980071   8.359021   6.386113   6.896585   4.078220
    25  H    6.861289   6.686004   4.933719   4.699348   3.028244
    26  H    8.981819   8.859461   7.559647   7.511147   5.506666
                   21         22         23         24         25
    21  H    0.000000
    22  H    1.766377   0.000000
    23  H    1.743501   1.733076   0.000000
    24  H    5.194043   4.351483   4.181184   0.000000
    25  H    5.221038   5.452698   4.471513   3.205773   0.000000
    26  H    5.878214   5.297846   4.338643   2.610160   3.300132
                   26
    26  H    0.000000
 Stoichiometry    C12H12O2
 Framework group  C1[X(C12H12O2)]
 Deg. of freedom    72
 Full point group                 C1      NOp   1
 Largest Abelian subgroup         C1      NOp   1
 Largest concise Abelian subgroup C1      NOp   1
                         Standard orientation:                         
 ---------------------------------------------------------------------
 Center     Atomic      Atomic             Coordinates (Angstroms)
 Number     Number       Type             X           Y           Z
 ---------------------------------------------------------------------
      1          6           0        4.562462    0.100731   -0.537712
      2          6           0        3.031523    0.004267   -1.099315
      3          6           0        1.444695    0.110467   -0.394074
      4          6           0        1.004330   -1.159115   -0.255954
      5          6           0        0.111536   -1.417241    0.877257
      6          6           0        0.427130   -0.703940    2.278420
      7          6           0       -1.069485   -1.612810    0.328232
      8          6           0       -2.161911   -1.528737   -0.392359
      9          6           0       -2.389473   -0.425949   -1.446546
     10          6           0       -3.341969    0.433499   -1.162255
     11          6           0       -3.194846    1.118738   -0.043756
     12          8           0       -1.478305    1.173694    0.346457
     13          6           0        0.204079    1.309753    0.151742
     14          8           0        0.668130    2.150711    0.808747
     15          1           0        5.281916   -0.047306   -1.379204
     16          1           0        4.874322   -0.680399    0.175294
     17          1           0        4.813227    1.084530   -0.136994
     18          1           0        3.086385   -1.052834   -1.461727
     19          1           0        3.044831    0.575394   -2.030057
     20          1           0        0.744934   -1.474020   -1.288044
     21          1           0        1.486727   -0.404222    2.389894
     22          1           0        0.192346   -1.357876    3.121475
     23          1           0       -0.138427    0.219928    2.485335
     24          1           0       -3.028376   -1.787743    0.227073
     25          1           0       -1.638794    0.341747   -1.725186
     26          1           0       -4.006118    0.609580    0.558432
 ---------------------------------------------------------------------
 Rotational constants (GHZ):           1.1568211           0.4412128           0.4161652
 Standard basis: 6-31G(2df,p) (6D, 7F)
 There are   494 symmetry adapted cartesian basis functions of A   symmetry.
 There are   452 symmetry adapted basis functions of A   symmetry.
   452 basis functions,   700 primitive gaussians,   494 cartesian basis functions
    50 alpha electrons       50 beta electrons
       nuclear repulsion energy       820.0885887422 Hartrees.
 NAtoms=   26 NActive=   26 NUniq=   26 SFac= 1.00D+00 NAtFMM=   60 NAOKFM=F Big=F
 Integral buffers will be    131072 words long.
 Raffenetti 2 integral format.
 Two-electron integral symmetry is turned on.
 One-electron integrals computed using PRISM.
 PrsmSu:  requested number of processors reduced to:  12 ShMem   1 Linda.
 NBasis=   452 RedAO= T EigKep=  3.25D-04  NBF=   452
 NBsUse=   452 1.00D-06 EigRej= -1.00D+00 NBFU=   452
 Initial guess from the checkpoint file:  "CCC1dCCqCrdCdCCdCdCOC1dO.chk"
 B after Tr=    -0.000000   -0.000000   -0.000000
         Rot=    0.944291   -0.329008    0.005659    0.005966 Ang= -38.43 deg.
 ExpMin= 1.61D-01 ExpMax= 5.48D+03 ExpMxC= 8.25D+02 IAcc=2 IRadAn=         4 AccDes= 0.00D+00
 Harris functional with IExCor=  402 and IRadAn=       4 diagonalized for initial guess.
 HarFok:  IExCor=  402 AccDes= 0.00D+00 IRadAn=         4 IDoV= 1 UseB2=F ITyADJ=14
 ICtDFT=  3500011 ScaDFX=  1.000000  1.000000  1.000000  1.000000
 FoFCou: FMM=F IPFlag=           0 FMFlag=      100000 FMFlg1=           0
         NFxFlg=           0 DoJE=T BraDBF=F KetDBF=T FulRan=T
         wScrn=  0.000000 ICntrl=       500 IOpCl=  0 I1Cent=   200000004 NGrid=           0
         NMat0=    1 NMatS0=      1 NMatT0=    0 NMatD0=    1 NMtDS0=    0 NMtDT0=    0
 Petite list used in FoFCou.
 Requested convergence on RMS density matrix=1.00D-08 within 128 cycles.
 Requested convergence on MAX density matrix=1.00D-06.
 Requested convergence on             energy=1.00D-06.
 No special actions if energy rises.
 Integral accuracy reduced to 1.0D-05 until final iterations.
 EnCoef did     5 forward-backward iterations
 Initial convergence to 1.0D-05 achieved.  Increase integral accuracy.
 SCF Done:  E(RB3LYP) =  -614.325899883     A.U. after   18 cycles
            NFock= 18  Conv=0.84D-08     -V/T= 2.0089
 PrsmSu:  requested number of processors reduced to:  13 ShMem   1 Linda.
 Calling FoFJK, ICntrl=      2127 FMM=F ISym2X=0 I1Cent= 0 IOpClX= 0 NMat=1 NMatS=1 NMatT=0.
 ***** Axes restored to original set *****
 -------------------------------------------------------------------
 Center     Atomic                   Forces (Hartrees/Bohr)
 Number     Number              X              Y              Z
 -------------------------------------------------------------------
      1        6           0.011500270   -0.006129093    0.009644553
      2        6           0.006794708    0.001075992   -0.013213266
      3        6          -0.021681319   -0.022901414   -0.015379240
      4        6           0.033602824    0.004212438   -0.017838116
      5        6          -0.013417285   -0.005928944    0.040369229
      6        6           0.009866312    0.002441960   -0.007070515
      7        6          -0.024943985   -0.017299783   -0.000528792
      8        6           0.026927966   -0.030082880   -0.010200909
      9        6          -0.043977715    0.026163061    0.005125872
     10        6           0.023669113    0.004888238    0.020994644
     11        6           0.010512878   -0.002132327   -0.003724949
     12        8          -0.031754429   -0.007078294   -0.004703337
     13        6          -0.005156582    0.034929962    0.013701077
     14        8          -0.005309483   -0.027645412    0.008019620
     15        1           0.016013161   -0.002302993    0.008096654
     16        1           0.009963049   -0.004700111    0.008217882
     17        1           0.000952781    0.001005742    0.005258995
     18        1           0.011899393   -0.007676548    0.016321046
     19        1           0.000788336   -0.008423769    0.007089173
     20        1          -0.019277206    0.039494412   -0.008740161
     21        1           0.010787366    0.004621251   -0.009451180
     22        1           0.003093384    0.005861035   -0.004640235
     23        1           0.008087299    0.002521151   -0.010402892
     24        1           0.014832246    0.009416847   -0.019564215
     25        1          -0.003485855    0.025640203   -0.032297703
     26        1          -0.030287225   -0.019970726    0.014916763
 -------------------------------------------------------------------
 Cartesian Forces:  Max     0.043977715 RMS     0.017007909

 GradGradGradGradGradGradGradGradGradGradGradGradGradGradGradGradGradGrad
 Berny optimization.
 Using GEDIIS/GDIIS optimizer.
 FormGI is forming the generalized inverse of G from B-inverse, IUseBI=4.
 Internal  Forces:  Max     0.068734472 RMS     0.020832346
 Search for a local minimum.
 Step number   2 out of a maximum of  128
 All quantities printed in internal units (Hartrees-Bohrs-Radians)
 Mixed Optimization -- RFO/linear search
 Update second derivatives using D2CorX and points    1    2
 DE= -9.16D-02 DEPred=-9.27D-02 R= 9.88D-01
 TightC=F SS=  1.41D+00  RLast= 3.82D-01 DXNew= 5.0454D-01 1.1445D+00
 Trust test= 9.88D-01 RLast= 3.82D-01 DXMaxT set to 5.05D-01
 ITU=  1  0
 Use linear search instead of GDIIS.
 Linear search step of   0.601 exceeds DXMaxT=   0.505 but not scaled.
 Quartic linear search produced a step of  2.00000.
 Iteration  1 RMS(Cart)=  0.26531285 RMS(Int)=  0.01345759
 Iteration  2 RMS(Cart)=  0.02218894 RMS(Int)=  0.00331526
 Iteration  3 RMS(Cart)=  0.00022816 RMS(Int)=  0.00331300
 Iteration  4 RMS(Cart)=  0.00000163 RMS(Int)=  0.00331300
 Iteration  5 RMS(Cart)=  0.00000001 RMS(Int)=  0.00331300
 Variable       Old X    -DE/DX   Delta X   Delta X   Delta X     New X
                                 (Linear)    (Quad)   (Total)
    R1        3.08696  -0.04120  -0.12449   0.00000  -0.12449   2.96246
    R2        2.11078  -0.01216  -0.03227   0.00000  -0.03227   2.07851
    R3        2.08367  -0.00586  -0.01589   0.00000  -0.01589   2.06778
[...]
 73405,-0.00096651,0.00149898,0.00002585,0.00019201,0.00012492,0.000137
 20,-0.00063095,-0.00041636,-0.00014386,0.00022874,-0.00007757,0.000066
 57,-0.00006146,0.00029668,0.00005973,0.00010791,-0.00021634,-0.0007271
 3,0.00001971,-0.00015100,0.00052107,-0.00038759,0.00131116,0.00120472,
 -0.00008769,-0.00121993,-0.00068184,0.00023782,0.00076955,0.00048909,0
 .00079048,-0.00051138,-0.00258903,-0.00403399,0.00100371,0.00111971,0.
 00006735,-0.00057864,-0.00630277,0.00453488,0.01122432,0.10665203,-0.0
 1261200,0.00636047,0.02030031,0.04347174,-0.07712094,-0.07276630,0.000
 08254,-0.00322839,-0.00659536,-0.00041947,0.00045697,-0.00051091,-0.00
 083435,-0.00019175,0.00035091,0.00006535,0.00002476,0.00005795,0.00002
 813,-0.00002864,-0.00015806,-0.00005632,0.00005228,0.00002990,-0.00000
 233,-0.00004621,0.00001557,-0.00004056,0.00000757,0.00002261,0.0002235
 0,-0.00003897,0.00010067,-0.00006201,0.00035339,-0.00050830,0.00007196
 ,-0.00029597,0.00075361,0.00013432,-0.00042430,0.00037031,0.00092041,0
 .00093041,-0.00054787,-0.00374800,-0.00265728,0.00170741,0.00079991,0.
 00098457,0.00003532,0.01144175,-0.00950315,-0.02300382,-0.03964162,0.0
 8385878,0.00580868,-0.00213130,-0.00817066,0.09370750,-0.07158010,-0.2
 2051815,0.00593514,-0.01079292,-0.02254340,-0.00166110,0.00157320,-0.0
 0130613,-0.00124524,-0.00073821,0.00103218,-0.00004004,0.00014839,0.00
 004735,0.00020558,-0.00052202,-0.00036511,-0.00013277,0.00015601,-0.00
 006408,0.00005615,-0.00009796,0.00026481,0.00005873,0.00011547,-0.0001
 5316,-0.00062678,0.00007700,-0.00020705,0.00022577,-0.00023307,0.00144
 712,0.00185345,-0.00214477,-0.00270535,-0.00001193,0.00090339,0.002767
 36,-0.00010944,0.00009938,0.00079738,0.00112981,0.00145061,0.00079856,
 -0.00032309,-0.00003413,0.00007064,-0.00345964,0.00261786,0.00695743,-
 0.10167900,0.08085261,0.24243060,-0.00015697,-0.00033542,-0.00068241,-
 0.00239380,-0.00274888,0.00324675,0.00547102,-0.00351999,-0.00084564,-
 0.15198511,0.13276519,-0.04178620,-0.01899565,0.01528648,-0.00782393,0
 .00006601,0.00017392,0.00129673,0.00192885,-0.00101714,-0.00378834,-0.
 00115623,-0.00078001,0.00054365,0.00018871,-0.00004970,-0.00062595,-0.
 00042346,0.00008691,-0.00043099,-0.00038409,0.00024500,0.00000956,-0.0
 0034476,-0.00009780,0.00004673,0.00384697,0.00156155,-0.00591845,0.000
 97915,-0.00231368,0.00050331,-0.00015358,-0.00015662,0.00004387,-0.000
 00483,0.00005426,-0.00002862,-0.00007112,-0.00005630,0.00001273,0.0005
 0219,-0.00008206,0.00020338,0.00047679,0.00022132,0.00030942,0.1617878
 8,-0.00043385,-0.00005798,-0.00055611,0.00007677,0.00003690,0.00392191
 ,0.01965297,-0.02275086,0.00626470,0.12582238,-0.19427250,0.03828562,-
 0.00629511,0.00655194,-0.00436568,-0.00019640,0.00055220,0.00054347,0.
 00038149,-0.00015017,-0.00067382,-0.00070863,-0.00011242,0.00034471,0.
 00004036,-0.00024845,-0.00015828,0.00017882,0.00009913,-0.00019153,-0.
 00072688,0.00017233,-0.00017216,0.00051805,-0.00039041,0.00109000,-0.0
 0133306,0.00021576,-0.00605657,0.00217486,-0.00238144,-0.00025890,-0.0
 0013294,-0.00013099,0.00006208,-0.00003441,-0.00006245,0.00001145,0.00
 010050,0.00015875,-0.00000950,-0.00092314,0.00048422,-0.00101968,0.000
 17855,0.00048753,0.00018146,-0.13872221,0.21173978,0.00034280,0.000390
 98,0.00084494,0.00522928,-0.00012572,-0.00373036,0.00417874,-0.0117977
 4,0.00573716,-0.04523837,0.03923386,-0.06080632,-0.01083033,0.01336714
 ,0.00086336,0.00001900,0.00046837,0.00128449,-0.00283916,0.00055087,-0
 .00186370,-0.00016102,-0.00094238,0.00027816,0.00008299,-0.00023415,-0
 .00005506,0.00025610,0.00046760,-0.00042997,-0.00117152,-0.00028954,-0
 .00003191,0.00238581,-0.00062652,0.00183083,-0.00731819,-0.00442670,0.
 00434217,0.00048789,0.00253806,0.00003717,0.00018135,0.00017671,-0.000
 09272,-0.00000075,0.00001713,0.00007225,-0.00000839,0.00008813,-0.0000
 8815,-0.00036250,0.00023230,-0.00008851,-0.00091202,-0.00045891,-0.000
 50247,0.05533213,-0.03820802,0.05213211,-0.00000228,-0.00001003,-0.000
 01419,-0.00016662,-0.00000021,0.00012414,0.00016887,0.00052018,0.00037
 560,-0.00026729,0.00004962,-0.00154633,-0.00789384,-0.00275730,0.00813
 269,-0.14763583,-0.10142698,0.07789356,0.00125187,0.00045769,0.0014571
 0,-0.00045879,0.00013960,0.00004897,0.00008069,-0.00022577,-0.00034208
 ,-0.00011317,0.00016252,-0.00042762,-0.00058953,-0.00001033,0.00006901
 ,0.00047271,-0.00007707,-0.00001787,0.00014314,-0.00025440,0.00015003,
 0.00002302,0.00011294,-0.00005374,0.00000552,0.00000245,0.00000465,0.0
 0000263,-0.00000321,-0.00000201,-0.00000619,0.00000240,0.00000407,0.00
 000871,-0.00000056,0.00000145,0.00004924,0.00000823,0.00004095,0.00013
 618,0.00004890,-0.00012186,0.15855742,0.00000797,-0.00000414,0.0000449
 3,0.00004986,0.00003728,-0.00007579,-0.00006420,-0.00000066,0.00014565
 ,0.00036429,0.00035468,0.00062515,0.01129911,0.00981870,-0.01041334,-0
 .09991376,-0.13926383,0.07824132,-0.00012792,0.00016599,-0.00155735,0.
 00061613,-0.00091797,0.00044254,0.00026759,0.00035187,0.00048076,-0.00
 014663,-0.00021350,0.00032014,0.00076489,-0.00011101,0.00001526,-0.000
 53157,0.00039113,0.00007561,0.00001453,-0.00008500,-0.00013462,-0.0000
 4848,0.00005428,0.00007161,0.00001388,0.00000946,-0.00000030,0.0000028
 0,0.00000820,-0.00000621,0.00000139,-0.00000499,-0.00000785,0.00000145
 ,-0.00000579,0.00000962,0.00000035,-0.00000608,0.00000036,-0.00002068,
 -0.00011220,0.00001022,0.10786430,0.15092332,0.00006051,-0.00005768,0.
 00000282,0.00011563,0.00011612,-0.00009069,-0.00039907,-0.00064765,-0.
 00014765,0.00079291,0.00039419,0.00157176,0.01832528,0.01331101,-0.016
 25840,0.07903315,0.07925518,-0.10988668,-0.00085695,0.00020745,-0.0026
 8036,0.00040456,-0.00116240,0.00056469,0.00026720,0.00020120,0.0005462
 0,0.00003784,-0.00030980,0.00049069,0.00123090,-0.00010178,0.00019771,
 -0.00108653,0.00046085,-0.00054653,0.00023517,-0.00032903,0.00041860,-
 0.00014645,0.00012973,-0.00009147,0.00000825,0.00002202,0.00001756,-0.
 00003809,-0.00000131,0.00001313,-0.00000440,0.00001365,0.00000334,-0.0
 0000652,0.00000228,-0.00002443,0.00000545,-0.00000532,0.00001851,-0.00
 000781,0.00014835,-0.00017330,-0.09055569,-0.08395936,0.12004667,0.000
 00359,0.00000122,0.00000882,-0.00000117,0.00002143,-0.00000203,0.00009
 494,-0.00009245,0.00018070,0.00005869,-0.00108911,-0.00046535,-0.00832
 830,0.00969247,0.00197562,-0.10568140,0.10590491,-0.03086914,0.0018308
 2,0.00099318,0.00079442,-0.00067426,-0.00021880,0.00026955,0.00038005,
 -0.00033501,0.00058119,0.00008333,0.00001790,-0.00021814,-0.00039236,0
 .00000633,-0.00004019,0.00034479,-0.00007648,0.00022659,-0.00012159,0.
 00005828,-0.00023037,0.00004591,-0.00001037,0.00005822,0.00000920,0.00
 000433,0.00000190,0.00000047,-0.00000550,0.00000063,-0.00000464,-0.000
 00331,0.00000084,0.00000999,0.00000371,-0.00000640,0.00000071,0.000010
 65,-0.00000051,0.00047638,0.00020075,0.00013924,0.01012368,-0.01783278
 ,0.00420286,0.11333126,0.00000523,-0.00002052,-0.00002195,-0.00003318,
 -0.00001145,0.00004446,-0.00026134,0.00035767,-0.00014473,0.00067568,0
 .00069632,0.00063666,0.00883536,-0.01122415,0.00029931,0.10582727,-0.2
 3004812,0.04809468,-0.00179144,-0.00096628,-0.00141743,0.00052821,0.00
 049021,-0.00022597,-0.00019013,0.00024045,-0.00035291,-0.00009494,-0.0
 0010943,0.00017075,0.00043418,0.00000442,0.00009299,-0.00040249,0.0002
 0393,-0.00059021,0.00037680,-0.00026693,0.00068056,-0.00012500,0.00010
 185,-0.00016854,-0.00000311,0.00000204,-0.00000188,-0.00000366,-0.0000
 1234,0.00001281,-0.00000027,0.00002417,0.00000795,-0.00002851,0.000013
 70,-0.00003907,0.00001156,0.00001103,0.00002064,-0.00070352,-0.0000420
 2,-0.00057396,0.00994774,-0.01698449,0.00479473,-0.11888580,0.25043898
 ,0.00001749,-0.00002017,0.00003007,-0.00002011,0.00007460,-0.00003234,
 -0.00004119,0.00042552,0.00004712,0.00051071,0.00072043,0.00122939,0.0
 1753345,-0.02654180,0.00338259,-0.02922586,0.04620462,-0.05671195,-0.0
 0216286,-0.00188565,-0.00217881,0.00127906,0.00100694,-0.00050066,-0.0
 0047598,0.00036647,-0.00104140,-0.00011812,0.00002752,0.00028254,0.000
 51864,0.00001797,0.00007437,-0.00049816,0.00015141,-0.00036127,0.00033
 262,-0.00029884,0.00038777,-0.00016068,0.00016963,-0.00004596,0.000014
 25,0.00001179,0.00000232,-0.00000703,-0.00000085,-0.00000142,0.0000012
 0,0.00000906,-0.00000231,-0.00002429,-0.00000027,-0.00001928,0.0000188
 8,0.00000197,0.00002272,-0.00057408,0.00026254,-0.00027030,-0.00871086
 ,0.01337327,-0.00380199,0.02858317,-0.05022076,0.06262565,0.00002543,0
 .00002559,0.00006974,0.00008998,0.00013120,-0.00013927,0.00067567,0.00
 027477,0.00039452,-0.00071431,0.00106234,0.00107589,0.00900964,0.00297
 500,0.00851761,-0.21628823,-0.04708013,-0.12597119,0.00093141,-0.00013
 203,0.00060465,0.00018160,-0.00005443,0.00000212,-0.00004839,0.0001869
 5,-0.00010180,-0.00000396,-0.00008626,0.00014755,0.00007020,0.00003758
 ,-0.00006105,-0.00004393,0.00001027,-0.00003652,-0.00004850,-0.0000258
 0,0.00008532,0.00000978,-0.00003838,-0.00001403,0.00001477,0.00001103,
 -0.00001515,0.00001396,0.00000251,-0.00000404,0.00000320,-0.00000215,-
 0.00000164,-0.00000315,-0.00000626,0.00000839,-0.00001510,-0.00000310,
 -0.00001180,0.00004189,-0.00006803,0.00027867,-0.01418653,-0.00226671,
 -0.01128472,-0.01141971,-0.00433953,-0.00741171,0.23172397,-0.00006648
 ,0.00005990,-0.00016580,-0.00025952,-0.00030115,0.00029340,-0.00015749
 ,0.00043213,-0.00014328,0.00190863,-0.00067641,-0.00219003,-0.01095727
 ,-0.00421815,-0.00830600,-0.04567219,-0.05896462,-0.03312147,-0.000974
 27,0.00052194,0.00043134,0.00015862,-0.00017127,0.00011366,0.00013974,
 -0.00010472,0.00005211,0.00014897,0.00002035,-0.00005437,-0.00042228,0
 .00008913,-0.00018628,0.00032691,-0.00023790,0.00047179,-0.00015713,0.
 00066938,-0.00062789,0.00010971,-0.00028169,0.00010730,-0.00005456,-0.
 00005193,0.00000603,0.00000545,0.00000182,0.00001052,0.00000899,-0.000
 00397,0.00000316,-0.00000569,0.00000896,-0.00001236,0.00000866,0.00002
 185,-0.00000837,-0.00031273,0.00006747,-0.00017376,-0.01485699,-0.0041
 3305,-0.01206257,0.02162319,0.00719422,0.01626584,0.04943795,0.0601342
 1,-0.00008584,0.00006514,-0.00026661,-0.00025841,-0.00045403,0.0003764
 2,-0.00060165,-0.00005896,-0.00057775,0.00283785,-0.00336489,-0.003243
 84,-0.02132214,-0.00505485,-0.01656741,-0.12199761,-0.03333920,-0.1374
 2392,-0.00147605,0.00129895,0.00123204,0.00024376,-0.00015672,0.000176
 97,0.00021960,-0.00017031,0.00000448,0.00008058,0.00009114,-0.00022850
 ,-0.00048820,0.00005322,-0.00013305,0.00043993,-0.00032781,0.00068819,
 -0.00042506,0.00095397,-0.00085397,0.00020673,-0.00039472,0.00008801,-
 0.00009071,-0.00007153,0.00002066,-0.00000865,0.00000902,0.00001791,0.
 00001342,-0.00000724,0.00000633,0.00000270,0.00001769,0.00000398,0.000
 00279,-0.00000154,-0.00001983,0.00014329,0.00013863,0.00019200,0.01313
 950,0.00288211,0.01052435,-0.00463100,-0.00136735,-0.00409559,0.133850
 09,0.03932066,0.15009528,0.00000815,0.00006107,-0.00004492,0.00017056,
 -0.00013724,-0.00014289,-0.00043579,0.00012388,0.00024924,-0.00003962,
 -0.00174020,0.00028779,0.00310451,-0.00020030,0.00165774,-0.00027396,0
 .00249141,-0.00129668,-0.02590933,-0.01269780,0.01339584,-0.18105582,-
 0.11208957,0.08625512,0.00630296,0.00629329,-0.00310895,0.00079179,0.0
 0122349,0.00022989,-0.00045198,0.00055755,-0.00051470,0.00073007,-0.00
 061159,0.00060011,-0.00043307,0.00073395,-0.00044114,0.00023615,-0.000
 24953,0.00005965,-0.00002742,-0.00002633,-0.00000487,0.00000943,0.0000
 0251,0.00000997,0.00000106,-0.00001294,0.00000391,-0.00000586,0.000008
 36,0.00000770,-0.00010973,-0.00001355,-0.00010143,0.00014525,0.0000962
 2,-0.00015905,0.00023132,-0.00025766,-0.00024719,-0.00021249,0.0002796
 3,0.00068545,0.00000742,0.00000795,0.00012364,0.19714807,0.00000198,-0
 .00002287,0.00002143,0.00001646,0.00006868,0.00000747,-0.00012745,0.00
 009807,-0.00009408,-0.00019964,-0.00220404,0.00025875,0.00234168,-0.00
 046349,0.00156192,0.00004978,0.00133266,-0.00035550,0.00921723,0.01072
 686,-0.00597225,-0.11004076,-0.14081640,0.07005780,-0.01915865,-0.0146
 9965,0.01380784,-0.00001730,-0.00500555,-0.00061415,0.00206306,-0.0003
 8401,0.00119914,-0.00154500,0.00059090,-0.00206316,-0.00006323,-0.0010
 6435,0.00153342,0.00017388,0.00027190,-0.00052815,0.00000626,0.0000150
 1,-0.00000604,0.00000328,-0.00000300,-0.00000095,0.00000610,0.00002314
 ,0.00000512,-0.00003693,0.00002213,-0.00001653,0.00001017,-0.00001454,
 0.00001777,0.00045346,0.00016273,0.00025259,0.00015325,-0.00018317,-0.
 00025457,-0.00007392,-0.00002806,0.00009561,-0.00000301,-0.00001146,-0
 .00004246,0.11676555,0.14987939,0.00001302,0.00007019,0.00001185,0.000
 34419,-0.00011789,-0.00033538,-0.00096583,0.00041999,-0.00012299,-0.00
 005188,-0.00620859,0.00151478,0.00163908,0.00230703,0.00507278,0.00010
 722,0.00502814,-0.00258731,0.00480801,0.00174456,0.00026563,0.08684230
 ,0.07318731,-0.08519570,0.00379041,0.00084032,0.00050751,0.00079760,0.
 00097571,0.00119414,-0.00070164,0.00010965,-0.00023121,0.00113583,-0.0
 0016286,0.00086373,-0.00036371,0.00041115,-0.00064706,0.00009071,0.000
 01546,0.00022296,0.00000265,-0.00000768,0.00000098,0.00000128,-0.00000
 310,0.00001175,0.00000030,-0.00001213,-0.00000413,-0.00002012,0.000018
 38,-0.00000482,-0.00014036,-0.00001669,-0.00011643,0.00086498,0.000374
 22,0.00035472,0.00037115,-0.00057436,-0.00068077,-0.00055224,0.0003127
 1,0.00095763,0.00001779,-0.00005035,-0.00005771,-0.09726786,-0.0787467
 7,0.07892943,-0.00000477,0.00000926,-0.00001658,-0.00002118,0.00004132
 ,0.00003492,0.00000548,-0.00014697,-0.00013450,0.00012783,-0.00008878,
 0.00010666,-0.00003110,0.00009915,0.00001488,0.00002960,0.00004783,-0.
 00008061,0.00152541,0.00006118,0.00024791,-0.00175026,0.00258854,0.003
 28217,-0.21606676,0.07680103,0.11542497,-0.01653429,0.00604689,0.01027
 243,0.00449073,-0.00123111,0.00491980,-0.00034547,0.00324034,-0.000917
 49,-0.00002195,0.00037742,0.00143112,0.00041449,-0.00026916,-0.0007600
 8,-0.00001020,-0.00000485,-0.00000534,0.00001006,-0.00000345,-0.000000
 32,0.00000126,0.00000079,0.00000800,-0.00002282,-0.00000122,-0.0000111
 8,0.00000266,-0.00001684,-0.00001088,-0.00001108,0.00000829,0.00002906
 ,0.00002200,-0.00001780,-0.00000024,0.00000112,0.00000742,0.00001503,0
 .00000021,-0.00000188,0.00001945,0.00001912,0.00015897,-0.00068283,0.2
 2807771,0.00000222,-0.00005848,0.00004090,-0.00014319,0.00017416,0.000
 11630,0.00010805,-0.00004855,-0.00020984,-0.00005425,0.00065045,-0.000
 61598,0.00008711,0.00024532,0.00069481,0.00008855,-0.00036056,0.000234
 16,0.00082249,-0.00503283,0.00063362,0.02332944,-0.01028061,-0.0141227
 4,0.07974378,-0.08634703,-0.04788718,-0.01836696,0.01096551,0.01156571
 ,0.00002675,-0.00209224,0.00269629,-0.00061286,0.00139572,-0.00123163,
 0.00017837,-0.00074760,0.00147429,0.00013001,0.00011976,-0.00052815,0.
 00002089,0.00002589,0.00000059,-0.00000437,-0.00000366,-0.00000923,0.0
 0000207,0.00001983,0.00000138,-0.00001863,-0.00000390,-0.00002282,0.00
 009449,0.00000374,0.00008095,0.00004544,-0.00000837,0.00002438,-0.0000
 0482,-0.00001551,-0.00008115,0.00005854,-0.00008453,-0.00012767,-0.000
 01856,-0.00000306,-0.00001013,-0.00056816,0.00135408,0.00006563,-0.084
 81131,0.09131070,-0.00000656,0.00002299,0.00000352,0.00000559,-0.00000
 693,-0.00003781,-0.00000116,-0.00015579,-0.00012002,0.00012266,-0.0000
 6194,0.00026087,-0.00098242,0.00004116,-0.00019289,0.00015860,0.000144
 57,-0.00015856,0.00155203,-0.00089587,0.00080752,-0.00092470,0.0062810
 5,0.00391854,0.11278170,-0.05502543,-0.10883834,0.01423984,0.00331684,
 -0.00808877,0.00332996,-0.00315253,0.00391995,0.00199724,0.00457271,0.
 00287602,0.00066687,0.00106343,-0.00110203,-0.00032760,-0.00021691,0.0
 0011168,0.00000774,-0.00000573,0.00000584,0.00000205,-0.00000284,-0.00
 000186,-0.00000805,-0.00001874,-0.00000869,0.00000274,-0.00001012,0.00
 000304,-0.00000678,-0.00000403,-0.00001271,0.00000324,-0.00001289,0.00
 004531,0.00000391,-0.00003209,-0.00001363,-0.00000749,-0.00001357,0.00
 002137,0.00000071,0.00000287,0.00001113,-0.00025605,-0.00023568,-0.000
 03494,-0.13218323,0.04765130,0.10769133,0.00001647,-0.00004833,-0.0000
 0744,-0.00013044,0.00033990,0.00016462,0.00045621,0.00047418,-0.001004
 32,-0.00034797,0.00004117,-0.00042813,0.00004441,-0.00010386,-0.000169
 51,0.00027834,0.00003647,0.00009750,-0.00080016,0.00002021,0.00031861,
 0.00055884,-0.00038455,-0.00082057,-0.00178208,0.00108900,0.00014740,-
 0.00667677,-0.01255793,0.02685336,-0.05795725,-0.02517931,0.06846990,-
 0.00552910,0.01105919,-0.03770741,-0.00411486,0.00005624,0.00301752,0.
 00133773,-0.00046476,-0.00196878,-0.00000978,0.00000670,0.00000756,-0.
 00002026,0.00001382,0.00000109,0.00001272,0.00001454,-0.00000851,-0.00
 011603,0.00001457,-0.00005984,0.00009042,-0.00002965,0.00008249,0.0000
 3340,0.00009575,0.00018006,0.00004306,-0.00004035,-0.00008606,0.000041
 00,-0.00006615,-0.00007905,-0.00002731,0.00001371,0.00006200,0.0000492
 3,-0.00015521,-0.00008004,0.00009219,-0.00013506,-0.00017085,0.0744580
 0,-0.00000563,0.00001736,0.00000624,0.00002450,0.00010070,-0.00000712,
 -0.00007286,-0.00015489,-0.00034624,-0.00004679,-0.00020232,-0.0000483
 5,0.00010904,-0.00013302,-0.00036021,0.00003110,0.00007557,0.00007646,
 -0.00062706,0.00000915,0.00052827,0.00405079,0.00046503,0.00256839,-0.
 00257067,0.00831237,0.00089114,0.00242219,-0.00076107,0.00693742,-0.02
 943851,-0.07211358,0.09638049,0.00384873,0.00206950,0.00479608,-0.0007
 5715,0.00251151,-0.00176521,-0.00007445,-0.00003625,0.00073261,-0.0000
 0087,-0.00000493,-0.00000090,0.00000469,-0.00000190,-0.00000101,0.0000
 0032,-0.00000891,-0.00000374,-0.00002047,-0.00001576,-0.00001894,-0.00
 000856,0.00000291,-0.00001225,0.00002322,-0.00000847,0.00003907,0.0001
 5787,-0.00007353,-0.00008416,0.00002663,0.00001933,-0.00008921,-0.0000
 3077,-0.00006197,-0.00000877,-0.00003998,0.00035504,0.00001997,-0.0028
 9503,-0.00117822,-0.00324583,0.02588972,0.06081637,0.00001158,-0.00000
 559,-0.00002352,-0.00001531,0.00027806,0.00008518,0.00025504,0.0002560
 2,-0.00081755,-0.00029417,0.00000346,-0.00018090,-0.00007091,-0.000076
 48,-0.00032321,0.00011533,0.00003226,0.00001092,0.00004093,-0.00003283
 ,0.00012841,0.00115053,0.00063553,0.00107909,-0.00242690,0.00083557,0.
 00037574,0.00789183,0.00438868,-0.00316304,0.05915280,0.09282508,-0.28
 516426,-0.00565125,0.00826731,-0.02409399,-0.00325804,0.00041993,0.004
 81136,0.00104369,-0.00057901,-0.00089016,-0.00002193,-0.00000620,0.000
 00118,-0.00001057,0.00000844,0.00000630,0.00001392,0.00000689,-0.00000
 227,-0.00009262,0.00000087,-0.00005015,0.00003396,-0.00002204,0.000029
 88,-0.00004735,0.00005400,0.00011809,-0.00002452,0.00002272,-0.0000201
 6,-0.00000090,-0.00002993,-0.00000026,-0.00000013,0.00002386,0.0000304
 3,0.00001969,0.00011143,0.00011057,-0.00100310,-0.00043382,-0.00106589
 ,-0.05681159,-0.10698420,0.30900824\\0.00001142,-0.00000147,-0.0000006
 3,0.00000683,-0.00000525,0.00001544,-0.00000610,0.00003135,-0.00001193
 ,-0.00001298,-0.00001622,0.00002544,-0.00001149,0.00005036,-0.00001568
 ,-0.00000389,0.00000667,-0.00002195,0.00000557,-0.00000882,-0.00000897
 ,-0.00000437,-0.00000819,-0.00000032,0.00001130,-0.00001135,0.00000444
 ,0.00001401,0.00000627,-0.00000235,0.00001207,-0.00002125,0.00003628,0
 .00001906,0.00000548,-0.00000937,-0.00005627,-0.00004833,-0.00005349,-
 0.00001117,0.00003331,0.00002530,0.00000092,0.00000456,-0.00000239,0.0
 0000220,0.00000210,0.00000046,-0.00000499,-0.00000377,0.00000515,0.000
 00449,-0.00000060,-0.00000284,0.00001300,-0.00000570,-0.00000926,0.000
 00153,-0.00000245,0.00000903,-0.00000370,-0.00000480,0.00001208,0.0000
 0366,0.00000241,-0.00000614,0.00000360,-0.00000391,0.00001322,0.000001
 98,-0.00000474,0.00000499,-0.00000019,0.00000341,0.00000121,0.00000352
 ,0.00000093,-0.00000774\\\@


 At the touch of love, everyone becomves a poet.
                                -- Plato
 Job cpu time:       0 days  5 hours 56 minutes 27.0 seconds.
 Elapsed time:       0 days  1 hours 29 minutes  7.3 seconds.
 File lengths (MBytes):  RWF=    388 Int=      0 D2E=      0 Chk=     17 Scr=      1
 Normal termination of Gaussian 16 at Thu May 18 19:20:59 2023.
### All Done ###
