### Starting Gaussian ###
 Entering Gaussian System, Link 0=g16
 Initial command:
 /cluster/software/gaussian/gaussian-16-A.03/avx2/g16/l1.exe "/local/scratch/ks29c/Gau-28475.inp" -scrdir="/local/scratch/ks29c/"
 Entering Link 1 = /cluster/software/gaussian/gaussian-16-A.03/avx2/g16/l1.exe PID=     28476.
  
 Copyright (c) 1988,1990,1992,1993,1995,1998,2003,2009,2016,
            Gaussian, Inc.  All Rights Reserved.
  
 This is part of the Gaussian(R) 16 program.  It is based on
 the Gaussian(R) 09 system (copyright 2009, Gaussian, Inc.),
 the Gaussian(R) 03 system (copyright 2003, Gaussian, Inc.),
 the Gaussian(R) 98 system (copyright 1998, Gaussian, Inc.),
 the Gaussian(R) 94 system (copyright 1995, Gaussian, Inc.),
 the Gaussian 92(TM) system (copyright 1992, Gaussian, Inc.),
 the Gaussian 90(TM) system (copyright 1990, Gaussian, Inc.),
 the Gaussian 88(TM) system (copyright 1988, Gaussian, Inc.),
 the Gaussian 86(TM) system (copyright 1986, Carnegie Mellon
 University), and the Gaussian 82(TM) system (copyright 1983,
 Carnegie Mellon University). Gaussian is a federally registered
 trademark of Gaussian, Inc.
  
 This software contains proprietary and confidential information,
 including trade secrets, belonging to Gaussian, Inc.
  
 This software is provided under written license and may be
 used, copied, transmitted, or stored only in accord with that
 written license.
  
 The following legend is applicable only to US Government
 contracts under FAR:
  
                    RESTRICTED RIGHTS LEGEND
  
 Use, reproduction and disclosure by the US Government is
 subject to restrictions as set forth in subparagraphs (a)
 and (c) of the Commercial Computer Software - Restricted
 Rights clause in FAR 52.227-19.
  
 Gaussian, Inc.
 340 Quinnipiac St., Bldg. 40, Wallingford CT 06492
  
  
 ---------------------------------------------------------------
 Warning -- This program may not be used in any manner that
 competes with the business of Gaussian, Inc. or will provide
 assistance to any competitor of Gaussian, Inc.  The licensee
 of this program is prohibited from giving any competitor of
 Gaussian, Inc. access to this program.  By using this program,
 the user acknowledges that Gaussian, Inc. is engaged in the
 business of creating and licensing software in the field of
 computational chemistry and represents and warrants to the
 licensee that it is not a competitor of Gaussian, Inc. and that
 it will not use this program in any manner prohibited above.
 ---------------------------------------------------------------
  

 Cite this work as:
 Gaussian 16, Revision A.03,
 M. J. Frisch, G. W. Trucks, H. B. Schlegel, G. E. Scuseria, 
 M. A. Robb, J. R. Cheeseman, G. Scalmani, V. Barone, 
 G. A. Petersson, H. Nakatsuji, X. Li, M. Caricato, A. V. Marenich, 
 J. Bloino, B. G. Janesko, R. Gomperts, B. Mennucci, H. P. Hratchian, 
 J. V. Ortiz, A. F. Izmaylov, J. L. Sonnenberg, D. Williams-Young, 
 F. Ding, F. Lipparini, F. Egidi, J. Goings, B. Peng, A. Petrone, 
 T. Henderson, D. Ranasinghe, V. G. Zakrzewski, J. Gao, N. Rega, 
 G. Zheng, W. Liang, M. Hada, M. Ehara, K. Toyota, R. Fukuda, 
 J. Hasegawa, M. Ishida, T. Nakajima, Y. Honda, O. Kitao, H. Nakai, 
 T. Vreven, K. Throssell, J. A. Montgomery, Jr., J. E. Peralta, 
 F. Ogliaro, M. J. Bearpark, J. J. Heyd, E. N. Brothers, K. N. Kudin, 
 V. N. Staroverov, T. A. Keith, R. Kobayashi, J. Normand, 
 K. Raghavachari, A. P. Rendell, J. C. Burant, S. S. Iyengar, 
 J. Tomasi, M. Cossi, J. M. Millam, M. Klene, C. Adamo, R. Cammi, 
 J. W. Ochterski, R. L. Martin, K. Morokuma, O. Farkas, 
 J. B. Foresman, and D. J. Fox, Gaussian, Inc., Wallingford CT, 2016.
 
 ******************************************
 Gaussian 16:  ES64L-G16RevA.03 25-Dec-2016
                19-May-2023 
 ******************************************
 %chk=CCCC1Cdc2ccc3ccccc3c2dCCdC1N.chk
 %NProcShared=20
 Will use up to   20 processors via shared memory.
 -----------------------------
 # opt freq b3lyp/6-31g(2df,p)
 -----------------------------
 1/18=20,19=15,26=3,38=1/1,3;
 2/9=110,12=2,17=6,18=5,40=1/2;
 3/5=1,6=6,7=104,11=2,25=1,30=1,71=1,74=-5/1,2,3;
 4//1;
 5/5=2,38=5/2;
 6/7=2,8=2,9=2,10=2,28=1/1;
 7//1,2,3,16;
 1/18=20,19=15,26=3/3(2);
 2/9=110/2;
 99//99;
 2/9=110/2;
 3/5=1,6=6,7=104,11=2,25=1,30=1,71=1,74=-5/1,2,3;
 4/5=5,16=3,69=1/1;
 5/5=2,38=5/2;
 7//1,2,3,16;
 1/18=20,19=15,26=3/3(-5);
 2/9=110/2;
 6/7=2,8=2,9=2,10=2,19=2,28=1/1;
 99/9=1/99;
 -------------------
 Title Card Required
 -------------------
 Symbolic Z-matrix:
 Charge =  0 Multiplicity = 1
 C                     0.76498   0.03588   0.05629 
 C                     2.26635  -0.0161    0.0347 
 C                     2.90638   0.43198   1.34162 
 C                     4.45474   0.38024   1.2782 
 C                     4.92731   1.25547   2.4084 
 C                     5.65981   1.05383   3.51703 
 C                     5.84101   2.24012   4.3683 
 C                     6.56633   2.20131   5.49269 
 C                     7.21552   0.95843   5.92887 
 C                     7.9711    0.96643   7.10711 
 C                     8.60644  -0.1924    7.55486 
 C                     8.49891  -1.36856   6.83349 
 C                     7.75142  -1.3863    5.66698 
 C                     7.09097  -0.23578   5.18881 
 C                     6.26625  -0.22011   3.93178 
 C                     6.16461  -1.39094   3.28118 
 C                     5.56428  -1.78565   2.0663 
 C                     4.90915  -1.06804   1.14979 
 N                     4.68194  -1.72318  -0.04656 
 H                     0.39624  -0.31455  -0.91231 
 H                     0.39912   1.04456   0.24631 
 H                     0.39276  -0.64534   0.82761 
 H                     2.67562   0.57079  -0.7964 
 H                     2.469    -1.06928  -0.14589 
 H                     2.55152  -0.20273   2.16639 
 H                     2.55747   1.449     1.57089 
 H                     4.8122    0.8927    0.37388 
 H                     4.55383   2.27414   2.26278 
 H                     5.37325   3.17951   4.08053 
 H                     6.68534   3.09459   6.09694 
 H                     8.06978   1.87872   7.68756 
 H                     9.18823  -0.18006   8.46909 
 H                     8.98573  -2.28252   7.15953 
 H                     7.71663  -2.34356   5.16132 
 H                     6.67375  -2.26932   3.64909 
 H                     5.77048  -2.82853   1.82588 
 H                     4.56678  -2.73212  -0.01784 
 H                     4.21678  -1.22756  -0.79531 
 

 GradGradGradGradGradGradGradGradGradGradGradGradGradGradGradGradGradGrad
 Berny optimization.
 Initialization pass.
                           ----------------------------
                           !    Initial Parameters    !
                           ! (Angstroms and Degrees)  !
 --------------------------                            --------------------------
 ! Name  Definition              Value          Derivative Info.                !
 --------------------------------------------------------------------------------
 ! R1    R(1,2)                  1.5024         estimate D2E/DX2                !
 ! R2    R(1,20)                 1.0941         estimate D2E/DX2                !
 ! R3    R(1,21)                 1.0897         estimate D2E/DX2                !
 ! R4    R(1,22)                 1.0943         estimate D2E/DX2                !
 ! R5    R(2,3)                  1.5226         estimate D2E/DX2                !
 ! R6    R(2,23)                 1.0967         estimate D2E/DX2                !
 ! R7    R(2,24)                 1.0876         estimate D2E/DX2                !
 ! R8    R(3,4)                  1.5505         estimate D2E/DX2                !
 ! R9    R(3,25)                 1.0996         estimate D2E/DX2                !
 ! R10   R(3,26)                 1.0994         estimate D2E/DX2                !
 ! R11   R(4,5)                  1.5056         estimate D2E/DX2                !
 ! R12   R(4,18)                 1.5233         estimate D2E/DX2                !
 ! R13   R(4,27)                 1.0992         estimate D2E/DX2                !
 ! R14   R(5,6)                  1.344          estimate D2E/DX2                !
 ! R15   R(5,28)                 1.0947         estimate D2E/DX2                !
 ! R16   R(6,7)                  1.4713         estimate D2E/DX2                !
 ! R17   R(6,15)                 1.4706         estimate D2E/DX2                !
 ! R18   R(7,8)                  1.3386         estimate D2E/DX2                !
 ! R19   R(7,29)                 1.0881         estimate D2E/DX2                !
 ! R20   R(8,9)                  1.4685         estimate D2E/DX2                !
 ! R21   R(8,30)                 1.085          estimate D2E/DX2                !
 ! R22   R(9,10)                 1.3997         estimate D2E/DX2                !
 ! R23   R(9,14)                 1.4104         estimate D2E/DX2                !
 ! R24   R(10,11)                1.3954         estimate D2E/DX2                !
 ! R25   R(10,31)                1.0858         estimate D2E/DX2                !
 ! R26   R(11,12)                1.3839         estimate D2E/DX2                !
 ! R27   R(11,32)                1.0837         estimate D2E/DX2                !
 ! R28   R(12,13)                1.3856         estimate D2E/DX2                !
 ! R29   R(12,33)                1.0856         estimate D2E/DX2                !
 ! R30   R(13,14)                1.4102         estimate D2E/DX2                !
 ! R31   R(13,34)                1.0832         estimate D2E/DX2                !
 ! R32   R(14,15)                1.5035         estimate D2E/DX2                !
 ! R33   R(15,16)                1.3433         estimate D2E/DX2                !
 ! R34   R(16,17)                1.4114         estimate D2E/DX2                !
 ! R35   R(16,35)                1.0799         estimate D2E/DX2                !
 ! R36   R(17,18)                1.3357         estimate D2E/DX2                !
 ! R37   R(17,36)                1.0899         estimate D2E/DX2                !
 ! R38   R(18,19)                1.3828         estimate D2E/DX2                !
 ! R39   R(19,37)                1.0159         estimate D2E/DX2                !
 ! R40   R(19,38)                1.0113         estimate D2E/DX2                !
 ! A1    A(2,1,20)             108.2401         estimate D2E/DX2                !
 ! A2    A(2,1,21)             111.7185         estimate D2E/DX2                !
 ! A3    A(2,1,22)             109.1772         estimate D2E/DX2                !
 ! A4    A(20,1,21)            109.738          estimate D2E/DX2                !
 ! A5    A(20,1,22)            108.0583         estimate D2E/DX2                !
 ! A6    A(21,1,22)            109.8233         estimate D2E/DX2                !
 ! A7    A(1,2,3)              113.4239         estimate D2E/DX2                !
 ! A8    A(1,2,23)             111.4266         estimate D2E/DX2                !
 ! A9    A(1,2,24)             102.8316         estimate D2E/DX2                !
 ! A10   A(3,2,23)             109.6406         estimate D2E/DX2                !
 ! A11   A(3,2,24)             110.4361         estimate D2E/DX2                !
 ! A12   A(23,2,24)            108.8355         estimate D2E/DX2                !
 ! A13   A(2,3,4)              112.0136         estimate D2E/DX2                !
 ! A14   A(2,3,25)             109.773          estimate D2E/DX2                !
 ! A15   A(2,3,26)             108.5316         estimate D2E/DX2                !
 ! A16   A(4,3,25)             109.4934         estimate D2E/DX2                !
 ! A17   A(4,3,26)             110.8748         estimate D2E/DX2                !
 ! A18   A(25,3,26)            105.9707         estimate D2E/DX2                !
 ! A19   A(3,4,5)              105.2685         estimate D2E/DX2                !
 ! A20   A(3,4,18)             109.4547         estimate D2E/DX2                !
 ! A21   A(3,4,27)             110.0505         estimate D2E/DX2                !
 ! A22   A(5,4,18)             121.4897         estimate D2E/DX2                !
 ! A23   A(5,4,27)             104.1523         estimate D2E/DX2                !
 ! A24   A(18,4,27)            106.0749         estimate D2E/DX2                !
 ! A25   A(4,5,6)              134.6752         estimate D2E/DX2                !
 ! A26   A(4,5,28)             109.5123         estimate D2E/DX2                !
 ! A27   A(6,5,28)             115.8034         estimate D2E/DX2                !
 ! A28   A(5,6,7)              115.0504         estimate D2E/DX2                !
 ! A29   A(5,6,15)             125.9698         estimate D2E/DX2                !
 ! A30   A(7,6,15)             118.979          estimate D2E/DX2                !
 ! A31   A(6,7,8)              121.9612         estimate D2E/DX2                !
 ! A32   A(6,7,29)             119.3474         estimate D2E/DX2                !
 ! A33   A(8,7,29)             118.6914         estimate D2E/DX2                !
 ! A34   A(7,8,9)              120.9023         estimate D2E/DX2                !
 ! A35   A(7,8,30)             120.2222         estimate D2E/DX2                !
 ! A36   A(9,8,30)             118.8753         estimate D2E/DX2                !
 ! A37   A(8,9,10)             118.9358         estimate D2E/DX2                !
 ! A38   A(8,9,14)             121.4481         estimate D2E/DX2                !
 ! A39   A(10,9,14)            119.616          estimate D2E/DX2                !
 ! A40   A(9,10,11)            120.7406         estimate D2E/DX2                !
 ! A41   A(9,10,31)            120.2559         estimate D2E/DX2                !
 ! A42   A(11,10,31)           119.0035         estimate D2E/DX2                !
 ! A43   A(10,11,12)           120.2096         estimate D2E/DX2                !
 ! A44   A(10,11,32)           120.3766         estimate D2E/DX2                !
 ! A45   A(12,11,32)           119.4137         estimate D2E/DX2                !
 ! A46   A(11,12,13)           119.448          estimate D2E/DX2                !
 ! A47   A(11,12,33)           121.6067         estimate D2E/DX2                !
 ! A48   A(13,12,33)           118.9452         estimate D2E/DX2                !
 ! A49   A(12,13,14)           121.8503         estimate D2E/DX2                !
 ! A50   A(12,13,34)           114.9401         estimate D2E/DX2                !
 ! A51   A(14,13,34)           123.2095         estimate D2E/DX2                !
 ! A52   A(9,14,13)            118.1332         estimate D2E/DX2                !
 ! A53   A(9,14,15)            118.5744         estimate D2E/DX2                !
 ! A54   A(13,14,15)           123.2923         estimate D2E/DX2                !
 ! A55   A(6,15,14)            118.1004         estimate D2E/DX2                !
 ! A56   A(6,15,16)            125.9619         estimate D2E/DX2                !
 ! A57   A(14,15,16)           115.935          estimate D2E/DX2                !
 ! A58   A(15,16,17)           133.8534         estimate D2E/DX2                !
 ! A59   A(15,16,35)           120.5499         estimate D2E/DX2                !
 ! A60   A(17,16,35)           105.4453         estimate D2E/DX2                !
 ! A61   A(16,17,18)           130.4644         estimate D2E/DX2                !
 ! A62   A(16,17,36)           112.147          estimate D2E/DX2                !
 ! A63   A(18,17,36)           117.0968         estimate D2E/DX2                !
 ! A64   A(4,18,17)            126.8162         estimate D2E/DX2                !
 ! A65   A(4,18,19)            118.3178         estimate D2E/DX2                !
 ! A66   A(17,18,19)           114.8154         estimate D2E/DX2                !
 ! A67   A(18,19,37)           117.6912         estimate D2E/DX2                !
 ! A68   A(18,19,38)           118.9449         estimate D2E/DX2                !
 ! A69   A(37,19,38)           117.0994         estimate D2E/DX2                !
 ! D1    D(20,1,2,3)          -179.2094         estimate D2E/DX2                !
 ! D2    D(20,1,2,23)           56.4911         estimate D2E/DX2                !
 ! D3    D(20,1,2,24)          -59.938          estimate D2E/DX2                !
 ! D4    D(21,1,2,3)            59.8581         estimate D2E/DX2                !
 ! D5    D(21,1,2,23)          -64.4414         estimate D2E/DX2                !
 ! D6    D(21,1,2,24)          179.1295         estimate D2E/DX2                !
 ! D7    D(22,1,2,3)           -61.8109         estimate D2E/DX2                !
 ! D8    D(22,1,2,23)          173.8896         estimate D2E/DX2                !
 ! D9    D(22,1,2,24)           57.4605         estimate D2E/DX2                !
 ! D10   D(1,2,3,4)           -179.3782         estimate D2E/DX2                !
 ! D11   D(1,2,3,25)            58.7625         estimate D2E/DX2                !
 ! D12   D(1,2,3,26)           -56.6338         estimate D2E/DX2                !
 ! D13   D(23,2,3,4)           -54.1156         estimate D2E/DX2                !
 ! D14   D(23,2,3,25)         -175.9748         estimate D2E/DX2                !
 ! D15   D(23,2,3,26)           68.6288         estimate D2E/DX2                !
 ! D16   D(24,2,3,4)            65.805          estimate D2E/DX2                !
 ! D17   D(24,2,3,25)          -56.0542         estimate D2E/DX2                !
 ! D18   D(24,2,3,26)         -171.4506         estimate D2E/DX2                !
 ! D19   D(2,3,4,5)            161.5971         estimate D2E/DX2                !
 ! D20   D(2,3,4,18)           -66.2844         estimate D2E/DX2                !
 ! D21   D(2,3,4,27)            49.9168         estimate D2E/DX2                !
 ! D22   D(25,3,4,5)           -76.3837         estimate D2E/DX2                !
 ! D23   D(25,3,4,18)           55.7349         estimate D2E/DX2                !
 ! D24   D(25,3,4,27)          171.936          estimate D2E/DX2                !
 ! D25   D(26,3,4,5)            40.1918         estimate D2E/DX2                !
 ! D26   D(26,3,4,18)          172.3104         estimate D2E/DX2                !
 ! D27   D(26,3,4,27)          -71.4885         estimate D2E/DX2                !
 ! D28   D(3,4,5,6)            118.7898         estimate D2E/DX2                !
 ! D29   D(3,4,5,28)           -60.0281         estimate D2E/DX2                !
 ! D30   D(18,4,5,6)            -6.1059         estimate D2E/DX2                !
 ! D31   D(18,4,5,28)          175.0762         estimate D2E/DX2                !
 ! D32   D(27,4,5,6)          -125.4027         estimate D2E/DX2                !
 ! D33   D(27,4,5,28)           55.7794         estimate D2E/DX2                !
 ! D34   D(3,4,18,17)         -111.7781         estimate D2E/DX2                !
 ! D35   D(3,4,18,19)           70.9537         estimate D2E/DX2                !
 ! D36   D(5,4,18,17)           11.1709         estimate D2E/DX2                !
 ! D37   D(5,4,18,19)         -166.0974         estimate D2E/DX2                !
 ! D38   D(27,4,18,17)         129.5241         estimate D2E/DX2                !
 ! D39   D(27,4,18,19)         -47.7441         estimate D2E/DX2                !
 ! D40   D(4,5,6,7)           -178.5311         estimate D2E/DX2                !
 ! D41   D(4,5,6,15)             1.137          estimate D2E/DX2                !
 ! D42   D(28,5,6,7)             0.2313         estimate D2E/DX2                !
 ! D43   D(28,5,6,15)          179.8994         estimate D2E/DX2                !
 ! D44   D(5,6,7,8)           -178.7642         estimate D2E/DX2                !
 ! D45   D(5,6,7,29)             1.2761         estimate D2E/DX2                !
 ! D46   D(15,6,7,8)             1.5429         estimate D2E/DX2                !
 ! D47   D(15,6,7,29)         -178.4168         estimate D2E/DX2                !
 ! D48   D(5,6,15,14)          178.0894         estimate D2E/DX2                !
 ! D49   D(5,6,15,16)           -1.2835         estimate D2E/DX2                !
 ! D50   D(7,6,15,14)           -2.2543         estimate D2E/DX2                !
 ! D51   D(7,6,15,16)          178.3727         estimate D2E/DX2                !
 ! D52   D(6,7,8,9)             -0.1411         estimate D2E/DX2                !
 ! D53   D(6,7,8,30)           179.7053         estimate D2E/DX2                !
 ! D54   D(29,7,8,9)           179.8188         estimate D2E/DX2                !
 ! D55   D(29,7,8,30)           -0.3347         estimate D2E/DX2                !
 ! D56   D(7,8,9,10)           179.6132         estimate D2E/DX2                !
 ! D57   D(7,8,9,14)            -0.4893         estimate D2E/DX2                !
 ! D58   D(30,8,9,10)           -0.2353         estimate D2E/DX2                !
 ! D59   D(30,8,9,14)          179.6622         estimate D2E/DX2                !
 ! D60   D(8,9,10,11)         -179.8583         estimate D2E/DX2                !
 ! D61   D(8,9,10,31)            0.2075         estimate D2E/DX2                !
 ! D62   D(14,9,10,11)           0.2423         estimate D2E/DX2                !
 ! D63   D(14,9,10,31)        -179.6918         estimate D2E/DX2                !
 ! D64   D(8,9,14,13)          179.5691         estimate D2E/DX2                !
 ! D65   D(8,9,14,15)           -0.3037         estimate D2E/DX2                !
 ! D66   D(10,9,14,13)          -0.5341         estimate D2E/DX2                !
 ! D67   D(10,9,14,15)         179.593          estimate D2E/DX2                !
 ! D68   D(9,10,11,12)           0.1581         estimate D2E/DX2                !
 ! D69   D(9,10,11,32)        -179.8677         estimate D2E/DX2                !
 ! D70   D(31,10,11,12)       -179.9069         estimate D2E/DX2                !
 ! D71   D(31,10,11,32)          0.0673         estimate D2E/DX2                !
 ! D72   D(10,11,12,13)         -0.2487         estimate D2E/DX2                !
 ! D73   D(10,11,12,33)        179.8446         estimate D2E/DX2                !
 ! D74   D(32,11,12,13)        179.7768         estimate D2E/DX2                !
 ! D75   D(32,11,12,33)         -0.1299         estimate D2E/DX2                !
 ! D76   D(11,12,13,14)         -0.0614         estimate D2E/DX2                !
 ! D77   D(11,12,13,34)        179.9926         estimate D2E/DX2                !
 ! D78   D(33,12,13,14)        179.8478         estimate D2E/DX2                !
 ! D79   D(33,12,13,34)         -0.0982         estimate D2E/DX2                !
 ! D80   D(12,13,14,9)           0.4522         estimate D2E/DX2                !
 ! D81   D(12,13,14,15)       -179.6814         estimate D2E/DX2                !
 ! D82   D(34,13,14,9)        -179.6063         estimate D2E/DX2                !
 ! D83   D(34,13,14,15)          0.2601         estimate D2E/DX2                !
 ! D84   D(9,14,15,6)            1.66           estimate D2E/DX2                !
 ! D85   D(9,14,15,16)        -178.9044         estimate D2E/DX2                !
 ! D86   D(13,14,15,6)        -178.2059         estimate D2E/DX2                !
 ! D87   D(13,14,15,16)          1.2297         estimate D2E/DX2                !
 ! D88   D(6,15,16,17)           3.2313         estimate D2E/DX2                !
 ! D89   D(6,15,16,35)         178.0414         estimate D2E/DX2                !
 ! D90   D(14,15,16,17)       -176.1536         estimate D2E/DX2                !
 ! D91   D(14,15,16,35)         -1.3435         estimate D2E/DX2                !
 ! D92   D(15,16,17,18)          1.4628         estimate D2E/DX2                !
 ! D93   D(15,16,17,36)        174.9645         estimate D2E/DX2                !
 ! D94   D(35,16,17,18)       -173.9015         estimate D2E/DX2                !
 ! D95   D(35,16,17,36)         -0.3998         estimate D2E/DX2                !
 ! D96   D(16,17,18,4)          -9.6506         estimate D2E/DX2                !
 ! D97   D(16,17,18,19)        167.6999         estimate D2E/DX2                !
 ! D98   D(36,17,18,4)         177.1116         estimate D2E/DX2                !
 ! D99   D(36,17,18,19)         -5.5379         estimate D2E/DX2                !
 ! D100  D(4,18,19,37)        -151.896          estimate D2E/DX2                !
 ! D101  D(4,18,19,38)          -0.4763         estimate D2E/DX2                !
 ! D102  D(17,18,19,37)         30.5132         estimate D2E/DX2                !
 ! D103  D(17,18,19,38)       -178.067          estimate D2E/DX2                !
 --------------------------------------------------------------------------------
 Trust Radius=3.00D-01 FncErr=1.00D-07 GrdErr=1.00D-06 EigMax=2.50D+02 EigMin=1.00D-04
 Number of steps in this run=    222 maximum allowed number of steps=    228.
 GradGradGradGradGradGradGradGradGradGradGradGradGradGradGradGradGradGrad

                          Input orientation:                          
 ---------------------------------------------------------------------
 Center     Atomic      Atomic             Coordinates (Angstroms)
 Number     Number       Type             X           Y           Z
 ---------------------------------------------------------------------
      1          6           0        0.764980    0.035880    0.056290
      2          6           0        2.266350   -0.016100    0.034700
      3          6           0        2.906380    0.431980    1.341620
      4          6           0        4.454740    0.380240    1.278200
      5          6           0        4.927310    1.255470    2.408400
      6          6           0        5.659810    1.053830    3.517030
      7          6           0        5.841010    2.240120    4.368300
      8          6           0        6.566330    2.201310    5.492690
      9          6           0        7.215520    0.958430    5.928870
     10          6           0        7.971100    0.966430    7.107110
     11          6           0        8.606440   -0.192400    7.554860
     12          6           0        8.498910   -1.368560    6.833490
     13          6           0        7.751420   -1.386300    5.666980
     14          6           0        7.090970   -0.235780    5.188810
     15          6           0        6.266250   -0.220110    3.931780
     16          6           0        6.164610   -1.390940    3.281180
     17          6           0        5.564280   -1.785650    2.066300
     18          6           0        4.909150   -1.068040    1.149790
     19          7           0        4.681940   -1.723180   -0.046560
     20          1           0        0.396240   -0.314550   -0.912310
     21          1           0        0.399120    1.044560    0.246310
     22          1           0        0.392760   -0.645340    0.827610
     23          1           0        2.675620    0.570790   -0.796400
     24          1           0        2.469000   -1.069280   -0.145890
     25          1           0        2.551520   -0.202730    2.166390
     26          1           0        2.557470    1.449000    1.570890
     27          1           0        4.812200    0.892700    0.373880
     28          1           0        4.553830    2.274140    2.262780
     29          1           0        5.373250    3.179510    4.080530
     30          1           0        6.685340    3.094590    6.096940
     31          1           0        8.069780    1.878720    7.687560
     32          1           0        9.188230   -0.180060    8.469090
     33          1           0        8.985730   -2.282520    7.159530
     34          1           0        7.716630   -2.343560    5.161320
     35          1           0        6.673750   -2.269320    3.649090
     36          1           0        5.770480   -2.828530    1.825880
     37          1           0        4.566780   -2.732120   -0.017840
     38          1           0        4.216780   -1.227560   -0.795310
 ---------------------------------------------------------------------
                    Distance matrix (angstroms):
                    1          2          3          4          5
     1  C    0.000000
     2  C    1.502425   0.000000
     3  C    2.528747   1.522647   0.000000
     4  C    3.902048   2.548024   1.550522   0.000000
     5  C    4.934046   3.785769   2.429056   1.505557   0.000000
     6  C    6.080486   4.978649   3.563774   2.630262   1.343977
     7  C    7.015567   6.053826   4.587179   3.863886   2.376045
     8  C    8.240097   7.293586   5.810090   5.053418   3.618542
     9  C    8.771987   7.757914   6.315750   5.439204   4.209257
    10  C   10.124631   9.139394   7.692717   6.832613   5.605897
    11  C   10.852150   9.837715   8.454873   7.547251   6.489867
    12  C   10.378659   9.321883   8.042324   7.090477   6.262849
    13  C    9.072639   7.980352   6.744575   5.766295   5.056964
    14  C    8.150749   7.063290   5.723423   4.756265   3.825694
    15  C    6.734161   5.588207   4.292188   3.268559   2.508143
    16  C    6.449165   5.256068   4.207255   3.173746   3.048958
    17  C    5.512839   4.258527   3.536591   2.557980   3.125888
    18  C    4.425893   3.055224   2.509571   1.523316   2.642561
    19  N    4.295049   2.959020   3.118392   2.496194   3.867737
    20  H    1.094055   2.117360   3.455186   4.663956   5.832896
    21  H    1.089677   2.157852   2.803803   4.237236   5.022312
    22  H    1.094323   2.129551   2.782644   4.213612   5.164699
    23  H    2.159573   1.096663   2.154913   2.739625   3.976133
    24  H    2.041063   1.087597   2.158186   2.841180   4.239357
    25  H    2.775100   2.158762   1.099558   2.179675   2.798088
    26  H    2.739332   2.142697   1.099378   2.197168   2.520916
    27  H    4.149096   2.724392   2.186535   1.099176   2.069813
    28  H    4.922783   3.929644   2.637457   2.136837   1.094706
    29  H    6.878450   6.019426   4.597390   4.066033   2.587820
    30  H    8.994210   8.121245   6.631975   5.963516   4.480888
    31  H   10.723453   9.789607   8.308111   7.509584   6.175199
    32  H   11.906846  10.912298   9.520350   8.627211   7.546400
    33  H   11.109083  10.052359   8.841667   7.887345   7.180625
    34  H    8.946983   7.836125   6.740344   5.756530   5.320892
    35  H    7.289425   6.129110   5.178273   4.191097   4.124743
    36  H    6.032522   4.837046   4.366750   3.511030   4.210620
    37  H    4.703297   3.559706   3.823165   3.373286   4.681613
    38  H    3.773119   2.441460   3.006275   2.634595   4.115100
                    6          7          8          9         10
     6  C    0.000000
     7  C    1.471318   0.000000
     8  C    2.457991   1.338599   0.000000
     9  C    2.871638   2.442823   1.468486   0.000000
    10  C    4.270641   3.696032   2.470761   1.399719   0.000000
    11  C    5.151678   4.870208   3.760910   2.429591   1.395358
    12  C    4.992732   5.115092   4.275112   2.807189   2.409487
    13  C    3.866698   4.299670   3.782296   2.419408   2.767232
    14  C    2.550718   2.892355   2.511374   1.410439   2.428953
    15  C    1.470616   2.534583   2.896509   2.505681   3.794353
    16  C    2.507459   3.804096   4.237501   3.692454   4.843381
    17  C    3.190045   4.645709   5.351645   5.017571   6.227077
    18  C    3.266443   4.708619   5.682928   5.680275   7.000305
    19  N    4.622466   6.045013   7.045271   7.022523   8.320311
    20  H    7.014035   8.003543   9.242488   9.742936  11.105427
    21  H    6.194558   6.930680   8.179062   8.874808  10.218198
    22  H    6.153208   7.109556   8.244959   8.668621   9.973022
    23  H    5.267295   6.283350   7.572904   8.123436   9.521770
    24  H    5.301495   6.534561   7.699250   7.971435   9.328624
    25  H    3.614504   4.651523   5.741287   6.103888   7.426271
    26  H    3.683495   4.385545   5.658396   6.397662   7.758221
    27  H    3.259417   4.339284   5.567014   6.052948   7.437773
    28  H    2.070143   2.468037   3.806282   4.717616   6.070863
    29  H    2.217693   1.088147   2.091533   3.426881   4.561440
    30  H    3.445627   2.105044   1.085003   2.207378   2.683782
    31  H    4.886893   4.014413   2.679903   2.160945   1.085787
    32  H    6.204444   5.820449   4.626472   3.411812   2.156579
    33  H    5.954896   6.175314   5.360651   3.892547   3.404100
    34  H    4.298425   5.015671   4.699877   3.426862   3.847972
    35  H    3.476901   4.641742   4.837038   3.988644   4.910305
    36  H    4.236149   5.670986   6.275202   5.767472   6.865555
    37  H    5.293717   6.751671   7.661780   7.483271   8.719724
    38  H    5.087568   6.428514   7.537671   7.680208   9.019798
                   11         12         13         14         15
    11  C    0.000000
    12  C    1.383940   0.000000
    13  C    2.391767   1.385569   0.000000
    14  C    2.810111   2.443452   1.410155   0.000000
    15  C    4.313231   3.837138   2.564498   1.503507   0.000000
    16  C    5.065903   4.250690   2.865315   2.414868   1.343300
    17  C    6.474371   5.613566   4.231780   3.805647   2.534501
    18  C    7.447256   6.729126   5.346475   4.665477   3.209388
    19  N    8.690603   7.875919   6.494593   5.951881   4.538331
    20  H   11.794714  11.258846   9.926448   9.058106   7.611251
    21  H   11.059162  10.715441   9.452463   8.417151   7.043103
    22  H   10.626645  10.114510   8.838461   8.003363   6.656919
    23  H   10.271350   9.792191   8.448031   7.481217   5.989477
    24  H    9.886285   9.228279   7.860911   7.107486   5.636274
    25  H    8.105416   7.649342   6.379179   5.453689   4.112921
    26  H    8.665571   8.422251   7.196805   6.039905   4.702635
    27  H    8.193911   7.773782   6.469139   5.445164   4.001407
    28  H    7.107290   7.051547   5.933968   4.615022   3.455319
    29  H    5.821878   6.167129   5.386941   3.980333   3.518095
    30  H    4.076820   4.873525   4.625988   3.475716   3.981305
    31  H    2.143630   3.385028   3.852850   3.416567   4.665157
    32  H    1.083720   2.136090   3.372130   3.893821   5.396921
    33  H    2.160729   1.085642   2.134113   3.415113   4.697603
    34  H    3.338905   2.087759   1.083166   2.198850   2.850335
    35  H    4.827414   3.779283   2.452137   2.584588   2.108372
    36  H    6.914699   5.886595   4.556117   4.446948   3.388873
    37  H    8.950688   8.016337   6.653596   6.301782   4.979748
    38  H    9.490311   8.749578   7.367501   6.712249   5.249825
                   16         17         18         19         20
    16  C    0.000000
    17  C    1.411427   0.000000
    18  C    2.494648   1.335721   0.000000
    19  N    3.658216   2.290547   1.382782   0.000000
    20  H    7.212355   6.143687   5.018601   4.593581   0.000000
    21  H    6.955787   6.164522   5.061593   5.107710   1.785942
    22  H    6.315867   5.438684   4.547555   4.508101   1.771089
    23  H    5.713851   4.700236   3.385569   3.138452   2.448027
    24  H    5.050327   3.871399   2.762810   2.309666   2.335241
    25  H    3.963460   3.404758   2.709365   3.427478   3.759804
    26  H    4.899164   4.444018   3.470333   4.146353   3.734609
    27  H    3.936549   3.256297   2.110909   2.652653   4.755254
    28  H    4.130928   4.188258   3.540504   4.618228   5.836786
    29  H    4.706827   5.361570   5.181342   6.445708   7.868134
    30  H    5.321620   6.428031   6.704971   8.060218  10.015218
    31  H    5.808316   7.162660   7.836799   9.179747  11.732494
    32  H    6.125595   7.530382   8.524740   9.757262  12.857987
    33  H    4.878036   6.155826   7.362774   8.412087  11.950182
    34  H    2.617475   3.810908   5.059770   6.059392   9.725943
    35  H    1.079876   1.992507   3.286851   4.233604   8.002164
    36  H    2.083243   1.089917   2.073237   2.431615   6.534542
    37  H    3.903250   2.496888   2.061490   1.015897   4.902869
    38  H    4.520897   3.211858   2.070806   1.011256   3.929860
                   21         22         23         24         25
    21  H    0.000000
    22  H    1.787096   0.000000
    23  H    2.548363   3.054150   0.000000
    24  H    2.984383   2.331995   1.776425   0.000000
    25  H    3.142493   2.578465   3.064614   2.470700   0.000000
    26  H    2.564480   3.102369   2.527701   3.049081   1.755810
    27  H    4.417534   4.701371   2.457266   3.100018   3.086055
    28  H    4.779083   5.281816   3.973368   4.618080   3.186443
    29  H    6.633342   7.072217   6.153623   6.659543   4.802670
    30  H    8.828876   9.019395   8.364542   8.607454   6.588627
    31  H   10.719471  10.600303  10.138305  10.070868   8.078796
    32  H   12.098027  11.660574  11.350206  10.961599   9.152620
    33  H   11.514858  10.798736  10.547781   9.864526   8.405714
    34  H    9.443656   8.677791   8.330645   7.571518   6.342801
    35  H    7.869669   7.074524   6.619188   5.789809   4.843756
    36  H    6.807891   5.889205   5.292437   4.228783   4.168030
    37  H    5.630495   4.742560   3.884824   2.679947   3.902557
    38  H    4.563116   4.194756   2.368383   1.871239   3.548948
                   26         27         28         29         30
    26  H    0.000000
    27  H    2.612683   0.000000
    28  H    2.268264   2.354374   0.000000
    29  H    4.149889   4.391302   2.189831   0.000000
    30  H    6.342902   6.411738   4.462875   2.407218   0.000000
    31  H    8.245233   8.066844   6.476612   4.687643   2.434150
    32  H    9.705976   9.264603   8.125210   6.715671   4.755511
    33  H    9.299444   8.575863   8.023905   7.236299   5.944258
    34  H    7.341092   6.467509   6.303014   6.096215   5.613592
    35  H    5.923561   4.918408   5.201821   5.618469   5.896069
    36  H    5.355905   4.107817   5.263873   6.429447   7.359502
    37  H    4.903382   3.654175   5.501276   7.238398   8.708007
    38  H    3.939059   2.493398   4.661268   6.673343   8.501640
                   31         32         33         34         35
    31  H    0.000000
    32  H    2.469877   0.000000
    33  H    4.293448   2.485215   0.000000
    34  H    4.932976   4.217544   2.367949   0.000000
    35  H    5.955197   5.824089   4.203405   1.838464   0.000000
    36  H    7.861570   7.926389   6.251702   3.892025   2.110144
    37  H    9.638674   9.994938   8.440610   6.074227   4.254396
    38  H    9.821083  10.566063   9.334629   6.998275   5.184077
                   36         37         38
    36  H    0.000000
    37  H    2.203972   0.000000
    38  H    3.442053   1.729353   0.000000
 Stoichiometry    C18H19N
 Framework group  C1[X(C18H19N)]
 Deg. of freedom   108
 Full point group                 C1      NOp   1
 Largest Abelian subgroup         C1      NOp   1
 Largest concise Abelian subgroup C1      NOp   1
                         Standard orientation:                         
 ---------------------------------------------------------------------
 Center     Atomic      Atomic             Coordinates (Angstroms)
 Number     Number       Type             X           Y           Z
 ---------------------------------------------------------------------
      1          6           0        5.587199   -0.883590    1.315046
      2          6           0        4.648622   -0.350304    0.270078
      3          6           0        3.214708   -0.833005    0.441381
      4          6           0        2.278305   -0.276135   -0.661870
      5          6           0        1.067054   -1.170107   -0.642250
      6          6           0       -0.242977   -0.981390   -0.408840
      7          6           0       -1.068524   -2.197651   -0.471792
      8          6           0       -2.393716   -2.164975   -0.285657
      9          6           0       -3.084899   -0.900110   -0.004881
     10          6           0       -4.472981   -0.912269    0.174825
     11          6           0       -5.168161    0.268082    0.440380
     12          6           0       -4.489939    1.471373    0.526379
     13          6           0       -3.115578    1.492665    0.351793
     14          6           0       -2.380608    0.318321    0.088600
     15          6           0       -0.888965    0.302970   -0.099275
     16          6           0       -0.269154    1.488404    0.023340
     17          6           0        1.066182    1.915235   -0.140417
     18          6           0        2.155009    1.234350   -0.507843
     19          7           0        3.250311    2.017392   -0.822874
     20          1           0        6.583419   -0.475082    1.121079
     21          1           0        5.627239   -1.972467    1.303143
     22          1           0        5.263552   -0.534885    2.300541
     23          1           0        4.999011   -0.587475   -0.741676
     24          1           0        4.707516    0.725452    0.418900
     25          1           0        2.836720   -0.532904    1.429355
     26          1           0        3.213372   -1.932377    0.438157
     27          1           0        2.721514   -0.445797   -1.653318
     28          1           0        1.369512   -2.200375   -0.855433
     29          1           0       -0.592940   -3.155095   -0.674732
     30          1           0       -2.975976   -3.078708   -0.343060
     31          1           0       -5.024868   -1.845093    0.110061
     32          1           0       -6.242640    0.251545    0.580633
     33          1           0       -5.008291    2.403412    0.729440
     34          1           0       -2.659832    2.471835    0.434075
     35          1           0       -0.835596    2.385950    0.222558
     36          1           0        1.168324    2.995139   -0.034148
     37          1           0        3.348931    2.906685   -0.341751
     38          1           0        4.099400    1.567311   -1.137700
 ---------------------------------------------------------------------
 Rotational constants (GHZ):           0.9408514           0.1915887           0.1674206
 Standard basis: 6-31G(2df,p) (6D, 7F)
 There are   684 symmetry adapted cartesian basis functions of A   symmetry.
 There are   627 symmetry adapted basis functions of A   symmetry.
   627 basis functions,   969 primitive gaussians,   684 cartesian basis functions
    67 alpha electrons       67 beta electrons
       nuclear repulsion energy      1322.7287428833 Hartrees.
 NAtoms=   38 NActive=   38 NUniq=   38 SFac= 1.00D+00 NAtFMM=   60 NAOKFM=F Big=F
 Integral buffers will be    131072 words long.
 Raffenetti 2 integral format.
 Two-electron integral symmetry is turned on.
 One-electron integrals computed using PRISM.
 PrsmSu:  requested number of processors reduced to:  12 ShMem   1 Linda.
 NBasis=   627 RedAO= T EigKep=  7.73D-05  NBF=   627
 NBsUse=   627 1.00D-06 EigRej= -1.00D+00 NBFU=   627
 ExpMin= 1.61D-01 ExpMax= 4.17D+03 ExpMxC= 6.27D+02 IAcc=3 IRadAn=         5 AccDes= 0.00D+00
 Harris functional with IExCor=  402 and IRadAn=       5 diagonalized for initial guess.
 HarFok:  IExCor=  402 AccDes= 0.00D+00 IRadAn=         5 IDoV= 1 UseB2=F ITyADJ=14
 ICtDFT=  3500011 ScaDFX=  1.000000  1.000000  1.000000  1.000000
 FoFCou: FMM=F IPFlag=           0 FMFlag=      100000 FMFlg1=           0
         NFxFlg=           0 DoJE=T BraDBF=F KetDBF=T FulRan=T
         wScrn=  0.000000 ICntrl=       500 IOpCl=  0 I1Cent=   200000004 NGrid=           0
         NMat0=    1 NMatS0=      1 NMatT0=    0 NMatD0=    1 NMtDS0=    0 NMtDT0=    0
 Petite list used in FoFCou.
 Requested convergence on RMS density matrix=1.00D-08 within 128 cycles.
 Requested convergence on MAX density matrix=1.00D-06.
 Requested convergence on             energy=1.00D-06.
 No special actions if energy rises.
 Integral accuracy reduced to 1.0D-05 until final iterations.
 Initial convergence to 1.0D-05 achieved.  Increase integral accuracy.
 SCF Done:  E(RB3LYP) =  -752.104473655     A.U. after   14 cycles
            NFock= 14  Conv=0.71D-08     -V/T= 2.0080

 **********************************************************************

            Population analysis using the SCF density.

 **********************************************************************

 Orbital symmetries:
       Occupied  (A) (A) (A) (A) (A) (A) (A) (A) (A) (A) (A) (A)
                 (A) (A) (A) (A) (A) (A) (A) (A) (A) (A) (A) (A)
                 (A) (A) (A) (A) (A) (A) (A) (A) (A) (A) (A) (A)
                 (A) (A) (A) (A) (A) (A) (A) (A) (A) (A) (A) (A)
                 (A) (A) (A) (A) (A) (A) (A) (A) (A) (A) (A) (A)
                 (A) (A) (A) (A) (A) (A) (A)
       Virtual   (A) (A) (A) (A) (A) (A) (A) (A) (A) (A) (A) (A)
                 (A) (A) (A) (A) (A) (A) (A) (A) (A) (A) (A) (A)
                 (A) (A) (A) (A) (A) (A) (A) (A) (A) (A) (A) (A)
                 (A) (A) (A) (A) (A) (A) (A) (A) (A) (A) (A) (A)
                 (A) (A) (A) (A) (A) (A) (A) (A) (A) (A) (A) (A)
                 (A) (A) (A) (A) (A) (A) (A) (A) (A) (A) (A) (A)
                 (A) (A) (A) (A) (A) (A) (A) (A) (A) (A) (A) (A)
                 (A) (A) (A) (A) (A) (A) (A) (A) (A) (A) (A) (A)
                 (A) (A) (A) (A) (A) (A) (A) (A) (A) (A) (A) (A)
                 (A) (A) (A) (A) (A) (A) (A) (A) (A) (A) (A) (A)
                 (A) (A) (A) (A) (A) (A) (A) (A) (A) (A) (A) (A)
                 (A) (A) (A) (A) (A) (A) (A) (A) (A) (A) (A) (A)
                 (A) (A) (A) (A) (A) (A) (A) (A) (A) (A) (A) (A)
                 (A) (A) (A) (A) (A) (A) (A) (A) (A) (A) (A) (A)
                 (A) (A) (A) (A) (A) (A) (A) (A) (A) (A) (A) (A)
                 (A) (A) (A) (A) (A) (A) (A) (A) (A) (A) (A) (A)
                 (A) (A) (A) (A) (A) (A) (A) (A) (A) (A) (A) (A)
                 (A) (A) (A) (A) (A) (A) (A) (A) (A) (A) (A) (A)
                 (A) (A) (A) (A) (A) (A) (A) (A) (A) (A) (A) (A)
                 (A) (A) (A) (A) (A) (A) (A) (A) (A) (A) (A) (A)
                 (A) (A) (A) (A) (A) (A) (A) (A) (A) (A) (A) (A)
                 (A) (A) (A) (A) (A) (A) (A) (A) (A) (A) (A) (A)
                 (A) (A) (A) (A) (A) (A) (A) (A) (A) (A) (A) (A)
                 (A) (A) (A) (A) (A) (A) (A) (A) (A) (A) (A) (A)
                 (A) (A) (A) (A) (A) (A) (A) (A) (A) (A) (A) (A)
                 (A) (A) (A) (A) (A) (A) (A) (A) (A) (A) (A) (A)
                 (A) (A) (A) (A) (A) (A) (A) (A) (A) (A) (A) (A)
                 (A) (A) (A) (A) (A) (A) (A) (A) (A) (A) (A) (A)
                 (A) (A) (A) (A) (A) (A) (A) (A) (A) (A) (A) (A)
                 (A) (A) (A) (A) (A) (A) (A) (A) (A) (A) (A) (A)
                 (A) (A) (A) (A) (A) (A) (A) (A) (A) (A) (A) (A)
                 (A) (A) (A) (A) (A) (A) (A) (A) (A) (A) (A) (A)
                 (A) (A) (A) (A) (A) (A) (A) (A) (A) (A) (A) (A)
                 (A) (A) (A) (A) (A) (A) (A) (A) (A) (A) (A) (A)
                 (A) (A) (A) (A) (A) (A) (A) (A) (A) (A) (A) (A)
                 (A) (A) (A) (A) (A) (A) (A) (A) (A) (A) (A) (A)
                 (A) (A) (A) (A) (A) (A) (A) (A) (A) (A) (A) (A)
                 (A) (A) (A) (A) (A) (A) (A) (A) (A) (A) (A) (A)
                 (A) (A) (A) (A) (A) (A) (A) (A) (A) (A) (A) (A)
                 (A) (A) (A) (A) (A) (A) (A) (A) (A) (A) (A) (A)
                 (A) (A) (A) (A) (A) (A) (A) (A) (A) (A) (A) (A)
                 (A) (A) (A) (A) (A) (A) (A) (A) (A) (A) (A) (A)
                 (A) (A) (A) (A) (A) (A) (A) (A) (A) (A) (A) (A)
                 (A) (A) (A) (A) (A) (A) (A) (A) (A) (A) (A) (A)
                 (A) (A) (A) (A) (A) (A) (A) (A) (A) (A) (A) (A)
                 (A) (A) (A) (A) (A) (A) (A) (A) (A) (A) (A) (A)
                 (A) (A) (A) (A) (A) (A) (A) (A)
 The electronic state is 1-A.
 Alpha  occ. eigenvalues --  -14.34694 -10.22843 -10.20432 -10.18374 -10.18358
 Alpha  occ. eigenvalues --  -10.18212 -10.18065 -10.17630 -10.17486 -10.17419
 Alpha  occ. eigenvalues --  -10.17415 -10.17300 -10.17119 -10.16987 -10.16891
 Alpha  occ. eigenvalues --  -10.16803 -10.16775 -10.16684 -10.15812  -0.92789
 Alpha  occ. eigenvalues --   -0.85629  -0.82670  -0.80660  -0.78762  -0.76824
 Alpha  occ. eigenvalues --   -0.74810  -0.72953  -0.70974  -0.68053  -0.64042
 Alpha  occ. eigenvalues --   -0.63868  -0.59711  -0.59595  -0.58141  -0.55624
 Alpha  occ. eigenvalues --   -0.53182  -0.51645  -0.51159  -0.48680  -0.48355
 Alpha  occ. eigenvalues --   -0.46673  -0.45626  -0.44275  -0.43647  -0.42298
 Alpha  occ. eigenvalues --   -0.41748  -0.41346  -0.40054  -0.39366  -0.38579
 Alpha  occ. eigenvalues --   -0.37790  -0.37234  -0.35929  -0.35641  -0.34837
 Alpha  occ. eigenvalues --   -0.34305  -0.34037  -0.32849  -0.32456  -0.32131
 Alpha  occ. eigenvalues --   -0.31104  -0.30558  -0.28909  -0.25136  -0.23694
 Alpha  occ. eigenvalues --   -0.20580  -0.15643
 Alpha virt. eigenvalues --   -0.04881  -0.00702   0.02777   0.04329   0.07173
 Alpha virt. eigenvalues --    0.08711   0.09493   0.09669   0.10516   0.11295
 Alpha virt. eigenvalues --    0.11714   0.13863   0.14252   0.14370   0.14678
 Alpha virt. eigenvalues --    0.15931   0.16788   0.17062   0.17796   0.18029
 Alpha virt. eigenvalues --    0.18336   0.19388   0.19513   0.20930   0.22517
 Alpha virt. eigenvalues --    0.22712   0.23604   0.24436   0.25564   0.25935
 Alpha virt. eigenvalues --    0.26138   0.27421   0.28136   0.31171   0.31886
 Alpha virt. eigenvalues --    0.32542   0.34034   0.35171   0.36948   0.38409
 Alpha virt. eigenvalues --    0.40268   0.40767   0.42507   0.43742   0.45189
 Alpha virt. eigenvalues --    0.45945   0.46590   0.47362   0.47752   0.48182
 Alpha virt. eigenvalues --    0.49376   0.50052   0.50582   0.50850   0.51165
 Alpha virt. eigenvalues --    0.51710   0.51906   0.52013   0.52558   0.52805
 Alpha virt. eigenvalues --    0.53404   0.53504   0.54260   0.55350   0.55643
 Alpha virt. eigenvalues --    0.56354   0.56859   0.56951   0.57369   0.59207
 Alpha virt. eigenvalues --    0.59863   0.60100   0.60702   0.60763   0.61514
 Alpha virt. eigenvalues --    0.62201   0.63275   0.63864   0.66072   0.66150
 Alpha virt. eigenvalues --    0.67856   0.69009   0.70054   0.71230   0.71928
 Alpha virt. eigenvalues --    0.72534   0.72726   0.73440   0.73732   0.74341
 Alpha virt. eigenvalues --    0.74774   0.74864   0.75700   0.75740   0.76192
 Alpha virt. eigenvalues --    0.77097   0.77306   0.77557   0.77798   0.78288
 Alpha virt. eigenvalues --    0.78540   0.79495   0.80031   0.80978   0.81810
 Alpha virt. eigenvalues --    0.82044   0.82241   0.83465   0.83846   0.84756
 Alpha virt. eigenvalues --    0.85043   0.86223   0.86780   0.87465   0.87977
 Alpha virt. eigenvalues --    0.88434   0.89064   0.89243   0.89734   0.90385
 Alpha virt. eigenvalues --    0.91384   0.92525   0.92795   0.94642   0.94879
 Alpha virt. eigenvalues --    0.95492   0.96084   0.96715   0.97809   0.99499
 Alpha virt. eigenvalues --    0.99740   1.01178   1.02274   1.03483   1.05628
 Alpha virt. eigenvalues --    1.06956   1.09124   1.09839   1.10267   1.11959
 Alpha virt. eigenvalues --    1.14425   1.16169   1.16510   1.16938   1.19063
 Alpha virt. eigenvalues --    1.20481   1.21374   1.23594   1.24859   1.26296
 Alpha virt. eigenvalues --    1.27714   1.28332   1.28965   1.30398   1.31092
 Alpha virt. eigenvalues --    1.31485   1.32094   1.33530   1.34281   1.35573
 Alpha virt. eigenvalues --    1.36864   1.37025   1.39123   1.40050   1.40355
 Alpha virt. eigenvalues --    1.41419   1.42192   1.42606   1.43043   1.43962
 Alpha virt. eigenvalues --    1.45020   1.46567   1.47115   1.47719   1.48536
 Alpha virt. eigenvalues --    1.49102   1.50134   1.53063   1.53476   1.54376
 Alpha virt. eigenvalues --    1.55890   1.56375   1.56974   1.58045   1.58500
 Alpha virt. eigenvalues --    1.59554   1.59951   1.60681   1.61386   1.62798
 Alpha virt. eigenvalues --    1.65038   1.65455   1.67022   1.68009   1.69271
 Alpha virt. eigenvalues --    1.70742   1.70981   1.71693   1.74351   1.74856
 Alpha virt. eigenvalues --    1.75105   1.78040   1.78193   1.80964   1.81226
 Alpha virt. eigenvalues --    1.81947   1.82212   1.83517   1.84402   1.85387
 Alpha virt. eigenvalues --    1.87479   1.90083   1.91491   1.91811   1.92618
 Alpha virt. eigenvalues --    1.94173   1.94926   1.95178   1.96799   1.97949
 Alpha virt. eigenvalues --    1.99246   2.00265   2.03254   2.05733   2.06755
 Alpha virt. eigenvalues --    2.07327   2.09134   2.10516   2.10784   2.12073
 Alpha virt. eigenvalues --    2.13999   2.15995   2.16322   2.17150   2.18958
 Alpha virt. eigenvalues --    2.19449   2.21533   2.22134   2.22469   2.23280
 Alpha virt. eigenvalues --    2.24802   2.25977   2.26604   2.27235   2.28148
 Alpha virt. eigenvalues --    2.28631   2.30286   2.30457   2.33409   2.36745
 Alpha virt. eigenvalues --    2.36852   2.38705   2.39208   2.39443   2.42794
 Alpha virt. eigenvalues --    2.45920   2.47101   2.48559   2.50312   2.51877
 Alpha virt. eigenvalues --    2.52626   2.59595   2.61076   2.63308   2.65120
 Alpha virt. eigenvalues --    2.66066   2.66574   2.69004   2.71265   2.72095
 Alpha virt. eigenvalues --    2.74646   2.74861   2.75066   2.76440   2.78213
 Alpha virt. eigenvalues --    2.79275   2.80484   2.81043   2.82294   2.83016
 Alpha virt. eigenvalues --    2.83291   2.84010   2.84786   2.85407   2.86347
 Alpha virt. eigenvalues --    2.87459   2.88110   2.89012   2.90030   2.91306
 Alpha virt. eigenvalues --    2.91770   2.92670   2.93539   2.93693   2.94818
 Alpha virt. eigenvalues --    2.95657   2.96900   2.97930   2.98929   2.99404
 Alpha virt. eigenvalues --    3.00851   3.01935   3.03069   3.03959   3.04848
 Alpha virt. eigenvalues --    3.05377   3.06992   3.07448   3.08750   3.09516
 Alpha virt. eigenvalues --    3.10034   3.10561   3.11594   3.12204   3.12383
 Alpha virt. eigenvalues --    3.13110   3.14398   3.15122   3.16738   3.17236
 Alpha virt. eigenvalues --    3.17910   3.18850   3.19622   3.20156   3.20756
 Alpha virt. eigenvalues --    3.21622   3.22940   3.23669   3.24828   3.26078
 Alpha virt. eigenvalues --    3.26940   3.27600   3.28888   3.29600   3.31952
 Alpha virt. eigenvalues --    3.32978   3.34314   3.34913   3.36165   3.36464
 Alpha virt. eigenvalues --    3.36621   3.37965   3.39501   3.39718   3.40229
 Alpha virt. eigenvalues --    3.41514   3.42267   3.43212   3.44562   3.45937
 Alpha virt. eigenvalues --    3.46586   3.47180   3.48605   3.49067   3.49536
 Alpha virt. eigenvalues --    3.49730   3.50944   3.51789   3.52755   3.53804
 Alpha virt. eigenvalues --    3.54998   3.55498   3.57417   3.58173   3.58609
 Alpha virt. eigenvalues --    3.59780   3.60712   3.61141   3.62716   3.63608
 Alpha virt. eigenvalues --    3.65151   3.65419   3.66570   3.69140   3.69766
 Alpha virt. eigenvalues --    3.72340   3.73133   3.73483   3.75287   3.75856
 Alpha virt. eigenvalues --    3.76383   3.77728   3.80095   3.81007   3.81980
 Alpha virt. eigenvalues --    3.83755   3.83899   3.84700   3.86894   3.88228
 Alpha virt. eigenvalues --    3.88832   3.90251   3.90622   3.90972   3.92762
 Alpha virt. eigenvalues --    3.93769   3.94681   3.97588   3.99698   4.01833
 Alpha virt. eigenvalues --    4.03341   4.04266   4.06339   4.07911   4.09607
 Alpha virt. eigenvalues --    4.12346   4.13699   4.14718   4.15820   4.18901
 Alpha virt. eigenvalues --    4.19998   4.21460   4.23644   4.26139   4.27190
 Alpha virt. eigenvalues --    4.30204   4.31260   4.34201   4.34863   4.35511
 Alpha virt. eigenvalues --    4.37704   4.39077   4.39670   4.41646   4.43556
 Alpha virt. eigenvalues --    4.43822   4.45569   4.45812   4.47060   4.47491
 Alpha virt. eigenvalues --    4.48475   4.49339   4.50011   4.50455   4.51510
 Alpha virt. eigenvalues --    4.52470   4.52593   4.53319   4.54201   4.55321
 Alpha virt. eigenvalues --    4.55666   4.56647   4.57061   4.57237   4.58009
 Alpha virt. eigenvalues --    4.58277   4.58999   4.60296   4.60888   4.61592
 Alpha virt. eigenvalues --    4.62261   4.62518   4.63458   4.63665   4.64630
 Alpha virt. eigenvalues --    4.66742   4.67556   4.68585   4.69033   4.69650
 Alpha virt. eigenvalues --    4.70536   4.71627   4.72128   4.73242   4.73682
 Alpha virt. eigenvalues --    4.74936   4.75364   4.76468   4.77243   4.78340
 Alpha virt. eigenvalues --    4.80299   4.82792   4.83327   4.83506   4.84632
 Alpha virt. eigenvalues --    4.86909   4.87404   4.88123   4.89164   4.90939
 Alpha virt. eigenvalues --    4.91619   4.92553   4.94036   4.94850   4.95547
 Alpha virt. eigenvalues --    4.96721   4.97475   4.99884   5.00865   5.02054
 Alpha virt. eigenvalues --    5.04362   5.05659   5.08020   5.08679   5.09572
 Alpha virt. eigenvalues --    5.10469   5.11919   5.17322   5.20369   5.21202
 Alpha virt. eigenvalues --    5.24228   5.27179   5.27306   5.30800   5.31663
 Alpha virt. eigenvalues --    5.34565   5.35293   5.36687   5.38820   5.39264
 Alpha virt. eigenvalues --    5.42130   5.44590   5.47391   5.48321   5.48875
 Alpha virt. eigenvalues --    5.52516   5.54222   5.57163   5.59651   5.66523
 Alpha virt. eigenvalues --    5.67124   5.74182   5.77620   5.79822   5.81187
 Alpha virt. eigenvalues --    5.86297   5.86918   5.90004   5.95160   5.98358
 Alpha virt. eigenvalues --    5.99521   6.07350   6.12240   6.18863   6.33016
 Alpha virt. eigenvalues --    6.40194   6.86819   6.96935   7.63249   8.49269
 Alpha virt. eigenvalues --    9.42480   9.85833  10.06893  10.44216  10.55479
 Alpha virt. eigenvalues --   10.73459  10.92314  11.25887  11.38377  11.45884
 Alpha virt. eigenvalues --   11.58437  11.78029  11.86766  12.00368  12.09289
 Alpha virt. eigenvalues --   12.44779  12.52437  12.71819  12.96472  14.36913
          Condensed to atoms (all electrons):
               1          2          3          4          5          6
     1  C    4.975821   0.393958  -0.032811   0.002825  -0.000131   0.000004
     2  C    0.393958   4.846216   0.402248  -0.033524   0.002164  -0.000062
     3  C   -0.032811   0.402248   4.890721   0.369205  -0.051457   0.000895
     4  C    0.002825  -0.033524   0.369205   5.025198   0.328114   0.032054
     5  C   -0.000131   0.002164  -0.051457   0.328114   5.156547   0.510206
     6  C    0.000004  -0.000062   0.000895   0.032054   0.510206   4.565048
     7  C   -0.000000   0.000003  -0.000041   0.007603  -0.072416   0.456488
     8  C    0.000000  -0.000000   0.000001  -0.000186   0.000537  -0.007481
     9  C    0.000000  -0.000000   0.000000  -0.000035   0.000552  -0.022316
    10  C    0.000000   0.000000  -0.000000   0.000000  -0.000024   0.001764
    11  C    0.000000  -0.000000   0.000000  -0.000000   0.000001  -0.000025
    12  C    0.000000  -0.000000   0.000000  -0.000000  -0.000000  -0.000009
    13  C   -0.000000   0.000000  -0.000000   0.000005   0.000038   0.006573
    14  C   -0.000000   0.000000  -0.000003  -0.000075   0.010709  -0.051767
    15  C   -0.000000  -0.000014   0.000604  -0.022542   0.021295   0.382640
    16  C    0.000000   0.000007   0.000426  -0.016687  -0.059403  -0.002133
    17  C   -0.000038   0.001261  -0.004330  -0.005883   0.004125  -0.027694
    18  C   -0.000225   0.005658  -0.010811   0.354540  -0.005903   0.000326
    19  N    0.000923  -0.020898  -0.000954  -0.046536   0.002193   0.000041
    20  H    0.370115  -0.022167   0.003449  -0.000170   0.000002  -0.000000
    21  H    0.375887  -0.028119  -0.004495   0.000051  -0.000013  -0.000001
    22  H    0.379950  -0.028358  -0.004116   0.000186   0.000009  -0.000000
    23  H   -0.037616   0.368527  -0.037253  -0.001262   0.000680  -0.000004
    24  H   -0.033417   0.357729  -0.024853  -0.002608  -0.000012   0.000014
    25  H   -0.002803  -0.032053   0.354441  -0.024604   0.003945   0.001044
    26  H   -0.005399  -0.037598   0.360137  -0.035531   0.003246   0.000636
    27  H    0.000012  -0.006158  -0.053422   0.336038  -0.023897  -0.000330
    28  H   -0.000014   0.000050  -0.004677  -0.062113   0.349342  -0.019980
    29  H    0.000000   0.000000   0.000003   0.000160  -0.006164  -0.037492
    30  H   -0.000000   0.000000  -0.000000   0.000003  -0.000306   0.000398
    31  H   -0.000000   0.000000  -0.000000   0.000000  -0.000001  -0.000040
    32  H   -0.000000  -0.000000  -0.000000  -0.000000   0.000000   0.000000
    33  H   -0.000000  -0.000000   0.000000  -0.000000  -0.000000  -0.000001
    34  H   -0.000000   0.000000  -0.000000   0.000001  -0.000005  -0.000357
    35  H    0.000000  -0.000000  -0.000005   0.000015  -0.000606   0.006629
    36  H   -0.000000   0.000005  -0.000043   0.007369  -0.000066   0.000108
    37  H   -0.000029  -0.000323   0.000106   0.004460  -0.000080  -0.000007
    38  H   -0.000583   0.004102  -0.002518  -0.002900  -0.000071   0.000015
               7          8          9         10         11         12
     1  C   -0.000000   0.000000   0.000000   0.000000   0.000000   0.000000
     2  C    0.000003  -0.000000  -0.000000   0.000000  -0.000000  -0.000000
     3  C   -0.000041   0.000001   0.000000  -0.000000   0.000000   0.000000
     4  C    0.007603  -0.000186  -0.000035   0.000000  -0.000000  -0.000000
     5  C   -0.072416   0.000537   0.000552  -0.000024   0.000001  -0.000000
     6  C    0.456488  -0.007481  -0.022316   0.001764  -0.000025  -0.000009
     7  C    4.934219   0.607096  -0.004672   0.002809  -0.000204  -0.000006
     8  C    0.607096   4.958681   0.454444  -0.072256   0.003777   0.000716
     9  C   -0.004672   0.454444   4.493066   0.471527   0.013026  -0.031895
    10  C    0.002809  -0.072256   0.471527   4.986842   0.531418   0.002617
    11  C   -0.000204   0.003777   0.013026   0.531418   4.762980   0.577094
    12  C   -0.000006   0.000716  -0.031895   0.002617   0.577094   4.729015
    13  C    0.000465   0.005934  -0.036181  -0.053187   0.007850   0.539124
    14  C   -0.041734  -0.023326   0.540212   0.004217  -0.045708   0.019724
    15  C   -0.023633  -0.031699  -0.036211   0.004125   0.000560   0.004412
    16  C    0.008838   0.000899   0.006185  -0.000113  -0.000115   0.000343
    17  C   -0.000086  -0.000022  -0.000089   0.000001   0.000001  -0.000032
    18  C   -0.000110  -0.000001   0.000006  -0.000000  -0.000000   0.000000
    19  N   -0.000000   0.000000   0.000000   0.000000   0.000000   0.000000
    20  H    0.000000  -0.000000  -0.000000   0.000000  -0.000000  -0.000000
    21  H   -0.000000   0.000000  -0.000000  -0.000000  -0.000000  -0.000000
    22  H    0.000000   0.000000  -0.000000  -0.000000   0.000000   0.000000
    23  H    0.000000   0.000000  -0.000000   0.000000  -0.000000   0.000000
    24  H   -0.000000  -0.000000   0.000000   0.000000   0.000000  -0.000000
    25  H   -0.000021   0.000000  -0.000000   0.000000  -0.000000  -0.000000
    26  H   -0.000099   0.000000   0.000000   0.000000  -0.000000  -0.000000
    27  H   -0.000170   0.000006   0.000000  -0.000000   0.000000   0.000000
    28  H   -0.021981   0.000816  -0.000015  -0.000000  -0.000000  -0.000000
    29  H    0.350467  -0.029159   0.000449  -0.000295   0.000002   0.000000
    30  H   -0.028508   0.348614  -0.033022  -0.007140   0.000164  -0.000018
    31  H    0.000502  -0.010204  -0.036841   0.357026  -0.045155   0.002446
    32  H    0.000001  -0.000226   0.000750  -0.035320   0.353991  -0.038088
    33  H    0.000001   0.000012   0.002415   0.001819  -0.038242   0.357274
    34  H   -0.000025  -0.000066   0.002993   0.002064   0.002566  -0.049887
    35  H   -0.000027  -0.000047  -0.000203   0.000018  -0.000052   0.000863
    36  H    0.000001   0.000000   0.000001   0.000000  -0.000000  -0.000001
    37  H   -0.000000  -0.000000   0.000000   0.000000   0.000000  -0.000000
    38  H   -0.000000   0.000000   0.000000  -0.000000  -0.000000   0.000000
              13         14         15         16         17         18
     1  C   -0.000000  -0.000000  -0.000000   0.000000  -0.000038  -0.000225
     2  C    0.000000   0.000000  -0.000014   0.000007   0.001261   0.005658
     3  C   -0.000000  -0.000003   0.000604   0.000426  -0.004330  -0.010811
     4  C    0.000005  -0.000075  -0.022542  -0.016687  -0.005883   0.354540
     5  C    0.000038   0.010709   0.021295  -0.059403   0.004125  -0.005903
     6  C    0.006573  -0.051767   0.382640  -0.002133  -0.027694   0.000326
     7  C    0.000465  -0.041734  -0.023633   0.008838  -0.000086  -0.000110
     8  C    0.005934  -0.023326  -0.031699   0.000899  -0.000022  -0.000001
     9  C   -0.036181   0.540212  -0.036211   0.006185  -0.000089   0.000006
    10  C   -0.053187   0.004217   0.004125  -0.000113   0.000001  -0.000000
    11  C    0.007850  -0.045708   0.000560  -0.000115   0.000001  -0.000000
    12  C    0.539124   0.019724   0.004412   0.000343  -0.000032   0.000000
    13  C    5.039787   0.470128  -0.056002  -0.037452   0.000991  -0.000052
    14  C    0.470128   4.671679   0.395639  -0.069055   0.006787  -0.000391
    15  C   -0.056002   0.395639   5.019467   0.360500   0.060410  -0.041881
    16  C   -0.037452  -0.069055   0.360500   5.185860   0.375581   0.038142
    17  C    0.000991   0.006787   0.060410   0.375581   4.933752   0.529831
    18  C   -0.000052  -0.000391  -0.041881   0.038142   0.529831   4.637096
    19  N    0.000000  -0.000000   0.000241   0.004650  -0.037849   0.393749
    20  H    0.000000   0.000000  -0.000000  -0.000000   0.000000   0.000015
    21  H    0.000000   0.000000   0.000000  -0.000000   0.000001   0.000009
    22  H   -0.000000   0.000000   0.000000  -0.000000  -0.000004  -0.000050
    23  H   -0.000000  -0.000000   0.000000  -0.000000  -0.000051  -0.002603
    24  H   -0.000000  -0.000000  -0.000002   0.000003  -0.000698  -0.003244
    25  H    0.000000   0.000001  -0.000088  -0.000109   0.002410  -0.006836
    26  H    0.000000   0.000000   0.000076  -0.000060   0.000033   0.001441
    27  H   -0.000000   0.000005   0.000615   0.000580   0.002175  -0.048537
    28  H    0.000002  -0.000132   0.006025  -0.000048  -0.000011   0.003767
    29  H    0.000018   0.001673   0.001573  -0.000121  -0.000003   0.000002
    30  H   -0.000156   0.001822   0.001786   0.000028   0.000000  -0.000000
    31  H    0.001933   0.003265  -0.000112   0.000003   0.000000  -0.000000
    32  H    0.001971   0.002704   0.000021  -0.000000  -0.000000   0.000000
    33  H   -0.035168   0.001555  -0.000199   0.000030  -0.000000   0.000000
    34  H    0.353641  -0.023975  -0.019425   0.001495   0.001052  -0.000021
    35  H    0.003370  -0.034213  -0.043726   0.367732  -0.056908   0.009366
    36  H    0.000025  -0.000136   0.009541  -0.036051   0.360012  -0.069532
    37  H   -0.000000   0.000000   0.000017  -0.000457  -0.008002  -0.028181
    38  H   -0.000000  -0.000000  -0.000023  -0.000126   0.004317  -0.037236
              19         20         21         22         23         24
     1  C    0.000923   0.370115   0.375887   0.379950  -0.037616  -0.033417
     2  C   -0.020898  -0.022167  -0.028119  -0.028358   0.368527   0.357729
     3  C   -0.000954   0.003449  -0.004495  -0.004116  -0.037253  -0.024853
     4  C   -0.046536  -0.000170   0.000051   0.000186  -0.001262  -0.002608
     5  C    0.002193   0.000002  -0.000013   0.000009   0.000680  -0.000012
     6  C    0.000041  -0.000000  -0.000001  -0.000000  -0.000004   0.000014
     7  C   -0.000000   0.000000  -0.000000   0.000000   0.000000  -0.000000
     8  C    0.000000  -0.000000   0.000000   0.000000   0.000000  -0.000000
     9  C    0.000000  -0.000000  -0.000000  -0.000000  -0.000000   0.000000
    10  C    0.000000   0.000000  -0.000000  -0.000000   0.000000   0.000000
    11  C    0.000000  -0.000000  -0.000000   0.000000  -0.000000   0.000000
    12  C    0.000000  -0.000000  -0.000000   0.000000   0.000000  -0.000000
    13  C    0.000000   0.000000   0.000000  -0.000000  -0.000000  -0.000000
    14  C   -0.000000   0.000000   0.000000   0.000000  -0.000000  -0.000000
    15  C    0.000241  -0.000000   0.000000   0.000000   0.000000  -0.000002
    16  C    0.004650  -0.000000  -0.000000  -0.000000  -0.000000   0.000003
    17  C   -0.037849   0.000000   0.000001  -0.000004  -0.000051  -0.000698
    18  C    0.393749   0.000015   0.000009  -0.000050  -0.002603  -0.003244
    19  N    6.558548   0.000006  -0.000019   0.000030  -0.000837   0.009225
    20  H    0.000006   0.609861  -0.030352  -0.031465  -0.003113  -0.003285
    21  H   -0.000019  -0.030352   0.600599  -0.032167  -0.003885   0.006089
    22  H    0.000030  -0.031465  -0.032167   0.596676   0.005975  -0.007068
    23  H   -0.000837  -0.003113  -0.003885   0.005975   0.656554  -0.046588
    24  H    0.009225  -0.003285   0.006089  -0.007068  -0.046588   0.644047
    25  H   -0.000735  -0.000055  -0.000384   0.004424   0.006402  -0.007164
    26  H   -0.000054  -0.000024   0.005578  -0.000438  -0.004048   0.006139
    27  H   -0.003887   0.000002   0.000010   0.000007   0.007321  -0.000850
    28  H   -0.000086   0.000000  -0.000001   0.000001   0.000027  -0.000008
    29  H   -0.000000   0.000000  -0.000000  -0.000000  -0.000000   0.000000
    30  H    0.000000   0.000000   0.000000   0.000000   0.000000   0.000000
    31  H   -0.000000   0.000000  -0.000000  -0.000000  -0.000000  -0.000000
    32  H   -0.000000   0.000000   0.000000   0.000000  -0.000000  -0.000000
    33  H   -0.000000  -0.000000  -0.000000   0.000000   0.000000  -0.000000
    34  H    0.000000   0.000000   0.000000  -0.000000  -0.000000  -0.000000
    35  H   -0.000202  -0.000000  -0.000000  -0.000000   0.000000   0.000000
    36  H   -0.014816   0.000000   0.000000  -0.000000  -0.000001  -0.000015
    37  H    0.346086   0.000000   0.000000   0.000003   0.000015   0.002828
    38  H    0.353161  -0.000016   0.000017   0.000060   0.005421   0.002736
              25         26         27         28         29         30
     1  C   -0.002803  -0.005399   0.000012  -0.000014   0.000000  -0.000000
     2  C   -0.032053  -0.037598  -0.006158   0.000050   0.000000   0.000000
     3  C    0.354441   0.360137  -0.053422  -0.004677   0.000003  -0.000000
     4  C   -0.024604  -0.035531   0.336038  -0.062113   0.000160   0.000003
     5  C    0.003945   0.003246  -0.023897   0.349342  -0.006164  -0.000306
     6  C    0.001044   0.000636  -0.000330  -0.019980  -0.037492   0.000398
     7  C   -0.000021  -0.000099  -0.000170  -0.021981   0.350467  -0.028508
     8  C    0.000000   0.000000   0.000006   0.000816  -0.029159   0.348614
     9  C   -0.000000   0.000000   0.000000  -0.000015   0.000449  -0.033022
    10  C    0.000000   0.000000  -0.000000  -0.000000  -0.000295  -0.007140
    11  C   -0.000000  -0.000000   0.000000  -0.000000   0.000002   0.000164
    12  C   -0.000000  -0.000000   0.000000  -0.000000   0.000000  -0.000018
    13  C    0.000000   0.000000  -0.000000   0.000002   0.000018  -0.000156
    14  C    0.000001   0.000000   0.000005  -0.000132   0.001673   0.001822
    15  C   -0.000088   0.000076   0.000615   0.006025   0.001573   0.001786
    16  C   -0.000109  -0.000060   0.000580  -0.000048  -0.000121   0.000028
    17  C    0.002410   0.000033   0.002175  -0.000011  -0.000003   0.000000
    18  C   -0.006836   0.001441  -0.048537   0.003767   0.000002  -0.000000
    19  N   -0.000735  -0.000054  -0.003887  -0.000086  -0.000000   0.000000
    20  H   -0.000055  -0.000024   0.000002   0.000000   0.000000   0.000000
    21  H   -0.000384   0.005578   0.000010  -0.000001  -0.000000   0.000000
    22  H    0.004424  -0.000438   0.000007   0.000001  -0.000000   0.000000
    23  H    0.006402  -0.004048   0.007321   0.000027  -0.000000   0.000000
    24  H   -0.007164   0.006139  -0.000850  -0.000008   0.000000   0.000000
    25  H    0.624791  -0.036803   0.006647  -0.000149   0.000000  -0.000000
    26  H   -0.036803   0.640630  -0.000739   0.006231   0.000004  -0.000000
    27  H    0.006647  -0.000739   0.697566  -0.004039  -0.000016  -0.000000
    28  H   -0.000149   0.006231  -0.004039   0.656916   0.007920  -0.000043
    29  H    0.000000   0.000004  -0.000016   0.007920   0.628738  -0.005900
    30  H   -0.000000  -0.000000  -0.000000  -0.000043  -0.005900   0.627355
    31  H    0.000000  -0.000000  -0.000000  -0.000000  -0.000013   0.005724
    32  H   -0.000000   0.000000   0.000000  -0.000000  -0.000000  -0.000008
    33  H    0.000000  -0.000000  -0.000000   0.000000   0.000000  -0.000000
    34  H    0.000000  -0.000000   0.000000  -0.000000  -0.000000   0.000003
    35  H    0.000001  -0.000000   0.000004   0.000007   0.000003  -0.000000
    36  H   -0.000066   0.000006  -0.000261   0.000003  -0.000000   0.000000
    37  H   -0.000060   0.000017  -0.000151   0.000003  -0.000000  -0.000000
    38  H    0.000417   0.000009   0.004593  -0.000004  -0.000000  -0.000000
              31         32         33         34         35         36
     1  C   -0.000000  -0.000000  -0.000000  -0.000000   0.000000  -0.000000
     2  C    0.000000  -0.000000  -0.000000   0.000000  -0.000000   0.000005
     3  C   -0.000000  -0.000000   0.000000  -0.000000  -0.000005  -0.000043
     4  C    0.000000  -0.000000  -0.000000   0.000001   0.000015   0.007369
     5  C   -0.000001   0.000000  -0.000000  -0.000005  -0.000606  -0.000066
     6  C   -0.000040   0.000000  -0.000001  -0.000357   0.006629   0.000108
     7  C    0.000502   0.000001   0.000001  -0.000025  -0.000027   0.000001
     8  C   -0.010204  -0.000226   0.000012  -0.000066  -0.000047   0.000000
     9  C   -0.036841   0.000750   0.002415   0.002993  -0.000203   0.000001
    10  C    0.357026  -0.035320   0.001819   0.002064   0.000018   0.000000
    11  C   -0.045155   0.353991  -0.038242   0.002566  -0.000052  -0.000000
    12  C    0.002446  -0.038088   0.357274  -0.049887   0.000863  -0.000001
    13  C    0.001933   0.001971  -0.035168   0.353641   0.003370   0.000025
    14  C    0.003265   0.002704   0.001555  -0.023975  -0.034213  -0.000136
    15  C   -0.000112   0.000021  -0.000199  -0.019425  -0.043726   0.009541
    16  C    0.000003  -0.000000   0.000030   0.001495   0.367732  -0.036051
    17  C    0.000000  -0.000000  -0.000000   0.001052  -0.056908   0.360012
    18  C   -0.000000   0.000000   0.000000  -0.000021   0.009366  -0.069532
    19  N   -0.000000  -0.000000  -0.000000   0.000000  -0.000202  -0.014816
    20  H    0.000000   0.000000  -0.000000   0.000000  -0.000000   0.000000
    21  H   -0.000000   0.000000  -0.000000   0.000000  -0.000000   0.000000
    22  H   -0.000000   0.000000   0.000000  -0.000000  -0.000000  -0.000000
    23  H   -0.000000  -0.000000   0.000000  -0.000000   0.000000  -0.000001
    24  H   -0.000000  -0.000000  -0.000000  -0.000000   0.000000  -0.000015
    25  H    0.000000  -0.000000   0.000000   0.000000   0.000001  -0.000066
    26  H   -0.000000   0.000000  -0.000000  -0.000000  -0.000000   0.000006
    27  H   -0.000000   0.000000  -0.000000   0.000000   0.000004  -0.000261
    28  H   -0.000000  -0.000000   0.000000  -0.000000   0.000007   0.000003
    29  H   -0.000013  -0.000000   0.000000  -0.000000   0.000003  -0.000000
    30  H    0.005724  -0.000008  -0.000000   0.000003  -0.000000   0.000000
    31  H    0.641821  -0.005732  -0.000250   0.000033   0.000000   0.000000
    32  H   -0.005732   0.641067  -0.005152  -0.000335  -0.000000  -0.000000
    33  H   -0.000250  -0.005152   0.634107  -0.006448   0.000019   0.000000
    34  H    0.000033  -0.000335  -0.006448   0.641921   0.002401   0.000118
    35  H    0.000000  -0.000000   0.000019   0.002401   0.683178  -0.019135
    36  H    0.000000  -0.000000   0.000000   0.000118  -0.019135   0.703864
    37  H    0.000000  -0.000000  -0.000000   0.000000  -0.000028   0.007405
    38  H    0.000000   0.000000   0.000000  -0.000000   0.000009   0.000015
              37         38
     1  C   -0.000029  -0.000583
     2  C   -0.000323   0.004102
     3  C    0.000106  -0.002518
     4  C    0.004460  -0.002900
     5  C   -0.000080  -0.000071
     6  C   -0.000007   0.000015
     7  C   -0.000000  -0.000000
     8  C   -0.000000   0.000000
     9  C    0.000000   0.000000
    10  C    0.000000  -0.000000
    11  C    0.000000  -0.000000
    12  C   -0.000000   0.000000
    13  C   -0.000000  -0.000000
    14  C    0.000000  -0.000000
    15  C    0.000017  -0.000023
    16  C   -0.000457  -0.000126
    17  C   -0.008002   0.004317
    18  C   -0.028181  -0.037236
    19  N    0.346086   0.353161
    20  H    0.000000  -0.000016
    21  H    0.000000   0.000017
    22  H    0.000003   0.000060
    23  H    0.000015   0.005421
    24  H    0.002828   0.002736
    25  H   -0.000060   0.000417
    26  H    0.000017   0.000009
    27  H   -0.000151   0.004593
    28  H    0.000003  -0.000004
    29  H   -0.000000  -0.000000
    30  H   -0.000000  -0.000000
    31  H    0.000000   0.000000
    32  H   -0.000000   0.000000
    33  H   -0.000000   0.000000
    34  H    0.000000  -0.000000
    35  H   -0.000028   0.000009
    36  H    0.007405   0.000015
    37  H    0.444830  -0.028350
    38  H   -0.028350   0.442693
 Mulliken charges:
               1
     1  C   -0.386429
     2  C   -0.172654
     3  C   -0.150446
     4  C   -0.213172
     5  C   -0.173150
     6  C    0.204815
     7  C   -0.174757
     8  C   -0.206861
     9  C    0.215856
    10  C   -0.197912
    11  C   -0.123931
    12  C   -0.113692
    13  C   -0.213658
    14  C    0.160396
    15  C    0.006008
    16  C   -0.129371
    17  C   -0.141039
    18  C    0.281664
    19  N   -0.541980
    20  H    0.107197
    21  H    0.111195
    22  H    0.116348
    23  H    0.086340
    24  H    0.101003
    25  H    0.107405
    26  H    0.096610
    27  H    0.086879
    28  H    0.082192
    29  H    0.088151
    30  H    0.089206
    31  H    0.085594
    32  H    0.084355
    33  H    0.088228
    34  H    0.092258
    35  H    0.081537
    36  H    0.051652
    37  H    0.259899
    38  H    0.254265
 Sum of Mulliken charges =  -0.00000
 Mulliken charges with hydrogens summed into heavy atoms:
               1
     1  C   -0.051690
     2  C    0.014689
     3  C    0.053570
     4  C   -0.126293
     5  C   -0.090959
     6  C    0.204815
     7  C   -0.086605
     8  C   -0.117655
     9  C    0.215856
    10  C   -0.112318
    11  C   -0.039576
    12  C   -0.025464
    13  C   -0.121401
    14  C    0.160396
    15  C    0.006008
    16  C   -0.047833
    17  C   -0.089387
    18  C    0.281664
    19  N   -0.027817
 Electronic spatial extent (au):  <R**2>=           6486.9160
 Charge=             -0.0000 electrons
 Dipole moment (field-independent basis, Debye):
    X=              3.9223    Y=              0.9584    Z=             -0.0306  Tot=              4.0378
 Quadrupole moment (field-independent basis, Debye-Ang):
   XX=            -98.1319   YY=           -101.2274   ZZ=           -117.0437
   XY=              4.9775   XZ=             -2.7330   YZ=              2.8189
 Traceless Quadrupole moment (field-independent basis, Debye-Ang):
   XX=              7.3358   YY=              4.2403   ZZ=            -11.5761
   XY=              4.9775   XZ=             -2.7330   YZ=              2.8189
 Octapole moment (field-independent basis, Debye-Ang**2):
  XXX=             47.3429  YYY=             19.3992  ZZZ=             -0.1584  XYY=              9.7745
  XXY=             24.2625  XXZ=             -7.7274  XZZ=             16.6606  YZZ=             -0.2612
  YYZ=              2.0450  XYZ=             -0.7111
 Hexadecapole moment (field-independent basis, Debye-Ang**3):
 XXXX=          -6830.0239 YYYY=          -1267.6106 ZZZZ=           -357.3450 XXXY=            150.9288
 XXXZ=           -123.1979 YYYX=             67.0935 YYYZ=             22.6468 ZZZX=              2.0087
 ZZZY=             -1.5527 XXYY=          -1302.6964 XXZZ=          -1308.2198 YYZZ=           -314.5421
 XXYZ=             21.5970 YYXZ=             -4.4719 ZZXY=             -0.5107
 N-N= 1.322728742883D+03 E-N=-4.388692272254D+03  KE= 7.461189567698D+02
 PrsmSu:  requested number of processors reduced to:  12 ShMem   1 Linda.
 Calling FoFJK, ICntrl=      2127 FMM=F ISym2X=0 I1Cent= 0 IOpClX= 0 NMat=1 NMatS=1 NMatT=0.
 ***** Axes restored to original set *****
 -------------------------------------------------------------------
 Center     Atomic                   Forces (Hartrees/Bohr)
[...]
 00128,-0.00000476,-0.00001118,0.00000407,-0.00000018,-0.00000244,0.000
 00713,0.00000015,0.00000393,0.00000255,0.00002038,0.00000423,-0.000025
 44,-0.00000432,0.00000340,-0.00000487,-0.00000976,0.00001025,0.0000063
 1,-0.00004253,0.00002504,0.00000954,0.00003927,0.00000062,0.00001737,-
 0.00012538,-0.00005069,0.00010289,-0.00110346,0.00034536,0.00031076,0.
 00007274,-0.00045394,-0.00017493,-0.00290875,0.00166680,0.00105373,0.0
 9768950,0.00000678,-0.00002338,0.00001969,0.00000969,0.00001959,0.0000
 0059,0.00002601,-0.00004259,0.00008005,-0.00005010,0.00001407,0.000050
 38,-0.00013368,0.00006760,-0.00019396,0.00019973,-0.00036665,0.0004171
 8,-0.00009731,-0.00008870,-0.00014337,-0.00058771,-0.00057917,-0.00106
 698,-0.00194050,-0.00187117,0.00463681,0.00007245,-0.00001071,0.000985
 29,-0.00188510,0.00261121,0.00118306,0.00166776,0.00340500,0.00233345,
 -0.10855389,-0.22120058,-0.08679245,-0.01207242,-0.01755392,-0.0124405
 4,0.00081595,0.00011138,-0.00270669,0.00062201,0.00000942,-0.00066815,
 0.00027593,0.00049914,0.00039077,0.00002066,0.00020179,-0.00019469,-0.
 00006000,-0.00000669,0.00000903,-0.00001001,0.00000064,-0.00001357,0.0
 0000064,0.00000323,-0.00000006,0.00001009,0.00001812,-0.00000729,-0.00
 000802,0.00000098,-0.00002030,-0.00000004,-0.00000555,0.00000243,-0.00
 000074,-0.00000754,0.00001234,-0.00000878,0.00001390,-0.00000994,0.000
 01298,0.00001023,-0.00001257,0.00003083,-0.00001524,-0.00001078,0.0000
 3714,0.00001703,0.00005601,-0.00003657,-0.00042659,0.00022195,0.000450
 79,-0.00020105,-0.00029346,-0.00008804,0.00018243,0.00021912,0.0016346
 1,0.00022247,-0.00070116,0.12021827,0.23396355,0.00000098,-0.00000551,
 0.00002469,-0.00001266,-0.00000260,-0.00001765,0.00000507,0.00000756,0
 .00000340,-0.00005283,0.00003110,-0.00002111,-0.00002488,-0.00012724,0
 .00001200,-0.00003754,-0.00017982,0.00020181,0.00011601,0.00001175,0.0
 0015196,0.00036436,0.00058295,0.00059287,-0.00057606,0.00328005,-0.001
 45141,0.00006278,0.00084893,-0.00065071,-0.00241726,0.00243207,-0.0047
 0774,-0.01414473,-0.02598624,-0.00952894,-0.05972938,-0.08651674,-0.10
 218797,0.00756387,0.01176598,0.01095391,0.00053153,-0.00080387,-0.0003
 8896,0.00057465,0.00094783,-0.00167281,-0.00012089,-0.00017166,-0.0001
 2590,0.00002000,-0.00001805,-0.00002867,-0.00000164,-0.00001776,0.0001
 0089,0.00001166,0.00000566,-0.00000345,0.00000423,-0.00000366,-0.00000
 272,-0.00000644,0.00000636,-0.00000356,0.00000936,0.00000214,0.0000008
 5,-0.00000137,-0.00000425,-0.00000581,-0.00003307,0.00001811,0.0000041
 8,0.00000780,-0.00001350,0.00001019,0.00001000,-0.00000412,0.00000767,
 0.00001877,-0.00001554,0.00003086,-0.00001781,-0.00002525,-0.00002140,
 0.00002795,0.00025108,-0.00013515,0.00027726,-0.00024622,0.00005247,-0
 .00085549,-0.00124651,-0.00054387,0.00130720,-0.00022172,0.00077653,0.
 06609067,0.09503279,0.11142657,0.00000465,0.00005185,-0.00001529,0.000
 03123,0.00006200,-0.00008096,-0.00000574,0.00010739,0.00016438,0.00102
 748,-0.00010385,0.00010619,-0.00072500,-0.00118840,0.00136739,0.007573
 40,0.00094128,-0.00004503,0.00026895,0.00075348,-0.00083733,-0.0002108
 3,0.00025186,-0.00025378,-0.00025260,-0.00063475,-0.00067265,0.0001813
 9,-0.00054276,0.00031759,0.00009507,0.00051322,-0.00002657,-0.00059774
 ,-0.00042833,-0.00050004,0.00074545,0.00125246,0.00080933,-0.00382608,
 -0.00126938,0.00302911,0.00323014,-0.00381086,-0.00636982,-0.05632931,
 0.06804525,-0.03114328,-0.00004174,0.00695273,-0.00677701,0.00585080,-
 0.00174934,-0.00081619,-0.00061172,0.00032768,-0.00147601,0.00000949,-
 0.00000078,0.00000336,-0.00000421,-0.00001267,0.00001344,-0.00001625,-
 0.00000941,0.00002602,-0.00000451,-0.00002470,0.00000351,0.00003782,0.
 00003337,-0.00000225,0.00007984,0.00009408,-0.00012471,-0.00010595,-0.
 00001456,-0.00001632,-0.00002812,0.00001527,-0.00000825,-0.00051473,0.
 00045060,0.00046508,0.00020612,0.00027668,0.00012462,0.00001311,-0.000
 01986,0.00002531,-0.00004150,0.00000403,-0.00001108,0.00003123,-0.0000
 4877,-0.00004000,0.00005975,-0.00001842,0.00002202,0.00009217,-0.00052
 389,0.00100758,0.04606629,0.00000755,0.00000401,0.00004791,0.00002644,
 -0.00001154,-0.00005656,0.00001137,0.00002760,0.00017253,0.00019171,-0
 .00015119,-0.00029144,-0.00028683,-0.00007310,0.00019522,0.00101038,-0
 .00142581,-0.00449353,0.00036749,-0.00056658,0.00103928,-0.00010380,0.
 00004333,-0.00010089,-0.00040741,-0.00048480,-0.00045193,0.00013287,-0
 .00012949,0.00035529,0.00020753,0.00029514,0.00006944,-0.00018504,0.00
 062016,-0.00032991,-0.00059930,0.00002328,0.00072896,-0.00058074,-0.00
 002636,0.00292943,0.00654423,-0.02503798,0.01218261,0.06271214,-0.2468
 2404,0.10776144,-0.00095833,0.00352867,-0.00381561,-0.00022441,0.00096
 212,-0.00151535,-0.00007704,-0.00004415,0.00020354,0.00001937,0.000011
 50,-0.00000828,0.00000050,-0.00000129,-0.00000633,0.00000292,0.0000059
 7,-0.00001244,0.00000467,0.00000258,-0.00000231,-0.00000507,-0.0000017
 9,0.00000556,-0.00004383,-0.00000818,0.00000730,0.00000477,-0.00000910
 ,-0.00001680,0.00001552,0.00000524,0.00003884,-0.00017088,0.00003762,0
 .00028697,-0.00023617,-0.00026586,-0.00014852,0.00001417,0.00002508,-0
 .00006590,0.00002682,0.00000738,-0.00001579,0.00007924,0.00004252,0.00
 002100,-0.00002625,-0.00001732,-0.00000136,0.00064654,0.00106282,0.000
 34372,-0.06758983,0.26741660,-0.00000155,-0.00000362,-0.00003202,-0.00
 001391,0.00000953,0.00005199,0.00005105,0.00006483,-0.00009228,-0.0001
 8662,-0.00013572,0.00014415,-0.00012678,-0.00020635,-0.00104418,-0.001
 65963,-0.00291693,-0.00132971,-0.00011035,-0.00069262,0.00065653,0.000
 12563,-0.00019702,0.00025239,0.00029427,0.00037631,0.00029762,-0.00005
 237,0.00011671,0.00007438,0.00008453,0.00018414,0.00000023,-0.00025405
 ,0.00003480,-0.00033883,0.00021402,-0.00121691,-0.00199462,0.00116273,
 -0.00045225,-0.00124957,0.00349845,-0.01295749,0.01145218,-0.03531638,
 0.10735325,-0.11531581,-0.00940861,0.02596261,-0.01438014,0.00068892,-
 0.00073762,-0.00503080,-0.00137254,0.00070766,-0.00015469,-0.00001860,
 -0.00000767,0.00000085,0.00000237,-0.00000614,0.00000683,-0.00000534,0
 .00000170,0.00001780,0.00000596,-0.00000972,0.00000707,0.00001230,0.00
 000992,-0.00001689,-0.00000475,-0.00001381,0.00002855,-0.00004053,0.00
 000383,0.00003480,-0.00004168,0.00005937,0.00000663,0.00016500,-0.0001
 0696,-0.00007508,-0.00028619,-0.00020065,-0.00005885,0.00002595,0.0000
 1924,-0.00003094,-0.00000716,0.00002189,0.00004005,0.00000593,0.000017
 80,0.00002516,0.00004650,-0.00004618,-0.00000266,0.00091586,-0.0003799
 5,-0.00284783,0.04151643,-0.11482469,0.13062766,-0.00003110,-0.0001280
 9,-0.00009321,-0.00007385,0.00025735,0.00024936,0.00081988,-0.00101828
 ,-0.00040943,0.00282894,0.00435980,-0.00222022,-0.00043902,-0.00021183
 ,-0.00177753,0.00070379,-0.00112630,0.00151834,-0.00055804,-0.00003906
 ,-0.00011059,0.00007289,-0.00031756,0.00039253,-0.00013986,0.00061064,
 -0.00005933,-0.00006580,-0.00015265,0.00025827,0.00017213,0.00029113,0
 .00004332,-0.00025127,-0.00008805,-0.00031810,0.00010245,-0.00026646,0
 .00046753,0.00050361,-0.00003276,-0.00119213,0.00363281,0.00263093,-0.
 00008877,0.00064257,-0.00574772,-0.00826622,-0.06180336,0.08351425,0.0
 3938561,-0.00461206,0.01861078,0.00251340,-0.00318878,-0.00349826,0.00
 347834,-0.00005486,-0.00000661,0.00001042,0.00004772,-0.00000430,-0.00
 001953,0.00000049,0.00002270,0.00001439,0.00001783,-0.00003813,-0.0000
 3715,-0.00005725,-0.00015242,-0.00011421,0.00006479,-0.00011159,0.0000
 3460,0.00020126,0.00006528,-0.00013819,-0.00023714,0.00108969,0.000212
 69,0.00029717,-0.00021741,-0.00023540,0.00003671,0.00002117,-0.0000007
 7,0.00005769,-0.00001810,-0.00000251,-0.00001552,0.00001369,0.00001451
 ,0.00001957,-0.00000409,0.00000538,-0.00000869,-0.00001345,0.00001212,
 0.00008177,-0.00003919,0.00001252,-0.00207984,-0.00055751,0.00004796,0
 .06286957,-0.00000135,0.00001443,0.00002643,-0.00002860,-0.00009770,-0
 .00008397,0.00002792,-0.00036201,-0.00013700,0.00169671,0.00058690,0.0
 0363878,0.00019210,0.00059930,-0.00046164,0.00052304,-0.00057023,0.001
 06452,-0.00023627,0.00007015,-0.00010323,-0.00000180,-0.00021342,0.000
 21134,-0.00007578,0.00041588,-0.00013822,-0.00001523,-0.00008405,0.000
 12658,0.00007199,0.00015690,-0.00000561,-0.00011565,-0.00006391,-0.000
 16649,0.00004882,-0.00022489,0.00017396,0.00001593,-0.00022781,-0.0005
 8847,0.00199234,0.00344441,-0.00000982,0.00081304,-0.00332640,-0.00312
 125,0.08711931,-0.24771965,-0.08530356,0.00861309,-0.01575397,-0.01350
 965,-0.00238581,0.00032865,-0.00032321,0.00003168,0.00001367,0.0000009
 4,-0.00000503,0.00000249,-0.00000049,0.00000267,-0.00000040,-0.0000118
 9,-0.00000769,0.00000566,-0.00000512,-0.00003273,0.00001658,-0.0000014
 4,0.00005627,0.00005464,-0.00000563,0.00018309,0.00011057,-0.00009967,
 0.00082378,-0.00083781,-0.00030134,0.00004459,-0.00011096,-0.00006802,
 0.00001712,-0.00000351,0.00000540,0.00001787,-0.00001817,-0.00002386,-
 0.00000973,-0.00000491,-0.00001079,0.00000481,0.00000109,-0.00001036,-
 0.00000424,0.00000740,-0.00001106,0.00003017,-0.00002686,0.00003482,-0
 .00187771,0.00094031,0.00013321,-0.09751866,0.26272771,0.00000728,0.00
 002487,0.00002546,0.00002165,-0.00004599,-0.00002736,0.00007868,0.0002
 2819,0.00003092,-0.00192384,0.00129288,-0.00259506,-0.00013019,-0.0004
 5148,0.00044959,-0.00010424,0.00086536,-0.00065886,0.00014812,-0.00006
 443,0.00022709,0.00002370,0.00021988,-0.00013201,-0.00010666,0.0000842
 5,-0.00052337,0.00000358,-0.00012987,-0.00007866,-0.00006350,-0.000077
 71,-0.00006923,0.00007977,0.00004124,0.00010457,-0.00004455,0.00004932
 ,-0.00014288,-0.00098879,-0.00143506,0.00057872,-0.00075165,0.00115224
 ,-0.00468806,0.01067527,-0.02841725,-0.01233754,0.03351269,-0.08882867
 ,-0.09516433,-0.00763234,0.01574949,0.00746774,-0.00024706,0.00207206,
 0.00153824,0.00001393,0.00000214,0.00000102,-0.00001286,0.00000519,0.0
 0000019,-0.00000311,-0.00001232,-0.00000646,0.00002341,0.00001875,0.00
 003307,0.00001250,0.00002296,0.00003349,-0.00014449,-0.00006979,0.0000
 3228,-0.00009961,-0.00005236,0.00006878,-0.00059171,0.00075080,0.00048
 869,0.00001878,0.00003597,0.00012465,-0.00003464,-0.00007240,-0.000009
 77,-0.00002769,-0.00002533,-0.00000819,-0.00001555,-0.00002151,-0.0000
 7270,-0.00001154,0.00000282,-0.00001851,0.00000347,0.00002103,-0.00004
 268,0.00001763,0.00002256,0.00000294,0.00030634,-0.00014929,0.00079351
 ,-0.03232880,0.09746983,0.10461111,0.00003653,-0.00006271,0.00003469,-
 0.00021861,0.00016536,-0.00009529,0.00016405,-0.00058745,-0.00017379,0
 .00454609,0.00006603,-0.00115080,0.00053482,0.00086744,0.00168045,-0.0
 0038415,0.00077772,-0.00092737,0.00031226,0.00011735,0.00018648,-0.000
 00231,0.00021629,-0.00028525,-0.00006000,-0.00024701,0.00003129,-0.000
 00934,0.00011171,-0.00010132,-0.00007627,-0.00014145,-0.00007567,0.000
 04462,0.00002162,0.00016046,-0.00005169,0.00011430,-0.00018179,0.00021
 851,-0.00009542,0.00044867,0.00008498,-0.00115290,-0.00066781,-0.00094
 727,0.00026990,0.00176881,-0.00246939,-0.00010511,-0.00410440,-0.00229
 738,0.00140206,0.01008670,-0.12541255,0.16387498,0.04004834,-0.0000018
 3,0.00001299,0.00000331,0.00002522,-0.00000355,-0.00002240,-0.00001580
 ,0.00000010,0.00001327,0.00005843,-0.00007488,0.00004930,-0.00006986,-
 0.00006109,0.00004905,-0.00002416,0.00000867,0.00002915,0.00011055,0.0
 0009455,-0.00007202,0.00013883,-0.00027720,0.00016289,-0.00002594,0.00
 009521,0.00016052,-0.00001360,-0.00003756,0.00000682,-0.00003191,-0.00
 000570,-0.00000719,-0.00000732,-0.00001465,-0.00001256,0.00000052,-0.0
 0000260,-0.00000863,0.00000879,0.00001207,-0.00001184,0.00000506,0.000
 00285,0.00000823,-0.00009577,0.00003731,0.00003371,0.00108729,0.000212
 90,0.00013683,0.13599286,0.00000294,-0.00000149,0.00004305,-0.00016306
 ,0.00002650,-0.00004317,-0.00019984,-0.00084063,-0.00047002,0.00237668
 ,0.00089875,-0.00133378,0.00122305,0.00104118,0.00132518,-0.00065218,0
 .00067683,-0.00106827,0.00024069,0.00009777,0.00015512,-0.00003570,0.0
 0012003,-0.00028508,0.00001362,-0.00021799,0.00023156,-0.00003093,0.00
 009597,-0.00020590,-0.00006496,-0.00018987,0.00005313,0.00010694,0.000
 06090,0.00013556,-0.00001486,0.00009507,-0.00008536,-0.00011461,-0.000
 10881,0.00010128,-0.00006698,-0.00092695,0.00013533,0.00022050,0.00045
 572,0.00056113,-0.00184092,0.00167047,0.00115915,-0.00260125,-0.003713
 43,0.00345078,0.19110852,-0.29278931,-0.11949748,0.00001412,0.00001519
 ,-0.00000261,0.00000121,-0.00000990,-0.00000875,-0.00000647,-0.0000011
 1,0.00000636,0.00002819,-0.00003473,0.00003100,0.00000786,0.00002417,0
 .00001186,0.00011991,0.00002818,-0.00007043,0.00019256,0.00014763,-0.0
 0014398,-0.00027837,0.00046819,-0.00007370,-0.00017298,0.00003119,0.00
 012530,-0.00000551,-0.00001557,-0.00000534,-0.00001091,0.00000482,-0.0
 0000003,0.00000707,-0.00000060,-0.00000532,-0.00000671,-0.00000115,-0.
 00000006,0.00000631,-0.00000393,0.00000615,-0.00002508,0.00000595,0.00
 000200,0.00008440,-0.00000642,0.00006899,-0.00018889,-0.00034476,-0.00
 018937,-0.18510626,0.29990719,0.00004706,0.00005384,0.00005884,-0.0000
 8010,-0.00011391,-0.00011536,0.00012426,-0.00123127,-0.00023685,-0.000
 91533,0.00204892,-0.00456977,0.00027520,-0.00037078,-0.00033452,0.0000
 8823,-0.00039518,0.00037286,-0.00013079,-0.00000472,-0.00009001,-0.000
 02537,-0.00013283,0.00011011,0.00003958,0.00009568,0.00004688,-0.00000
 088,-0.00002756,0.00004710,0.00004362,0.00007328,0.00004536,-0.0000400
 9,0.00000189,-0.00009395,0.00000514,-0.00007393,0.00011859,0.00002429,
 0.00015141,-0.00029814,0.00001905,0.00058439,0.00061204,-0.00038951,0.
 00020908,-0.00087045,0.00161079,-0.00164600,0.00283701,0.01971539,-0.0
 3275591,-0.01142972,0.04823277,-0.10671342,-0.10481279,0.00000744,0.00
 000345,-0.00000848,-0.00004161,0.00000337,0.00002159,-0.00001204,-0.00
 000851,0.00000957,0.00003929,-0.00002310,0.00004104,0.00005844,0.00014
 072,0.00001093,-0.00001809,0.00003861,0.00001695,0.00036286,0.00012860
 ,-0.00020816,0.00000635,0.00001547,0.00040892,-0.00008222,-0.00013162,
 -0.00012955,0.00001664,0.00001945,-0.00000438,0.00001744,0.00000771,0.
 00000430,0.00000612,0.00000979,0.00001287,0.00000510,0.00000111,0.0000
 0857,-0.00000329,-0.00000915,0.00000687,0.00002125,0.00000219,-0.00001
 126,0.00000195,-0.00001913,0.00000701,-0.00075986,0.00175099,-0.000286
 71,-0.05989601,0.11958221,0.10972979,-0.00018823,-0.00011920,-0.000131
 60,0.00017446,0.00002350,0.00015999,0.00050310,0.00014416,0.00046834,-
 0.00000703,-0.00005836,0.00127632,-0.00055612,-0.00037562,-0.00040082,
 0.00003021,0.00025629,0.00020878,-0.00003519,0.00002921,0.00002826,0.0
 0003272,0.00006184,0.00000309,-0.00005267,-0.00000177,-0.00015509,0.00
 003516,-0.00002616,0.00007516,-0.00000276,0.00005999,-0.00006943,-0.00
 006841,-0.00004141,-0.00001627,0.00000317,0.00001831,-0.00002071,-0.00
 004882,0.00002446,0.00029407,0.00000918,-0.00020295,-0.00037669,0.0014
 9824,0.00024191,0.00064040,0.00087970,0.00045191,0.00126057,0.00348628
 ,-0.00601034,0.00639363,-0.28312893,0.12740192,-0.18395550,-0.00002165
 ,-0.00000296,0.00003055,0.00007834,-0.00000259,-0.00005502,0.00006464,
 0.00002731,-0.00007165,-0.00028969,0.00023991,-0.00002229,0.00008707,-
 0.00027523,0.00010662,-0.00019866,-0.00011347,-0.00001719,-0.00010204,
 -0.00009120,0.00000112,0.00068383,-0.00026176,-0.00011885,0.00011214,-
 0.00012922,-0.00011543,-0.00000101,-0.00002833,0.00000173,-0.00000408,
 -0.00001329,-0.00000638,-0.00000693,-0.00001090,-0.00001026,0.00000661
 ,-0.00000248,-0.00000944,-0.00000003,0.00001068,-0.00000932,0.00002662
 ,-0.00001919,-0.00000041,-0.00011274,-0.00001108,0.00000947,-0.0006445
 2,-0.00022297,0.00017920,-0.01115425,-0.00416809,-0.00837307,0.2889123
 2,0.00001780,-0.00021911,-0.00002441,-0.00010676,0.00066954,-0.0001128
 7,0.00051684,0.00034991,0.00053199,-0.00340070,0.00157593,-0.00161987,
 -0.00075312,-0.00099848,-0.00055941,0.00069055,-0.00008895,-0.00006833
 ,0.00002432,0.00013062,0.00002131,0.00002331,0.00018828,-0.00002478,-0
 .00013268,-0.00011823,-0.00036989,0.00006946,0.00000272,0.00016803,-0.
 00002945,0.00008662,-0.00021516,-0.00011182,-0.00007836,0.00004471,-0.
 00002359,0.00008922,-0.00018825,0.00025078,0.00001880,0.00088179,-0.00
 011726,-0.00094212,-0.00132540,0.00095833,0.00068648,0.00239822,0.0003
 6274,0.00391071,-0.00320935,-0.00458533,-0.00337529,0.00950507,0.10343
 092,-0.05994059,0.03024835,-0.00004134,-0.00000175,0.00000989,0.000067
 89,-0.00000170,-0.00006009,-0.00001912,-0.00000185,0.00002305,0.000104
 70,0.00001324,0.00010549,0.00008845,-0.00035421,0.00008504,-0.00030616
 ,-0.00012800,0.00021653,-0.00023266,-0.00011137,0.00002636,0.00089476,
 -0.00126984,0.00022721,0.00003006,-0.00002297,0.00005671,-0.00001854,-
 0.00006955,0.00000812,-0.00003295,-0.00002684,-0.00002597,-0.00002031,
 -0.00002995,-0.00002162,0.00001195,-0.00000465,-0.00002071,-0.00000253
 ,0.00002805,-0.00002659,0.00003960,-0.00001420,0.00000534,-0.00034938,
 0.00002308,-0.00003347,0.00000996,0.00049469,-0.00008900,0.01949409,-0
 .00666507,0.01873486,-0.11680284,0.06619517,0.00015266,0.00016844,0.00
 008161,-0.00017922,-0.00031471,-0.00010551,0.00029217,-0.00032754,-0.0
 0013565,0.00049576,0.00205523,0.00045366,-0.00005832,-0.00000128,0.000
 96048,0.00007651,0.00056666,-0.00032461,0.00012514,-0.00009982,0.00013
 987,0.00002913,0.00011267,-0.00007327,0.00002129,-0.00001517,0.0000695
 3,-0.00002088,-0.00000311,-0.00007370,-0.00001043,-0.00005389,0.000036
 76,0.00001556,-0.00000152,0.00002286,0.00002754,0.00002201,0.00002922,
 -0.00015509,-0.00008130,-0.00008764,0.00001436,-0.00011242,0.00031930,
 0.00061280,0.00209674,-0.00055040,0.00050307,-0.00461366,-0.00386706,-
 0.02992601,0.01325345,-0.02349808,-0.16730160,0.04771792,-0.17067767,-
 0.00004021,-0.00003131,-0.00001446,-0.00008939,0.00000893,0.00007362,-
 0.00005233,-0.00002655,0.00006264,0.00020046,-0.00017113,0.00011477,-0
 .00004779,0.00037305,-0.00010409,-0.00013158,-0.00004431,0.00013595,0.
 00003084,0.00007586,0.00003831,0.00056968,-0.00145097,0.00048611,-0.00
 002592,0.00010598,0.00012499,-0.00000920,0.00000366,-0.00001032,-0.000
 00071,0.00000668,0.00002659,0.00000150,0.00000823,-0.00000063,0.000000
 17,-0.00000328,0.00000718,-0.00000067,-0.00000633,0.00000541,-0.000020
 20,-0.00001977,0.00000314,-0.00009308,-0.00006302,-0.00053050,-0.00049
 929,-0.00013502,0.00025032,0.01269515,-0.00369648,0.00897293,0.1827981
 4,-0.05530291,0.18763834\\-0.00000049,0.00000258,0.00000169,-0.0000000
 2,-0.00000064,-0.00000662,0.00000097,0.00000083,0.00000006,-0.00000477
 ,0.00000940,0.00000179,-0.00000025,-0.00000637,-0.00000615,0.00000271,
 0.00000281,0.00000914,0.00000003,-0.00000187,-0.00000177,0.00000145,0.
 00000172,0.00000044,-0.00000497,-0.00000204,-0.00000439,-0.00000015,0.
 00000079,0.00000206,0.00000089,0.00000058,-0.00000151,-0.00000078,0.00
 000033,0.00000395,-0.00000363,0.00000265,-0.00000466,0.00000950,0.0000
 0026,0.00001104,-0.00000331,-0.00000976,-0.00001311,0.00000328,0.00001
 175,0.00001436,-0.00000877,0.00000180,-0.00000594,0.00001203,-0.000010
 46,-0.00000713,-0.00001064,0.00000005,0.00000238,-0.00000144,0.0000010
 2,-0.00000109,0.00000110,-0.00000073,0.00000129,-0.00000076,-0.0000024
 9,-0.00000163,0.00000071,-0.00000208,-0.00000127,0.00000208,-0.0000002
 9,0.00000272,0.00000139,-0.00000039,-0.00000055,-0.00000048,-0.0000005
 4,-0.00000134,0.00000051,-0.00000158,-0.00000004,0.00000137,-0.0000001
 9,-0.00000018,-0.00000026,-0.00000050,-0.00000042,-0.00000079,-0.00000
 053,0.00000046,-0.00000044,-0.00000003,0.00000031,-0.00000139,0.000000
 79,0.00000094,-0.00000013,0.00000050,0.00000048,-0.00000053,0.00000109
 ,0.00000299,-0.00000029,-0.00000075,-0.00000417,0.00000104,-0.00000076
 ,0.00000219,0.00000284,0.00000279,0.00000152,0.00000238,0.00000025,0.0
 0000215\\\@


 PATIENCE IS THE ABILITY TO IDLE YOUR MOTOR WHEN
 YOU FEEL LIKE STRIPPING YOUR GEARS.
 Job cpu time:       0 days 23 hours 15 minutes 31.6 seconds.
 Elapsed time:       0 days  5 hours 48 minutes 56.9 seconds.
 File lengths (MBytes):  RWF=   1049 Int=      0 D2E=      0 Chk=     33 Scr=      1
 Normal termination of Gaussian 16 at Fri May 19 19:03:39 2023.
### All Done ###
