### Starting Gaussian ###
 Entering Gaussian System, Link 0=g16
 Initial command:
 /cluster/software/gaussian/gaussian-16-A.03/avx2/g16/l1.exe "/local/scratch/ks29c/Gau-2286.inp" -scrdir="/local/scratch/ks29c/"
 Entering Link 1 = /cluster/software/gaussian/gaussian-16-A.03/avx2/g16/l1.exe PID=      2287.
  
 Copyright (c) 1988,1990,1992,1993,1995,1998,2003,2009,2016,
            Gaussian, Inc.  All Rights Reserved.
  
 This is part of the Gaussian(R) 16 program.  It is based on
 the Gaussian(R) 09 system (copyright 2009, Gaussian, Inc.),
 the Gaussian(R) 03 system (copyright 2003, Gaussian, Inc.),
 the Gaussian(R) 98 system (copyright 1998, Gaussian, Inc.),
 the Gaussian(R) 94 system (copyright 1995, Gaussian, Inc.),
 the Gaussian 92(TM) system (copyright 1992, Gaussian, Inc.),
 the Gaussian 90(TM) system (copyright 1990, Gaussian, Inc.),
 the Gaussian 88(TM) system (copyright 1988, Gaussian, Inc.),
 the Gaussian 86(TM) system (copyright 1986, Carnegie Mellon
 University), and the Gaussian 82(TM) system (copyright 1983,
 Carnegie Mellon University). Gaussian is a federally registered
 trademark of Gaussian, Inc.
  
 This software contains proprietary and confidential information,
 including trade secrets, belonging to Gaussian, Inc.
  
 This software is provided under written license and may be
 used, copied, transmitted, or stored only in accord with that
 written license.
  
 The following legend is applicable only to US Government
 contracts under FAR:
  
                    RESTRICTED RIGHTS LEGEND
  
 Use, reproduction and disclosure by the US Government is
 subject to restrictions as set forth in subparagraphs (a)
 and (c) of the Commercial Computer Software - Restricted
 Rights clause in FAR 52.227-19.
  
 Gaussian, Inc.
 340 Quinnipiac St., Bldg. 40, Wallingford CT 06492
  
  
 ---------------------------------------------------------------
 Warning -- This program may not be used in any manner that
 competes with the business of Gaussian, Inc. or will provide
 assistance to any competitor of Gaussian, Inc.  The licensee
 of this program is prohibited from giving any competitor of
 Gaussian, Inc. access to this program.  By using this program,
 the user acknowledges that Gaussian, Inc. is engaged in the
 business of creating and licensing software in the field of
 computational chemistry and represents and warrants to the
 licensee that it is not a competitor of Gaussian, Inc. and that
 it will not use this program in any manner prohibited above.
 ---------------------------------------------------------------
  

 Cite this work as:
 Gaussian 16, Revision A.03,
 M. J. Frisch, G. W. Trucks, H. B. Schlegel, G. E. Scuseria, 
 M. A. Robb, J. R. Cheeseman, G. Scalmani, V. Barone, 
 G. A. Petersson, H. Nakatsuji, X. Li, M. Caricato, A. V. Marenich, 
 J. Bloino, B. G. Janesko, R. Gomperts, B. Mennucci, H. P. Hratchian, 
 J. V. Ortiz, A. F. Izmaylov, J. L. Sonnenberg, D. Williams-Young, 
 F. Ding, F. Lipparini, F. Egidi, J. Goings, B. Peng, A. Petrone, 
 T. Henderson, D. Ranasinghe, V. G. Zakrzewski, J. Gao, N. Rega, 
 G. Zheng, W. Liang, M. Hada, M. Ehara, K. Toyota, R. Fukuda, 
 J. Hasegawa, M. Ishida, T. Nakajima, Y. Honda, O. Kitao, H. Nakai, 
 T. Vreven, K. Throssell, J. A. Montgomery, Jr., J. E. Peralta, 
 F. Ogliaro, M. J. Bearpark, J. J. Heyd, E. N. Brothers, K. N. Kudin, 
 V. N. Staroverov, T. A. Keith, R. Kobayashi, J. Normand, 
 K. Raghavachari, A. P. Rendell, J. C. Burant, S. S. Iyengar, 
 J. Tomasi, M. Cossi, J. M. Millam, M. Klene, C. Adamo, R. Cammi, 
 J. W. Ochterski, R. L. Martin, K. Morokuma, O. Farkas, 
 J. B. Foresman, and D. J. Fox, Gaussian, Inc., Wallingford CT, 2016.
 
 ******************************************
 Gaussian 16:  ES64L-G16RevA.03 25-Dec-2016
                18-May-2023 
 ******************************************
 %chk=CCCCC1dNCdCCdNCdCCdCqCrCdC1.chk
 %NProcShared=20
 Will use up to   20 processors via shared memory.
 -----------------------------
 # opt freq b3lyp/6-31g(2df,p)
 -----------------------------
 1/18=20,19=15,26=3,38=1/1,3;
 2/9=110,12=2,17=6,18=5,40=1/2;
 3/5=1,6=6,7=104,11=2,25=1,30=1,71=1,74=-5/1,2,3;
 4//1;
 5/5=2,38=5/2;
 6/7=2,8=2,9=2,10=2,28=1/1;
 7//1,2,3,16;
 1/18=20,19=15,26=3/3(2);
 2/9=110/2;
 99//99;
 2/9=110/2;
 3/5=1,6=6,7=104,11=2,25=1,30=1,71=1,74=-5/1,2,3;
 4/5=5,16=3,69=1/1;
 5/5=2,38=5/2;
 7//1,2,3,16;
 1/18=20,19=15,26=3/3(-5);
 2/9=110/2;
 6/7=2,8=2,9=2,10=2,19=2,28=1/1;
 99/9=1/99;
 -------------------
 Title Card Required
 -------------------
 Symbolic Z-matrix:
 Charge =  0 Multiplicity = 1
 C                     1.09984  -0.04454  -0.05672 
 C                     2.6737   -0.08215  -0.03419 
 C                     3.42366  -1.58351   0.86523 
 C                     5.26727  -2.54215   1.43953 
 C                     6.35317  -4.37786   2.53925 
 N                     6.74291  -3.04936   1.74338 
 C                     7.43461  -3.91071   2.25938 
 C                     8.63358  -3.96099   2.28951 
 C                     9.36419  -4.88149   2.84095 
 N                     10.56173  -4.90591   2.85558 
 C                     10.51686  -6.01315   3.51897 
 C                     11.74388  -6.34527   3.71786 
 C                     10.72227  -7.13127   4.18859 
 C                     11.82885  -7.7535    4.56147 
 C                     13.96822  -7.481     4.39823 
 C                     9.6592   -7.34822   4.31864 
 C                     7.90409  -6.10539   3.57408 
 H                     0.71162   0.84059  -0.58698 
 H                     0.70541  -0.01754   0.95926 
 H                     0.70541  -0.9276   -0.55986 
 H                     2.96626   0.85596   0.43943 
 H                     2.96626  -0.05714  -1.08478 
 H                     2.77145  -2.20007   0.19732 
 H                     2.77145  -1.2855    1.72397 
 H                     5.17211  -0.91606   1.3495 
 H                     5.17211  -1.69559   0.04826 
 H                     7.55367  -4.8795    2.83974 
 H                     9.06572  -3.23869   1.8568 
 H                     9.19912  -5.69299   3.32708 
 H                     8.88371  -6.66224   3.90795 
 H                     12.72945  -6.05622   3.54469 
 H                     10.44681  -8.62323   5.08241 
 H                     14.18728  -6.55031   3.84069 
 H                     15.12769  -7.9359    3.65342 
 H                     15.12769  -7.03891   5.15073 
 H                     11.34629  -8.1025    4.77071 
 H                     6.47666  -5.86947   3.43279 
 
 Add virtual bond connecting atoms H36        and H32        Dist= 2.05D+00.
 Add virtual bond connecting atoms H34        and C15        Dist= 2.74D+00.
 Add virtual bond connecting atoms H35        and C15        Dist= 2.74D+00.
 Add virtual bond connecting atoms H37        and C17        Dist= 2.75D+00.
 Add virtual bond connecting atoms H37        and H27        Dist= 2.98D+00.
 Add virtual bond connecting atoms H26        and H25        Dist= 2.87D+00.
 Add virtual bond connecting atoms H33        and H31        Dist= 2.96D+00.
 Add virtual bond connecting atoms H25        and C4         Dist= 3.08D+00.
 Add virtual bond connecting atoms H26        and C4         Dist= 3.08D+00.
 Add virtual bond connecting atoms C3         and C2         Dist= 3.60D+00.
 Add virtual bond connecting atoms H25        and C3         Dist= 3.65D+00.
 Add virtual bond connecting atoms H26        and C3         Dist= 3.65D+00.

 GradGradGradGradGradGradGradGradGradGradGradGradGradGradGradGradGradGrad
 Berny optimization.
 Initialization pass.
                           ----------------------------
                           !    Initial Parameters    !
                           ! (Angstroms and Degrees)  !
 --------------------------                            --------------------------
 ! Name  Definition              Value          Derivative Info.                !
 --------------------------------------------------------------------------------
 ! R1    R(1,2)                  1.5745         estimate D2E/DX2                !
 ! R2    R(1,18)                 1.1024         estimate D2E/DX2                !
 ! R3    R(1,19)                 1.0902         estimate D2E/DX2                !
 ! R4    R(1,20)                 1.0902         estimate D2E/DX2                !
 ! R5    R(2,3)                  1.9041         estimate D2E/DX2                !
 ! R6    R(2,21)                 1.0909         estimate D2E/DX2                !
 ! R7    R(2,22)                 1.0909         estimate D2E/DX2                !
 ! R8    R(3,23)                 1.1188         estimate D2E/DX2                !
 ! R9    R(3,24)                 1.1188         estimate D2E/DX2                !
 ! R10   R(3,25)                 1.9332         estimate D2E/DX2                !
 ! R11   R(3,26)                 1.9332         estimate D2E/DX2                !
 ! R12   R(4,6)                  1.5897         estimate D2E/DX2                !
 ! R13   R(4,25)                 1.6314         estimate D2E/DX2                !
 ! R14   R(4,26)                 1.6314         estimate D2E/DX2                !
 ! R15   R(5,6)                  1.5969         estimate D2E/DX2                !
 ! R16   R(5,7)                  1.2108         estimate D2E/DX2                !
 ! R17   R(6,7)                  1.2193         estimate D2E/DX2                !
 ! R18   R(7,8)                  1.2004         estimate D2E/DX2                !
 ! R19   R(7,27)                 1.1356         estimate D2E/DX2                !
 ! R20   R(8,9)                  1.2982         estimate D2E/DX2                !
 ! R21   R(8,28)                 0.9464         estimate D2E/DX2                !
 ! R22   R(9,10)                 1.1979         estimate D2E/DX2                !
 ! R23   R(9,11)                 1.7519         estimate D2E/DX2                !
 ! R24   R(9,29)                 0.9603         estimate D2E/DX2                !
 ! R25   R(10,11)                1.2915         estimate D2E/DX2                !
 ! R26   R(11,12)                1.2866         estimate D2E/DX2                !
 ! R27   R(11,13)                1.3194         estimate D2E/DX2                !
 ! R28   R(11,16)                1.7769         estimate D2E/DX2                !
 ! R29   R(12,13)                1.3722         estimate D2E/DX2                !
 ! R30   R(12,14)                1.6438         estimate D2E/DX2                !
 ! R31   R(12,31)                1.0416         estimate D2E/DX2                !
 ! R32   R(13,14)                1.3232         estimate D2E/DX2                !
 ! R33   R(13,16)                1.0927         estimate D2E/DX2                !
 ! R34   R(13,36)                1.2929         estimate D2E/DX2                !
 ! R35   R(14,36)                0.6312         estimate D2E/DX2                !
 ! R36   R(15,33)                1.1068         estimate D2E/DX2                !
 ! R37   R(15,34)                1.4512         estimate D2E/DX2                !
 ! R38   R(15,35)                1.4512         estimate D2E/DX2                !
 ! R39   R(16,30)                1.1138         estimate D2E/DX2                !
 ! R40   R(17,30)                1.1752         estimate D2E/DX2                !
 ! R41   R(17,37)                1.4537         estimate D2E/DX2                !
 ! R42   R(25,26)                1.5169         estimate D2E/DX2                !
 ! R43   R(27,37)                1.5785         estimate D2E/DX2                !
 ! R44   R(31,33)                1.5675         estimate D2E/DX2                !
 ! R45   R(32,36)                1.0851         estimate D2E/DX2                !
 ! A1    A(2,1,18)             112.2145         estimate D2E/DX2                !
 ! A2    A(2,1,19)             110.4209         estimate D2E/DX2                !
 ! A3    A(2,1,20)             110.4209         estimate D2E/DX2                !
 ! A4    A(18,1,19)            107.5152         estimate D2E/DX2                !
 ! A5    A(18,1,20)            107.5148         estimate D2E/DX2                !
 ! A6    A(19,1,20)            108.6182         estimate D2E/DX2                !
 ! A7    A(1,2,3)              114.7913         estimate D2E/DX2                !
 ! A8    A(1,2,21)             104.7001         estimate D2E/DX2                !
 ! A9    A(1,2,22)             104.7002         estimate D2E/DX2                !
 ! A10   A(3,2,21)             111.5535         estimate D2E/DX2                !
 ! A11   A(3,2,22)             111.5539         estimate D2E/DX2                !
 ! A12   A(21,2,22)            109.0568         estimate D2E/DX2                !
 ! A13   A(2,3,23)              85.5796         estimate D2E/DX2                !
 ! A14   A(2,3,24)              85.5796         estimate D2E/DX2                !
 ! A15   A(2,3,25)             101.6732         estimate D2E/DX2                !
 ! A16   A(2,3,26)             101.6731         estimate D2E/DX2                !
 ! A17   A(23,3,24)            105.3785         estimate D2E/DX2                !
 ! A18   A(23,3,25)            150.1243         estimate D2E/DX2                !
 ! A19   A(23,3,26)            104.0649         estimate D2E/DX2                !
 ! A20   A(24,3,25)            104.0649         estimate D2E/DX2                !
 ! A21   A(24,3,26)            150.1243         estimate D2E/DX2                !
 ! A22   A(6,4,25)             112.5028         estimate D2E/DX2                !
 ! A23   A(6,4,26)             112.5026         estimate D2E/DX2                !
 ! A24   A(4,6,5)               97.709          estimate D2E/DX2                !
 ! A25   A(4,6,7)              146.3975         estimate D2E/DX2                !
 ! A26   A(5,7,8)              150.4731         estimate D2E/DX2                !
 ! A27   A(5,7,27)              69.2902         estimate D2E/DX2                !
 ! A28   A(6,7,8)              127.3614         estimate D2E/DX2                !
 ! A29   A(6,7,27)             151.4557         estimate D2E/DX2                !
 ! A30   A(8,7,27)              81.1829         estimate D2E/DX2                !
 ! A31   A(7,8,9)              127.0491         estimate D2E/DX2                !
 ! A32   A(7,8,28)             114.3695         estimate D2E/DX2                !
 ! A33   A(9,8,28)             118.5814         estimate D2E/DX2                !
 ! A34   A(8,9,10)             125.6119         estimate D2E/DX2                !
 ! A35   A(8,9,29)             135.8514         estimate D2E/DX2                !
 ! A36   A(10,9,29)             98.5366         estimate D2E/DX2                !
 ! A37   A(11,9,29)             51.0435         estimate D2E/DX2                !
 ! A38   A(9,11,12)            148.6554         estimate D2E/DX2                !
 ! A39   A(9,11,13)            147.8114         estimate D2E/DX2                !
 ! A40   A(9,11,16)            109.9952         estimate D2E/DX2                !
 ! A41   A(10,11,12)           105.5193         estimate D2E/DX2                !
 ! A42   A(10,11,16)           153.1313         estimate D2E/DX2                !
 ! A43   A(12,11,16)           101.3494         estimate D2E/DX2                !
 ! A44   A(11,12,14)           110.4733         estimate D2E/DX2                !
 ! A45   A(11,12,31)           143.6149         estimate D2E/DX2                !
 ! A46   A(13,12,31)           156.9892         estimate D2E/DX2                !
 ! A47   A(14,12,31)           105.9118         estimate D2E/DX2                !
 ! A48   A(11,13,14)           132.2029         estimate D2E/DX2                !
 ! A49   A(11,13,36)           160.0975         estimate D2E/DX2                !
 ! A50   A(12,13,16)           151.4982         estimate D2E/DX2                !
 ! A51   A(12,13,36)           103.0266         estimate D2E/DX2                !
 ! A52   A(14,13,16)           133.3698         estimate D2E/DX2                !
 ! A53   A(16,13,36)           105.4752         estimate D2E/DX2                !
 ! A54   A(12,14,36)           127.1762         estimate D2E/DX2                !
 ! A55   A(33,15,34)            81.1944         estimate D2E/DX2                !
 ! A56   A(33,15,35)            81.1941         estimate D2E/DX2                !
 ! A57   A(34,15,35)            73.9353         estimate D2E/DX2                !
 ! A58   A(11,16,30)            72.9855         estimate D2E/DX2                !
 ! A59   A(13,16,30)           120.7419         estimate D2E/DX2                !
 ! A60   A(30,17,37)           157.3689         estimate D2E/DX2                !
 ! A61   A(3,25,4)              73.885          estimate D2E/DX2                !
 ! A62   A(3,26,4)              73.8849         estimate D2E/DX2                !
 ! A63   A(7,27,37)            130.9586         estimate D2E/DX2                !
 ! A64   A(12,31,33)           139.5668         estimate D2E/DX2                !
 ! A65   A(15,33,31)           100.1429         estimate D2E/DX2                !
 ! A66   A(13,36,32)            95.149          estimate D2E/DX2                !
 ! A67   A(17,37,27)            57.8812         estimate D2E/DX2                !
 ! A68   L(8,9,11,29,-1)       186.895          estimate D2E/DX2                !
 ! A69   L(10,11,13,17,-1)     190.9475         estimate D2E/DX2                !
 ! A70   L(16,30,17,10,-1)     192.3386         estimate D2E/DX2                !
 ! A71   L(14,36,32,1,-1)      173.8688         estimate D2E/DX2                !
 ! A72   L(8,9,11,29,-2)       180.0028         estimate D2E/DX2                !
 ! A73   L(10,11,13,17,-2)     179.9886         estimate D2E/DX2                !
 ! A74   L(16,30,17,10,-2)     179.9759         estimate D2E/DX2                !
 ! A75   L(14,36,32,1,-2)      179.9753         estimate D2E/DX2                !
 ! D1    D(18,1,2,3)          -179.9998         estimate D2E/DX2                !
 ! D2    D(18,1,2,21)           57.3485         estimate D2E/DX2                !
 ! D3    D(18,1,2,22)          -57.3475         estimate D2E/DX2                !
 ! D4    D(19,1,2,3)            60.0706         estimate D2E/DX2                !
 ! D5    D(19,1,2,21)          -62.5812         estimate D2E/DX2                !
 ! D6    D(19,1,2,22)         -177.2772         estimate D2E/DX2                !
 ! D7    D(20,1,2,3)           -60.0706         estimate D2E/DX2                !
 ! D8    D(20,1,2,21)          177.2777         estimate D2E/DX2                !
 ! D9    D(20,1,2,22)           62.5817         estimate D2E/DX2                !
 ! D10   D(1,2,3,23)            52.9142         estimate D2E/DX2                !
 ! D11   D(1,2,3,24)           -52.9141         estimate D2E/DX2                !
 ! D12   D(1,2,3,25)          -156.3832         estimate D2E/DX2                !
 ! D13   D(1,2,3,26)           156.3834         estimate D2E/DX2                !
 ! D14   D(21,2,3,23)          171.794          estimate D2E/DX2                !
 ! D15   D(21,2,3,24)           65.9658         estimate D2E/DX2                !
 ! D16   D(21,2,3,25)          -37.5034         estimate D2E/DX2                !
 ! D17   D(21,2,3,26)          -84.7368         estimate D2E/DX2                !
 ! D18   D(22,2,3,23)          -65.9659         estimate D2E/DX2                !
 ! D19   D(22,2,3,24)         -171.7942         estimate D2E/DX2                !
 ! D20   D(22,2,3,25)           84.7366         estimate D2E/DX2                !
 ! D21   D(22,2,3,26)           37.5032         estimate D2E/DX2                !
 ! D22   D(2,3,25,4)          -161.2978         estimate D2E/DX2                !
 ! D23   D(23,3,25,4)          -59.6645         estimate D2E/DX2                !
 ! D24   D(24,3,25,4)          110.3855         estimate D2E/DX2                !
 ! D25   D(2,3,26,4)           161.2975         estimate D2E/DX2                !
 ! D26   D(23,3,26,4)         -110.3858         estimate D2E/DX2                !
 ! D27   D(24,3,26,4)           59.6644         estimate D2E/DX2                !
 ! D28   D(25,4,6,5)           149.7865         estimate D2E/DX2                !
 ! D29   D(25,4,6,7)           149.7871         estimate D2E/DX2                !
 ! D30   D(26,4,6,5)          -149.7865         estimate D2E/DX2                !
 ! D31   D(26,4,6,7)          -149.7859         estimate D2E/DX2                !
 ! D32   D(6,4,25,3)           174.5324         estimate D2E/DX2                !
 ! D33   D(6,4,26,3)          -174.533          estimate D2E/DX2                !
 ! D34   D(4,6,7,8)           -179.9996         estimate D2E/DX2                !
 ! D35   D(4,6,7,27)             0.0002         estimate D2E/DX2                !
 ! D36   D(5,7,8,9)              0.0023         estimate D2E/DX2                !
 ! D37   D(5,7,8,28)          -179.9984         estimate D2E/DX2                !
 ! D38   D(6,7,8,9)            179.9997         estimate D2E/DX2                !
 ! D39   D(6,7,8,28)            -0.001          estimate D2E/DX2                !
 ! D40   D(27,7,8,9)            -0.0002         estimate D2E/DX2                !
 ! D41   D(27,7,8,28)          179.9991         estimate D2E/DX2                !
 ! D42   D(5,7,27,37)            0.0008         estimate D2E/DX2                !
 ! D43   D(6,7,27,37)           -0.0003         estimate D2E/DX2                !
 ! D44   D(8,7,27,37)          179.9995         estimate D2E/DX2                !
 ! D45   D(7,8,9,10)           179.9996         estimate D2E/DX2                !
 ! D46   D(7,8,9,29)             0.0004         estimate D2E/DX2                !
 ! D47   D(28,8,9,10)            0.0003         estimate D2E/DX2                !
 ! D48   D(28,8,9,29)         -179.9988         estimate D2E/DX2                !
 ! D49   D(7,8,11,12)          179.9939         estimate D2E/DX2                !
 ! D50   D(7,8,11,13)            0.0188         estimate D2E/DX2                !
 ! D51   D(7,8,11,16)            0.005          estimate D2E/DX2                !
 ! D52   D(28,8,11,12)          -0.0071         estimate D2E/DX2                !
 ! D53   D(28,8,11,13)        -179.9822         estimate D2E/DX2                !
 ! D54   D(28,8,11,16)        -179.996          estimate D2E/DX2                !
 ! D55   D(29,9,11,12)         179.9884         estimate D2E/DX2                !
 ! D56   D(29,9,11,13)           0.0155         estimate D2E/DX2                !
 ! D57   D(29,9,11,16)           0.0019         estimate D2E/DX2                !
 ! D58   D(9,11,12,14)        -179.9917         estimate D2E/DX2                !
 ! D59   D(9,11,12,31)           0.0118         estimate D2E/DX2                !
 ! D60   D(10,11,12,14)       -179.9967         estimate D2E/DX2                !
 ! D61   D(10,11,12,31)          0.0069         estimate D2E/DX2                !
 ! D62   D(16,11,12,14)         -0.0047         estimate D2E/DX2                !
 ! D63   D(16,11,12,31)        179.9989         estimate D2E/DX2                !
 ! D64   D(9,11,13,14)         179.9966         estimate D2E/DX2                !
 ! D65   D(9,11,13,36)        -179.9629         estimate D2E/DX2                !
 ! D66   D(9,11,16,30)          -0.0145         estimate D2E/DX2                !
 ! D67   D(10,11,16,30)         -0.0244         estimate D2E/DX2                !
 ! D68   D(12,11,16,30)        179.9927         estimate D2E/DX2                !
 ! D69   D(31,12,13,16)        179.9959         estimate D2E/DX2                !
 ! D70   D(31,12,13,36)          0.0251         estimate D2E/DX2                !
 ! D71   D(11,12,14,36)         -0.0137         estimate D2E/DX2                !
 ! D72   D(31,12,14,36)        179.9841         estimate D2E/DX2                !
 ! D73   D(11,12,31,33)        179.9951         estimate D2E/DX2                !
 ! D74   D(13,12,31,33)         -0.0145         estimate D2E/DX2                !
 ! D75   D(14,12,31,33)         -0.0014         estimate D2E/DX2                !
 ! D76   D(36,13,14,12)       -179.9813         estimate D2E/DX2                !
 ! D77   D(12,13,16,30)          0.006          estimate D2E/DX2                !
 ! D78   D(14,13,16,30)        179.9792         estimate D2E/DX2                !
 ! D79   D(36,13,16,30)        179.9766         estimate D2E/DX2                !
 ! D80   D(11,13,36,32)        179.9593         estimate D2E/DX2                !
 ! D81   D(12,13,36,32)       -179.9951         estimate D2E/DX2                !
 ! D82   D(16,13,36,32)          0.0193         estimate D2E/DX2                !
 ! D83   D(34,15,33,31)        142.5161         estimate D2E/DX2                !
 ! D84   D(35,15,33,31)       -142.5163         estimate D2E/DX2                !
 ! D85   D(33,15,34,35)         83.3041         estimate D2E/DX2                !
 ! D86   D(11,16,17,37)       -179.9925         estimate D2E/DX2                !
 ! D87   D(13,16,17,37)        179.9988         estimate D2E/DX2                !
 ! D88   D(30,17,37,27)        179.965          estimate D2E/DX2                !
 ! D89   D(7,27,37,17)         179.9985         estimate D2E/DX2                !
 ! D90   D(12,31,33,15)          0.0013         estimate D2E/DX2                !
 --------------------------------------------------------------------------------
 Trust Radius=3.00D-01 FncErr=1.00D-07 GrdErr=1.00D-06 EigMax=2.50D+02 EigMin=1.00D-04
 Number of steps in this run=    220 maximum allowed number of steps=    222.
 GradGradGradGradGradGradGradGradGradGradGradGradGradGradGradGradGradGrad

                          Input orientation:                          
 ---------------------------------------------------------------------
 Center     Atomic      Atomic             Coordinates (Angstroms)
 Number     Number       Type             X           Y           Z
 ---------------------------------------------------------------------
      1          6           0        1.099840   -0.044540   -0.056720
      2          6           0        2.673700   -0.082150   -0.034190
      3          6           0        3.423660   -1.583510    0.865230
      4          6           0        5.267270   -2.542150    1.439530
      5          6           0        6.353170   -4.377860    2.539250
      6          7           0        6.742910   -3.049360    1.743380
      7          6           0        7.434610   -3.910710    2.259380
      8          6           0        8.633580   -3.960990    2.289510
      9          6           0        9.364190   -4.881490    2.840950
     10          7           0       10.561730   -4.905910    2.855580
     11          6           0       10.516860   -6.013150    3.518970
     12          6           0       11.743880   -6.345270    3.717860
     13          6           0       10.722270   -7.131270    4.188590
     14          6           0       11.828850   -7.753500    4.561470
     15          6           0       13.968220   -7.481000    4.398230
     16          6           0        9.659200   -7.348220    4.318640
     17          6           0        7.904090   -6.105390    3.574080
     18          1           0        0.711620    0.840590   -0.586980
     19          1           0        0.705410   -0.017540    0.959260
     20          1           0        0.705410   -0.927600   -0.559860
     21          1           0        2.966260    0.855960    0.439430
     22          1           0        2.966260   -0.057140   -1.084780
     23          1           0        2.771450   -2.200070    0.197320
     24          1           0        2.771450   -1.285500    1.723970
     25          1           0        5.172110   -0.916060    1.349500
     26          1           0        5.172110   -1.695590    0.048260
     27          1           0        7.553670   -4.879500    2.839740
     28          1           0        9.065720   -3.238690    1.856800
     29          1           0        9.199120   -5.692990    3.327080
     30          1           0        8.883710   -6.662240    3.907950
     31          1           0       12.729450   -6.056220    3.544690
     32          1           0       10.446810   -8.623230    5.082410
     33          1           0       14.187280   -6.550310    3.840690
     34          1           0       15.127690   -7.935900    3.653420
     35          1           0       15.127690   -7.038910    5.150730
     36          1           0       11.346290   -8.102500    4.770710
     37          1           0        6.476660   -5.869470    3.432790
 ---------------------------------------------------------------------
                    Distance matrix (angstroms):
                    1          2          3          4          5
     1  C    0.000000
     2  C    1.574471   0.000000
     3  C    2.935738   1.904069   0.000000
     4  C    5.083728   3.866530   2.155855   0.000000
     5  C    7.287949   6.214034   4.380955   2.399665   0.000000
     6  N    6.641803   5.340652   3.733267   1.589686   1.596940
     7  C    7.774375   6.525688   4.842234   2.691184   1.210813
     8  C    8.809121   7.480986   5.901208   3.750682   2.331613
     9  C   10.004602   8.721396   7.076019   4.921508   3.067720
    10  N   11.029133   9.687128   8.121076   5.968573   4.253337
    11  C   11.708549  10.455471   8.773684   6.627979   4.579338
    12  C   12.932217  11.643570  10.001896   7.848630   5.858291
    13  C   12.682096  11.502236   9.751516   7.640313   5.421312
    14  C   13.995263  12.797909  11.062467   8.941980   6.742951
    15  C   15.515886  14.211105  12.587701  10.433249   8.430556
    16  C   12.072703  10.979076   9.167327   7.118752   4.787390
    17  C    9.808895   8.755342   6.918058   4.919939   2.541768
    18  H    1.102427   2.237584   3.916674   6.025249   8.296543
    19  H    1.090192   2.205739   3.138469   5.235922   7.307938
    20  H    1.090193   2.205738   3.138468   5.235924   7.307939
    21  H    2.130866   1.090852   2.518240   4.223979   6.578243
    22  H    2.130866   1.090851   2.518245   4.223987   6.578250
    23  H    2.739548   2.132777   1.118762   2.808776   4.801679
    24  H    2.739547   2.132776   1.118759   2.808771   4.801676
    25  H    4.395496   2.975241   1.933154   1.631358   3.846358
    26  H    4.395494   2.975238   1.933153   1.631365   3.846363
    27  H    8.568444   7.422139   5.640853   3.556883   1.335342
    28  H    8.793145   7.375467   5.962858   3.884264   3.020161
    29  H   10.438076   9.239089   7.503630   5.380528   3.232596
    30  H   10.959069   9.869259   8.053806   6.012227   3.673604
    31  H   13.577860  12.231762  10.666882   8.512609   6.669689
    32  H   13.688332  12.631345  10.801245   8.779393   6.422516
    33  H   15.126002  13.762787  12.222028  10.069632   8.233260
    34  H   16.517242  15.178331  13.605557  11.455205   9.533794
    35  H   16.517243  15.178332  13.605558  11.455206   9.533793
    36  H   13.900523  12.752525  10.978072   8.886436   6.616918
    37  H    8.661217   7.744387   5.855137   4.062852   1.743148
                    6          7          8          9         10
     6  N    0.000000
     7  C    1.219274   0.000000
     8  C    2.168862   1.200402   0.000000
     9  C    3.381193   2.236944   1.298151   0.000000
    10  N    4.389437   3.335380   2.220602   1.197878   0.000000
    11  C    5.116588   3.937904   3.044614   1.751860   1.291542
    12  C    6.306449   5.159850   4.171204   2.928233   2.052502
    13  C    6.202931   4.990247   4.244974   2.953307   2.599022
    14  C    7.479128   6.275030   5.454785   4.157304   3.553086
    15  C    8.882160   7.746593   6.730197   5.511775   4.540378
    16  C    5.798009   4.583211   4.079533   2.890563   2.986634
    17  C    3.746881   2.601051   2.603983   2.041397   3.003006
    18  H    7.545777   8.710638   9.699836  10.925194  11.912101
    19  H    6.801337   7.882209   8.954119  10.108078  11.164194
    20  H    6.801337   7.882207   8.954119  10.108077  11.164194
    21  H    5.587029   6.782294   7.664484   8.922956   9.835044
    22  H    5.587035   6.782298   7.664489   8.922960   9.835048
    23  H    4.345583   5.378052   6.468591   7.592300   8.664663
    24  H    4.345581   5.378053   6.468590   7.592299   8.664662
    25  H    2.678343   3.861958   4.704997   5.960083   6.872786
    26  H    2.678346   3.861957   4.704999   5.960085   6.872787
    27  H    2.282268   1.135582   1.520730   1.810521   3.008218
    28  H    2.333272   1.809475   0.946414   1.938151   2.452597
    29  H    3.940793   2.725803   2.096714   0.960262   1.642715
    30  H    4.724541   3.519743   3.158902   2.130826   2.647249
    31  H    6.937189   5.855815   4.768817   3.633210   2.548940
    32  H    7.479039   6.265037   5.729274   4.494088   4.334795
    33  H    8.489641   7.420686   6.320943   5.200638   4.101110
    34  H    9.890959   8.793690   7.735220   6.573238   5.537633
    35  H    9.890959   8.793692   7.735220   6.573239   5.537634
    36  H    7.475965   6.259323   5.537802   4.245892   3.808076
    37  H    3.298184   2.476146   3.098659   3.108731   4.236675
                   11         12         13         14         15
    11  C    0.000000
    12  C    1.286639   0.000000
    13  C    1.319385   1.372250   0.000000
    14  C    2.415976   1.643779   1.323151   0.000000
    15  C    3.852216   2.588527   3.271460   2.162824   0.000000
    16  C    1.776926   2.390133   1.092748   2.220495   4.311800
    17  C    2.614978   3.849961   3.061403   4.369776   6.272575
    18  H   12.648135  13.852039  13.659053  14.965217  16.426765
    19  H   11.779813  13.019134  12.703197  14.019697  15.602304
    20  H   11.779823  13.019134  12.703180  14.019695  15.602302
    21  H   10.662073  11.817463  11.747669  13.025341  14.360366
    22  H   10.662088  11.817468  11.747657  13.025344  14.360370
    23  H    9.250098  10.491968  10.171652  11.485769  13.073007
    24  H    9.250085  10.491967  10.171672  11.485771  13.073008
    25  H    7.697615   8.847237   8.803042  10.068740  11.391433
    26  H    7.697630   8.847240   8.803024  10.068740  11.391434
    27  H    3.244536   4.525200   4.114595   5.431519   7.095290
    28  H    3.544890   4.504101   4.830485   5.944210   6.963517
    29  H    1.369585   2.655933   2.265135   3.561587   5.204676
    30  H    1.799945   2.883952   1.918085   3.208081   5.173295
    31  H    2.213159   1.041579   2.366244   2.173863   2.071975
    32  H    3.043316   2.955248   1.760891   1.714014   3.764720
    33  H    3.723443   2.455063   3.530558   2.743972   1.106807
    34  H    4.997479   3.739576   4.510162   3.426393   1.451222
    35  H    4.997457   3.739575   4.510207   3.426399   1.451231
    36  H    2.572973   2.086727   1.292885   0.631226   2.720206
    37  H    4.043672   5.296344   4.493170   5.785277   7.723508
                   16         17         18         19         20
    16  C    0.000000
    17  C    2.275831   0.000000
    18  H   13.083612  10.830175   0.000000
    19  H   12.049675   9.783670   1.768413   0.000000
    20  H   12.049667   9.783658   1.768409   1.770857   0.000000
    21  H   11.276182   9.092227   2.477328   2.478844   3.048132
    22  H   11.276180   9.092220   2.477322   3.048132   2.478847
    23  H    9.535713   7.279974   3.755481   3.100405   2.541854
    24  H    9.535722   7.279989   3.755482   2.541855   3.100402
    25  H    8.385848   6.272290   5.170275   4.572858   4.857695
    26  H    8.385842   6.272277   5.170272   4.857693   4.572858
    27  H    3.565807   1.471345   9.553821   8.606598   8.606594
    28  H    4.827122   3.537853   9.612678   9.004231   9.004230
    29  H    1.983596   1.381371  11.403736  10.486201  10.486198
    30  H    1.113831   1.175247  11.969959  10.942185  10.942212
    31  H    3.419751   4.825700  14.459078  13.701374  13.701373
    32  H    1.682060   3.883298  14.713252  13.636464  13.636451
    33  H    4.622619   6.304563  15.994470  15.255836  15.255836
    34  H    5.540060   7.452346  17.402036  16.672165  16.579209
    35  H    5.540075   7.452361  17.402038  16.579210  16.672166
    36  H    1.902519   4.155612  14.892277  13.896836  13.896852
    37  H    3.619391   1.453677   9.716951   8.583167   8.583161
                   21         22         23         24         25
    21  H    0.000000
    22  H    1.776786   0.000000
    23  H    3.071789   2.504772   0.000000
    24  H    2.504764   3.071790   1.779634   0.000000
    25  H    2.972214   3.395473   2.956242   2.457617   0.000000
    26  H    3.395467   2.972217   2.457618   2.956239   1.516869
    27  H    7.726663   7.726664   6.085339   6.085344   4.858137
    28  H    7.481879   7.481882   6.591695   6.591694   4.562035
    29  H    9.490828   9.490830   7.956810   7.956813   6.553373
    30  H   10.176943  10.176980   8.428491   8.428453   7.303439
    31  H   12.358833  12.358836  11.190913  11.190914   9.399654
    32  H   12.937192  12.937185  11.136976  11.136990  10.057711
    33  H   13.868406  13.868410  12.748330  12.748329  10.918978
    34  H   15.346886  15.245517  14.054218  14.164295  12.397571
    35  H   15.245514  15.346891  14.164297  14.054219  12.290330
    36  H   13.009185  13.009208  11.370244  11.370224  10.073237
    37  H    8.155644   8.155644   6.136884   6.136891   5.529758
                   26         27         28         29         30
    26  H    0.000000
    27  H    4.858135   0.000000
    28  H    4.562036   2.438180   0.000000
    29  H    6.553371   1.899150   2.864107   0.000000
    30  H    7.303478   2.467436   3.995127   1.173175   0.000000
    31  H    9.399654   5.354468   4.920403   3.555632   3.910107
    32  H   10.057700   5.235966   6.426915   3.636512   2.769137
    33  H   10.918980   6.913631   6.413503   5.087291   5.305177
    34  H   12.290330   8.207889   7.876491   6.347053   6.377639
    35  H   12.397574   8.207893   7.876492   6.347058   6.377591
    36  H   10.073258   5.338571   6.111343   3.535554   2.980437
    37  H    5.529753   1.578512   4.013475   2.730221   2.578401
                   31         32         33         34         35
    31  H    0.000000
    32  H    3.763585   0.000000
    33  H    1.567485   4.453087   0.000000
    34  H    3.049028   4.942173   1.685022   0.000000
    35  H    3.049033   4.942203   1.685024   1.745431   0.000000
    36  H    2.757448   1.085072   3.368302   3.946527   3.946470
    37  H    6.256579   5.105539   7.751360   8.897142   8.897147
                   36         37
    36  H    0.000000
    37  H    5.521752   0.000000
 Stoichiometry    C15H20N2
 Framework group  C1[X(C15H20N2)]
 Deg. of freedom   105
 Full point group                 C1      NOp   1
 Largest Abelian subgroup         C1      NOp   1
 Largest concise Abelian subgroup C1      NOp   1
                         Standard orientation:                         
 ---------------------------------------------------------------------
 Center     Atomic      Atomic             Coordinates (Angstroms)
 Number     Number       Type             X           Y           Z
 ---------------------------------------------------------------------
      1          6           0       -8.561780    0.253463    0.000000
      2          6           0       -7.299846   -0.688068    0.000013
      3          6           0       -5.626233    0.219950   -0.000003
      4          6           0       -3.486910   -0.046524   -0.000008
      5          6           0       -1.308059    0.958960   -0.000027
      6          7           0       -1.962589   -0.497683    0.000000
      7          6           0       -0.797311   -0.138858    0.000001
      8          6           0        0.179671   -0.836334    0.000003
      9          6           0        1.418233   -0.447540   -0.000001
     10          7           0        2.375397   -1.167783    0.000007
     11          6           0        3.140576   -0.127312   -0.000074
     12          6           0        4.343263   -0.584460   -0.000006
     13          6           0        4.109882    0.767799    0.000094
     14          6           0        5.427844    0.650730   -0.000010
     15          6           0        6.909283   -0.925071    0.000006
     16          6           0        3.432713    1.625435    0.000012
     17          6           0        1.157394    1.577124    0.000031
     18          1           0       -9.506161   -0.315298    0.000014
     19          1           0       -8.561828    0.889481   -0.885438
     20          1           0       -8.561825    0.889508    0.885419
     21          1           0       -7.418411   -1.309895   -0.888373
     22          1           0       -7.418413   -1.309875    0.888413
     23          1           0       -6.022783    0.770052    0.889809
     24          1           0       -6.022786    0.770026   -0.889826
     25          1           0       -4.455234   -1.118200   -0.758422
     26          1           0       -4.455234   -1.118180    0.758448
     27          1           0       -0.003628    0.673308   -0.000001
     28          1           0       -0.003409   -1.764872    0.000018
     29          1           0        1.875309    0.396962   -0.000001
     30          1           0        2.328543    1.479052   -0.000208
     31          1           0        4.907537   -1.459948    0.000014
     32          1           0        4.972233    2.303080    0.000043
     33          1           0        6.408406   -1.912058    0.000014
     34          1           0        7.823560   -1.638168    0.872723
     35          1           0        7.823560   -1.638191   -0.872707
     36          1           0        5.301583    1.269199   -0.000160
     37          1           0       -0.132993    2.246510   -0.000014
 ---------------------------------------------------------------------
 Rotational constants (GHZ):           2.7247122           0.1103072           0.1063482
 Standard basis: 6-31G(2df,p) (6D, 7F)
 There are   627 symmetry adapted cartesian basis functions of A   symmetry.
 There are   576 symmetry adapted basis functions of A   symmetry.
   576 basis functions,   888 primitive gaussians,   627 cartesian basis functions
    62 alpha electrons       62 beta electrons
       nuclear repulsion energy      1076.2664915304 Hartrees.
 NAtoms=   37 NActive=   37 NUniq=   37 SFac= 1.00D+00 NAtFMM=   60 NAOKFM=F Big=F
 Integral buffers will be    131072 words long.
 Raffenetti 2 integral format.
 Two-electron integral symmetry is turned on.
 One-electron integrals computed using PRISM.
 PrsmSu:  requested number of processors reduced to:  12 ShMem   1 Linda.
 NBasis=   576 RedAO= T EigKep=  4.44D-05  NBF=   576
 NBsUse=   576 1.00D-06 EigRej= -1.00D+00 NBFU=   576
 ExpMin= 1.61D-01 ExpMax= 4.17D+03 ExpMxC= 6.27D+02 IAcc=3 IRadAn=         5 AccDes= 0.00D+00
 Harris functional with IExCor=  402 and IRadAn=       5 diagonalized for initial guess.
 HarFok:  IExCor=  402 AccDes= 0.00D+00 IRadAn=         5 IDoV= 1 UseB2=F ITyADJ=14
 ICtDFT=  3500011 ScaDFX=  1.000000  1.000000  1.000000  1.000000
 FoFCou: FMM=F IPFlag=           0 FMFlag=      100000 FMFlg1=           0
         NFxFlg=           0 DoJE=T BraDBF=F KetDBF=T FulRan=T
         wScrn=  0.000000 ICntrl=       500 IOpCl=  0 I1Cent=   200000004 NGrid=           0
         NMat0=    1 NMatS0=      1 NMatT0=    0 NMatD0=    1 NMtDS0=    0 NMtDT0=    0
 Petite list used in FoFCou.
 Requested convergence on RMS density matrix=1.00D-08 within 128 cycles.
 Requested convergence on MAX density matrix=1.00D-06.
 Requested convergence on             energy=1.00D-06.
 No special actions if energy rises.
 Integral accuracy reduced to 1.0D-05 until final iterations.
 EnCoef did     6 forward-backward iterations
 EnCoef did   100 forward-backward iterations
 EnCoef did   100 forward-backward iterations
 EnCoef did     4 forward-backward iterations
 EnCoef did   100 forward-backward iterations
 EnCoef did   100 forward-backward iterations
 EnCoef did     2 forward-backward iterations
 EnCoef did     1 forward-backward iterations
 EnCoef did     3 forward-backward iterations
 EnCoef did     5 forward-backward iterations
 EnCoef did     2 forward-backward iterations
 EnCoef did     5 forward-backward iterations
 EnCoef did     5 forward-backward iterations
 EnCoef did     2 forward-backward iterations
 Initial convergence to 1.5D-05 achieved.  Increase integral accuracy.
 SCF Done:  E(RB3LYP) =  -690.177089692     A.U. after   35 cycles
            NFock= 35  Conv=0.94D-08     -V/T= 1.9969

 **********************************************************************

            Population analysis using the SCF density.

 **********************************************************************

 Orbital symmetries:
       Occupied  (A) (A) (A) (A) (A) (A) (A) (A) (A) (A) (A) (A)
                 (A) (A) (A) (A) (A) (A) (A) (A) (A) (A) (A) (A)
                 (A) (A) (A) (A) (A) (A) (A) (A) (A) (A) (A) (A)
                 (A) (A) (A) (A) (A) (A) (A) (A) (A) (A) (A) (A)
                 (A) (A) (A) (A) (A) (A) (A) (A) (A) (A) (A) (A)
                 (A) (A)
       Virtual   (A) (A) (A) (A) (A) (A) (A) (A) (A) (A) (A) (A)
                 (A) (A) (A) (A) (A) (A) (A) (A) (A) (A) (A) (A)
                 (A) (A) (A) (A) (A) (A) (A) (A) (A) (A) (A) (A)
                 (A) (A) (A) (A) (A) (A) (A) (A) (A) (A) (A) (A)
                 (A) (A) (A) (A) (A) (A) (A) (A) (A) (A) (A) (A)
                 (A) (A) (A) (A) (A) (A) (A) (A) (A) (A) (A) (A)
                 (A) (A) (A) (A) (A) (A) (A) (A) (A) (A) (A) (A)
                 (A) (A) (A) (A) (A) (A) (A) (A) (A) (A) (A) (A)
                 (A) (A) (A) (A) (A) (A) (A) (A) (A) (A) (A) (A)
                 (A) (A) (A) (A) (A) (A) (A) (A) (A) (A) (A) (A)
                 (A) (A) (A) (A) (A) (A) (A) (A) (A) (A) (A) (A)
                 (A) (A) (A) (A) (A) (A) (A) (A) (A) (A) (A) (A)
                 (A) (A) (A) (A) (A) (A) (A) (A) (A) (A) (A) (A)
                 (A) (A) (A) (A) (A) (A) (A) (A) (A) (A) (A) (A)
                 (A) (A) (A) (A) (A) (A) (A) (A) (A) (A) (A) (A)
                 (A) (A) (A) (A) (A) (A) (A) (A) (A) (A) (A) (A)
                 (A) (A) (A) (A) (A) (A) (A) (A) (A) (A) (A) (A)
                 (A) (A) (A) (A) (A) (A) (A) (A) (A) (A) (A) (A)
                 (A) (A) (A) (A) (A) (A) (A) (A) (A) (A) (A) (A)
                 (A) (A) (A) (A) (A) (A) (A) (A) (A) (A) (A) (A)
                 (A) (A) (A) (A) (A) (A) (A) (A) (A) (A) (A) (A)
                 (A) (A) (A) (A) (A) (A) (A) (A) (A) (A) (A) (A)
                 (A) (A) (A) (A) (A) (A) (A) (A) (A) (A) (A) (A)
                 (A) (A) (A) (A) (A) (A) (A) (A) (A) (A) (A) (A)
                 (A) (A) (A) (A) (A) (A) (A) (A) (A) (A) (A) (A)
                 (A) (A) (A) (A) (A) (A) (A) (A) (A) (A) (A) (A)
                 (A) (A) (A) (A) (A) (A) (A) (A) (A) (A) (A) (A)
                 (A) (A) (A) (A) (A) (A) (A) (A) (A) (A) (A) (A)
                 (A) (A) (A) (A) (A) (A) (A) (A) (A) (A) (A) (A)
                 (A) (A) (A) (A) (A) (A) (A) (A) (A) (A) (A) (A)
                 (A) (A) (A) (A) (A) (A) (A) (A) (A) (A) (A) (A)
                 (A) (A) (A) (A) (A) (A) (A) (A) (A) (A) (A) (A)
                 (A) (A) (A) (A) (A) (A) (A) (A) (A) (A) (A) (A)
                 (A) (A) (A) (A) (A) (A) (A) (A) (A) (A) (A) (A)
                 (A) (A) (A) (A) (A) (A) (A) (A) (A) (A) (A) (A)
                 (A) (A) (A) (A) (A) (A) (A) (A) (A) (A) (A) (A)
                 (A) (A) (A) (A) (A) (A) (A) (A) (A) (A) (A) (A)
                 (A) (A) (A) (A) (A) (A) (A) (A) (A) (A) (A) (A)
                 (A) (A) (A) (A) (A) (A) (A) (A) (A) (A) (A) (A)
                 (A) (A) (A) (A) (A) (A) (A) (A) (A) (A) (A) (A)
                 (A) (A) (A) (A) (A) (A) (A) (A) (A) (A) (A) (A)
                 (A) (A) (A) (A) (A) (A) (A) (A) (A) (A) (A) (A)
                 (A) (A) (A) (A) (A) (A) (A) (A) (A) (A)
 The electronic state is 1-A.
 Alpha  occ. eigenvalues --  -14.43909 -14.36021 -10.30014 -10.29546 -10.28672
 Alpha  occ. eigenvalues --  -10.27970 -10.26929 -10.26795 -10.26692 -10.26521
 Alpha  occ. eigenvalues --  -10.23769 -10.23718 -10.23265 -10.21763 -10.18537
 Alpha  occ. eigenvalues --  -10.17695 -10.15070  -1.15403  -1.11922  -1.08763
 Alpha  occ. eigenvalues --   -0.92857  -0.91739  -0.89120  -0.80074  -0.77164
 Alpha  occ. eigenvalues --   -0.74489  -0.70769  -0.68889  -0.68294  -0.65300
 Alpha  occ. eigenvalues --   -0.61839  -0.59750  -0.58548  -0.57943  -0.56417
 Alpha  occ. eigenvalues --   -0.53187  -0.51871  -0.50240  -0.48594  -0.47750
 Alpha  occ. eigenvalues --   -0.44942  -0.44225  -0.42224  -0.39903  -0.39321
 Alpha  occ. eigenvalues --   -0.38649  -0.37466  -0.36501  -0.34743  -0.34507
 Alpha  occ. eigenvalues --   -0.33594  -0.33406  -0.31522  -0.31030  -0.29462
 Alpha  occ. eigenvalues --   -0.27134  -0.26004  -0.24399  -0.22311  -0.20189
 Alpha  occ. eigenvalues --   -0.19585  -0.18293
 Alpha virt. eigenvalues --   -0.16048  -0.15356  -0.13650  -0.12841  -0.03794
 Alpha virt. eigenvalues --   -0.02853  -0.00011  -0.00007   0.00426   0.01993
 Alpha virt. eigenvalues --    0.02903   0.03080   0.04637   0.07253   0.08175
 Alpha virt. eigenvalues --    0.09309   0.09683   0.09942   0.12397   0.13972
 Alpha virt. eigenvalues --    0.15045   0.16160   0.16590   0.16946   0.17484
 Alpha virt. eigenvalues --    0.18346   0.18807   0.21401   0.21439   0.22815
 Alpha virt. eigenvalues --    0.23196   0.24817   0.26090   0.26374   0.30254
 Alpha virt. eigenvalues --    0.32335   0.34266   0.34610   0.36933   0.39369
 Alpha virt. eigenvalues --    0.40330   0.40831   0.42065   0.43262   0.43868
 Alpha virt. eigenvalues --    0.45287   0.46150   0.46314   0.47319   0.48260
 Alpha virt. eigenvalues --    0.49133   0.49641   0.50910   0.51420   0.52123
 Alpha virt. eigenvalues --    0.52364   0.52550   0.52930   0.53286   0.54795
 Alpha virt. eigenvalues --    0.55472   0.55755   0.56763   0.56805   0.57722
 Alpha virt. eigenvalues --    0.58040   0.58425   0.59532   0.59742   0.59866
 Alpha virt. eigenvalues --    0.61662   0.62849   0.63970   0.64401   0.65203
 Alpha virt. eigenvalues --    0.65269   0.65631   0.66650   0.67187   0.67830
 Alpha virt. eigenvalues --    0.69181   0.69189   0.69586   0.70046   0.70404
 Alpha virt. eigenvalues --    0.70522   0.72130   0.72924   0.73047   0.73481
 Alpha virt. eigenvalues --    0.73798   0.75016   0.75559   0.75821   0.76511
 Alpha virt. eigenvalues --    0.77179   0.77224   0.77524   0.78009   0.78341
 Alpha virt. eigenvalues --    0.79293   0.79660   0.80390   0.80542   0.81455
 Alpha virt. eigenvalues --    0.83753   0.83853   0.84377   0.84869   0.85226
 Alpha virt. eigenvalues --    0.86493   0.86725   0.88334   0.88809   0.89558
 Alpha virt. eigenvalues --    0.90845   0.91884   0.92767   0.94175   0.94384
 Alpha virt. eigenvalues --    0.97366   0.97757   0.98868   1.00590   1.01246
 Alpha virt. eigenvalues --    1.01711   1.01791   1.04620   1.05392   1.06343
 Alpha virt. eigenvalues --    1.06801   1.07819   1.10540   1.10838   1.13100
 Alpha virt. eigenvalues --    1.14060   1.14287   1.18049   1.19014   1.19118
 Alpha virt. eigenvalues --    1.19532   1.21079   1.21981   1.22089   1.22970
 Alpha virt. eigenvalues --    1.24471   1.24745   1.26159   1.27138   1.28591
 Alpha virt. eigenvalues --    1.29220   1.30241   1.30634   1.31046   1.32946
 Alpha virt. eigenvalues --    1.33857   1.33971   1.34871   1.35688   1.38136
 Alpha virt. eigenvalues --    1.39974   1.41037   1.42340   1.42466   1.43397
 Alpha virt. eigenvalues --    1.46050   1.46610   1.48417   1.50766   1.51995
 Alpha virt. eigenvalues --    1.52198   1.53390   1.53984   1.55415   1.56680
 Alpha virt. eigenvalues --    1.56845   1.57814   1.58661   1.60001   1.60890
 Alpha virt. eigenvalues --    1.61455   1.61970   1.62691   1.63335   1.65440
 Alpha virt. eigenvalues --    1.66717   1.68964   1.70857   1.70904   1.74130
 Alpha virt. eigenvalues --    1.74326   1.75971   1.76703   1.80399   1.82570
 Alpha virt. eigenvalues --    1.83246   1.85044   1.85363   1.87014   1.88996
 Alpha virt. eigenvalues --    1.90611   1.92211   1.92778   1.95734   1.95901
 Alpha virt. eigenvalues --    1.99305   1.99921   2.00283   2.00693   2.03318
 Alpha virt. eigenvalues --    2.04622   2.04925   2.08956   2.12870   2.14399
 Alpha virt. eigenvalues --    2.15304   2.18805   2.20410   2.20517   2.21448
 Alpha virt. eigenvalues --    2.22576   2.23124   2.24096   2.24573   2.25712
 Alpha virt. eigenvalues --    2.26213   2.26741   2.29257   2.30615   2.31208
 Alpha virt. eigenvalues --    2.31998   2.32629   2.32762   2.34695   2.35261
 Alpha virt. eigenvalues --    2.39363   2.39686   2.40594   2.41351   2.41678
 Alpha virt. eigenvalues --    2.42667   2.44058   2.46868   2.47726   2.48674
 Alpha virt. eigenvalues --    2.49518   2.50576   2.53503   2.54984   2.55357
 Alpha virt. eigenvalues --    2.56756   2.60530   2.61051   2.63883   2.65508
 Alpha virt. eigenvalues --    2.65696   2.66490   2.69552   2.69584   2.73037
 Alpha virt. eigenvalues --    2.75221   2.75231   2.76941   2.77738   2.78125
 Alpha virt. eigenvalues --    2.78790   2.81468   2.82316   2.82339   2.83991
 Alpha virt. eigenvalues --    2.85250   2.85794   2.85814   2.87063   2.88531
 Alpha virt. eigenvalues --    2.89464   2.89606   2.89743   2.90508   2.91426
 Alpha virt. eigenvalues --    2.91973   2.92827   2.93353   2.94547   2.96223
 Alpha virt. eigenvalues --    2.96255   2.97736   2.98817   2.99209   3.00414
 Alpha virt. eigenvalues --    3.01046   3.02630   3.03001   3.03885   3.05457
 Alpha virt. eigenvalues --    3.06867   3.07016   3.08419   3.09098   3.11072
 Alpha virt. eigenvalues --    3.11896   3.12447   3.13951   3.14330   3.16156
 Alpha virt. eigenvalues --    3.16658   3.17127   3.18061   3.19393   3.20317
 Alpha virt. eigenvalues --    3.20786   3.23486   3.24271   3.24855   3.25855
 Alpha virt. eigenvalues --    3.25993   3.29052   3.29927   3.30361   3.31169
 Alpha virt. eigenvalues --    3.33773   3.37407   3.37706   3.37762   3.38374
 Alpha virt. eigenvalues --    3.40319   3.40915   3.41665   3.42441   3.44851
 Alpha virt. eigenvalues --    3.45174   3.46272   3.46326   3.46992   3.49870
 Alpha virt. eigenvalues --    3.51359   3.51843   3.52773   3.55287   3.56485
 Alpha virt. eigenvalues --    3.57634   3.58791   3.59775   3.60536   3.61190
 Alpha virt. eigenvalues --    3.62426   3.62765   3.64295   3.65213   3.65962
 Alpha virt. eigenvalues --    3.67816   3.69519   3.70061   3.71338   3.73120
 Alpha virt. eigenvalues --    3.74741   3.75087   3.76300   3.77632   3.81244
 Alpha virt. eigenvalues --    3.81454   3.83537   3.83699   3.84602   3.85866
 Alpha virt. eigenvalues --    3.87158   3.88435   3.90180   3.90611   3.93486
 Alpha virt. eigenvalues --    3.95402   3.96664   3.96985   3.99526   4.00098
 Alpha virt. eigenvalues --    4.02664   4.04345   4.06373   4.08060   4.09488
 Alpha virt. eigenvalues --    4.11038   4.12916   4.16040   4.16919   4.18091
 Alpha virt. eigenvalues --    4.21849   4.22832   4.25245   4.25512   4.25858
 Alpha virt. eigenvalues --    4.25990   4.28111   4.29725   4.31121   4.33162
 Alpha virt. eigenvalues --    4.34531   4.35714   4.37014   4.39044   4.39301
 Alpha virt. eigenvalues --    4.39676   4.39708   4.40710   4.41574   4.42117
 Alpha virt. eigenvalues --    4.43106   4.44669   4.46284   4.46389   4.48079
 Alpha virt. eigenvalues --    4.48372   4.49691   4.51669   4.52184   4.53115
 Alpha virt. eigenvalues --    4.55289   4.55861   4.57976   4.59024   4.59551
 Alpha virt. eigenvalues --    4.60168   4.60388   4.61648   4.62465   4.63596
 Alpha virt. eigenvalues --    4.64971   4.65472   4.66727   4.67884   4.70311
 Alpha virt. eigenvalues --    4.72620   4.73978   4.75509   4.75517   4.75913
 Alpha virt. eigenvalues --    4.77523   4.78689   4.78976   4.79944   4.81092
 Alpha virt. eigenvalues --    4.82091   4.84464   4.85918   4.88075   4.88706
 Alpha virt. eigenvalues --    4.92343   4.94004   4.96153   4.96415   5.00663
 Alpha virt. eigenvalues --    5.03185   5.04433   5.06080   5.07678   5.09814
 Alpha virt. eigenvalues --    5.12003   5.12136   5.14694   5.15178   5.16143
 Alpha virt. eigenvalues --    5.18542   5.19709   5.24441   5.27639   5.31215
 Alpha virt. eigenvalues --    5.32586   5.38651   5.40805   5.43216   5.45676
 Alpha virt. eigenvalues --    5.50570   5.52791   5.55049   5.58109   5.61509
 Alpha virt. eigenvalues --    5.63892   5.70092   5.73625   5.78022   5.84701
 Alpha virt. eigenvalues --    5.95270   6.06719   6.10420   6.19003   6.25894
 Alpha virt. eigenvalues --    6.30151   6.34297   6.55146   6.78730   6.85646
 Alpha virt. eigenvalues --    7.02449   7.18496   7.76035   8.13007   8.86776
 Alpha virt. eigenvalues --   10.18183  10.27377  10.42897  10.58806  10.66736
 Alpha virt. eigenvalues --   10.85498  11.07775  11.13707  11.29981  11.36711
 Alpha virt. eigenvalues --   11.40867  11.43638  11.72937  11.84644  12.11436
 Alpha virt. eigenvalues --   12.55260  12.94725  22.97522  29.12797
          Condensed to atoms (all electrons):
               1          2          3          4          5          6
     1  C    4.953322   0.380782  -0.015757  -0.000028   0.000000   0.000000
     2  C    0.380782   5.033535   0.277866   0.002926  -0.000003  -0.000025
     3  C   -0.015757   0.277866   5.375299  -0.087181   0.000176   0.002359
     4  C   -0.000028   0.002926  -0.087181   6.034276  -0.065915   0.190922
     5  C    0.000000  -0.000003   0.000176  -0.065915   5.796355   0.153460
     6  N    0.000000  -0.000025   0.002359   0.190922   0.153460   6.879193
     7  C   -0.000000  -0.000000  -0.000118  -0.005778   0.473999   0.156473
     8  C   -0.000000   0.000000  -0.000001   0.006304  -0.099390  -0.067121
     9  C    0.000000   0.000000   0.000000   0.000330  -0.088428   0.013753
    10  N    0.000000  -0.000000   0.000000   0.000000   0.000258  -0.000008
    11  C   -0.000000   0.000000  -0.000000   0.000001  -0.001235   0.000038
    12  C    0.000000   0.000000   0.000000   0.000000  -0.000013  -0.000001
    13  C    0.000000  -0.000000   0.000000   0.000000  -0.000053   0.000003
    14  C    0.000000   0.000000  -0.000000   0.000000  -0.000000   0.000000
    15  C    0.000000   0.000000   0.000000   0.000000  -0.000000  -0.000000
    16  C    0.000000  -0.000000   0.000000  -0.000000   0.000162  -0.000003
    17  C    0.000000  -0.000000   0.000001  -0.000060  -0.043436   0.008875
    18  H    0.372627  -0.018699   0.001654   0.000000  -0.000000  -0.000000
    19  H    0.379847  -0.033397  -0.002225  -0.000004   0.000000   0.000000
    20  H    0.379846  -0.033398  -0.002225  -0.000004   0.000000   0.000000
    21  H   -0.040604   0.370090  -0.020693  -0.000187   0.000000   0.000001
    22  H   -0.040605   0.370090  -0.020694  -0.000187   0.000000   0.000001
    23  H   -0.000104  -0.038186   0.348083  -0.005622   0.000021  -0.000089
    24  H   -0.000105  -0.038182   0.348076  -0.005621   0.000021  -0.000089
    25  H    0.000301  -0.009196   0.039143   0.054357   0.001490   0.008143
    26  H    0.000301  -0.009193   0.039067   0.054428   0.001490   0.008132
    27  H    0.000000  -0.000000   0.000029  -0.000054   0.080331  -0.032778
    28  H    0.000000  -0.000000   0.000004  -0.000829   0.014557  -0.020354
    29  H   -0.000000   0.000000  -0.000000   0.000006   0.005459  -0.000404
    30  H    0.000000  -0.000000   0.000000   0.000002  -0.002002   0.000137
    31  H    0.000000   0.000000  -0.000000   0.000000   0.000000   0.000000
    32  H    0.000000   0.000000  -0.000000  -0.000000  -0.000000   0.000000
    33  H    0.000000   0.000000   0.000000  -0.000000  -0.000000  -0.000000
    34  H    0.000000   0.000000   0.000000  -0.000000  -0.000000   0.000000
    35  H    0.000000   0.000000   0.000000  -0.000000  -0.000000   0.000000
    36  H    0.000000   0.000000   0.000000  -0.000000  -0.000000   0.000000
    37  H   -0.000000   0.000000  -0.000012  -0.000031   0.085212  -0.001828
               7          8          9         10         11         12
     1  C   -0.000000  -0.000000   0.000000   0.000000  -0.000000   0.000000
     2  C   -0.000000   0.000000   0.000000  -0.000000   0.000000   0.000000
     3  C   -0.000118  -0.000001   0.000000   0.000000  -0.000000   0.000000
     4  C   -0.005778   0.006304   0.000330   0.000000   0.000001   0.000000
     5  C    0.473999  -0.099390  -0.088428   0.000258  -0.001235  -0.000013
     6  N    0.156473  -0.067121   0.013753  -0.000008   0.000038  -0.000001
     7  C    4.484646   0.263799   0.147631   0.018739   0.000844   0.000124
     8  C    0.263799   5.909930   0.106218  -0.092771  -0.022290  -0.008211
     9  C    0.147631   0.106218   5.039432   0.632484  -0.040305  -0.030392
    10  N    0.018739  -0.092771   0.632484   6.621813   0.353875  -0.058312
    11  C    0.000844  -0.022290  -0.040305   0.353875   5.390973  -0.003210
    12  C    0.000124  -0.008211  -0.030392  -0.058312  -0.003210   5.990290
    13  C    0.001452  -0.007171  -0.058370  -0.028510  -0.340349   0.355600
    14  C   -0.000002   0.000067   0.001783   0.004533  -0.202375   0.410252
    15  C   -0.000000  -0.000000  -0.000023   0.000178   0.001696  -0.016094
    16  C   -0.001951   0.007428  -0.010962   0.011312   0.762685  -0.342403
    17  C    0.001661  -0.122961   0.157600  -0.020214  -0.032761   0.010592
    18  H    0.000000   0.000000  -0.000000  -0.000000   0.000000   0.000000
    19  H    0.000000   0.000000  -0.000000  -0.000000  -0.000000   0.000000
    20  H    0.000000   0.000000  -0.000000  -0.000000  -0.000000   0.000000
    21  H    0.000000   0.000000  -0.000000   0.000000  -0.000000  -0.000000
    22  H    0.000000   0.000000  -0.000000   0.000000  -0.000000  -0.000000
    23  H    0.000010   0.000000  -0.000000  -0.000000   0.000000  -0.000000
    24  H    0.000010   0.000000  -0.000000  -0.000000   0.000000  -0.000000
    25  H   -0.000312   0.000052  -0.000003  -0.000000   0.000000  -0.000000
    26  H   -0.000310   0.000052  -0.000003  -0.000000   0.000000  -0.000000
    27  H   -0.068826   0.102132  -0.092873  -0.008028  -0.004860  -0.000614
    28  H    0.003838   0.334471  -0.063360  -0.010491  -0.000478  -0.000116
    29  H   -0.028402   0.045774   0.166670  -0.169316   0.147723  -0.041499
    30  H    0.007475  -0.017203  -0.021632   0.038148  -0.162020   0.029258
    31  H   -0.000003  -0.000029   0.001815  -0.005410   0.022304   0.343341
    32  H    0.000002   0.000002   0.000302  -0.000849  -0.028835   0.021102
    33  H    0.000000  -0.000000  -0.000013  -0.000027  -0.000655  -0.023000
    34  H    0.000000   0.000000   0.000000  -0.000001  -0.000029   0.001616
    35  H    0.000000   0.000000   0.000000  -0.000001  -0.000029   0.001616
    36  H    0.000000  -0.000017  -0.001067  -0.001379   0.060720  -0.191150
    37  H    0.007797   0.005259   0.000436  -0.000448   0.001897  -0.000021
              13         14         15         16         17         18
     1  C    0.000000   0.000000   0.000000   0.000000   0.000000   0.372627
     2  C   -0.000000   0.000000   0.000000  -0.000000  -0.000000  -0.018699
     3  C    0.000000  -0.000000   0.000000   0.000000   0.000001   0.001654
     4  C    0.000000   0.000000   0.000000  -0.000000  -0.000060   0.000000
     5  C   -0.000053  -0.000000  -0.000000   0.000162  -0.043436  -0.000000
     6  N    0.000003   0.000000  -0.000000  -0.000003   0.008875  -0.000000
     7  C    0.001452  -0.000002  -0.000000  -0.001951   0.001661   0.000000
     8  C   -0.007171   0.000067  -0.000000   0.007428  -0.122961   0.000000
     9  C   -0.058370   0.001783  -0.000023  -0.010962   0.157600  -0.000000
    10  N   -0.028510   0.004533   0.000178   0.011312  -0.020214  -0.000000
    11  C   -0.340349  -0.202375   0.001696   0.762685  -0.032761   0.000000
    12  C    0.355600   0.410252  -0.016094  -0.342403   0.010592   0.000000
    13  C    5.216806   0.297973  -0.008281  -0.598825  -0.120557   0.000000
    14  C    0.297973   5.657668   0.213368  -0.295765  -0.001691   0.000000
    15  C   -0.008281   0.213368   5.372645   0.002041   0.000007   0.000000
    16  C   -0.598825  -0.295765   0.002041   7.167934   0.051582   0.000000
    17  C   -0.120557  -0.001691   0.000007   0.051582   6.691196  -0.000000
    18  H    0.000000   0.000000   0.000000   0.000000  -0.000000   0.591341
    19  H    0.000000   0.000000   0.000000  -0.000000  -0.000000  -0.032973
    20  H    0.000000   0.000000   0.000000  -0.000000  -0.000000  -0.032973
    21  H    0.000000   0.000000   0.000000  -0.000000  -0.000000  -0.002456
    22  H    0.000000   0.000000   0.000000  -0.000000  -0.000000  -0.002456
    23  H    0.000000   0.000000   0.000000  -0.000000  -0.000000  -0.000169
    24  H    0.000000   0.000000   0.000000  -0.000000  -0.000000  -0.000169
    25  H   -0.000000  -0.000000  -0.000000  -0.000000  -0.000000  -0.000008
    26  H   -0.000000  -0.000000  -0.000000   0.000000  -0.000000  -0.000008
    27  H   -0.002651  -0.000008  -0.000000   0.007380   0.109987  -0.000000
    28  H   -0.000037   0.000000  -0.000000   0.000070   0.003923  -0.000000
    29  H    0.002782   0.000829   0.000068   0.017743   0.021536   0.000000
    30  H    0.254516   0.020393  -0.000067  -0.096975  -0.076404  -0.000000
    31  H   -0.002392  -0.036488  -0.006692   0.001357   0.000033   0.000000
    32  H    0.061757   0.046605   0.000729   0.027797  -0.004381   0.000000
    33  H   -0.004954  -0.013773   0.325593  -0.000294  -0.000001   0.000000
    34  H    0.000320  -0.002349   0.277932  -0.000002  -0.000000   0.000000
    35  H    0.000320  -0.002350   0.277954  -0.000002  -0.000000   0.000000
    36  H   -0.050781  -0.126127  -0.037474   0.008006   0.000559   0.000000
    37  H    0.000903   0.000005  -0.000000  -0.001531   0.194722   0.000000
              19         20         21         22         23         24
     1  C    0.379847   0.379846  -0.040604  -0.040605  -0.000104  -0.000105
     2  C   -0.033397  -0.033398   0.370090   0.370090  -0.038186  -0.038182
     3  C   -0.002225  -0.002225  -0.020693  -0.020694   0.348083   0.348076
     4  C   -0.000004  -0.000004  -0.000187  -0.000187  -0.005622  -0.005621
     5  C    0.000000   0.000000   0.000000   0.000000   0.000021   0.000021
     6  N    0.000000   0.000000   0.000001   0.000001  -0.000089  -0.000089
     7  C    0.000000   0.000000   0.000000   0.000000   0.000010   0.000010
     8  C    0.000000   0.000000   0.000000   0.000000   0.000000   0.000000
     9  C   -0.000000  -0.000000  -0.000000  -0.000000  -0.000000  -0.000000
    10  N   -0.000000  -0.000000   0.000000   0.000000  -0.000000  -0.000000
    11  C   -0.000000  -0.000000  -0.000000  -0.000000   0.000000   0.000000
    12  C    0.000000   0.000000  -0.000000  -0.000000  -0.000000  -0.000000
    13  C    0.000000   0.000000   0.000000   0.000000   0.000000   0.000000
    14  C    0.000000   0.000000   0.000000   0.000000   0.000000   0.000000
    15  C    0.000000   0.000000   0.000000   0.000000   0.000000   0.000000
    16  C   -0.000000  -0.000000  -0.000000  -0.000000  -0.000000  -0.000000
    17  C   -0.000000  -0.000000  -0.000000  -0.000000  -0.000000  -0.000000
    18  H   -0.032973  -0.032973  -0.002456  -0.002456  -0.000169  -0.000169
    19  H    0.597378  -0.031847  -0.003358   0.005389   0.000017   0.004507
    20  H   -0.031847   0.597381   0.005389  -0.003358   0.004507   0.000017
    21  H   -0.003358   0.005389   0.619477  -0.036058   0.003126  -0.001791
    22  H    0.005389  -0.003358  -0.036058   0.619478  -0.001791   0.003126
    23  H    0.000017   0.004507   0.003126  -0.001791   0.564668  -0.037747
    24  H    0.004507   0.000017  -0.001791   0.003126  -0.037747   0.564680
    25  H    0.000002   0.000009   0.002014   0.000068   0.002073  -0.004454
    26  H    0.000009   0.000002   0.000068   0.002014  -0.004450   0.002075
    27  H   -0.000000  -0.000000  -0.000000  -0.000000  -0.000001  -0.000001
    28  H   -0.000000  -0.000000   0.000000   0.000000  -0.000000  -0.000000
    29  H    0.000000   0.000000   0.000000   0.000000   0.000000   0.000000
    30  H   -0.000000  -0.000000  -0.000000  -0.000000  -0.000000  -0.000000
    31  H    0.000000   0.000000   0.000000   0.000000   0.000000   0.000000
    32  H    0.000000   0.000000   0.000000   0.000000   0.000000   0.000000
    33  H    0.000000   0.000000   0.000000   0.000000   0.000000   0.000000
    34  H    0.000000   0.000000   0.000000   0.000000   0.000000   0.000000
    35  H    0.000000   0.000000   0.000000   0.000000   0.000000   0.000000
    36  H    0.000000   0.000000   0.000000   0.000000  -0.000000  -0.000000
    37  H    0.000000   0.000000   0.000000   0.000000   0.000001   0.000001
              25         26         27         28         29         30
     1  C    0.000301   0.000301   0.000000   0.000000  -0.000000   0.000000
     2  C   -0.009196  -0.009193  -0.000000  -0.000000   0.000000  -0.000000
     3  C    0.039143   0.039067   0.000029   0.000004  -0.000000   0.000000
     4  C    0.054357   0.054428  -0.000054  -0.000829   0.000006   0.000002
     5  C    0.001490   0.001490   0.080331   0.014557   0.005459  -0.002002
     6  N    0.008143   0.008132  -0.032778  -0.020354  -0.000404   0.000137
     7  C   -0.000312  -0.000310  -0.068826   0.003838  -0.028402   0.007475
     8  C    0.000052   0.000052   0.102132   0.334471   0.045774  -0.017203
     9  C   -0.000003  -0.000003  -0.092873  -0.063360   0.166670  -0.021632
    10  N   -0.000000  -0.000000  -0.008028  -0.010491  -0.169316   0.038148
    11  C    0.000000   0.000000  -0.004860  -0.000478   0.147723  -0.162020
    12  C   -0.000000  -0.000000  -0.000614  -0.000116  -0.041499   0.029258
    13  C   -0.000000  -0.000000  -0.002651  -0.000037   0.002782   0.254516
    14  C   -0.000000  -0.000000  -0.000008   0.000000   0.000829   0.020393
    15  C   -0.000000  -0.000000  -0.000000  -0.000000   0.000068  -0.000067
    16  C   -0.000000   0.000000   0.007380   0.000070   0.017743  -0.096975
    17  C   -0.000000  -0.000000   0.109987   0.003923   0.021536  -0.076404
    18  H   -0.000008  -0.000008  -0.000000  -0.000000   0.000000  -0.000000
    19  H    0.000002   0.000009  -0.000000  -0.000000   0.000000  -0.000000
    20  H    0.000009   0.000002  -0.000000  -0.000000   0.000000  -0.000000
    21  H    0.002014   0.000068  -0.000000   0.000000   0.000000  -0.000000
    22  H    0.000068   0.002014  -0.000000   0.000000   0.000000  -0.000000
    23  H    0.002073  -0.004450  -0.000001  -0.000000   0.000000  -0.000000
    24  H   -0.004454   0.002075  -0.000001  -0.000000   0.000000  -0.000000
    25  H    0.824866   0.012686  -0.000037  -0.000009   0.000000  -0.000000
    26  H    0.012686   0.824876  -0.000037  -0.000009   0.000000  -0.000000
    27  H   -0.000037  -0.000037   0.557376   0.014954  -0.000591  -0.007639
    28  H   -0.000009  -0.000009   0.014954   0.619820   0.005107  -0.000278
    29  H    0.000000   0.000000  -0.000591   0.005107   0.616656  -0.141362
    30  H   -0.000000  -0.000000  -0.007639  -0.000278  -0.141362   0.771866
    31  H    0.000000   0.000000  -0.000005  -0.000005   0.000520  -0.000542
    32  H    0.000000   0.000000  -0.000024   0.000000   0.002699   0.005053
    33  H    0.000000   0.000000   0.000000   0.000000  -0.000015   0.000014
    34  H    0.000000   0.000000   0.000000   0.000000  -0.000000   0.000000
    35  H    0.000000   0.000000   0.000000   0.000000  -0.000000   0.000000
    36  H    0.000000   0.000000   0.000003  -0.000000  -0.003940  -0.002527
    37  H    0.000003   0.000003  -0.047888  -0.000489   0.004615  -0.006546
              31         32         33         34         35         36
     1  C    0.000000   0.000000   0.000000   0.000000   0.000000   0.000000
     2  C    0.000000   0.000000   0.000000   0.000000   0.000000   0.000000
     3  C   -0.000000  -0.000000   0.000000   0.000000   0.000000   0.000000
     4  C    0.000000  -0.000000  -0.000000  -0.000000  -0.000000  -0.000000
     5  C    0.000000  -0.000000  -0.000000  -0.000000  -0.000000  -0.000000
     6  N    0.000000   0.000000  -0.000000   0.000000   0.000000   0.000000
     7  C   -0.000003   0.000002   0.000000   0.000000   0.000000   0.000000
     8  C   -0.000029   0.000002  -0.000000   0.000000   0.000000  -0.000017
     9  C    0.001815   0.000302  -0.000013   0.000000   0.000000  -0.001067
    10  N   -0.005410  -0.000849  -0.000027  -0.000001  -0.000001  -0.001379
    11  C    0.022304  -0.028835  -0.000655  -0.000029  -0.000029   0.060720
    12  C    0.343341   0.021102  -0.023000   0.001616   0.001616  -0.191150
    13  C   -0.002392   0.061757  -0.004954   0.000320   0.000320  -0.050781
    14  C   -0.036488   0.046605  -0.013773  -0.002349  -0.002350  -0.126127
    15  C   -0.006692   0.000729   0.325593   0.277932   0.277954  -0.037474
    16  C    0.001357   0.027797  -0.000294  -0.000002  -0.000002   0.008006
    17  C    0.000033  -0.004381  -0.000001  -0.000000  -0.000000   0.000559
    18  H    0.000000   0.000000   0.000000   0.000000   0.000000   0.000000
    19  H    0.000000   0.000000   0.000000   0.000000   0.000000   0.000000
    20  H    0.000000   0.000000   0.000000   0.000000   0.000000   0.000000
    21  H    0.000000   0.000000   0.000000   0.000000   0.000000   0.000000
    22  H    0.000000   0.000000   0.000000   0.000000   0.000000   0.000000
    23  H    0.000000   0.000000   0.000000   0.000000   0.000000  -0.000000
    24  H    0.000000   0.000000   0.000000   0.000000   0.000000  -0.000000
    25  H    0.000000   0.000000   0.000000   0.000000   0.000000   0.000000
    26  H    0.000000   0.000000   0.000000   0.000000   0.000000   0.000000
    27  H   -0.000005  -0.000024   0.000000   0.000000   0.000000   0.000003
    28  H   -0.000005   0.000000   0.000000   0.000000   0.000000  -0.000000
    29  H    0.000520   0.002699  -0.000015  -0.000000  -0.000000  -0.003940
    30  H   -0.000542   0.005053   0.000014   0.000000   0.000000  -0.002527
    31  H    0.410897   0.000301   0.027520  -0.000944  -0.000943   0.006744
    32  H    0.000301   0.936349  -0.000025  -0.000003  -0.000003  -0.136189
    33  H    0.027520  -0.000025   0.593379  -0.041187  -0.041194  -0.000880
    34  H   -0.000944  -0.000003  -0.041187   0.735833  -0.046477   0.000271
    35  H   -0.000943  -0.000003  -0.041194  -0.046477   0.735790   0.000268
    36  H    0.006744  -0.136189  -0.000880   0.000271   0.000268   1.784261
    37  H    0.000000   0.000064  -0.000000  -0.000000  -0.000000  -0.000005
              37
     1  C   -0.000000
     2  C    0.000000
     3  C   -0.000012
     4  C   -0.000031
     5  C    0.085212
     6  N   -0.001828
     7  C    0.007797
     8  C    0.005259
     9  C    0.000436
    10  N   -0.000448
    11  C    0.001897
    12  C   -0.000021
    13  C    0.000903
    14  C    0.000005
    15  C   -0.000000
    16  C   -0.001531
    17  C    0.194722
    18  H    0.000000
    19  H    0.000000
    20  H    0.000000
    21  H    0.000000
    22  H    0.000000
    23  H    0.000001
    24  H    0.000001
    25  H    0.000003
    26  H    0.000003
    27  H   -0.047888
    28  H   -0.000489
    29  H    0.004615
    30  H   -0.006546
    31  H    0.000000
    32  H    0.000064
    33  H   -0.000000
    34  H   -0.000000
    35  H   -0.000000
    36  H   -0.000005
    37  H    0.481838
 Mulliken charges:
               1
     1  C   -0.369823
     2  C   -0.255011
     3  C   -0.282851
     4  C   -0.172051
     5  C   -0.312517
     6  N   -0.298791
     7  C    0.537202
     8  C   -0.344325
     9  C    0.138977
    10  N   -0.285577
    11  C    0.096677
    12  C   -0.448760
    13  C    1.030498
    14  C    0.027449
    15  C   -0.403582
    16  C   -0.716783
    17  C   -0.829810
    18  H    0.124288
    19  H    0.116655
    20  H    0.116654
    21  H    0.104982
    22  H    0.104981
    23  H    0.165653
    24  H    0.165645
    25  H    0.068810
    26  H    0.068803
    27  H    0.394723
    28  H    0.099710
    29  H    0.347343
    30  H    0.408335
    31  H    0.238620
    32  H    0.067547
    33  H    0.179511
    34  H    0.075020
    35  H    0.075052
    36  H   -0.309298
    37  H    0.276044
 Sum of Mulliken charges =  -0.00000
 Mulliken charges with hydrogens summed into heavy atoms:
               1
     1  C   -0.012226
     2  C   -0.045047
     3  C    0.048447
     4  C   -0.034438
     5  C   -0.312517
     6  N   -0.298791
     7  C    0.931925
     8  C   -0.244614
     9  C    0.486320
    10  N   -0.285577
    11  C    0.096677
    12  C   -0.210140
    13  C    1.030498
    14  C   -0.281848
    15  C   -0.074000
    16  C   -0.240901
    17  C   -0.553766
 Electronic spatial extent (au):  <R**2>=          10075.6843
 Charge=             -0.0000 electrons
 Dipole moment (field-independent basis, Debye):
    X=              0.8972    Y=             -2.5656    Z=             -0.0000  Tot=              2.7180
 Quadrupole moment (field-independent basis, Debye-Ang):
   XX=           -102.3242   YY=           -107.9633   ZZ=           -110.3200
   XY=             -9.2583   XZ=             -0.0004   YZ=              0.0003
 Traceless Quadrupole moment (field-independent basis, Debye-Ang):
   XX=              4.5450   YY=             -1.0941   ZZ=             -3.4509
   XY=             -9.2583   XZ=             -0.0004   YZ=              0.0003
 Octapole moment (field-independent basis, Debye-Ang**2):
  XXX=            -86.2242  YYY=            -23.5281  ZZZ=             -0.0006  XYY=             12.9602
  XXY=            -70.9665  XXZ=             -0.0034  XZZ=            -20.8142  YZZ=             -5.4376
  YYZ=             -0.0012  XYZ=              0.0006
 Hexadecapole moment (field-independent basis, Debye-Ang**3):
 XXXX=         -13325.7226 YYYY=           -682.9858 ZZZZ=           -151.0121 XXXY=           -484.3726
 XXXZ=             -0.0670 YYYX=            -82.1109 YYYZ=              0.0004 ZZZX=             -0.0026
 ZZZY=             -0.0003 XXYY=          -2256.6726 XXZZ=          -2371.4636 YYZZ=           -144.6765
 XXYZ=              0.0167 YYXZ=             -0.0068 ZZXY=            -10.4146
 N-N= 1.076266491530D+03 E-N=-3.753059804707D+03  KE= 6.923543122129D+02
 PrsmSu:  requested number of processors reduced to:  13 ShMem   1 Linda.
 Calling FoFJK, ICntrl=      2127 FMM=F ISym2X=0 I1Cent= 0 IOpClX= 0 NMat=1 NMatS=1 NMatT=0.
 ***** Axes restored to original set *****
 -------------------------------------------------------------------
 Center     Atomic                   Forces (Hartrees/Bohr)
 Number     Number              X              Y              Z
 -------------------------------------------------------------------
      1        6           0.017225018   -0.012718545    0.007618551
      2        6           0.003323049   -0.011371832    0.006814116
      3        6          -0.104990559    0.090505024   -0.054199762
      4        6           0.026757023    0.046217588   -0.027704588
      5        6          -0.257283372   -0.082378531    0.049356509
      6        7          -0.223898947    0.116302127   -0.069676159
      7        6           0.117648294    0.048418097   -0.029007416
      8        6           0.170588821   -0.021511079    0.012889188
      9        6          -0.075726619    0.148572090   -0.089018532
     10        7           0.129958043    0.092796473   -0.055615608
     11        6           0.118197635    0.058201144   -0.034810238
     12        6           0.130667478   -0.021319901    0.012851856
     13        6           0.324269719    0.057398009   -0.034570594
     14        6           1.218364505    0.775220233   -0.464780926
     15        6           0.142222744    0.020880982   -0.012524107
     16        6          -0.400336694   -0.207564725    0.124351265
     17        6          -0.113554975    0.066148229   -0.039625650
[...]
 Iteration 33 RMS(Cart)=  0.00020552 RMS(Int)=  0.30675858
 Iteration 34 RMS(Cart)=  0.00020249 RMS(Int)=  0.30674706
 Iteration 35 RMS(Cart)=  0.00019952 RMS(Int)=  0.30673572
 Iteration 36 RMS(Cart)=  0.00019661 RMS(Int)=  0.30672456
 Iteration 37 RMS(Cart)=  0.00019375 RMS(Int)=  0.30671355
 Iteration 38 RMS(Cart)=  0.00019096 RMS(Int)=  0.30670272
 Iteration 39 RMS(Cart)=  0.00018821 RMS(Int)=  0.30669204
 Iteration 40 RMS(Cart)=  0.00018553 RMS(Int)=  0.30668152
 Iteration 41 RMS(Cart)=  0.00018289 RMS(Int)=  0.30667116
 Iteration 42 RMS(Cart)=  0.00018030 RMS(Int)=  0.30666095
 Iteration 43 RMS(Cart)=  0.00017777 RMS(Int)=  0.30665089
 Iteration 44 RMS(Cart)=  0.00017528 RMS(Int)=  0.30664097
 Iteration 45 RMS(Cart)=  0.00017284 RMS(Int)=  0.30663119
 Iteration 46 RMS(Cart)=  0.00017044 RMS(Int)=  0.30662156
 Iteration 47 RMS(Cart)=  0.00016809 RMS(Int)=  0.30661206
 Iteration 48 RMS(Cart)=  0.00016579 RMS(Int)=  0.30660270
 Iteration 49 RMS(Cart)=  0.00016352 RMS(Int)=  0.30659347
 Iteration 50 RMS(Cart)=  0.00016130 RMS(Int)=  0.30658436
 Iteration 51 RMS(Cart)=  0.00015912 RMS(Int)=  0.03310017
 Iteration 52 RMS(Cart)=  0.00055298 RMS(Int)=  0.30656786
 Iteration 53 RMS(Cart)=  0.00014486 RMS(Int)=  0.30655969
 Iteration 54 RMS(Cart)=  0.00014296 RMS(Int)=  0.30655162
 Iteration 55 RMS(Cart)=  0.00014109 RMS(Int)=  0.30654366
 Iteration 56 RMS(Cart)=  0.00013925 RMS(Int)=  0.30653581
 Iteration 57 RMS(Cart)=  0.00013745 RMS(Int)=  0.30652806
 Iteration 58 RMS(Cart)=  0.00013568 RMS(Int)=  0.30652042
 Iteration 59 RMS(Cart)=  0.00013393 RMS(Int)=  0.30651287
 Iteration 60 RMS(Cart)=  0.00013222 RMS(Int)=  0.30650543
 Iteration 61 RMS(Cart)=  0.00013053 RMS(Int)=  0.30649808
 Iteration 62 RMS(Cart)=  0.00012888 RMS(Int)=  0.30649083
 Iteration 63 RMS(Cart)=  0.00012725 RMS(Int)=  0.30648367
 Iteration 64 RMS(Cart)=  0.00012565 RMS(Int)=  0.30647661
 Iteration 65 RMS(Cart)=  0.00012407 RMS(Int)=  0.30646964
 Iteration 66 RMS(Cart)=  0.00012252 RMS(Int)=  0.30646275
 Iteration 67 RMS(Cart)=  0.00012099 RMS(Int)=  0.30645596
 Iteration 68 RMS(Cart)=  0.00011949 RMS(Int)=  0.30644925
 Iteration 69 RMS(Cart)=  0.00011801 RMS(Int)=  0.30644262
 Iteration 70 RMS(Cart)=  0.00011656 RMS(Int)=  0.30643608
 Iteration 71 RMS(Cart)=  0.00011513 RMS(Int)=  0.30642962
 Iteration 72 RMS(Cart)=  0.00011372 RMS(Int)=  0.30642325
 Iteration 73 RMS(Cart)=  0.00011233 RMS(Int)=  0.30641695
 Iteration 74 RMS(Cart)=  0.00011097 RMS(Int)=  0.30641072
 Iteration 75 RMS(Cart)=  0.00010962 RMS(Int)=  0.03220627
 Iteration 76 RMS(Cart)=  0.00046451 RMS(Int)=  0.30639902
 Iteration 77 RMS(Cart)=  0.00009875 RMS(Int)=  0.30639349
 Iteration 78 RMS(Cart)=  0.00009758 RMS(Int)=  0.30638802
 Iteration 79 RMS(Cart)=  0.00009644 RMS(Int)=  0.30638261
 Iteration 80 RMS(Cart)=  0.00009531 RMS(Int)=  0.30637727
 Iteration 81 RMS(Cart)=  0.00009419 RMS(Int)=  0.30637199
 Iteration 82 RMS(Cart)=  0.00009310 RMS(Int)=  0.30636678
 Iteration 83 RMS(Cart)=  0.00009201 RMS(Int)=  0.30636163
 Iteration 84 RMS(Cart)=  0.00009095 RMS(Int)=  0.30635654
 Iteration 85 RMS(Cart)=  0.00008990 RMS(Int)=  0.30635151
 Iteration 86 RMS(Cart)=  0.00008886 RMS(Int)=  0.30634653
 Iteration 87 RMS(Cart)=  0.00008784 RMS(Int)=  0.30634162
 Iteration 88 RMS(Cart)=  0.00008684 RMS(Int)=  0.30633676
 Iteration 89 RMS(Cart)=  0.00008585 RMS(Int)=  0.30633196
 Iteration 90 RMS(Cart)=  0.00008487 RMS(Int)=  0.30632722
 Iteration 91 RMS(Cart)=  0.00008391 RMS(Int)=  0.30632253
 Iteration 92 RMS(Cart)=  0.00008296 RMS(Int)=  0.30631790
 Iteration 93 RMS(Cart)=  0.00008202 RMS(Int)=  0.30631331
 Iteration 94 RMS(Cart)=  0.00008110 RMS(Int)=  0.30630879
 Iteration 95 RMS(Cart)=  0.00008019 RMS(Int)=  0.30630431
 Iteration 96 RMS(Cart)=  0.00007929 RMS(Int)=  0.30629988
 Iteration 97 RMS(Cart)=  0.00007840 RMS(Int)=  0.30629551
 Iteration 98 RMS(Cart)=  0.00007753 RMS(Int)=  0.30629118
 Iteration 99 RMS(Cart)=  0.00007667 RMS(Int)=  0.30628690
 Iteration100 RMS(Cart)=  0.00007582 RMS(Int)=  0.30628267
 New curvilinear step not converged.
 ITry= 2 IFail=1 DXMaxC= 1.25D-01 DCOld= 1.00D+10 DXMaxT= 6.00D-01 DXLimC= 3.00D+00 Rises=F
 SLEqS3 Cycle:   130 Max:0.529703E-01 RMS: 373.872     Conv:0.240264E-02
 Iteration  1 RMS(Cart)=  0.00774884 RMS(Int)=  0.03551984
 SLEqS3 Cycle:    37 Max:0.513896E-01 RMS:0.101714E-01 Conv:0.216979E-02
 Iteration  2 RMS(Cart)=  0.00049791 RMS(Int)=  0.03529745
 SLEqS3 Cycle:    32 Max:0.484600E-01 RMS:0.101641E-01 Conv:0.215034E-02
 Iteration  3 RMS(Cart)=  0.00050359 RMS(Int)=  0.03507269
 SLEqS3 Cycle:    33 Max:0.509158E-01 RMS:0.101584E-01 Conv:0.214216E-02
 Iteration  4 RMS(Cart)=  0.00047642 RMS(Int)=  0.03486016
 SLEqS3 Cycle:  1111 Max:0.262839E-01 RMS:0.369033E-02 Conv:0.211784E-02
 SLEqS3 Cycle:   133 Max:0.513124E-01 RMS: 330.355     Conv:0.211784E-02
 Iteration  5 RMS(Cart)=  0.00046100 RMS(Int)=  0.03465450
 SLEqS3 Cycle:    18 Max:0.507876E-01 RMS: 328.547     Conv:0.210598E-02
 Iteration  6 RMS(Cart)=  0.00045319 RMS(Int)=  0.03445260
 SLEqS3 Cycle:    18 Max:0.511260E-01 RMS: 326.971     Conv:0.209562E-02
 Iteration  7 RMS(Cart)=  0.00044028 RMS(Int)=  0.03425658
 SLEqS3 Cycle:    33 Max:0.461389E-01 RMS:0.101307E-01 Conv:0.208023E-02
 Iteration  8 RMS(Cart)=  0.00045769 RMS(Int)=  0.03405295
 SLEqS3 Cycle:    18 Max:0.510179E-01 RMS: 323.083     Conv:0.207019E-02
 Iteration  9 RMS(Cart)=  0.00041921 RMS(Int)=  0.03386655
 SLEqS3 Cycle:    18 Max:0.509191E-01 RMS: 321.712     Conv:0.206117E-02
 Iteration 10 RMS(Cart)=  0.00040985 RMS(Int)=  0.03368442
 SLEqS3 Cycle:  1111 Max:0.267743E-01 RMS:0.373164E-02 Conv:0.203585E-02
 SLEqS3 Cycle:   135 Max:0.467902E-01 RMS: 317.796     Conv:0.203585E-02
 Iteration 11 RMS(Cart)=  0.00040421 RMS(Int)=  0.03350303
 SLEqS3 Cycle:    34 Max:0.510071E-01 RMS:0.101006E-01 Conv:0.203269E-02
 Iteration 12 RMS(Cart)=  0.00039047 RMS(Int)=  0.03332976
 SLEqS3 Cycle:    35 Max:0.442244E-01 RMS:0.100923E-01 Conv:0.201543E-02
 Iteration 13 RMS(Cart)=  0.00041963 RMS(Int)=  0.03314367
 SLEqS3 Cycle:    35 Max:0.449186E-01 RMS:0.100858E-01 Conv:0.199766E-02
 Iteration 14 RMS(Cart)=  0.00040443 RMS(Int)=  0.03296444
 SLEqS3 Cycle:    33 Max:0.507817E-01 RMS:0.100823E-01 Conv:0.199039E-02
 Iteration 15 RMS(Cart)=  0.00036465 RMS(Int)=  0.03280293
 SLEqS3 Cycle:  1111 Max:0.265426E-01 RMS:0.370926E-02 Conv:0.197872E-02
 SLEqS3 Cycle:   153 Max:0.498930E-01 RMS: 309.048     Conv:0.197872E-02
 Iteration 16 RMS(Cart)=  0.00035839 RMS(Int)=  0.03264409
 SLEqS3 Cycle:    35 Max:0.443998E-01 RMS:0.100689E-01 Conv:0.196436E-02
 Iteration 17 RMS(Cart)=  0.00038178 RMS(Int)=  0.03247520
 SLEqS3 Cycle:    18 Max:0.503024E-01 RMS: 306.454     Conv:0.196171E-02
 Iteration 18 RMS(Cart)=  0.00034342 RMS(Int)=  0.03232336
 SLEqS3 Cycle:  1111 Max: 1944.14     RMS: 303.739     Conv:0.194415E-02
 SLEqS3 Cycle:   153 Max:0.465100E-01 RMS: 303.740     Conv:0.194415E-02
 Iteration 19 RMS(Cart)=  0.00033998 RMS(Int)=  0.03217141
 SLEqS3 Cycle:    35 Max:0.447173E-01 RMS:0.100506E-01 Conv:0.193528E-02
 Iteration 20 RMS(Cart)=  0.00035657 RMS(Int)=  0.03201397
 SLEqS3 Cycle:  1111 Max:0.263063E-01 RMS:0.367995E-02 Conv:0.191937E-02
 SLEqS3 Cycle:   150 Max:0.494124E-01 RMS: 299.929     Conv:0.191937E-02
 Iteration 21 RMS(Cart)=  0.00032307 RMS(Int)=  0.03187122
 SLEqS3 Cycle:    35 Max:0.450134E-01 RMS:0.100381E-01 Conv:0.190655E-02
 Iteration 22 RMS(Cart)=  0.00034087 RMS(Int)=  0.03172090
 SLEqS3 Cycle:    34 Max:0.486883E-01 RMS:0.100352E-01 Conv:0.190168E-02
 Iteration 23 RMS(Cart)=  0.00031621 RMS(Int)=  0.03158153
 SLEqS3 Cycle:    19 Max:0.504900E-01 RMS: 294.190     Conv:0.188213E-02
 Iteration 24 RMS(Cart)=  0.00030135 RMS(Int)=  0.03144879
 SLEqS3 Cycle:  1111 Max:0.447558E-01 RMS:0.730697E-02 Conv:0.186661E-02
 SLEqS3 Cycle:   178 Max:0.462313E-01 RMS:0.100225E-01 Conv:0.186661E-02
 Iteration 25 RMS(Cart)=  0.00030234 RMS(Int)=  0.03131407
 SLEqS3 Cycle:    34 Max:0.500030E-01 RMS:0.100158E-01 Conv:0.185612E-02
 Iteration 26 RMS(Cart)=  0.00029208 RMS(Int)=  0.03118556
 SLEqS3 Cycle:   911 Max:0.261125E-01 RMS:0.365644E-02 Conv:0.183223E-02
 Iteration 27 RMS(Cart)=  0.00036157 RMS(Int)=  0.03103831
 SLEqS3 Cycle:  1111 Max:0.261881E-01 RMS:0.366372E-02 Conv:0.407902E-05
 SLEqS3 Cycle:  1111 Max:0.191811E-01 RMS:0.293662E-02 Conv:0.407902E-05
 Iteration 28 RMS(Cart)=  0.00043309 RMS(Int)=  0.03088337
 SLEqS3 Cycle:  1111 Max:0.393426E-02 RMS:0.592657E-03 Conv:0.244545E-05
 SLEqS3 Cycle:  1111 Max:0.927293E-02 RMS:0.119758E-02 Conv:0.244545E-05
 Iteration 29 RMS(Cart)=  0.00056011 RMS(Int)=  0.03072249
 Iteration 30 RMS(Cart)=  0.00067408 RMS(Int)=  0.03055026
 Iteration 31 RMS(Cart)=  0.00065909 RMS(Int)=  0.03038182
 Iteration 32 RMS(Cart)=  0.00064465 RMS(Int)=  0.03021703
 Iteration 33 RMS(Cart)=  0.00063071 RMS(Int)=  0.30666442
 New curvilinear step failed, DQL= 4.42D+00 SP=-1.83D-02.
 ITry= 3 IFail=1 DXMaxC= 8.16D-02 DCOld= 1.00D+10 DXMaxT= 6.00D-01 DXLimC= 3.00D+00 Rises=F
 SLEqS3 Cycle:   130 Max:0.462746E-01 RMS: 327.138     Conv:0.210231E-02
 Iteration  1 RMS(Cart)=  0.00679292 RMS(Int)=  0.03107847
 SLEqS3 Cycle:  1111 Max:0.235241E-01 RMS:0.328188E-02 Conv:0.189365E-02
 SLEqS3 Cycle:   135 Max:0.431266E-01 RMS: 295.197     Conv:0.189365E-02
 Iteration  2 RMS(Cart)=  0.00029410 RMS(Int)=  0.03094666
 SLEqS3 Cycle:    32 Max:0.431574E-01 RMS:0.889309E-02 Conv:0.188066E-02
 Iteration  3 RMS(Cart)=  0.00029708 RMS(Int)=  0.03081403
 SLEqS3 Cycle:    17 Max:0.429921E-01 RMS: 291.129     Conv:0.186724E-02
 Iteration  4 RMS(Cart)=  0.00029040 RMS(Int)=  0.03068450
 SLEqS3 Cycle:    35 Max:0.451960E-01 RMS:0.888333E-02 Conv:0.186429E-02
 Iteration  5 RMS(Cart)=  0.00027685 RMS(Int)=  0.03056106
 SLEqS3 Cycle:    18 Max:0.438064E-01 RMS: 288.787     Conv:0.185194E-02
 Iteration  6 RMS(Cart)=  0.00027764 RMS(Int)=  0.03043733
 SLEqS3 Cycle:    36 Max:0.451078E-01 RMS:0.887764E-02 Conv:0.185468E-02
 Iteration  7 RMS(Cart)=  0.00026721 RMS(Int)=  0.03031831
 SLEqS3 Cycle:    32 Max:0.417438E-01 RMS:0.887065E-02 Conv:0.183815E-02
 Iteration  8 RMS(Cart)=  0.00027634 RMS(Int)=  0.03019527
 SLEqS3 Cycle:    33 Max:0.442971E-01 RMS:0.886672E-02 Conv:0.183096E-02
 Iteration  9 RMS(Cart)=  0.00026060 RMS(Int)=  0.03007929
 SLEqS3 Cycle:    34 Max:0.423139E-01 RMS:0.886299E-02 Conv:0.182422E-02
 Iteration 10 RMS(Cart)=  0.00026347 RMS(Int)=  0.02996210
 SLEqS3 Cycle:    34 Max:0.422492E-01 RMS:0.885922E-02 Conv:0.181755E-02
 Iteration 11 RMS(Cart)=  0.00025906 RMS(Int)=  0.02984693
 SLEqS3 Cycle:    32 Max:0.430748E-01 RMS:0.885445E-02 Conv:0.180610E-02
 Iteration 12 RMS(Cart)=  0.00025168 RMS(Int)=  0.02973507
 SLEqS3 Cycle:    36 Max:0.448202E-01 RMS:0.885295E-02 Conv:0.180950E-02
 Iteration 13 RMS(Cart)=  0.00024091 RMS(Int)=  0.02962804
 SLEqS3 Cycle:    34 Max:0.447692E-01 RMS:0.884740E-02 Conv:0.178913E-02
 Iteration 14 RMS(Cart)=  0.00023704 RMS(Int)=  0.02952277
 SLEqS3 Cycle:    39 Max:0.447306E-01 RMS:0.884501E-02 Conv:0.179255E-02
 Iteration 15 RMS(Cart)=  0.00023328 RMS(Int)=  0.02941922
 SLEqS3 Cycle:    35 Max:0.387673E-01 RMS:0.883952E-02 Conv:0.178210E-02
 Iteration 16 RMS(Cart)=  0.00025287 RMS(Int)=  0.02930703
 SLEqS3 Cycle:    34 Max:0.425563E-01 RMS:0.883690E-02 Conv:0.177596E-02
 Iteration 17 RMS(Cart)=  0.00023286 RMS(Int)=  0.02920377
 SLEqS3 Cycle:    34 Max:0.426785E-01 RMS:0.883350E-02 Conv:0.177030E-02
 Iteration 18 RMS(Cart)=  0.00022863 RMS(Int)=  0.02910242
 SLEqS3 Cycle:    18 Max:0.438112E-01 RMS: 274.688     Conv:0.175995E-02
 Iteration 19 RMS(Cart)=  0.00022130 RMS(Int)=  0.02900435
 SLEqS3 Cycle:    18 Max:0.436205E-01 RMS: 273.072     Conv:0.174948E-02
 Iteration 20 RMS(Cart)=  0.00021841 RMS(Int)=  0.02890761
 SLEqS3 Cycle:    33 Max:0.444661E-01 RMS:0.882162E-02 Conv:0.174367E-02
 Iteration 21 RMS(Cart)=  0.00021199 RMS(Int)=  0.02881375
 SLEqS3 Cycle:    32 Max:0.444230E-01 RMS:0.881746E-02 Conv:0.173330E-02
 Iteration 22 RMS(Cart)=  0.00020884 RMS(Int)=  0.02872132
 SLEqS3 Cycle:    19 Max:0.440883E-01 RMS: 269.689     Conv:0.172750E-02
 Iteration 23 RMS(Cart)=  0.00020674 RMS(Int)=  0.02862985
 SLEqS3 Cycle:    32 Max:0.434039E-01 RMS:0.881028E-02 Conv:0.172184E-02
 Iteration 24 RMS(Cart)=  0.00020502 RMS(Int)=  0.02853919
 SLEqS3 Cycle:    19 Max:0.443876E-01 RMS: 268.703     Conv:0.172100E-02
 Iteration 25 RMS(Cart)=  0.00019951 RMS(Int)=  0.02845099
 SLEqS3 Cycle:  1111 Max:0.228471E-01 RMS:0.320195E-02 Conv:0.170660E-02
 SLEqS3 Cycle:   153 Max:0.392226E-01 RMS: 266.469     Conv:0.170660E-02
 Iteration 26 RMS(Cart)=  0.00023352 RMS(Int)=  0.02834976
 SLEqS3 Cycle:    32 Max:0.400193E-01 RMS:0.879965E-02 Conv:0.170371E-02
 Iteration 27 RMS(Cart)=  0.00020857 RMS(Int)=  0.02825764
 SLEqS3 Cycle:    34 Max:0.407699E-01 RMS:0.879608E-02 Conv:0.169992E-02
 Iteration 28 RMS(Cart)=  0.00020243 RMS(Int)=  0.02816827
 SLEqS3 Cycle:    32 Max:0.422301E-01 RMS:0.879257E-02 Conv:0.169182E-02
 Iteration 29 RMS(Cart)=  0.00019363 RMS(Int)=  0.02808281
 SLEqS3 Cycle:    33 Max:0.441046E-01 RMS:0.879124E-02 Conv:0.169295E-02
 Iteration 30 RMS(Cart)=  0.00018521 RMS(Int)=  0.02800110
 SLEqS3 Cycle:    18 Max:0.435082E-01 RMS: 263.246     Conv:0.168546E-02
 Iteration 31 RMS(Cart)=  0.00018456 RMS(Int)=  0.02791971
 SLEqS3 Cycle:    19 Max:0.442153E-01 RMS: 261.371     Conv:0.167336E-02
 Iteration 32 RMS(Cart)=  0.00017950 RMS(Int)=  0.02784058
 SLEqS3 Cycle:    32 Max:0.425509E-01 RMS:0.878036E-02 Conv:0.166554E-02
 Iteration 33 RMS(Cart)=  0.00018203 RMS(Int)=  0.02776037
 SLEqS3 Cycle:    19 Max:0.439000E-01 RMS: 259.642     Conv:0.166213E-02
 Iteration 34 RMS(Cart)=  0.00017554 RMS(Int)=  0.02768304
 SLEqS3 Cycle:    18 Max:0.443411E-01 RMS: 258.462     Conv:0.165449E-02
 Iteration 35 RMS(Cart)=  0.00017168 RMS(Int)=  0.02760744
 SLEqS3 Cycle:    32 Max:0.423755E-01 RMS:0.877278E-02 Conv:0.164685E-02
 Iteration 36 RMS(Cart)=  0.00017466 RMS(Int)=  0.02753056
 SLEqS3 Cycle:    33 Max:0.438561E-01 RMS:0.876961E-02 Conv:0.164351E-02
 Iteration 37 RMS(Cart)=  0.00016850 RMS(Int)=  0.02745641
 SLEqS3 Cycle:    33 Max:0.438212E-01 RMS:0.876644E-02 Conv:0.163601E-02
 Iteration 38 RMS(Cart)=  0.00016633 RMS(Int)=  0.02738325
 SLEqS3 Cycle:    34 Max:0.437792E-01 RMS:0.876132E-02 Conv:0.162414E-02
 Iteration 39 RMS(Cart)=  0.00016420 RMS(Int)=  0.02731105
 SLEqS3 Cycle:    35 Max:0.434615E-01 RMS:0.876142E-02 Conv:0.162498E-02
 Iteration 40 RMS(Cart)=  0.00016287 RMS(Int)=  0.02723946
 SLEqS3 Cycle:  1111 Max:0.228178E-01 RMS:0.319104E-02 Conv:0.161758E-02
 SLEqS3 Cycle:   150 Max:0.402419E-01 RMS: 252.765     Conv:0.161758E-02
 Iteration 41 RMS(Cart)=  0.00016523 RMS(Int)=  0.02716598
 SLEqS3 Cycle:    34 Max:0.407231E-01 RMS:0.875588E-02 Conv:0.161986E-02
 Iteration 42 RMS(Cart)=  0.00016720 RMS(Int)=  0.02709255
 SLEqS3 Cycle:    34 Max:0.395550E-01 RMS:0.875163E-02 Conv:0.160284E-02
 Iteration 43 RMS(Cart)=  0.00016880 RMS(Int)=  0.02701844
 SLEqS3 Cycle:    35 Max:0.436180E-01 RMS:0.875045E-02 Conv:0.160655E-02
 Iteration 44 RMS(Cart)=  0.00015380 RMS(Int)=  0.02695094
 SLEqS3 Cycle:    18 Max:0.432702E-01 RMS: 250.417     Conv:0.160226E-02
 Iteration 45 RMS(Cart)=  0.00015288 RMS(Int)=  0.02688387
 SLEqS3 Cycle:    34 Max:0.396634E-01 RMS:0.874373E-02 Conv:0.158552E-02
 Iteration 46 RMS(Cart)=  0.00016206 RMS(Int)=  0.02681280
 SLEqS3 Cycle:    18 Max:0.426357E-01 RMS: 247.099     Conv:0.158090E-02
 Iteration 47 RMS(Cart)=  0.00015008 RMS(Int)=  0.02674700
 SLEqS3 Cycle:    18 Max:0.427535E-01 RMS: 247.036     Conv:0.158043E-02
 Iteration 48 RMS(Cart)=  0.00014833 RMS(Int)=  0.02668199
 SLEqS3 Cycle:    41 Max:0.394501E-01 RMS:0.873864E-02 Conv:0.157204E-02
 Iteration 49 RMS(Cart)=  0.00015667 RMS(Int)=  0.02661335
 SLEqS3 Cycle:    41 Max:0.391142E-01 RMS:0.873463E-02 Conv:0.155965E-02
 Iteration 50 RMS(Cart)=  0.00015567 RMS(Int)=  0.02654518
 SLEqS3 Cycle:    32 Max:0.405063E-01 RMS:0.873398E-02 Conv:0.155503E-02
 Iteration 51 RMS(Cart)=  0.00014943 RMS(Int)=  0.02647976
 SLEqS3 Cycle:    41 Max:0.407638E-01 RMS:0.873072E-02 Conv:0.155050E-02
 Iteration 52 RMS(Cart)=  0.00014678 RMS(Int)=  0.02641552
 SLEqS3 Cycle:    41 Max:0.404974E-01 RMS:0.872752E-02 Conv:0.154211E-02
 Iteration 53 RMS(Cart)=  0.00014574 RMS(Int)=  0.02635176
 SLEqS3 Cycle:    42 Max:0.406885E-01 RMS:0.872472E-02 Conv:0.153365E-02
 Iteration 54 RMS(Cart)=  0.00014336 RMS(Int)=  0.02628906
 SLEqS3 Cycle:    41 Max:0.413452E-01 RMS:0.872319E-02 Conv:0.152899E-02
 Iteration 55 RMS(Cart)=  0.00013969 RMS(Int)=  0.02622799
 SLEqS3 Cycle:    41 Max:0.414688E-01 RMS:0.872074E-02 Conv:0.152442E-02
 Iteration 56 RMS(Cart)=  0.00013765 RMS(Int)=  0.02616783
 SLEqS3 Cycle:    41 Max:0.432552E-01 RMS:0.872141E-02 Conv:0.152760E-02
 Iteration 57 RMS(Cart)=  0.00013100 RMS(Int)=  0.02611060
 SLEqS3 Cycle:  1111 Max:0.238725E-01 RMS:0.440543E-02 Conv:0.151965E-02
 SLEqS3 Cycle:   185 Max:0.398709E-01 RMS: 237.630     Conv:0.151965E-02
 Iteration 58 RMS(Cart)=  0.00013466 RMS(Int)=  0.02605102
 SLEqS3 Cycle:    19 Max:0.435128E-01 RMS: 234.798     Conv:0.150148E-02
 Iteration 59 RMS(Cart)=  0.00012695 RMS(Int)=  0.02599560
 SLEqS3 Cycle:    33 Max:0.415415E-01 RMS:0.870882E-02 Conv:0.148970E-02
 Iteration 60 RMS(Cart)=  0.00013109 RMS(Int)=  0.02593839
 SLEqS3 Cycle:    19 Max:0.433193E-01 RMS: 230.192     Conv:0.147192E-02
 Iteration 61 RMS(Cart)=  0.00012456 RMS(Int)=  0.02588404
 SLEqS3 Cycle:    35 Max:0.400129E-01 RMS:0.870626E-02 Conv:0.146401E-02
 Iteration 62 RMS(Cart)=  0.00013240 RMS(Int)=  0.02582629
 SLEqS3 Cycle:    33 Max:0.430548E-01 RMS:0.870328E-02 Conv:0.145089E-02
 Iteration 63 RMS(Cart)=  0.00012248 RMS(Int)=  0.02577288
 SLEqS3 Cycle:    32 Max:0.420619E-01 RMS:0.870098E-02 Conv:0.144018E-02
 Iteration 64 RMS(Cart)=  0.00012378 RMS(Int)=  0.02571893
 SLEqS3 Cycle:    33 Max:0.430025E-01 RMS:0.869816E-02 Conv:0.142052E-02
 Iteration 65 RMS(Cart)=  0.00011985 RMS(Int)=  0.02566670
 SLEqS3 Cycle:    32 Max:0.424027E-01 RMS:0.869663E-02 Conv:0.140695E-02
 Iteration 66 RMS(Cart)=  0.00012012 RMS(Int)=  0.02561438
 SLEqS3 Cycle:    38 Max:0.429557E-01 RMS:0.869456E-02 Conv:0.139979E-02
 Iteration 67 RMS(Cart)=  0.00011732 RMS(Int)=  0.02556329
 SLEqS3 Cycle:    37 Max:0.429268E-01 RMS:0.869191E-02 Conv:0.138386E-02
 Iteration 68 RMS(Cart)=  0.00011610 RMS(Int)=  0.02551274
 SLEqS3 Cycle:    39 Max:0.422598E-01 RMS:0.869113E-02 Conv:0.137669E-02
 Iteration 69 RMS(Cart)=  0.00011659 RMS(Int)=  0.02546199
 SLEqS3 Cycle:  1111 Max: 1367.10     RMS: 213.865     Conv:0.136711E-02
 SLEqS3 Cycle:   168 Max:0.395957E-01 RMS:0.834413E-02 Conv:0.136711E-02
 Iteration 70 RMS(Cart)=  0.00011870 RMS(Int)=  0.02540965
 SLEqS3 Cycle:    33 Max:0.396436E-01 RMS:0.860501E-02 Conv:0.127734E-02
 Iteration 71 RMS(Cart)=  0.00011723 RMS(Int)=  0.02535797
 SLEqS3 Cycle:    48 Max:0.419286E-01 RMS:0.867801E-02 Conv:0.120072E-02
 Iteration 72 RMS(Cart)=  0.00011242 RMS(Int)=  0.02530903
 SLEqS3 Cycle:    37 Max:0.424786E-01 RMS:0.867686E-02 Conv:0.111986E-02
 Iteration 73 RMS(Cart)=  0.00011084 RMS(Int)=  0.02526086
 SLEqS3 Cycle:   597 Max:0.184982E-01 RMS: 161.691     Conv:0.103246E-02
 Iteration 74 RMS(Cart)=  0.00014251 RMS(Int)=  0.30646383
 SLEqS3 Cycle:  1111 Max:0.216304E-01 RMS:0.349605E-02 Conv:0.687249E-05
 SLEqS3 Cycle:  1111 Max:0.343489E-01 RMS:0.568866E-02 Conv:0.687249E-05
 New curvilinear step failed, DQL= 4.40D+00 SP=-7.63D-02.
 ITry= 4 IFail=1 DXMaxC= 8.33D-02 DCOld= 1.00D+10 DXMaxT= 6.00D-01 DXLimC= 3.00D+00 Rises=F
 SLEqS3 Cycle:   128 Max:0.352176E-01 RMS: 280.404     Conv:0.180198E-02
 Iteration  1 RMS(Cart)=  0.00616887 RMS(Int)=  0.02659695
 SLEqS3 Cycle:  1111 Max:0.201203E-01 RMS:0.280784E-02 Conv:0.163014E-02
 SLEqS3 Cycle:   145 Max:0.362084E-01 RMS: 254.149     Conv:0.163014E-02
 Iteration  2 RMS(Cart)=  0.00015003 RMS(Int)=  0.02652928
 SLEqS3 Cycle:    32 Max:0.388423E-01 RMS:0.761564E-02 Conv:0.163034E-02
 Iteration  3 RMS(Cart)=  0.00014604 RMS(Int)=  0.02646374
slurmstepd: error: *** JOB 27448436 ON lewis4-r630-hpc4-node671 CANCELLED AT 2023-05-19T13:49:45 DUE TO TIME LIMIT ***
