### Starting Gaussian ###
 Entering Gaussian System, Link 0=g16
 Initial command:
 /cluster/software/gaussian/gaussian-16-A.03/avx2/g16/l1.exe "/local/scratch/linjian/Gau-8454.inp" -scrdir="/local/scratch/linjian/"
 Entering Link 1 = /cluster/software/gaussian/gaussian-16-A.03/avx2/g16/l1.exe PID=      8455.
  
 Copyright (c) 1988,1990,1992,1993,1995,1998,2003,2009,2016,
            Gaussian, Inc.  All Rights Reserved.
  
 This is part of the Gaussian(R) 16 program.  It is based on
 the Gaussian(R) 09 system (copyright 2009, Gaussian, Inc.),
 the Gaussian(R) 03 system (copyright 2003, Gaussian, Inc.),
 the Gaussian(R) 98 system (copyright 1998, Gaussian, Inc.),
 the Gaussian(R) 94 system (copyright 1995, Gaussian, Inc.),
 the Gaussian 92(TM) system (copyright 1992, Gaussian, Inc.),
 the Gaussian 90(TM) system (copyright 1990, Gaussian, Inc.),
 the Gaussian 88(TM) system (copyright 1988, Gaussian, Inc.),
 the Gaussian 86(TM) system (copyright 1986, Carnegie Mellon
 University), and the Gaussian 82(TM) system (copyright 1983,
 Carnegie Mellon University). Gaussian is a federally registered
 trademark of Gaussian, Inc.
  
 This software contains proprietary and confidential information,
 including trade secrets, belonging to Gaussian, Inc.
  
 This software is provided under written license and may be
 used, copied, transmitted, or stored only in accord with that
 written license.
  
 The following legend is applicable only to US Government
 contracts under FAR:
  
                    RESTRICTED RIGHTS LEGEND
  
 Use, reproduction and disclosure by the US Government is
 subject to restrictions as set forth in subparagraphs (a)
 and (c) of the Commercial Computer Software - Restricted
 Rights clause in FAR 52.227-19.
  
 Gaussian, Inc.
 340 Quinnipiac St., Bldg. 40, Wallingford CT 06492
  
  
 ---------------------------------------------------------------
 Warning -- This program may not be used in any manner that
 competes with the business of Gaussian, Inc. or will provide
 assistance to any competitor of Gaussian, Inc.  The licensee
 of this program is prohibited from giving any competitor of
 Gaussian, Inc. access to this program.  By using this program,
 the user acknowledges that Gaussian, Inc. is engaged in the
 business of creating and licensing software in the field of
 computational chemistry and represents and warrants to the
 licensee that it is not a competitor of Gaussian, Inc. and that
 it will not use this program in any manner prohibited above.
 ---------------------------------------------------------------
  

 Cite this work as:
 Gaussian 16, Revision A.03,
 M. J. Frisch, G. W. Trucks, H. B. Schlegel, G. E. Scuseria, 
 M. A. Robb, J. R. Cheeseman, G. Scalmani, V. Barone, 
 G. A. Petersson, H. Nakatsuji, X. Li, M. Caricato, A. V. Marenich, 
 J. Bloino, B. G. Janesko, R. Gomperts, B. Mennucci, H. P. Hratchian, 
 J. V. Ortiz, A. F. Izmaylov, J. L. Sonnenberg, D. Williams-Young, 
 F. Ding, F. Lipparini, F. Egidi, J. Goings, B. Peng, A. Petrone, 
 T. Henderson, D. Ranasinghe, V. G. Zakrzewski, J. Gao, N. Rega, 
 G. Zheng, W. Liang, M. Hada, M. Ehara, K. Toyota, R. Fukuda, 
 J. Hasegawa, M. Ishida, T. Nakajima, Y. Honda, O. Kitao, H. Nakai, 
 T. Vreven, K. Throssell, J. A. Montgomery, Jr., J. E. Peralta, 
 F. Ogliaro, M. J. Bearpark, J. J. Heyd, E. N. Brothers, K. N. Kudin, 
 V. N. Staroverov, T. A. Keith, R. Kobayashi, J. Normand, 
 K. Raghavachari, A. P. Rendell, J. C. Burant, S. S. Iyengar, 
 J. Tomasi, M. Cossi, J. M. Millam, M. Klene, C. Adamo, R. Cammi, 
 J. W. Ochterski, R. L. Martin, K. Morokuma, O. Farkas, 
 J. B. Foresman, and D. J. Fox, Gaussian, Inc., Wallingford CT, 2016.
 
 ******************************************
 Gaussian 16:  ES64L-G16RevA.03 25-Dec-2016
                17-May-2023 
 ******************************************
 %chk=CCCqC[SH]dSrd[SH]C1dCCdCC1dS.chk
 %NProcShared=20
 Will use up to   20 processors via shared memory.
 -----------------------------
 # opt freq b3lyp/6-31g(2df,p)
 -----------------------------
 1/18=20,19=15,26=3,38=1/1,3;
 2/9=110,12=2,17=6,18=5,40=1/2;
 3/5=1,6=6,7=104,11=2,25=1,30=1,71=1,74=-5/1,2,3;
 4//1;
 5/5=2,38=5/2;
 6/7=2,8=2,9=2,10=2,28=1/1;
 7//1,2,3,16;
 1/18=20,19=15,26=3/3(2);
 2/9=110/2;
 99//99;
 2/9=110/2;
 3/5=1,6=6,7=104,11=2,25=1,30=1,71=1,74=-5/1,2,3;
 4/5=5,16=3,69=1/1;
 5/5=2,38=5/2;
 7//1,2,3,16;
 1/18=20,19=15,26=3/3(-5);
 2/9=110/2;
 6/7=2,8=2,9=2,10=2,19=2,28=1/1;
 99/9=1/99;
 -------------------
 Title Card Required
 -------------------
 Symbolic Z-matrix:
 Charge =  0 Multiplicity = 1
 C                     1.1547   -0.15675  -0.36792 
 C                     2.60735   0.08752  -0.06011 
 C                     2.95144   1.0243    1.09129 
 C                     2.01022   1.73962   2.05271 
 S                     0.22026   1.54955   1.79382 
 S                    -0.68505   2.59202   3.18562 
 S                     4.77966   1.15103   1.29331 
 C                     4.9016    2.2303    2.64801 
 C                     4.80909   3.56504   2.63747 
 C                     4.96895   4.08904   3.96579 
 C                     5.21379   3.10417   4.84406 
 C                     5.2141    1.85649   4.05166 
 S                     5.50259   0.33239   4.67239 
 H                     0.99013  -0.79998  -1.23197 
 H                     0.65997   0.79212  -0.59382 
 H                     0.69141  -0.66624   0.48202 
 H                     3.09254   0.47597  -0.9647 
 H                     3.07392  -0.88303   0.15423 
 H                     2.20804   2.81126   1.95958 
 H                     2.24      1.41507   3.07268 
 H                     0.03745   0.3186    2.22613 
 H                     5.08708   1.89774   0.25468 
 H                     4.61381   4.19577   1.78144 
 H                     4.88787   5.13313   4.22419 
 H                     5.3701    3.16738   5.90378 
 

 GradGradGradGradGradGradGradGradGradGradGradGradGradGradGradGradGradGrad
 Berny optimization.
 Initialization pass.
                           ----------------------------
                           !    Initial Parameters    !
                           ! (Angstroms and Degrees)  !
 --------------------------                            --------------------------
 ! Name  Definition              Value          Derivative Info.                !
 --------------------------------------------------------------------------------
 ! R1    R(1,2)                  1.5049         estimate D2E/DX2                !
 ! R2    R(1,14)                 1.0897         estimate D2E/DX2                !
 ! R3    R(1,15)                 1.0937         estimate D2E/DX2                !
 ! R4    R(1,16)                 1.0939         estimate D2E/DX2                !
 ! R5    R(2,3)                  1.5237         estimate D2E/DX2                !
 ! R6    R(2,17)                 1.0975         estimate D2E/DX2                !
 ! R7    R(2,18)                 1.098          estimate D2E/DX2                !
 ! R8    R(3,4)                  1.5238         estimate D2E/DX2                !
 ! R9    R(3,7)                  1.8437         estimate D2E/DX2                !
 ! R10   R(4,5)                  1.8185         estimate D2E/DX2                !
 ! R11   R(4,19)                 1.0937         estimate D2E/DX2                !
 ! R12   R(4,20)                 1.0947         estimate D2E/DX2                !
 ! R13   R(5,6)                  1.9605         estimate D2E/DX2                !
 ! R14   R(5,21)                 1.3174         estimate D2E/DX2                !
 ! R15   R(7,8)                  1.7363         estimate D2E/DX2                !
 ! R16   R(7,22)                 1.3156         estimate D2E/DX2                !
 ! R17   R(8,9)                  1.338          estimate D2E/DX2                !
 ! R18   R(8,12)                 1.4858         estimate D2E/DX2                !
 ! R19   R(9,10)                 1.4369         estimate D2E/DX2                !
 ! R20   R(9,23)                 1.0811         estimate D2E/DX2                !
 ! R21   R(10,11)                1.3421         estimate D2E/DX2                !
 ! R22   R(10,24)                1.0786         estimate D2E/DX2                !
 ! R23   R(11,12)                1.478          estimate D2E/DX2                !
 ! R24   R(11,25)                1.073          estimate D2E/DX2                !
 ! R25   R(12,13)                1.6708         estimate D2E/DX2                !
 ! A1    A(2,1,14)             113.8155         estimate D2E/DX2                !
 ! A2    A(2,1,15)             109.7598         estimate D2E/DX2                !
 ! A3    A(2,1,16)             108.996          estimate D2E/DX2                !
 ! A4    A(14,1,15)            106.2622         estimate D2E/DX2                !
 ! A5    A(14,1,16)            106.0934         estimate D2E/DX2                !
 ! A6    A(15,1,16)            111.9002         estimate D2E/DX2                !
 ! A7    A(1,2,3)              118.187          estimate D2E/DX2                !
 ! A8    A(1,2,17)             108.397          estimate D2E/DX2                !
 ! A9    A(1,2,18)             107.8565         estimate D2E/DX2                !
 ! A10   A(3,2,17)             107.7814         estimate D2E/DX2                !
 ! A11   A(3,2,18)             107.4559         estimate D2E/DX2                !
 ! A12   A(17,2,18)            106.6121         estimate D2E/DX2                !
 ! A13   A(2,3,4)              128.7484         estimate D2E/DX2                !
 ! A14   A(2,3,7)              110.4253         estimate D2E/DX2                !
 ! A15   A(4,3,7)              120.7369         estimate D2E/DX2                !
 ! A16   A(3,4,5)              117.9754         estimate D2E/DX2                !
 ! A17   A(3,4,19)             107.1285         estimate D2E/DX2                !
 ! A18   A(3,4,20)             108.6042         estimate D2E/DX2                !
 ! A19   A(5,4,19)             105.5639         estimate D2E/DX2                !
 ! A20   A(5,4,20)             107.9535         estimate D2E/DX2                !
 ! A21   A(19,4,20)            109.3809         estimate D2E/DX2                !
 ! A22   A(4,5,6)              107.3303         estimate D2E/DX2                !
 ! A23   A(4,5,21)             100.8085         estimate D2E/DX2                !
 ! A24   A(6,5,21)             101.5255         estimate D2E/DX2                !
 ! A25   A(3,7,8)              101.4113         estimate D2E/DX2                !
 ! A26   A(3,7,22)             100.6155         estimate D2E/DX2                !
 ! A27   A(8,7,22)             104.2847         estimate D2E/DX2                !
 ! A28   A(7,8,9)              127.522          estimate D2E/DX2                !
 ! A29   A(7,8,12)             126.5447         estimate D2E/DX2                !
 ! A30   A(9,8,12)             105.8406         estimate D2E/DX2                !
 ! A31   A(8,9,10)             110.4155         estimate D2E/DX2                !
 ! A32   A(8,9,23)             126.9227         estimate D2E/DX2                !
 ! A33   A(10,9,23)            122.6389         estimate D2E/DX2                !
 ! A34   A(9,10,11)            110.9556         estimate D2E/DX2                !
 ! A35   A(9,10,24)            124.479          estimate D2E/DX2                !
 ! A36   A(11,10,24)           124.5593         estimate D2E/DX2                !
 ! A37   A(10,11,12)           105.5844         estimate D2E/DX2                !
 ! A38   A(10,11,25)           129.0214         estimate D2E/DX2                !
 ! A39   A(12,11,25)           125.3909         estimate D2E/DX2                !
 ! A40   A(8,12,11)            107.1006         estimate D2E/DX2                !
 ! A41   A(8,12,13)            128.0831         estimate D2E/DX2                !
 ! A42   A(11,12,13)           124.8133         estimate D2E/DX2                !
 ! D1    D(14,1,2,3)           177.3176         estimate D2E/DX2                !
 ! D2    D(14,1,2,17)           54.4039         estimate D2E/DX2                !
 ! D3    D(14,1,2,18)          -60.6636         estimate D2E/DX2                !
 ! D4    D(15,1,2,3)            58.3834         estimate D2E/DX2                !
 ! D5    D(15,1,2,17)          -64.5303         estimate D2E/DX2                !
 ! D6    D(15,1,2,18)         -179.5977         estimate D2E/DX2                !
 ! D7    D(16,1,2,3)           -64.4923         estimate D2E/DX2                !
 ! D8    D(16,1,2,17)          172.594          estimate D2E/DX2                !
 ! D9    D(16,1,2,18)           57.5266         estimate D2E/DX2                !
 ! D10   D(1,2,3,4)              2.709          estimate D2E/DX2                !
 ! D11   D(1,2,3,7)            179.2385         estimate D2E/DX2                !
 ! D12   D(17,2,3,4)           125.9315         estimate D2E/DX2                !
 ! D13   D(17,2,3,7)           -57.539          estimate D2E/DX2                !
 ! D14   D(18,2,3,4)          -119.513          estimate D2E/DX2                !
 ! D15   D(18,2,3,7)            57.0165         estimate D2E/DX2                !
 ! D16   D(2,3,4,5)             -3.1734         estimate D2E/DX2                !
 ! D17   D(2,3,4,19)          -121.9639         estimate D2E/DX2                !
 ! D18   D(2,3,4,20)           119.993          estimate D2E/DX2                !
 ! D19   D(7,3,4,5)           -179.3891         estimate D2E/DX2                !
 ! D20   D(7,3,4,19)            61.8204         estimate D2E/DX2                !
 ! D21   D(7,3,4,20)           -56.2227         estimate D2E/DX2                !
 ! D22   D(2,3,7,8)           -179.2468         estimate D2E/DX2                !
 ! D23   D(2,3,7,22)            73.6599         estimate D2E/DX2                !
 ! D24   D(4,3,7,8)             -2.3955         estimate D2E/DX2                !
 ! D25   D(4,3,7,22)          -109.4889         estimate D2E/DX2                !
 ! D26   D(3,4,5,6)           -179.8155         estimate D2E/DX2                !
 ! D27   D(3,4,5,21)            74.3619         estimate D2E/DX2                !
 ! D28   D(19,4,5,6)           -60.2039         estimate D2E/DX2                !
 ! D29   D(19,4,5,21)         -166.0265         estimate D2E/DX2                !
 ! D30   D(20,4,5,6)            56.6913         estimate D2E/DX2                !
 ! D31   D(20,4,5,21)          -49.1313         estimate D2E/DX2                !
 ! D32   D(3,7,8,9)            -81.0194         estimate D2E/DX2                !
 ! D33   D(3,7,8,12)           102.9862         estimate D2E/DX2                !
 ! D34   D(22,7,8,9)            23.1813         estimate D2E/DX2                !
 ! D35   D(22,7,8,12)         -152.8131         estimate D2E/DX2                !
 ! D36   D(7,8,9,10)          -179.8372         estimate D2E/DX2                !
 ! D37   D(7,8,9,23)             1.8817         estimate D2E/DX2                !
 ! D38   D(12,8,9,10)           -3.1815         estimate D2E/DX2                !
 ! D39   D(12,8,9,23)          178.5375         estimate D2E/DX2                !
 ! D40   D(7,8,12,11)          179.7917         estimate D2E/DX2                !
 ! D41   D(7,8,12,13)           -0.8171         estimate D2E/DX2                !
 ! D42   D(9,8,12,11)            3.0932         estimate D2E/DX2                !
 ! D43   D(9,8,12,13)         -177.5156         estimate D2E/DX2                !
 ! D44   D(8,9,10,11)            2.1853         estimate D2E/DX2                !
 ! D45   D(8,9,10,24)         -176.9472         estimate D2E/DX2                !
 ! D46   D(23,9,10,11)        -179.4466         estimate D2E/DX2                !
 ! D47   D(23,9,10,24)           1.4209         estimate D2E/DX2                !
 ! D48   D(9,10,11,12)          -0.0813         estimate D2E/DX2                !
 ! D49   D(9,10,11,25)        -179.4392         estimate D2E/DX2                !
 ! D50   D(24,10,11,12)        179.0504         estimate D2E/DX2                !
 ! D51   D(24,10,11,25)         -0.3076         estimate D2E/DX2                !
 ! D52   D(10,11,12,8)          -1.802          estimate D2E/DX2                !
 ! D53   D(10,11,12,13)        178.7817         estimate D2E/DX2                !
 ! D54   D(25,11,12,8)         177.5861         estimate D2E/DX2                !
 ! D55   D(25,11,12,13)         -1.8302         estimate D2E/DX2                !
 --------------------------------------------------------------------------------
 Trust Radius=3.00D-01 FncErr=1.00D-07 GrdErr=1.00D-06 EigMax=2.50D+02 EigMin=1.00D-04
 Number of steps in this run=    132 maximum allowed number of steps=    150.
 GradGradGradGradGradGradGradGradGradGradGradGradGradGradGradGradGradGrad

                          Input orientation:                          
 ---------------------------------------------------------------------
 Center     Atomic      Atomic             Coordinates (Angstroms)
 Number     Number       Type             X           Y           Z
 ---------------------------------------------------------------------
      1          6           0        1.154700   -0.156750   -0.367920
      2          6           0        2.607350    0.087520   -0.060110
      3          6           0        2.951440    1.024300    1.091290
      4          6           0        2.010220    1.739620    2.052710
      5         16           0        0.220260    1.549550    1.793820
      6         16           0       -0.685050    2.592020    3.185620
      7         16           0        4.779660    1.151030    1.293310
      8          6           0        4.901600    2.230300    2.648010
      9          6           0        4.809090    3.565040    2.637470
     10          6           0        4.968950    4.089040    3.965790
     11          6           0        5.213790    3.104170    4.844060
     12          6           0        5.214100    1.856490    4.051660
     13         16           0        5.502590    0.332390    4.672390
     14          1           0        0.990130   -0.799980   -1.231970
     15          1           0        0.659970    0.792120   -0.593820
     16          1           0        0.691410   -0.666240    0.482020
     17          1           0        3.092540    0.475970   -0.964700
     18          1           0        3.073920   -0.883030    0.154230
     19          1           0        2.208040    2.811260    1.959580
     20          1           0        2.240000    1.415070    3.072680
     21          1           0        0.037450    0.318600    2.226130
     22          1           0        5.087080    1.897740    0.254680
     23          1           0        4.613810    4.195770    1.781440
     24          1           0        4.887870    5.133130    4.224190
     25          1           0        5.370100    3.167380    5.903780
 ---------------------------------------------------------------------
                    Distance matrix (angstroms):
                    1          2          3          4          5
     1  C    0.000000
     2  C    1.504861   0.000000
     3  C    2.598547   1.523705   0.000000
     4  C    3.191799   2.747728   1.523780   0.000000
     5  S    2.908222   3.357497   2.868585   1.818545   0.000000
     6  S    4.854695   5.258059   4.479735   3.045415   1.960469
     7  S    4.196464   2.771593   1.843708   2.931369   4.604070
     8  C    5.369646   4.145962   2.771450   2.992529   4.807079
     9  C    6.019855   4.921153   3.506693   3.392311   5.082451
    10  C    7.166329   6.147942   4.661087   4.234824   5.806593
    11  C    7.367126   6.320173   4.850502   4.462790   6.054432
    12  C    6.329656   5.179870   3.817848   3.778135   5.489125
    13  S    6.674439   5.553281   4.450998   4.586902   6.137642
    14  H    1.089684   2.185478   3.545740   4.275427   3.907480
    15  H    1.093683   2.138597   2.853829   3.118502   2.543201
    16  H    1.093899   2.129057   2.887364   3.161406   2.617733
    17  H    2.124077   1.097536   2.132527   3.445721   4.124560
    18  H    2.117434   1.097997   2.128612   3.407929   4.092564
    19  H    3.916103   3.414287   2.121273   1.093718   2.360224
    20  H    3.935254   3.422237   2.141204   1.094747   2.394351
    21  H    2.864140   3.447416   3.205809   2.437456   1.317402
    22  H    4.480198   3.086268   2.454337   3.567209   5.116261
    23  H    5.960673   4.928986   3.646643   3.589560   5.128929
    24  H    7.937686   7.001013   5.517908   4.950970   6.366736
    25  H    8.255523   7.258534   5.796789   5.306414   6.784541
                    6          7          8          9         10
     6  S    0.000000
     7  S    5.959895   0.000000
     8  C    5.624102   1.736348   0.000000
     9  C    5.606497   2.763164   1.337984   0.000000
    10  C    5.900631   3.976164   2.279472   1.436860   0.000000
    11  C    6.148905   4.075666   2.384061   2.290245   1.342115
    12  C    6.007579   2.880088   1.485807   2.254575   2.247610
    13  S    6.753022   3.551194   2.839254   3.882250   3.859595
    14  H    5.816098   4.954192   6.287801   6.972117   8.170082
    15  H    4.396918   4.545539   5.528946   5.945210   7.087103
    16  H    4.452006   4.546917   5.550419   6.285299   7.283316
    17  H    5.997750   2.898394   4.404775   5.046239   6.394132
    18  H    5.949383   2.888677   4.387730   5.381693   6.545274
    19  H    3.149795   3.132652   2.840196   2.791627   3.644204
    20  H    3.154978   3.112193   2.815859   3.378166   3.923637
    21  H    2.571199   4.904248   5.243332   5.785942   6.446885
    22  H    6.510754   1.315612   2.423433   2.921448   4.311390
    23  H    5.711537   3.088077   2.167219   1.081084   2.215604
    24  H    6.212351   4.945593   3.303173   2.232217   1.078642
    25  H    6.662152   5.066628   3.420183   3.337911   2.183159
                   11         12         13         14         15
    11  C    0.000000
    12  C    1.478040   0.000000
    13  S    2.792067   1.670752   0.000000
    14  H    8.366590   7.267427   7.517049   0.000000
    15  H    7.460120   6.591924   7.169051   1.746718   0.000000
    16  H    7.327708   6.289771   6.457857   1.744959   1.812521
    17  H    6.719288   5.618783   6.132352   2.473784   2.480907
    18  H    6.517002   5.222576   5.271570   2.504122   3.031973
    19  H    4.176189   3.784809   4.935402   4.970951   3.604622
    20  H    3.851529   3.162044   3.791538   4.999863   4.040765
    21  H    6.434862   5.700471   5.987665   3.757296   2.926409
    22  H    4.746992   3.799328   4.705224   5.125702   4.641298
    23  H    3.306238   3.314586   4.906447   6.867985   5.732324
    24  H    2.146425   3.297357   4.860645   8.953427   7.741623
    25  H    1.073049   2.274449   3.093710   9.265150   8.369348
                   16         17         18         19         20
    16  H    0.000000
    17  H    3.027056   0.000000
    18  H    2.414705   1.760464   0.000000
    19  H    4.071407   3.845430   4.202001   0.000000
    20  H    3.666265   4.231923   3.807103   1.785878   0.000000
    21  H    2.107010   4.420377   3.867407   3.316001   2.601945
    22  H    5.093878   2.736148   3.434470   3.468440   4.034843
    23  H    6.380663   4.867490   5.550971   2.781426   3.877443
    24  H    8.077549   7.199787   7.486599   4.207259   4.707564
    25  H    8.122947   7.720556   7.398350   5.067757   4.569819
                   21         22         23         24         25
    21  H    0.000000
    22  H    5.646155   0.000000
    23  H    6.014422   2.799272   0.000000
    24  H    7.120289   5.124885   2.630738   0.000000
    25  H    7.076568   5.796932   4.315466   2.630160   0.000000
 Stoichiometry    C9H12S4
 Framework group  C1[X(C9H12S4)]
 Deg. of freedom    69
 Full point group                 C1      NOp   1
 Largest Abelian subgroup         C1      NOp   1
 Largest concise Abelian subgroup C1      NOp   1
                         Standard orientation:                         
 ---------------------------------------------------------------------
 Center     Atomic      Atomic             Coordinates (Angstroms)
 Number     Number       Type             X           Y           Z
 ---------------------------------------------------------------------
      1          6           0        3.045234    2.304516    0.181396
      2          6           0        1.578853    2.519172   -0.079861
      3          6           0        0.690795    1.292599   -0.248822
      4          6           0        1.066596   -0.179799   -0.136023
      5         16           0        2.811754   -0.594265    0.163559
      6         16           0        2.941832   -2.548636    0.246929
      7         16           0       -1.058620    1.799354   -0.535190
      8          6           0       -1.845386    0.257314   -0.669427
      9          6           0       -1.899218   -0.539369   -1.743018
     10          6           0       -2.650317   -1.728180   -1.447818
     11          6           0       -3.131235   -1.693467   -0.195306
     12          6           0       -2.670287   -0.408639    0.371567
     13         16           0       -3.026540    0.137810    1.909712
     14          1           0        3.620686    3.227708    0.244496
     15          1           0        3.485211    1.724553   -0.634820
     16          1           0        3.165497    1.805605    1.147439
     17          1           0        1.474327    3.135484   -0.981981
     18          1           0        1.171423    3.108721    0.752022
     19          1           0        0.812603   -0.651049   -1.089768
     20          1           0        0.470360   -0.632215    0.662909
     21          1           0        2.928422   -0.268234    1.434638
     22          1           0       -0.984961    2.235160   -1.774336
     23          1           0       -1.434687   -0.366710   -2.703821
     24          1           0       -2.795151   -2.545693   -2.136414
     25          1           0       -3.718761   -2.426433    0.323355
 ---------------------------------------------------------------------
 Rotational constants (GHZ):           0.6063437           0.2995337           0.2431453
 Standard basis: 6-31G(2df,p) (6D, 7F)
 There are   479 symmetry adapted cartesian basis functions of A   symmetry.
 There are   440 symmetry adapted basis functions of A   symmetry.
   440 basis functions,   752 primitive gaussians,   479 cartesian basis functions
    65 alpha electrons       65 beta electrons
       nuclear repulsion energy      1195.0246767344 Hartrees.
 NAtoms=   25 NActive=   25 NUniq=   25 SFac= 1.00D+00 NAtFMM=   60 NAOKFM=F Big=F
 Integral buffers will be    131072 words long.
 Raffenetti 2 integral format.
 Two-electron integral symmetry is turned on.
 One-electron integrals computed using PRISM.
 PrsmSu:  requested number of processors reduced to:  12 ShMem   1 Linda.
 NBasis=   440 RedAO= T EigKep=  3.15D-04  NBF=   440
 NBsUse=   440 1.00D-06 EigRej= -1.00D+00 NBFU=   440
 ExpMin= 1.17D-01 ExpMax= 2.19D+04 ExpMxC= 3.30D+03 IAcc=3 IRadAn=         5 AccDes= 0.00D+00
 Harris functional with IExCor=  402 and IRadAn=       5 diagonalized for initial guess.
 HarFok:  IExCor=  402 AccDes= 0.00D+00 IRadAn=         5 IDoV= 1 UseB2=F ITyADJ=14
 ICtDFT=  3500011 ScaDFX=  1.000000  1.000000  1.000000  1.000000
 FoFCou: FMM=F IPFlag=           0 FMFlag=      100000 FMFlg1=           0
         NFxFlg=           0 DoJE=T BraDBF=F KetDBF=T FulRan=T
         wScrn=  0.000000 ICntrl=       500 IOpCl=  0 I1Cent=   200000004 NGrid=           0
         NMat0=    1 NMatS0=      1 NMatT0=    0 NMatD0=    1 NMtDS0=    0 NMtDT0=    0
 Petite list used in FoFCou.
 Requested convergence on RMS density matrix=1.00D-08 within 128 cycles.
 Requested convergence on MAX density matrix=1.00D-06.
 Requested convergence on             energy=1.00D-06.
 No special actions if energy rises.
 Integral accuracy reduced to 1.0D-05 until final iterations.
 EnCoef did     3 forward-backward iterations
 EnCoef did     5 forward-backward iterations
 EnCoef did     8 forward-backward iterations
 EnCoef did     3 forward-backward iterations
 EnCoef did   100 forward-backward iterations
 EnCoef did     4 forward-backward iterations
 Initial convergence to 1.0D-05 achieved.  Increase integral accuracy.
 SCF Done:  E(RB3LYP) =  -1942.73483579     A.U. after   25 cycles
            NFock= 25  Conv=0.51D-08     -V/T= 2.0038

 **********************************************************************

            Population analysis using the SCF density.

 **********************************************************************

 Orbital symmetries:
       Occupied  (A) (A) (A) (A) (A) (A) (A) (A) (A) (A) (A) (A)
                 (A) (A) (A) (A) (A) (A) (A) (A) (A) (A) (A) (A)
                 (A) (A) (A) (A) (A) (A) (A) (A) (A) (A) (A) (A)
                 (A) (A) (A) (A) (A) (A) (A) (A) (A) (A) (A) (A)
                 (A) (A) (A) (A) (A) (A) (A) (A) (A) (A) (A) (A)
                 (A) (A) (A) (A) (A)
       Virtual   (A) (A) (A) (A) (A) (A) (A) (A) (A) (A) (A) (A)
                 (A) (A) (A) (A) (A) (A) (A) (A) (A) (A) (A) (A)
                 (A) (A) (A) (A) (A) (A) (A) (A) (A) (A) (A) (A)
                 (A) (A) (A) (A) (A) (A) (A) (A) (A) (A) (A) (A)
                 (A) (A) (A) (A) (A) (A) (A) (A) (A) (A) (A) (A)
                 (A) (A) (A) (A) (A) (A) (A) (A) (A) (A) (A) (A)
                 (A) (A) (A) (A) (A) (A) (A) (A) (A) (A) (A) (A)
                 (A) (A) (A) (A) (A) (A) (A) (A) (A) (A) (A) (A)
                 (A) (A) (A) (A) (A) (A) (A) (A) (A) (A) (A) (A)
                 (A) (A) (A) (A) (A) (A) (A) (A) (A) (A) (A) (A)
                 (A) (A) (A) (A) (A) (A) (A) (A) (A) (A) (A) (A)
                 (A) (A) (A) (A) (A) (A) (A) (A) (A) (A) (A) (A)
                 (A) (A) (A) (A) (A) (A) (A) (A) (A) (A) (A) (A)
                 (A) (A) (A) (A) (A) (A) (A) (A) (A) (A) (A) (A)
                 (A) (A) (A) (A) (A) (A) (A) (A) (A) (A) (A) (A)
                 (A) (A) (A) (A) (A) (A) (A) (A) (A) (A) (A) (A)
                 (A) (A) (A) (A) (A) (A) (A) (A) (A) (A) (A) (A)
                 (A) (A) (A) (A) (A) (A) (A) (A) (A) (A) (A) (A)
                 (A) (A) (A) (A) (A) (A) (A) (A) (A) (A) (A) (A)
                 (A) (A) (A) (A) (A) (A) (A) (A) (A) (A) (A) (A)
                 (A) (A) (A) (A) (A) (A) (A) (A) (A) (A) (A) (A)
                 (A) (A) (A) (A) (A) (A) (A) (A) (A) (A) (A) (A)
                 (A) (A) (A) (A) (A) (A) (A) (A) (A) (A) (A) (A)
                 (A) (A) (A) (A) (A) (A) (A) (A) (A) (A) (A) (A)
                 (A) (A) (A) (A) (A) (A) (A) (A) (A) (A) (A) (A)
                 (A) (A) (A) (A) (A) (A) (A) (A) (A) (A) (A) (A)
                 (A) (A) (A) (A) (A) (A) (A) (A) (A) (A) (A) (A)
                 (A) (A) (A) (A) (A) (A) (A) (A) (A) (A) (A) (A)
                 (A) (A) (A) (A) (A) (A) (A) (A) (A) (A) (A) (A)
                 (A) (A) (A) (A) (A) (A) (A) (A) (A) (A) (A) (A)
                 (A) (A) (A) (A) (A) (A) (A) (A) (A) (A) (A) (A)
                 (A) (A) (A)
 The electronic state is 1-A.
 Alpha  occ. eigenvalues --  -88.99827 -88.96932 -88.86091 -88.82031 -10.25666
 Alpha  occ. eigenvalues --  -10.24029 -10.23634 -10.22037 -10.21719 -10.21170
 Alpha  occ. eigenvalues --  -10.20364 -10.19685 -10.19421  -8.05342  -8.02673
 Alpha  occ. eigenvalues --   -7.92486  -7.88756  -6.01690  -6.01569  -6.01137
 Alpha  occ. eigenvalues --   -5.98986  -5.98916  -5.98395  -5.88811  -5.88769
 Alpha  occ. eigenvalues --   -5.88006  -5.85454  -5.84486  -5.84342  -0.91318
 Alpha  occ. eigenvalues --   -0.87047  -0.85241  -0.79688  -0.76678  -0.73986
 Alpha  occ. eigenvalues --   -0.72338  -0.66566  -0.64917  -0.61678  -0.57231
 Alpha  occ. eigenvalues --   -0.56870  -0.55442  -0.50398  -0.49732  -0.48344
 Alpha  occ. eigenvalues --   -0.47142  -0.45397  -0.44704  -0.42315  -0.41501
 Alpha  occ. eigenvalues --   -0.41221  -0.40337  -0.39660  -0.38145  -0.37940
 Alpha  occ. eigenvalues --   -0.37037  -0.36424  -0.35785  -0.32198  -0.28609
 Alpha  occ. eigenvalues --   -0.25146  -0.22637  -0.22281  -0.20210  -0.16441
 Alpha virt. eigenvalues --   -0.13405  -0.03693  -0.00936   0.00756   0.01157
 Alpha virt. eigenvalues --    0.01937   0.03444   0.05707   0.06358   0.09025
 Alpha virt. eigenvalues --    0.09322   0.11199   0.11783   0.12769   0.13814
 Alpha virt. eigenvalues --    0.14430   0.15104   0.15582   0.16064   0.16308
 Alpha virt. eigenvalues --    0.17303   0.17858   0.19815   0.20562   0.22497
 Alpha virt. eigenvalues --    0.23682   0.25235   0.26570   0.26949   0.28683
 Alpha virt. eigenvalues --    0.29177   0.29592   0.30135   0.30710   0.31101
 Alpha virt. eigenvalues --    0.31805   0.33522   0.34113   0.34994   0.35769
 Alpha virt. eigenvalues --    0.37510   0.37701   0.38325   0.40683   0.41685
 Alpha virt. eigenvalues --    0.41876   0.42898   0.43548   0.43873   0.45263
 Alpha virt. eigenvalues --    0.45335   0.46523   0.47084   0.48383   0.48885
 Alpha virt. eigenvalues --    0.49907   0.50394   0.51052   0.51851   0.53190
 Alpha virt. eigenvalues --    0.53569   0.53898   0.55206   0.55798   0.57634
 Alpha virt. eigenvalues --    0.58234   0.58560   0.61107   0.61516   0.61804
 Alpha virt. eigenvalues --    0.63888   0.64823   0.65354   0.65712   0.66694
 Alpha virt. eigenvalues --    0.67735   0.68756   0.70399   0.71473   0.72920
 Alpha virt. eigenvalues --    0.73181   0.74173   0.74673   0.75818   0.76156
 Alpha virt. eigenvalues --    0.76969   0.77271   0.78278   0.79015   0.79643
 Alpha virt. eigenvalues --    0.79837   0.80180   0.81360   0.81798   0.82507
 Alpha virt. eigenvalues --    0.84472   0.85683   0.86157   0.88444   0.88804
 Alpha virt. eigenvalues --    0.89285   0.91427   0.92864   0.95056   0.96872
 Alpha virt. eigenvalues --    0.99502   1.00925   1.01840   1.02488   1.02908
 Alpha virt. eigenvalues --    1.07121   1.08395   1.09260   1.10823   1.14392
 Alpha virt. eigenvalues --    1.15673   1.17738   1.18520   1.19616   1.23121
 Alpha virt. eigenvalues --    1.24769   1.25583   1.26162   1.26782   1.27770
 Alpha virt. eigenvalues --    1.30071   1.31388   1.33383   1.36235   1.37726
 Alpha virt. eigenvalues --    1.39533   1.40048   1.40391   1.41720   1.42986
 Alpha virt. eigenvalues --    1.43194   1.44590   1.47497   1.49795   1.50859
 Alpha virt. eigenvalues --    1.50997   1.52158   1.54255   1.55422   1.55799
 Alpha virt. eigenvalues --    1.56465   1.58259   1.60277   1.62267   1.62693
 Alpha virt. eigenvalues --    1.64028   1.64668   1.66352   1.66474   1.67404
 Alpha virt. eigenvalues --    1.67947   1.68889   1.70036   1.70311   1.71372
 Alpha virt. eigenvalues --    1.71675   1.74968   1.76278   1.78056   1.78505
 Alpha virt. eigenvalues --    1.79400   1.83000   1.83732   1.85163   1.86800
 Alpha virt. eigenvalues --    1.87930   1.88911   1.89580   1.90605   1.92637
 Alpha virt. eigenvalues --    1.93303   1.94346   1.95843   1.97117   1.97518
 Alpha virt. eigenvalues --    1.99522   2.00927   2.03414   2.05499   2.07448
 Alpha virt. eigenvalues --    2.08803   2.09931   2.10598   2.11487   2.12929
 Alpha virt. eigenvalues --    2.14437   2.16019   2.16898   2.18739   2.19913
 Alpha virt. eigenvalues --    2.21076   2.21472   2.23016   2.24503   2.24765
 Alpha virt. eigenvalues --    2.27871   2.28654   2.29700   2.30136   2.32923
 Alpha virt. eigenvalues --    2.34532   2.36972   2.37479   2.39043   2.39599
 Alpha virt. eigenvalues --    2.41339   2.43561   2.44785   2.45959   2.47715
 Alpha virt. eigenvalues --    2.50309   2.53703   2.54760   2.55438   2.57675
 Alpha virt. eigenvalues --    2.58660   2.61839   2.63225   2.64551   2.65194
 Alpha virt. eigenvalues --    2.68407   2.69184   2.70745   2.72660   2.75148
 Alpha virt. eigenvalues --    2.76707   2.77337   2.78251   2.79312   2.81886
 Alpha virt. eigenvalues --    2.82373   2.83292   2.86669   2.87652   2.91518
 Alpha virt. eigenvalues --    2.92055   2.92873   2.93129   2.95350   2.96484
 Alpha virt. eigenvalues --    2.97500   2.98343   2.98781   2.99967   3.02836
 Alpha virt. eigenvalues --    3.04882   3.06555   3.08994   3.10052   3.10531
 Alpha virt. eigenvalues --    3.13682   3.15321   3.16475   3.17480   3.19533
 Alpha virt. eigenvalues --    3.23493   3.24573   3.26956   3.27826   3.29720
 Alpha virt. eigenvalues --    3.31007   3.32159   3.34389   3.35678   3.35881
 Alpha virt. eigenvalues --    3.37638   3.38631   3.38900   3.40901   3.42296
 Alpha virt. eigenvalues --    3.45786   3.46222   3.48829   3.50117   3.53633
 Alpha virt. eigenvalues --    3.55443   3.57965   3.60873   3.63927   3.64712
 Alpha virt. eigenvalues --    3.66238   3.66690   3.72490   3.73343   3.75304
 Alpha virt. eigenvalues --    3.75954   3.77060   3.82663   3.84272   3.85343
 Alpha virt. eigenvalues --    3.87384   3.90333   3.94389   3.97279   4.00682
 Alpha virt. eigenvalues --    4.03204   4.06614   4.08959   4.11874   4.14030
 Alpha virt. eigenvalues --    4.20359   4.24106   4.27096   4.29941   4.32304
 Alpha virt. eigenvalues --    4.33736   4.35361   4.36570   4.40994   4.43034
 Alpha virt. eigenvalues --    4.44246   4.45484   4.46638   4.47843   4.50197
 Alpha virt. eigenvalues --    4.50599   4.51361   4.52569   4.53119   4.54796
 Alpha virt. eigenvalues --    4.56020   4.56205   4.57171   4.60472   4.61870
 Alpha virt. eigenvalues --    4.63116   4.65185   4.68486   4.72377   4.73053
 Alpha virt. eigenvalues --    4.73724   4.74782   4.78429   4.79858   4.80845
 Alpha virt. eigenvalues --    4.82539   4.84046   4.87741   4.88860   4.95809
 Alpha virt. eigenvalues --    4.99643   5.01739   5.02683   5.10585   5.12525
 Alpha virt. eigenvalues --    5.13774   5.17392   5.27045   5.31555   5.35101
 Alpha virt. eigenvalues --    5.37448   5.38788   5.45849   5.47870   5.56138
 Alpha virt. eigenvalues --    5.61605   5.61805   5.67626   5.88155   6.03963
 Alpha virt. eigenvalues --    6.22227  10.03664  10.88298  10.96033  11.03609
 Alpha virt. eigenvalues --   11.58653  11.95909  12.02047  12.28981  12.52179
          Condensed to atoms (all electrons):
               1          2          3          4          5          6
     1  C    4.975388   0.404630  -0.023548  -0.004983  -0.010188   0.000748
     2  C    0.404630   4.820357   0.431547  -0.041188  -0.010877   0.000132
     3  C   -0.023548   0.431547   5.175062   0.361126  -0.013525   0.003160
     4  C   -0.004983  -0.041188   0.361126   5.070406   0.228407  -0.046295
     5  S   -0.010188  -0.010877  -0.013525   0.228407  15.266016   0.272123
     6  S    0.000748   0.000132   0.003160  -0.046295   0.272123  16.251707
     7  S    0.002460  -0.056197   0.357610  -0.036669   0.003490  -0.000279
     8  C   -0.000061   0.001326  -0.026469  -0.000314   0.000183   0.000022
     9  C   -0.000004  -0.000011   0.000415  -0.000526   0.000232   0.000023
    10  C    0.000000   0.000000   0.000121   0.000022  -0.000013   0.000013
    11  C    0.000000   0.000001   0.000056  -0.000158  -0.000018  -0.000001
    12  C   -0.000000  -0.000013   0.002251  -0.001260  -0.000027   0.000005
    13  S   -0.000001  -0.000043  -0.003186  -0.000110   0.000011  -0.000001
    14  H    0.366959  -0.017241   0.003249   0.000183   0.000359  -0.000029
    15  H    0.381678  -0.026469  -0.002029  -0.000716  -0.000851   0.000075
    16  H    0.372650  -0.028880  -0.002462   0.000226  -0.008400   0.000306
    17  H   -0.035708   0.365273  -0.059851   0.003059  -0.000316   0.000007
    18  H   -0.032835   0.366593  -0.047064   0.002610   0.000447   0.000000
    19  H    0.000091   0.003741  -0.036892   0.371483  -0.046752   0.007037
    20  H   -0.000091   0.002037  -0.035587   0.362207  -0.029470   0.006592
    21  H   -0.005260   0.000784   0.002560  -0.009968   0.225774  -0.045048
    22  H    0.000020   0.002167  -0.061389   0.000700  -0.000061   0.000002
    23  H    0.000000  -0.000010   0.000009  -0.000255   0.000004   0.000002
    24  H    0.000000  -0.000000  -0.000001  -0.000003   0.000000   0.000000
    25  H    0.000000  -0.000000   0.000000  -0.000000  -0.000000  -0.000000
               7          8          9         10         11         12
     1  C    0.002460  -0.000061  -0.000004   0.000000   0.000000  -0.000000
     2  C   -0.056197   0.001326  -0.000011   0.000000   0.000001  -0.000013
     3  C    0.357610  -0.026469   0.000415   0.000121   0.000056   0.002251
     4  C   -0.036669  -0.000314  -0.000526   0.000022  -0.000158  -0.001260
     5  S    0.003490   0.000183   0.000232  -0.000013  -0.000018  -0.000027
     6  S   -0.000279   0.000022   0.000023   0.000013  -0.000001   0.000005
     7  S   15.337614   0.351316  -0.090352   0.005318   0.009280  -0.054947
     8  C    0.351316   4.880153   0.454695  -0.018706  -0.006191   0.395851
     9  C   -0.090352   0.454695   5.067997   0.453083  -0.040116  -0.009514
    10  C    0.005318  -0.018706   0.453083   4.751131   0.599453   0.008218
    11  C    0.009280  -0.006191  -0.040116   0.599453   4.912706   0.389891
    12  C   -0.054947   0.395851  -0.009514   0.008218   0.389891   4.718271
    13  S    0.007960  -0.068946   0.011210   0.002720  -0.068002   0.446725
    14  H   -0.000215   0.000000   0.000000  -0.000000  -0.000000   0.000000
    15  H    0.000275  -0.000004   0.000001   0.000000  -0.000000  -0.000000
    16  H    0.000044   0.000007  -0.000000  -0.000000   0.000000   0.000000
    17  H   -0.016191   0.000423  -0.000015  -0.000000   0.000000   0.000002
    18  H    0.004192  -0.000135   0.000007   0.000000  -0.000000  -0.000007
    19  H   -0.008123   0.007731  -0.004838  -0.000159   0.000030   0.000828
    20  H   -0.005122  -0.003611   0.001938  -0.000064   0.000070  -0.002158
    21  H   -0.000086   0.000004  -0.000005   0.000000   0.000000   0.000004
    22  H    0.096719  -0.000084   0.001300   0.000349  -0.000132   0.001429
    23  H   -0.005122  -0.047739   0.371894  -0.045511   0.004307   0.006425
    24  H   -0.000149   0.006561  -0.054477   0.376829  -0.046557   0.006143
    25  H   -0.000100   0.005692   0.005037  -0.047071   0.382775  -0.043773
              13         14         15         16         17         18
     1  C   -0.000001   0.366959   0.381678   0.372650  -0.035708  -0.032835
     2  C   -0.000043  -0.017241  -0.026469  -0.028880   0.365273   0.366593
     3  C   -0.003186   0.003249  -0.002029  -0.002462  -0.059851  -0.047064
     4  C   -0.000110   0.000183  -0.000716   0.000226   0.003059   0.002610
     5  S    0.000011   0.000359  -0.000851  -0.008400  -0.000316   0.000447
     6  S   -0.000001  -0.000029   0.000075   0.000306   0.000007   0.000000
     7  S    0.007960  -0.000215   0.000275   0.000044  -0.016191   0.004192
     8  C   -0.068946   0.000000  -0.000004   0.000007   0.000423  -0.000135
     9  C    0.011210   0.000000   0.000001  -0.000000  -0.000015   0.000007
    10  C    0.002720  -0.000000   0.000000  -0.000000  -0.000000   0.000000
    11  C   -0.068002  -0.000000  -0.000000   0.000000   0.000000  -0.000000
    12  C    0.446725   0.000000  -0.000000   0.000000   0.000002  -0.000007
    13  S   15.979799  -0.000000   0.000000  -0.000002  -0.000004   0.000090
    14  H   -0.000000   0.596813  -0.029748  -0.032310  -0.003570  -0.003684
    15  H    0.000000  -0.029748   0.566274  -0.037991  -0.006794   0.006479
    16  H   -0.000002  -0.032310  -0.037991   0.616063   0.007202  -0.008086
    17  H   -0.000004  -0.003570  -0.006794   0.007202   0.692066  -0.055242
    18  H    0.000090  -0.003684   0.006479  -0.008086  -0.055242   0.647917
    19  H   -0.000223   0.000007  -0.000365   0.000128   0.000184  -0.000191
    20  H    0.004424   0.000007   0.000112  -0.000441  -0.000229   0.000159
    21  H   -0.000004   0.000094  -0.002093   0.009561   0.000063  -0.000227
    22  H    0.000366   0.000006  -0.000062   0.000017   0.012993  -0.002972
    23  H   -0.000290  -0.000000  -0.000000   0.000000   0.000003  -0.000000
    24  H   -0.000369  -0.000000  -0.000000  -0.000000   0.000000  -0.000000
    25  H    0.003735  -0.000000   0.000000  -0.000000  -0.000000   0.000000
              19         20         21         22         23         24
     1  C    0.000091  -0.000091  -0.005260   0.000020   0.000000   0.000000
     2  C    0.003741   0.002037   0.000784   0.002167  -0.000010  -0.000000
     3  C   -0.036892  -0.035587   0.002560  -0.061389   0.000009  -0.000001
     4  C    0.371483   0.362207  -0.009968   0.000700  -0.000255  -0.000003
     5  S   -0.046752  -0.029470   0.225774  -0.000061   0.000004   0.000000
     6  S    0.007037   0.006592  -0.045048   0.000002   0.000002   0.000000
     7  S   -0.008123  -0.005122  -0.000086   0.096719  -0.005122  -0.000149
     8  C    0.007731  -0.003611   0.000004  -0.000084  -0.047739   0.006561
     9  C   -0.004838   0.001938  -0.000005   0.001300   0.371894  -0.054477
    10  C   -0.000159  -0.000064   0.000000   0.000349  -0.045511   0.376829
    11  C    0.000030   0.000070   0.000000  -0.000132   0.004307  -0.046557
    12  C    0.000828  -0.002158   0.000004   0.001429   0.006425   0.006143
    13  S   -0.000223   0.004424  -0.000004   0.000366  -0.000290  -0.000369
    14  H    0.000007   0.000007   0.000094   0.000006  -0.000000  -0.000000
    15  H   -0.000365   0.000112  -0.002093  -0.000062  -0.000000  -0.000000
    16  H    0.000128  -0.000441   0.009561   0.000017   0.000000  -0.000000
    17  H    0.000184  -0.000229   0.000063   0.012993   0.000003   0.000000
    18  H   -0.000191   0.000159  -0.000227  -0.002972  -0.000000  -0.000000
    19  H    0.570837  -0.033915   0.003793   0.002044   0.000852   0.000015
    20  H   -0.033915   0.569081  -0.008056  -0.000532  -0.000014  -0.000003
    21  H    0.003793  -0.008056   0.647804   0.000003   0.000000   0.000000
    22  H    0.002044  -0.000532   0.000003   0.807021   0.001805  -0.000001
    23  H    0.000852  -0.000014   0.000000   0.001805   0.597893  -0.003024
    24  H    0.000015  -0.000003   0.000000  -0.000001  -0.003024   0.603430
    25  H   -0.000002   0.000008  -0.000000   0.000000  -0.000122  -0.003272
              25
     1  C    0.000000
     2  C   -0.000000
     3  C    0.000000
     4  C   -0.000000
     5  S   -0.000000
     6  S   -0.000000
     7  S   -0.000100
     8  C    0.005692
     9  C    0.005037
    10  C   -0.047071
    11  C    0.382775
    12  C   -0.043773
    13  S    0.003735
    14  H   -0.000000
    15  H    0.000000
    16  H   -0.000000
    17  H   -0.000000
    18  H    0.000000
    19  H   -0.000002
    20  H    0.000008
    21  H   -0.000000
    22  H    0.000000
    23  H   -0.000122
    24  H   -0.003272
    25  H    0.561747
 Mulliken charges:
               1
     1  C   -0.391948
     2  C   -0.217660
     3  C   -0.025165
     4  C   -0.257981
     5  S    0.123451
     6  S   -0.450302
     7  S    0.097273
     8  C    0.068296
     9  C   -0.167974
    10  C   -0.085734
    11  C   -0.137394
    12  C    0.135656
    13  S   -0.315858
    14  H    0.119119
    15  H    0.152229
    16  H    0.112369
    17  H    0.096646
    18  H    0.121948
    19  H    0.162663
    20  H    0.172658
    21  H    0.180303
    22  H    0.138290
    23  H    0.118892
    24  H    0.114877
    25  H    0.135346
 Sum of Mulliken charges =  -0.00000
 Mulliken charges with hydrogens summed into heavy atoms:
               1
     1  C   -0.008231
     2  C    0.000934
     3  C   -0.025165
     4  C    0.077340
     5  S    0.303753
     6  S   -0.450302
     7  S    0.235564
     8  C    0.068296
     9  C   -0.049082
    10  C    0.029144
    11  C   -0.002049
    12  C    0.135656
    13  S   -0.315858
 Electronic spatial extent (au):  <R**2>=           4621.5083
 Charge=             -0.0000 electrons
 Dipole moment (field-independent basis, Debye):
    X=             -0.8528    Y=              4.8114    Z=             -3.3894  Tot=              5.9469
 Quadrupole moment (field-independent basis, Debye-Ang):
   XX=           -118.8201   YY=           -109.6182   ZZ=           -104.1433
   XY=             16.1896   XZ=             10.8343   YZ=             -0.8065
 Traceless Quadrupole moment (field-independent basis, Debye-Ang):
   XX=             -7.9596   YY=              1.2424   ZZ=              6.7172
   XY=             16.1896   XZ=             10.8343   YZ=             -0.8065
 Octapole moment (field-independent basis, Debye-Ang**2):
  XXX=              0.8490  YYY=             34.6216  ZZZ=            -17.2416  XYY=            -37.3899
  XXY=             34.6706  XXZ=            -11.6552  XZZ=             10.7683  YZZ=              5.4875
  YYZ=            -14.3775  XYZ=              2.4072
 Hexadecapole moment (field-independent basis, Debye-Ang**3):
 XXXX=          -4108.1833 YYYY=          -1744.2664 ZZZZ=           -685.4022 XXXY=            183.9365
 XXXZ=             78.9124 YYYX=            108.0127 YYYZ=             -6.6047 ZZZX=             44.3606
 ZZZY=              6.7147 XXYY=           -979.3428 XXZZ=           -793.4251 YYZZ=           -404.1891
 XXYZ=              9.4424 YYXZ=             17.8564 ZZXY=              9.5389
 N-N= 1.195024676734D+03 E-N=-6.984045588261D+03  KE= 1.935337492408D+03
 PrsmSu:  requested number of processors reduced to:  13 ShMem   1 Linda.
 Calling FoFJK, ICntrl=      2127 FMM=F ISym2X=0 I1Cent= 0 IOpClX= 0 NMat=1 NMatS=1 NMatT=0.
 ***** Axes restored to original set *****
 -------------------------------------------------------------------
 Center     Atomic                   Forces (Hartrees/Bohr)
 Number     Number              X              Y              Z
 -------------------------------------------------------------------
      1        6          -0.009246278    0.001462646   -0.001814803
      2        6           0.021848857   -0.001365301    0.012880015
      3        6           0.011757140   -0.010287521   -0.014316585
      4        6           0.038407239   -0.009545050   -0.000793195
      5       16          -0.010466139    0.026075171   -0.009446194
      6       16          -0.006082361    0.012557033    0.011922335
      7       16          -0.061837798   -0.022907801    0.030596352
      8        6           0.017413430   -0.016923311    0.014496059
      9        6          -0.006881683    0.035110356   -0.018392002
     10        6          -0.000111861    0.022573808    0.004593802
     11        6          -0.000010825   -0.023558503   -0.016503935
     12        6           0.004340849   -0.023812777    0.015951086
     13       16          -0.002801774    0.009167612   -0.007003403
     14        1           0.006641829   -0.003009152   -0.002866108
     15        1          -0.003961712   -0.004863360    0.001814590
     16        1          -0.005059762    0.002106574   -0.002989482
     17        1           0.003146153   -0.001466305   -0.006109507
     18        1           0.003004873   -0.004009105   -0.005630705
     19        1          -0.013896331    0.001162532    0.006980866
     20        1          -0.008954812    0.006589922    0.003873694
     21        1           0.007377804   -0.022798738    0.004375776
     22        1           0.015517409    0.026949350   -0.019899283
     23        1          -0.000666775   -0.000281787   -0.002236815
     24        1          -0.000199729    0.003955894   -0.002821800
     25        1           0.000722258   -0.002882187    0.003339246
 -------------------------------------------------------------------
 Cartesian Forces:  Max     0.061837798 RMS     0.014898000

 GradGradGradGradGradGradGradGradGradGradGradGradGradGradGradGradGradGrad
 Berny optimization.
 FormGI is forming the generalized inverse of G from B-inverse, IUseBI=4.
 Internal  Forces:  Max     0.053415002 RMS     0.011955956
 Search for a local minimum.
 Step number   1 out of a maximum of  132
 All quantities printed in internal units (Hartrees-Bohrs-Radians)
 Mixed Optimization -- RFO/linear search
 Second derivative matrix not updated -- first step.
 ITU=  0
     Eigenvalues ---    0.00230   0.00230   0.00413   0.00451   0.00452
     Eigenvalues ---    0.00702   0.01003   0.01212   0.01505   0.01621
     Eigenvalues ---    0.01902   0.02189   0.02214   0.02511   0.03680
     Eigenvalues ---    0.04201   0.05399   0.05454   0.05650   0.05885
     Eigenvalues ---    0.06068   0.06224   0.10143   0.10213   0.10588
     Eigenvalues ---    0.13394   0.13663   0.15990   0.15997   0.15999
     Eigenvalues ---    0.16000   0.16000   0.16000   0.16000   0.22061
     Eigenvalues ---    0.22193   0.22200   0.22955   0.24065   0.24347
     Eigenvalues ---    0.24548   0.24709   0.24925   0.24953   0.24969
     Eigenvalues ---    0.24998   0.28316   0.28474   0.30005   0.30013
     Eigenvalues ---    0.31848   0.31873   0.32476   0.33610   0.33905
     Eigenvalues ---    0.33956   0.34270   0.34366   0.34387   0.34390
     Eigenvalues ---    0.34849   0.35864   0.36159   0.36847   0.38777
     Eigenvalues ---    0.39546   0.39654   0.52230   0.56543
 RFO step:  Lambda=-5.94133387D-02 EMin= 2.30000000D-03
 Linear search not attempted -- first point.
 Maximum step size (   0.300) exceeded in Quadratic search.
    -- Step size scaled by   0.686
 Iteration  1 RMS(Cart)=  0.16300073 RMS(Int)=  0.00628978
 Iteration  2 RMS(Cart)=  0.01475384 RMS(Int)=  0.00070789
 Iteration  3 RMS(Cart)=  0.00013147 RMS(Int)=  0.00070651
 Iteration  4 RMS(Cart)=  0.00000010 RMS(Int)=  0.00070651
 Variable       Old X    -DE/DX   Delta X   Delta X   Delta X     New X
                                 (Linear)    (Quad)   (Total)
    R1        2.84378   0.01312   0.00000   0.02378   0.02378   2.86756
    R2        2.05920   0.00305   0.00000   0.00512   0.00512   2.06432
    R3        2.06676  -0.00280   0.00000  -0.00476  -0.00476   2.06200
    R4        2.06717  -0.00116   0.00000  -0.00197  -0.00197   2.06520
    R5        2.87938   0.00672   0.00000   0.01281   0.01281   2.89219
    R6        2.07404   0.00591   0.00000   0.01015   0.01015   2.08419
    R7        2.07491   0.00372   0.00000   0.00640   0.00640   2.08132
    R8        2.87953   0.01332   0.00000   0.02540   0.02540   2.90492
    R9        3.48410  -0.03349   0.00000  -0.07944  -0.07944   3.40466
   R10        3.43655   0.00640   0.00000   0.01431   0.01431   3.45086
   R11        2.06683  -0.00197   0.00000  -0.00335  -0.00335   2.06348
   R12        2.06877  -0.00022   0.00000  -0.00038  -0.00038   2.06839
   R13        3.70475   0.01795   0.00000   0.02705   0.02705   3.73180
   R14        2.48953   0.02171   0.00000   0.04345   0.04345   2.53298
   R15        3.28122  -0.00378   0.00000  -0.00686  -0.00686   3.27437
   R16        2.48615   0.03463   0.00000   0.06898   0.06898   2.55513
   R17        2.52842   0.03313   0.00000   0.03727   0.03732   2.56574
   R18        2.80777  -0.00597   0.00000  -0.01217  -0.01229   2.79548
   R19        2.71527   0.00604   0.00000   0.01193   0.01207   2.72734
   R20        2.04295   0.00173   0.00000   0.00283   0.00283   2.04578
   R21        2.53623   0.02497   0.00000   0.02725   0.02731   2.56354
   R22        2.03834   0.00317   0.00000   0.00516   0.00516   2.04350
   R23        2.79309  -0.00805   0.00000  -0.01701  -0.01712   2.77598
   R24        2.02777   0.00323   0.00000   0.00518   0.00518   2.03295
   R25        3.15726  -0.01145   0.00000  -0.01721  -0.01721   3.14005
    A1        1.98645  -0.01348   0.00000  -0.04389  -0.04356   1.94289
    A2        1.91567   0.00851   0.00000   0.02770   0.02754   1.94321
    A3        1.90234   0.00875   0.00000   0.02797   0.02780   1.93014
    A4        1.85463   0.00164   0.00000   0.00385   0.00417   1.85879
    A5        1.85168   0.00092   0.00000   0.00064   0.00095   1.85263
    A6        1.95303  -0.00733   0.00000  -0.01940  -0.01998   1.93304
    A7        2.06275   0.02148   0.00000   0.05696   0.05681   2.11957
    A8        1.89188  -0.00704   0.00000  -0.01954  -0.01974   1.87215
    A9        1.88245  -0.00691   0.00000  -0.01626  -0.01681   1.86564
   A10        1.88114  -0.00552   0.00000  -0.01037  -0.01024   1.87090
   A11        1.87546  -0.00364   0.00000  -0.00062  -0.00078   1.87468
   A12        1.86073  -0.00000   0.00000  -0.01666  -0.01705   1.84368
   A13        2.24708   0.05342   0.00000   0.11827   0.11816   2.36524
   A14        1.92729  -0.02815   0.00000  -0.06267  -0.06264   1.86464
   A15        2.10726  -0.02531   0.00000  -0.05642  -0.05638   2.05088
   A16        2.05906   0.02920   0.00000   0.07533   0.07512   2.13417
   A17        1.86975   0.00467   0.00000   0.03098   0.03205   1.90179
   A18        1.89550  -0.00005   0.00000   0.01896   0.01928   1.91478
   A19        1.84244  -0.02014   0.00000  -0.06841  -0.06988   1.77256
   A20        1.88414  -0.01511   0.00000  -0.04545  -0.04717   1.83697
   A21        1.90906  -0.00002   0.00000  -0.01801  -0.02069   1.88836
   A22        1.87327  -0.00650   0.00000  -0.01389  -0.01402   1.85925
   A23        1.75944  -0.02071   0.00000  -0.06375  -0.06395   1.69549
   A24        1.77195   0.01021   0.00000   0.03460   0.03400   1.80595
   A25        1.76996   0.04317   0.00000   0.09955   0.09936   1.86932
   A26        1.75607   0.00505   0.00000   0.04044   0.04207   1.79814
   A27        1.82011  -0.01671   0.00000  -0.05551  -0.05768   1.76243
   A28        2.22568   0.00024   0.00000  -0.00015  -0.00012   2.22556
   A29        2.20862  -0.01589   0.00000  -0.03589  -0.03585   2.17277
   A30        1.84727   0.01561   0.00000   0.03572   0.03564   1.88290
   A31        1.92711  -0.01377   0.00000  -0.02602  -0.02588   1.90124
   A32        2.21522   0.00530   0.00000   0.00813   0.00803   2.22325
   A33        2.14045   0.00851   0.00000   0.01818   0.01808   2.15854
   A34        1.93654  -0.00880   0.00000  -0.01751  -0.01733   1.91921
   A35        2.17257   0.00071   0.00000  -0.00279  -0.00288   2.16969
   A36        2.17397   0.00809   0.00000   0.02027   0.02019   2.19416
   A37        1.84280   0.01649   0.00000   0.03575   0.03569   1.87849
   A38        2.25185  -0.00512   0.00000  -0.00811  -0.00808   2.24377
   A39        2.18848  -0.01137   0.00000  -0.02763  -0.02760   2.16088
   A40        1.86926  -0.00945   0.00000  -0.02730  -0.02754   1.84172
   A41        2.23547  -0.00019   0.00000   0.00278   0.00290   2.23837
   A42        2.17840   0.00964   0.00000   0.02456   0.02468   2.20308
    D1        3.09478  -0.00046   0.00000  -0.00273  -0.00275   3.09203
    D2        0.94953  -0.00292   0.00000  -0.01431  -0.01413   0.93540
    D3       -1.05878   0.00426   0.00000   0.02362   0.02345  -1.03532
    D4        1.01898   0.00029   0.00000   0.00161   0.00183   1.02081
    D5       -1.12627  -0.00217   0.00000  -0.00997  -0.00955  -1.13582
    D6       -3.13457   0.00501   0.00000   0.02796   0.02803  -3.10654
    D7       -1.12560  -0.00176   0.00000  -0.01028  -0.01054  -1.13614
    D8        3.01233  -0.00422   0.00000  -0.02186  -0.02191   2.99042
    D9        1.00403   0.00296   0.00000   0.01606   0.01567   1.01970
   D10        0.04728   0.00141   0.00000   0.01049   0.01087   0.05815
   D11        3.12830  -0.00101   0.00000  -0.00854  -0.00871   3.11959
   D12        2.19792   0.00297   0.00000   0.01708   0.01744   2.21536
   D13       -1.00425   0.00055   0.00000  -0.00194  -0.00214  -1.00639
   D14       -2.08590  -0.00156   0.00000  -0.00765  -0.00756  -2.09345
   D15        0.99513  -0.00398   0.00000  -0.02667  -0.02714   0.96799
   D16       -0.05539  -0.00325   0.00000  -0.02318  -0.02333  -0.07872
   D17       -2.12867   0.00056   0.00000  -0.00658  -0.00753  -2.13620
   D18        2.09427  -0.00193   0.00000  -0.01224  -0.01171   2.08256
   D19       -3.13093  -0.00091   0.00000  -0.00310  -0.00287  -3.13380
   D20        1.07897   0.00290   0.00000   0.01349   0.01293   1.09190
   D21       -0.98127   0.00041   0.00000   0.00783   0.00875  -0.97252
   D22       -3.12845  -0.00057   0.00000   0.02158   0.02208  -3.10637
   D23        1.28561   0.00452   0.00000   0.04342   0.04107   1.32667
   D24       -0.04181   0.00042   0.00000   0.01139   0.01374  -0.02807
   D25       -1.91094   0.00551   0.00000   0.03323   0.03273  -1.87821
   D26       -3.13837   0.00028   0.00000   0.00314   0.00361  -3.13476
   D27        1.29786  -0.00110   0.00000  -0.00634  -0.00624   1.29162
   D28       -1.05076   0.00900   0.00000   0.03741   0.03547  -1.01529
   D29       -2.89771   0.00761   0.00000   0.02794   0.02561  -2.87210
   D30        0.98945  -0.00839   0.00000  -0.03956  -0.03752   0.95193
   D31       -0.85750  -0.00978   0.00000  -0.04903  -0.04737  -0.90487
   D32       -1.41406  -0.00825   0.00000  -0.04061  -0.03927  -1.45333
   D33        1.79745  -0.00782   0.00000  -0.03495  -0.03379   1.76366
   D34        0.40459   0.00612   0.00000   0.01865   0.01749   0.42208
   D35       -2.66709   0.00655   0.00000   0.02431   0.02297  -2.64413
   D36       -3.13875   0.00227   0.00000   0.01715   0.01725  -3.12150
   D37        0.03284   0.00090   0.00000   0.00627   0.00643   0.03927
   D38       -0.05553   0.00097   0.00000   0.01028   0.01034  -0.04518
   D39        3.11607  -0.00040   0.00000  -0.00060  -0.00048   3.11559
   D40        3.13796  -0.00141   0.00000  -0.01359  -0.01354   3.12442
   D41       -0.01426  -0.00094   0.00000  -0.00907  -0.00908  -0.02334
   D42        0.05399  -0.00082   0.00000  -0.00834  -0.00835   0.04564
   D43       -3.09823  -0.00035   0.00000  -0.00382  -0.00388  -3.10212
   D44        0.03814  -0.00149   0.00000  -0.01043  -0.01023   0.02792
   D45       -3.08831  -0.00123   0.00000  -0.00882  -0.00871  -3.09702
   D46       -3.13193  -0.00023   0.00000  -0.00025  -0.00006  -3.13199
   D47        0.02480   0.00003   0.00000   0.00136   0.00146   0.02626
   D48       -0.00142   0.00026   0.00000   0.00346   0.00355   0.00214
   D49       -3.13180   0.00031   0.00000   0.00267   0.00265  -3.12915
   D50        3.12502  -0.00007   0.00000   0.00161   0.00177   3.12678
   D51       -0.00537  -0.00002   0.00000   0.00082   0.00086  -0.00451
   D52       -0.03145   0.00031   0.00000   0.00307   0.00299  -0.02846
   D53        3.12033  -0.00007   0.00000  -0.00112  -0.00120   3.11913
   D54        3.09946   0.00031   0.00000   0.00396   0.00397   3.10343
   D55       -0.03194  -0.00007   0.00000  -0.00022  -0.00022  -0.03216
         Item               Value     Threshold  Converged?
 Maximum Force            0.053415     0.000450     NO 
 RMS     Force            0.011956     0.000300     NO 
 Maximum Displacement     0.553578     0.001800     NO 
 RMS     Displacement     0.171531     0.001200     NO 
 Predicted change in Energy=-2.991494D-02
 GradGradGradGradGradGradGradGradGradGradGradGradGradGradGradGradGradGrad

                          Input orientation:                          
 ---------------------------------------------------------------------
 Center     Atomic      Atomic             Coordinates (Angstroms)
 Number     Number       Type             X           Y           Z
 ---------------------------------------------------------------------
      1          6           0        1.235123   -0.343456   -0.532777
      2          6           0        2.622551    0.062768   -0.071621
      3          6           0        2.823810    1.043625    1.085873
      4          6           0        1.902700    1.782663    2.069960
      5         16           0        0.082311    1.690328    1.958794
      6         16           0       -0.627398    2.809241    3.423073
      7         16           0        4.601757    1.214489    1.321920
      8          6           0        4.837069    2.279088    2.668611
      9          6           0        4.831905    3.636781    2.660039
     10          6           0        5.094804    4.114506    3.996313
     11          6           0        5.298846    3.065186    4.831519
     12          6           0        5.173854    1.834768    4.038827
     13         16           0        5.367503    0.282200    4.598373
     14          1           0        1.283071   -1.008401   -1.398150
     15          1           0        0.649197    0.524053   -0.840600
     16          1           0        0.717675   -0.901854    0.251295
     17          1           0        3.149716    0.478473   -0.946658
     18          1           0        3.158746   -0.864408    0.185068
     19          1           0        2.073382    2.857182    1.977096
     20          1           0        2.143963    1.485644    3.095435
     21          1           0       -0.050208    0.441595    2.427588
     22          1           0        4.970179    2.013061    0.294902
     23          1           0        4.646472    4.288035    1.815369
     24          1           0        5.107466    5.158169    4.279108
     25          1           0        5.506528    3.078776    5.886986
 ---------------------------------------------------------------------
                    Distance matrix (angstroms):
                    1          2          3          4          5
     1  C    0.000000
     2  C    1.517445   0.000000
     3  C    2.658562   1.530483   0.000000
     4  C    3.426409   2.839470   1.537220   0.000000
     5  S    3.416603   3.636531   2.948903   1.826116   0.000000
     6  S    5.390477   5.506194   4.526670   3.047323   1.974783
     7  S    4.147448   2.680611   1.801668   2.857848   4.588837
     8  C    5.486405   4.162335   2.843350   3.035678   4.843367
     9  C    6.242852   5.011664   3.637980   3.516559   5.180644
    10  C    7.435268   6.251136   4.801914   4.397483   5.929014
    11  C    7.543763   6.341755   4.923655   4.561237   6.111876
    12  C    6.415437   5.152175   3.855976   3.818324   5.501928
    13  S    6.617908   5.421416   4.403157   4.544130   6.073175
    14  H    1.092393   2.168246   3.571423   4.494637   4.471469
    15  H    1.091162   2.167542   2.951304   3.409798   3.085152
    16  H    1.092854   2.159473   2.986171   3.452312   3.168382
    17  H    2.124272   1.102907   2.134665   3.515102   4.395363
    18  H    2.118258   1.101385   2.136404   3.483885   4.374612
    19  H    4.152857   3.508216   2.155553   1.091947   2.307867
    20  H    4.163594   3.504834   2.167005   1.094544   2.363103
    21  H    3.321467   3.678749   3.228408   2.395874   1.340396
    22  H    4.493202   3.073978   2.484420   3.551527   5.173389
    23  H    6.213034   5.050729   3.792157   3.724243   5.253591
    24  H    8.271466   7.146100   5.686941   5.152174   6.531612
    25  H    8.436227   7.274518   5.864255   5.407141   6.839635
                    6          7          8          9         10
     6  S    0.000000
     7  S    5.856803   0.000000
     8  C    5.541721   1.732720   0.000000
     9  C    5.574139   2.776874   1.357730   0.000000
    10  C    5.897111   3.975622   2.279907   1.443248   0.000000
    11  C    6.096687   4.028436   2.347203   2.293487   1.356567
    12  C    5.914666   2.844930   1.479303   2.294610   2.281504
    13  S    6.611059   3.491514   2.827173   3.911166   3.888883
    14  H    6.439602   4.832567   6.322739   7.116238   8.359050
    15  H    5.003068   4.558062   5.738726   6.280015   7.486688
    16  H    5.063757   4.550961   5.738573   6.582412   7.638605
    17  H    6.228453   2.792237   4.377162   5.080643   6.437163
    18  H    6.189933   2.774262   4.343538   5.402374   6.562278
    19  H    3.063880   3.085511   2.906949   2.946801   3.845399
    20  H    3.088640   3.042965   2.839816   3.470157   4.053389
    21  H    2.632468   4.843620   5.226849   5.839373   6.513242
    22  H    6.461597   1.352116   2.392276   2.872188   4.258174
    23  H    5.708349   3.113226   2.190939   1.082582   2.233300
    24  H    6.256110   4.955129   3.309973   2.238735   1.081372
    25  H    6.615781   5.013382   3.383136   3.343601   2.194743
                   11         12         13         14         15
    11  C    0.000000
    12  C    1.468983   0.000000
    13  S    2.793579   1.661643   0.000000
    14  H    8.457502   7.265158   7.369296   0.000000
    15  H    7.762057   6.782278   7.204396   1.749593   0.000000
    16  H    7.596249   6.456937   6.474563   1.746909   1.797258
    17  H    6.685595   5.549030   5.975321   2.428787   2.503182
    18  H    6.450678   5.118366   5.066614   2.458754   3.045924
    19  H    4.312148   3.861217   4.934862   5.192264   3.925710
    20  H    3.932204   3.192509   3.754772   5.210921   4.318721
    21  H    6.424523   5.641618   5.838605   4.303068   3.343205
    22  H    4.668607   3.753698   4.655492   5.058698   4.709288
    23  H    3.319355   3.352673   4.930691   7.049213   6.099175
    24  H    2.173100   3.332737   4.893324   9.213242   8.219647
    25  H    1.075790   2.252535   3.082319   9.360332   8.682205
                   16         17         18         19         20
    16  H    0.000000
    17  H    3.042239   0.000000
    18  H    2.442256   1.756193   0.000000
    19  H    4.352779   3.919833   4.270786   0.000000
    20  H    3.977886   4.285376   3.875921   1.771096   0.000000
    21  H    2.670347   4.650421   4.126976   3.247713   2.520009
    22  H    5.155815   2.685240   3.401938   3.454526   4.013559
    23  H    6.694529   4.937796   5.605255   2.948608   3.969196
    24  H    8.498083   7.282923   7.538574   4.449659   4.865272
    25  H    8.398782   7.682111   7.319334   5.207959   4.651631
                   21         22         23         24         25
    21  H    0.000000
    22  H    5.676455   0.000000
    23  H    6.101534   2.755379   0.000000
    24  H    7.230200   5.077839   2.653235   0.000000
    25  H    7.056874   5.717938   4.333597   2.658646   0.000000
 Stoichiometry    C9H12S4
 Framework group  C1[X(C9H12S4)]
 Deg. of freedom    69
 Full point group                 C1      NOp   1
 Largest Abelian subgroup         C1      NOp   1
 Largest concise Abelian subgroup C1      NOp   1
                         Standard orientation:                         
 ---------------------------------------------------------------------
 Center     Atomic      Atomic             Coordinates (Angstroms)
 Number     Number       Type             X           Y           Z
 ---------------------------------------------------------------------
      1          6           0        3.024784    2.651132    0.157153
      2          6           0        1.534878    2.622216   -0.129175
      3          6           0        0.775339    1.301482   -0.274580
      4          6           0        1.130424   -0.188273   -0.141952
      5         16           0        2.836681   -0.760272    0.168219
      6         16           0        2.763573   -2.732360    0.240961
      7         16           0       -0.951735    1.722316   -0.568051
      8          6           0       -1.828218    0.231551   -0.676295
      9          6           0       -1.966362   -0.569263   -1.763973
     10          6           0       -2.800378   -1.694075   -1.414432
     11          6           0       -3.212425   -1.582657   -0.126768
     12          6           0       -2.643700   -0.341997    0.416578
     13         16           0       -2.879845    0.258356    1.947875
     14          1           0        3.405311    3.674882    0.178502
     15          1           0        3.588048    2.127201   -0.616711
     16          1           0        3.235023    2.228118    1.142642
     17          1           0        1.368243    3.197810   -1.055095
     18          1           0        1.043969    3.198355    0.670901
     19          1           0        0.897633   -0.693580   -1.081538
     20          1           0        0.526073   -0.642750    0.649399
     21          1           0        2.900568   -0.402323    1.458356
     22          1           0       -0.953774    2.116746   -1.861356
     23          1           0       -1.524440   -0.430809   -2.742502
     24          1           0       -3.039482   -2.507536   -2.085608
     25          1           0       -3.832006   -2.255453    0.439617
 ---------------------------------------------------------------------
 Rotational constants (GHZ):           0.5631536           0.3062645           0.2415245
 Standard basis: 6-31G(2df,p) (6D, 7F)
 There are   479 symmetry adapted cartesian basis functions of A   symmetry.
 There are   440 symmetry adapted basis functions of A   symmetry.
   440 basis functions,   752 primitive gaussians,   479 cartesian basis functions
    65 alpha electrons       65 beta electrons
       nuclear repulsion energy      1186.1013739823 Hartrees.
 NAtoms=   25 NActive=   25 NUniq=   25 SFac= 1.00D+00 NAtFMM=   60 NAOKFM=F Big=F
 Integral buffers will be    131072 words long.
 Raffenetti 2 integral format.
 Two-electron integral symmetry is turned on.
 One-electron integrals computed using PRISM.
 PrsmSu:  requested number of processors reduced to:  12 ShMem   1 Linda.
 NBasis=   440 RedAO= T EigKep=  3.28D-04  NBF=   440
 NBsUse=   440 1.00D-06 EigRej= -1.00D+00 NBFU=   440
 Initial guess from the checkpoint file:  "CCCqC[SH]dSrd[SH]C1dCCdCC1dS.chk"
 B after Tr=    -0.000000   -0.000000   -0.000000
         Rot=    0.999876    0.008979   -0.006126    0.011412 Ang=   1.81 deg.
 ExpMin= 1.17D-01 ExpMax= 2.19D+04 ExpMxC= 3.30D+03 IAcc=2 IRadAn=         4 AccDes= 0.00D+00
 Harris functional with IExCor=  402 and IRadAn=       4 diagonalized for initial guess.
 HarFok:  IExCor=  402 AccDes= 0.00D+00 IRadAn=         4 IDoV= 1 UseB2=F ITyADJ=14
 ICtDFT=  3500011 ScaDFX=  1.000000  1.000000  1.000000  1.000000
 FoFCou: FMM=F IPFlag=           0 FMFlag=      100000 FMFlg1=           0
         NFxFlg=           0 DoJE=T BraDBF=F KetDBF=T FulRan=T
         wScrn=  0.000000 ICntrl=       500 IOpCl=  0 I1Cent=   200000004 NGrid=           0
         NMat0=    1 NMatS0=      1 NMatT0=    0 NMatD0=    1 NMtDS0=    0 NMtDT0=    0
 Petite list used in FoFCou.
 Requested convergence on RMS density matrix=1.00D-08 within 128 cycles.
 Requested convergence on MAX density matrix=1.00D-06.
 Requested convergence on             energy=1.00D-06.
 No special actions if energy rises.
 Integral accuracy reduced to 1.0D-05 until final iterations.
 Initial convergence to 1.0D-05 achieved.  Increase integral accuracy.
 SCF Done:  E(RB3LYP) =  -1942.75594847     A.U. after   17 cycles
            NFock= 17  Conv=0.30D-08     -V/T= 2.0040
 PrsmSu:  requested number of processors reduced to:  13 ShMem   1 Linda.
 Calling FoFJK, ICntrl=      2127 FMM=F ISym2X=0 I1Cent= 0 IOpClX= 0 NMat=1 NMatS=1 NMatT=0.
 ***** Axes restored to original set *****
 -------------------------------------------------------------------
 Center     Atomic                   Forces (Hartrees/Bohr)
 Number     Number              X              Y              Z
 -------------------------------------------------------------------
      1        6          -0.006824571    0.002438819    0.003581025
      2        6           0.010812606    0.000535367    0.010863020
      3        6           0.008029722   -0.005650840   -0.002932799
      4        6           0.028593201   -0.007630270   -0.005824797
      5       16          -0.005756390    0.003092405   -0.013310468
      6       16          -0.002061378    0.007193506    0.005783558
      7       16          -0.041033397   -0.010682231    0.011224968
      8        6           0.008336417   -0.006381018    0.004092400
      9        6          -0.003038123    0.012962861   -0.009494214
     10        6           0.002663947    0.007231744    0.007457188
     11        6          -0.000931045   -0.008061902   -0.009617863
     12        6           0.000412158   -0.009774901    0.007736287
     13       16          -0.001782102    0.006552913   -0.003894809
     14        1           0.004235025   -0.000532112   -0.000733819
     15        1          -0.004027142    0.000493718    0.002545749
     16        1          -0.004431373    0.002413790    0.000995171
     17        1           0.001637890   -0.001120722   -0.003001457
     18        1           0.002106764   -0.001019333   -0.003628376
     19        1          -0.004901726    0.002364036    0.004340070
     20        1          -0.005004879    0.004408356    0.002055688
     21        1           0.003303887   -0.012544540   -0.000024925
     22        1           0.009830885    0.015481239   -0.008110618
     23        1          -0.000858376   -0.001663389   -0.000792033
     24        1           0.000322815    0.000958089   -0.001352749
     25        1           0.000365187   -0.001065586    0.002043800
 -------------------------------------------------------------------
 Cartesian Forces:  Max     0.041033397 RMS     0.008336862

 GradGradGradGradGradGradGradGradGradGradGradGradGradGradGradGradGradGrad
 Berny optimization.
 Using GEDIIS/GDIIS optimizer.
 FormGI is forming the generalized inverse of G from B-inverse, IUseBI=4.
 Internal  Forces:  Max     0.024939358 RMS     0.006305240
 Search for a local minimum.
 Step number   2 out of a maximum of  132
 All quantities printed in internal units (Hartrees-Bohrs-Radians)
 Mixed Optimization -- RFO/linear search
 Update second derivatives using D2CorX and points    1    2
 DE= -2.11D-02 DEPred=-2.99D-02 R= 7.06D-01
 TightC=F SS=  1.41D+00  RLast= 3.30D-01 DXNew= 5.0454D-01 9.9033D-01
 Trust test= 7.06D-01 RLast= 3.30D-01 DXMaxT set to 5.05D-01
 ITU=  1  0
 Use linear search instead of GDIIS.
     Eigenvalues ---    0.00229   0.00230   0.00425   0.00451   0.00452
     Eigenvalues ---    0.00702   0.01003   0.01211   0.01510   0.01640
     Eigenvalues ---    0.01916   0.02194   0.02221   0.02513   0.03362
     Eigenvalues ---    0.03721   0.05338   0.05458   0.05603   0.05647
     Eigenvalues ---    0.05833   0.06096   0.09807   0.10728   0.11131
     Eigenvalues ---    0.13702   0.14019   0.14960   0.15996   0.15998
     Eigenvalues ---    0.15999   0.16000   0.16000   0.16006   0.19213
     Eigenvalues ---    0.22140   0.22217   0.23198   0.23869   0.24158
     Eigenvalues ---    0.24697   0.24719   0.24897   0.24953   0.24994
     Eigenvalues ---    0.27678   0.28367   0.29287   0.30009   0.31763
     Eigenvalues ---    0.31850   0.32460   0.33550   0.33896   0.33941
     Eigenvalues ---    0.34270   0.34343   0.34374   0.34388   0.34844
     Eigenvalues ---    0.35860   0.36152   0.36838   0.38716   0.39255
     Eigenvalues ---    0.39618   0.52087   0.52514   0.62153
 RFO step:  Lambda=-3.76201829D-02 EMin= 2.29269269D-03
 Quartic linear search produced a step of  0.45047.
 Iteration  1 RMS(Cart)=  0.23330781 RMS(Int)=  0.01098880
 Iteration  2 RMS(Cart)=  0.02287262 RMS(Int)=  0.00225399
 Iteration  3 RMS(Cart)=  0.00029049 RMS(Int)=  0.00225224
 Iteration  4 RMS(Cart)=  0.00000137 RMS(Int)=  0.00225224
 Iteration  5 RMS(Cart)=  0.00000002 RMS(Int)=  0.00225224
 Variable       Old X    -DE/DX   Delta X   Delta X   Delta X     New X
                                 (Linear)    (Quad)   (Total)
    R1        2.86756   0.00687   0.01071   0.03038   0.04110   2.90865
    R2        2.06432   0.00109   0.00231   0.00471   0.00701   2.07133
    R3        2.06200   0.00184  -0.00215   0.00564   0.00350   2.06549
    R4        2.06520   0.00158  -0.00089   0.00523   0.00434   2.06953
    R5        2.89219  -0.01055   0.00577  -0.03960  -0.03383   2.85836
    R6        2.08419   0.00274   0.00457   0.01160   0.01617   2.10037
    R7        2.08132   0.00104   0.00288   0.00486   0.00774   2.08906
    R8        2.90492  -0.01446   0.01144  -0.05278  -0.04133   2.86359
    R9        3.40466  -0.02494  -0.03579  -0.14398  -0.17977   3.22489
   R10        3.45086   0.00507   0.00644   0.02714   0.03358   3.48444
   R11        2.06348   0.00119  -0.00151   0.00361   0.00211   2.06559
   R12        2.06839  -0.00037  -0.00017  -0.00139  -0.00157   2.06682
   R13        3.73180   0.00910   0.01219   0.03271   0.04489   3.77669
   R14        2.53298   0.01135   0.01957   0.05636   0.07593   2.60891
[...]
 18407,-0.01121781,-0.00626469,-0.00697247,-0.00104570,0.00117729,0.000
 92932,0.00065916,-0.00082894,-0.00019138,-0.00020554,0.00000810,0.0002
 4496,-0.00004746,-0.00029277,-0.00245866,-0.00096966,-0.00011294,0.000
 40860,0.00024785,-0.00037743,-0.00029896,0.00035412,-0.00004327,0.0002
 7281,-0.00019257,0.00026461,0.00017605,0.00002532,-0.00026923,-0.00031
 832,-0.00016324,0.00030595,0.00006745,0.00020916,-0.00022836,0.0009461
 7,0.00003357,-0.00102951,0.00038578,0.00122931,0.00386688,-0.00193291,
 0.12701388,-0.01671810,0.14076481,-0.00308728,0.00034787,0.00251404,-0
 .20165089,0.04257602,0.12000700,0.00399738,-0.00243260,-0.00499604,0.0
 0016619,-0.00082075,-0.00018566,0.00015216,-0.00027697,-0.00011390,-0.
 00012437,0.00010443,0.00006773,0.00041179,-0.00039414,-0.00087201,0.00
 031759,0.00030816,0.00042922,-0.00001787,-0.00025395,-0.00016801,0.000
 07292,-0.00011091,0.00013634,-0.00002593,0.00008694,0.00012106,0.00001
 992,0.00004057,-0.00005424,-0.00001955,0.00007863,-0.00001946,-0.00005
 502,-0.00040805,-0.00006053,0.00144162,-0.00097252,0.00008076,0.000833
 75,-0.00033459,-0.00012434,-0.02032002,0.00580781,0.01521405,0.2171796
 6,-0.02089485,0.00379330,0.01706357,0.04003025,-0.05636312,-0.03299585
 ,0.02183269,-0.00952865,-0.01546068,-0.00262579,-0.00383896,-0.0038313
 2,-0.00046868,0.00059784,-0.00031836,0.00013049,-0.00002888,0.00002749
 ,0.00191658,-0.00044856,-0.00091193,-0.00063122,0.00054137,-0.00005353
 ,0.00021046,-0.00028955,-0.00005157,0.00025867,-0.00006747,0.00021339,
 -0.00009440,0.00015217,0.00020250,0.00012909,-0.00020411,-0.00004679,-
 0.00008041,0.00028599,0.00006771,0.00001509,0.00085312,-0.00085101,-0.
 00062682,-0.00402837,0.00372158,0.00047153,0.00103284,-0.00071559,0.00
 213278,-0.00096939,-0.00133553,-0.04263826,0.06946796,0.01746216,-0.00
 225390,-0.01405618,0.11741693,-0.03359169,-0.13853281,0.01073532,-0.00
 480267,-0.00895750,-0.00108375,-0.00208273,-0.00097074,-0.00015272,0.0
 0014611,-0.00023189,-0.00008153,0.00005052,0.00008121,0.00163440,-0.00
 022362,-0.00012401,-0.00045059,0.00070692,-0.00014576,0.00025953,-0.00
 030501,-0.00003593,0.00021219,-0.00005926,0.00022153,-0.00012522,0.000
 18539,0.00022117,0.00020332,-0.00033722,-0.00003349,-0.00009705,0.0004
 0107,0.00011191,-0.00031577,-0.00014923,0.00093433,0.00036529,0.003830
 85,-0.00176600,-0.00032446,-0.00090154,0.00042322,-0.01428045,0.004349
 85,0.01154125,-0.13139394,0.03547886,0.15098420,0.00004140,-0.00014442
 ,-0.00022543,-0.00338985,-0.00001979,0.00259173,0.00742222,0.01432576,
 0.01750691,-0.07202011,-0.05356060,-0.06163021,-0.00390049,-0.00281803
 ,-0.00989186,0.00019308,-0.00008091,0.00146813,0.00038071,0.00121930,0
 .00022004,-0.00192887,0.00230477,0.00071723,0.00127540,-0.00132938,-0.
 00196266,0.00065214,-0.00054663,-0.00006168,-0.00008357,0.00008329,0.0
 0099083,0.00067395,-0.00083155,0.00045539,-0.00036789,0.00103653,0.000
 05601,-0.00000833,-0.00008782,-0.00001659,0.00003531,0.00015005,-0.000
 17168,0.00006821,-0.00000039,-0.00001790,0.00004520,-0.00015240,0.0000
 4120,0.00024889,0.00116307,0.00049039,0.07818711,-0.00008289,0.0004443
 0,-0.00002850,0.00263878,0.00151705,-0.00274044,0.00058624,-0.01062751
 ,-0.01321764,-0.05506956,-0.12573761,-0.11833554,0.00961483,0.00387361
 ,0.01772308,-0.00175643,0.00073463,-0.00069338,-0.00334610,-0.00254503
 ,-0.00029778,-0.00104996,0.00200113,0.00077005,0.00104326,-0.00054841,
 -0.00016886,0.00019696,-0.00005972,-0.00012336,0.00026192,-0.00017983,
 0.00031484,0.00071019,-0.00066604,0.00087558,-0.00012929,0.00051786,0.
 00007343,0.00003133,-0.00006631,-0.00002282,-0.00009901,0.00012189,0.0
 0000008,0.00010416,-0.00006408,0.00001048,-0.00039365,0.00001355,0.000
 05694,-0.00013633,-0.00099440,-0.00038854,0.04960105,0.14309302,0.0000
 3722,0.00019737,0.00004993,0.00163353,0.00116340,-0.00116403,-0.002776
 35,-0.00841561,-0.00636924,-0.05861930,-0.12610654,-0.19683738,-0.0095
 1380,-0.00100740,-0.01728852,0.00007282,0.00015690,0.00143006,-0.00108
 894,-0.00139409,-0.00007731,-0.00092316,0.00092201,0.00091291,0.001228
 73,0.00045404,0.00028910,-0.00065924,0.00052145,-0.00072519,0.00002940
 ,-0.00067477,-0.00056010,0.00024495,0.00003817,0.00093494,0.00009380,-
 0.00032662,-0.00022256,-0.00001403,0.00005718,0.00003055,-0.00003582,-
 0.00010642,0.00012139,-0.00003829,-0.00000056,0.00004039,-0.00008475,0
 .00014753,-0.00002161,-0.00026263,-0.00057516,-0.00013494,0.06778558,0
 .12639249,0.21333593,-0.00026910,0.00029067,0.00045227,0.00015915,-0.0
 0080268,-0.00181107,-0.01730053,-0.01021119,0.00595022,-0.20984459,-0.
 12457972,0.06073159,0.00416605,0.01269729,-0.00886618,0.00099043,-0.00
 264910,0.00042200,-0.00203953,0.00042043,0.00394601,0.00108146,-0.0003
 3972,0.00016480,-0.00015031,0.00029367,0.00009234,-0.00007571,0.000042
 62,-0.00006710,-0.00011543,-0.00000666,-0.00019270,0.00010351,-0.00014
 968,-0.00004032,-0.00005231,0.00010008,-0.00011176,0.00029706,0.000105
 80,-0.00026615,0.00048627,0.00049620,-0.00032515,0.00007370,-0.0001122
 4,-0.00002136,0.00027909,0.00026212,0.00027548,0.00011773,-0.00013746,
 -0.00019219,-0.00606608,-0.00463946,0.00365886,0.22819238,0.00051169,-
 0.00007978,-0.00012409,-0.00008948,0.00034404,0.00051619,0.01424217,0.
 01003824,-0.00532911,-0.12852399,-0.13078408,0.03735562,-0.00665154,-0
 .01486979,0.01190718,0.00060955,0.00200588,-0.00214446,0.00321975,0.00
 021107,-0.00313275,-0.00061973,-0.00001632,0.00024017,-0.00026816,-0.0
 0018950,0.00014302,-0.00002875,0.00002058,0.00011747,0.00006890,0.0000
 5676,-0.00001786,-0.00021223,0.00028948,-0.00008792,0.00006414,-0.0002
 2192,0.00001155,-0.00027383,0.00015333,0.00011833,-0.00001251,-0.00077
 750,0.00017216,-0.00006557,0.00005660,-0.00003723,0.00011525,-0.000061
 78,-0.00008935,-0.00008527,0.00013445,0.00024824,-0.01174731,-0.008244
 68,0.00540690,0.12869124,0.14079098,0.00004588,-0.00018582,0.00013187,
 -0.00036414,0.00076856,-0.00008082,0.00974327,0.00693315,-0.00057926,0
 .06759353,0.03477546,-0.06312111,0.00390618,0.01860853,-0.01296293,-0.
 00027572,-0.00170646,0.00131292,0.00279745,-0.00062391,-0.00137557,-0.
 00029410,-0.00065158,0.00087446,-0.00031436,0.00027326,0.00059861,-0.0
 0028975,0.00034823,-0.00006497,0.00000387,-0.00013872,-0.00047864,-0.0
 0031815,0.00060340,-0.00007387,0.00014816,-0.00057917,-0.00014898,-0.0
 0000652,0.00005192,-0.00004190,-0.00001243,-0.00013068,0.00028398,-0.0
 0012638,0.00011075,0.00004123,-0.00006452,-0.00014095,-0.00043155,-0.0
 0028925,0.00019445,0.00003097,-0.01774220,-0.01402181,0.00846655,-0.06
 469500,-0.04390366,0.06722005,0.00018362,0.00009572,0.00007210,-0.0003
 4716,0.00016510,-0.00036288,0.00059253,-0.00100831,0.00065480,-0.00244
 536,-0.00621240,-0.00530181,-0.06157745,-0.05836825,-0.05713638,0.0056
 2429,0.01345545,0.01245824,0.00002721,-0.00040402,0.00034371,0.0001707
 9,-0.00041271,-0.00009466,-0.00012536,0.00032936,0.00051166,-0.0002998
 6,0.00033267,-0.00026199,0.00002871,-0.00028017,-0.00038136,-0.0001045
 5,0.00035395,0.00011941,0.00012181,-0.00041036,-0.00009514,-0.00000267
 ,0.00003193,-0.00001137,-0.00003352,-0.00002805,0.00003526,-0.00003583
 ,-0.00005407,0.00004143,0.00014817,0.00047509,0.00015287,0.00005066,0.
 00001507,0.00008790,-0.00057471,0.00237252,-0.00086586,0.00050934,0.00
 024235,0.00066968,0.05789901,-0.00001590,-0.00000273,0.00006722,0.0003
 8382,0.00002603,0.00020199,-0.00112535,0.00096405,-0.00052658,0.005655
 04,0.00778063,0.01154008,-0.06629119,-0.12260420,-0.09576846,0.0103176
 8,-0.00350555,-0.00485777,-0.00018964,-0.00034036,-0.00021246,0.000043
 09,0.00041543,0.00000866,-0.00004024,-0.00041192,-0.00018665,0.0001110
 8,-0.00017090,0.00014902,0.00000451,0.00019976,0.00020010,0.00000689,-
 0.00014953,-0.00018479,-0.00004917,0.00020025,0.00008266,0.00000690,0.
 00000356,-0.00001052,0.00001020,-0.00000543,0.00001242,0.00000030,-0.0
 0002593,0.00001065,-0.00002925,0.00009659,-0.00004018,-0.00004578,-0.0
 0002396,-0.00009044,0.00197671,-0.00301862,0.00245141,0.00021602,0.001
 06125,-0.00057375,0.04892659,0.11939175,0.00010235,0.00007825,0.000040
 80,-0.00031856,-0.00015249,-0.00005433,0.00186689,-0.00057541,0.000661
 26,-0.01019201,-0.00677115,-0.01040180,-0.04593427,-0.07559732,-0.0841
 1947,0.00511784,-0.00718631,-0.00498490,-0.00085338,0.00067777,-0.0004
 5857,-0.00021601,-0.00002880,0.00002256,0.00014616,0.00018142,-0.00004
 957,-0.00003238,-0.00004073,-0.00001939,0.00005641,-0.00004451,0.00004
 081,0.00000890,-0.00013853,0.00022848,0.00001548,0.00007414,-0.0000023
 1,-0.00001839,-0.00000692,0.00000877,-0.00002050,-0.00000264,-0.000048
 13,0.00003261,-0.00007023,0.00003911,0.00015917,0.00027014,0.00033299,
 0.00014591,0.00002177,0.00010007,-0.00129990,0.00318965,-0.00204040,0.
 00096806,-0.00118585,0.00068877,0.04953219,0.08767730,0.10000364,-0.00
 056077,-0.00202403,-0.00164322,-0.00029480,-0.00157566,0.00719097,-0.0
 0791326,-0.01893020,-0.00234657,0.00606631,-0.00599035,0.00117285,-0.0
 0038903,0.00240272,-0.00310903,0.00037341,-0.00011914,0.00015594,-0.02
 690673,0.02668456,-0.01238302,0.00262986,0.00648500,-0.00193201,-0.001
 90814,0.00209066,0.00371714,-0.00211379,0.00129774,-0.00257186,0.00051
 648,-0.00185850,-0.00223882,0.00098848,0.00205867,0.00012565,0.0005219
 6,-0.00259134,-0.00132121,0.00000070,-0.00070266,0.00042823,0.00003660
 ,0.00022419,-0.00007925,0.00002996,-0.00001656,0.00000426,-0.00017414,
 0.00072727,0.00042121,0.00027705,-0.00009578,-0.00034627,-0.00027590,0
 .00014839,0.00025498,-0.00050456,0.00068727,-0.00020816,0.00011024,0.0
 0009238,0.00068034,0.02938885,-0.00063495,-0.00134725,-0.00161816,0.00
 165503,-0.00350019,0.00709064,-0.01654622,-0.00180151,-0.00683892,0.00
 540930,-0.00175479,-0.00319636,-0.00171018,0.00118065,0.00094669,-0.00
 110861,0.00120705,-0.00045866,0.01739425,-0.17362114,0.05724790,0.0075
 3946,-0.00213609,-0.00135170,-0.00221851,0.00395271,0.00291833,-0.0029
 9029,0.00168738,-0.00228025,0.00057330,-0.00239688,-0.00280593,0.00012
 108,0.00156767,0.00147246,0.00080574,-0.00205196,-0.00057048,-0.000072
 49,-0.00069539,0.00042832,-0.00000154,0.00014712,0.00003026,0.00000848
 ,-0.00006661,0.00004265,0.00033610,0.00062395,0.00014945,-0.00045534,-
 0.00006484,-0.00019786,-0.00009572,0.00072560,0.00049084,-0.00002684,-
 0.00003544,-0.00023026,0.00027073,0.00014714,-0.00037188,-0.00885985,0
 .17733888,-0.00007365,0.00007988,0.00043916,-0.00058688,-0.00012234,-0
 .00093324,0.00153568,-0.00106039,0.00665678,0.00021867,-0.00001433,-0.
 00086609,-0.00050374,0.00019784,-0.00047309,-0.00003077,0.00002863,0.0
 0012947,-0.00270782,0.03064630,-0.03105682,-0.01253057,0.02270351,-0.0
 1946233,-0.00002440,0.00377452,0.00362295,-0.00127313,0.00122528,-0.00
 200336,-0.00167261,-0.00049546,-0.00210269,0.00219134,-0.00364789,-0.0
 0395282,0.00089111,-0.00112983,0.00061870,0.00002414,0.00007649,-0.000
 08677,-0.00000499,-0.00000578,0.00000976,-0.00001281,0.00007018,-0.000
 07159,-0.00015848,-0.00011035,-0.00001445,-0.00018466,0.00013083,0.000
 30393,0.00039595,0.00041992,-0.00019867,-0.00000963,-0.00016838,-0.000
 17019,-0.00019325,0.00002249,0.00003294,0.01426152,-0.05131365,0.05012
 941,0.00003432,0.00009591,-0.00009097,-0.00058751,0.00044527,-0.000434
 41,0.00076860,-0.00134230,-0.00066980,0.00049892,-0.00007685,0.0003650
 2,-0.00007896,-0.00004632,-0.00043644,-0.00011886,0.00020181,0.0002337
 6,-0.00331737,-0.00105120,0.00296586,0.00444028,0.00160692,-0.00515723
 ,-0.10227425,0.11492483,-0.05643685,-0.00050650,0.00734131,0.00033620,
 -0.00069948,0.00024650,-0.00131572,0.00673149,0.00238340,-0.00249739,-
 0.00095671,0.00023603,0.00058120,0.00000158,-0.00003680,0.00001653,0.0
 0000033,0.00000065,0.00001686,0.00001153,-0.00003563,0.00004590,-0.000
 05446,-0.00027568,-0.00012864,0.00000456,-0.00001983,-0.00003271,-0.00
 057137,-0.00056149,-0.00015212,0.00001867,0.00008559,0.00007071,0.0000
 8865,0.00000790,0.00004474,0.00032696,0.00101672,0.00057293,0.09598557
 ,0.00005708,0.00005431,-0.00000825,-0.00025846,0.00015469,-0.00028727,
 0.00048987,-0.00051912,-0.00012933,0.00014695,-0.00006929,-0.00018664,
 -0.00025183,0.00007349,-0.00016440,0.00006634,0.00001805,0.00006225,-0
 .00112740,-0.00007917,0.00253643,0.01119860,-0.01132789,0.01169013,0.1
 1459850,-0.24308515,0.08236261,-0.00191243,0.00447099,-0.00270016,-0.0
 0066486,0.00027721,-0.00119709,0.00290803,-0.00252574,-0.00290436,0.00
 021822,-0.00055976,0.00066387,-0.00000554,0.00000966,-0.00000199,-0.00
 000582,-0.00000398,0.00000366,-0.00000267,-0.00000259,0.00001034,-0.00
 000674,-0.00010536,-0.00005602,0.00000766,-0.00000439,-0.00001271,-0.0
 0040433,-0.00025962,0.00020588,0.00005208,0.00010104,0.00019501,0.0001
 0242,-0.00002941,0.00000204,0.00009686,0.00088560,-0.00071839,-0.12542
 283,0.25215613,-0.00002521,0.00000299,0.00001729,0.00019901,-0.0001593
 3,0.00010052,0.00054522,0.00046111,-0.00000446,-0.00040268,0.00022219,
 -0.00004087,-0.00004794,-0.00013768,0.00028486,0.00009363,-0.00005568,
 -0.00013219,0.00059140,-0.00054204,0.00027344,0.00701534,-0.01336332,0
 .01043220,-0.05733290,0.08386886,-0.09409968,-0.00882053,0.02137843,-0
 .00073768,-0.00229412,0.00042269,-0.00483966,-0.00256655,-0.00339878,-
 0.00280370,0.00080288,-0.00036576,0.00090992,-0.00000296,0.00001643,-0
 .00000333,0.00000045,-0.00000681,-0.00000114,0.00000417,0.00001196,-0.
 00001329,0.00002812,0.00008601,0.00003977,0.00000207,0.00000248,0.0000
 0573,0.00023303,0.00013255,0.00009140,-0.00000808,-0.00004131,-0.00006
 472,0.00005275,-0.00000055,-0.00003857,-0.00002086,0.00060312,-0.00001
 645,0.06207342,-0.08970331,0.08962726,0.00002472,-0.00000358,-0.000049
 94,-0.00010243,0.00014917,-0.00009743,-0.00001878,0.00008307,0.0003257
 5,0.00018704,-0.00021516,0.00008408,0.00010079,-0.00005426,-0.00012342
 ,-0.00011839,0.00007297,0.00010527,0.00085045,-0.00037390,-0.00028447,
 -0.00111958,-0.00011901,-0.00294756,0.00285371,-0.00972471,-0.00640952
 ,-0.04226714,0.01115919,-0.00068217,0.00727436,0.01044588,0.00965529,0
 .00663627,0.00511300,-0.00509434,-0.00129123,0.00023434,0.00129695,-0.
 00001897,-0.00002315,-0.00000474,-0.00001053,0.00000470,0.00000359,0.0
 0002124,0.00002560,0.00000611,-0.00002335,-0.00006582,-0.00001463,0.00
 001540,-0.00000265,-0.00000156,-0.00001774,0.00001462,-0.00000071,-0.0
 0004611,0.00003623,0.00001545,-0.00000236,0.00002868,0.00001084,0.0001
 0444,0.00002825,-0.00002870,-0.00012312,0.00008477,0.00055949,0.030361
 51,0.00002092,0.00000208,-0.00004857,-0.00001140,-0.00000052,0.0000070
 2,0.00048318,0.00004975,0.00005401,-0.00003940,0.00012320,-0.00007668,
 0.00009181,-0.00009961,0.00000814,-0.00008568,0.00005218,0.00006591,-0
 .00044188,0.00012346,0.00027705,0.00068582,-0.00042167,0.00126234,0.00
 064540,0.00638530,0.00584698,0.01269344,-0.21718975,-0.14639256,-0.001
 88367,-0.00833758,-0.02005360,0.00532419,-0.00280134,-0.00101374,-0.00
 075682,-0.00052444,-0.00062456,-0.00001847,-0.00002190,0.00000023,-0.0
 0001436,0.00000341,0.00000276,0.00002042,0.00001998,-0.00000407,0.0000
 1255,-0.00002066,-0.00001503,0.00000485,-0.00001889,-0.00001197,-0.000
 02957,0.00000174,0.00001457,-0.00000489,0.00000482,0.00001862,0.000013
 03,-0.00000288,0.00000278,0.00012773,0.00016415,-0.00003768,-0.0003339
 9,-0.00010142,-0.00056674,-0.01499245,0.22246224,-0.00000124,0.0000106
 1,0.00004013,-0.00013533,0.00018757,-0.00012426,-0.00086290,-0.0001608
 8,0.00013471,0.00032862,-0.00045128,0.00006688,-0.00004822,0.00010941,
 -0.00012106,-0.00003380,0.00002678,0.00000516,0.00124310,-0.00027985,0
 .00004618,-0.00174610,0.00022909,-0.00353293,0.00311821,-0.01869300,-0
 .00849923,-0.00031136,-0.14753984,-0.18524380,-0.00185875,0.00551276,0
 .00867897,-0.00463528,0.00021849,0.00040403,0.00087273,0.00010450,0.00
 031876,0.00001459,0.00000422,-0.00000296,0.00000579,0.00000051,0.00000
 059,-0.00000872,-0.00001618,0.00000824,-0.00004967,-0.00006904,-0.0000
 1501,0.00000093,0.00002546,0.00002917,0.00006921,0.00004217,-0.0000341
 6,-0.00004215,0.00002006,-0.00004660,-0.00002179,0.00002322,0.00001500
 ,-0.00015818,-0.00020395,-0.00000380,0.00012174,0.00050780,0.00050340,
 0.00247468,0.16027850,0.18776628,0.00000168,-0.00002314,0.00001398,0.0
 0010669,-0.00006725,0.00009000,0.00015648,0.00029536,-0.00001360,-0.00
 007690,0.00007788,0.00012836,-0.00000068,0.00001065,0.00000661,0.00004
 637,-0.00004628,-0.00001528,0.00117528,0.00079577,-0.00061003,0.000557
 23,-0.00044110,0.00021602,0.00519851,0.00442513,-0.00141701,-0.0004290
 1,0.00129262,-0.00982484,-0.10267513,0.05868575,-0.12068072,-0.0003958
 0,0.00124916,0.00117407,-0.00052608,-0.00077561,0.00017783,0.00000492,
 0.00000695,0.00000441,-0.00001107,0.00000112,-0.00000480,0.00000488,-0
 .00000283,-0.00001040,-0.00000153,0.00006104,0.00003605,-0.00000634,0.
 00001038,0.00001076,-0.00001872,-0.00006010,-0.00000486,-0.00001057,0.
 00000425,0.00000649,-0.00000620,-0.00000124,-0.00000249,-0.00033020,-0
 .00043789,-0.00009526,0.00037712,0.00003552,-0.00067915,-0.00327019,-0
 .00151077,0.00166390,0.10012927,-0.00000529,-0.00001806,0.00002460,0.0
 0003712,0.00001121,0.00002785,-0.00023204,0.00006613,0.00008206,0.0000
 1610,-0.00010271,0.00010913,-0.00006135,0.00007089,-0.00003989,0.00006
 683,-0.00004674,-0.00002580,0.00071692,0.00138374,-0.00030143,-0.00039
 623,-0.00271374,-0.00316312,0.00423335,-0.00334777,-0.00041562,0.01048
 416,-0.00051773,0.02188645,0.05968937,-0.09262205,0.08622339,-0.009051
 43,0.00745125,-0.01470051,-0.00022721,0.00089731,0.00136699,0.00000660
 ,0.00001228,-0.00000162,0.00000076,0.00000078,-0.00000383,-0.00000397,
 -0.00000159,-0.00000377,-0.00001185,0.00003014,0.00002290,0.00000251,0
 .00001448,0.00001057,-0.00001168,-0.00003253,-0.00001296,-0.00000857,0
 .00001224,0.00000544,-0.00000364,0.00000498,-0.00000249,-0.00035937,-0
 .00015584,-0.00055140,0.00061007,0.00047172,0.00113248,-0.00190576,0.0
 0014836,0.00011285,-0.06358539,0.08898324,0.00000023,-0.00000722,-0.00
 000289,-0.00003192,0.00007428,-0.00002287,-0.00042940,-0.00020180,0.00
 021472,0.00011012,-0.00014949,0.00001321,-0.00001920,0.00004693,-0.000
 05808,-0.00002368,0.00000695,0.00001441,0.00000722,0.00089886,0.000274
 33,-0.00096493,-0.00176870,-0.00262549,-0.00197592,-0.00149642,0.00073
 598,0.00176557,-0.00372362,0.00399639,-0.12103723,0.08541409,-0.246581
 63,-0.00912806,0.01177367,-0.01145545,0.00087348,0.00003710,0.00122564
 ,-0.00000221,-0.00000370,-0.00000032,0.00000160,0.00000286,-0.00000185
 ,-0.00000148,0.00000144,0.00000150,-0.00001439,-0.00002115,-0.00000899
 ,0.00000557,-0.00000278,0.00000054,-0.00000155,0.00003742,-0.00002904,
 -0.00001280,0.00000509,-0.00000831,-0.00000548,0.00000492,0.00000222,-
 0.00005461,0.00001741,-0.00053073,-0.00009258,-0.00017011,0.00050993,0
 .00120170,0.00100627,-0.00039370,0.12982995,-0.09178230,0.25473048\\-0
 .00000071,0.00000485,-0.00000140,-0.00000607,-0.00000785,-0.00000304,0
 .00000650,0.00000088,-0.00000585,-0.00000561,-0.00000349,0.00000291,0.
 00000196,0.00000030,-0.00000065,-0.00000176,0.,0.00000022,0.00000175,0
 .00000542,0.00000948,0.00000047,-0.00000647,-0.00000134,0.00000185,0.0
 0000440,-0.00000376,-0.00000391,-0.00000518,0.00000487,0.00000104,0.00
 000626,0.00000236,-0.00000159,0.00000212,-0.00000547,0.00000043,-0.000
 00024,0.00000014,0.00000254,0.00000013,-0.00000062,-0.00000008,-0.0000
 0154,-0.00000205,0.00000206,0.00000117,0.00000067,0.00000129,0.0000028
 9,0.00000227,0.00000080,0.00000062,-0.00000041,0.00000015,0.00000035,-
 0.00000137,-0.00000079,-0.00000086,0.00000068,0.00000023,-0.00000093,0
 .00000148,0.00000082,-0.00000196,0.00000023,-0.00000068,0.00000006,0.0
 0000106,-0.00000061,0.00000027,0.00000039,-0.00000009,-0.00000122,-0.0
 0000080\\\@


 SUCCESS-- IF YOU HAVE TRIED TO DO SOMETHING AND FAILED
           YOU ARE BETTER OFF THAN IF YOU HAD TRIED TO DO
           NOTHING AND SUCCEEDED.

                   -- FROM THE BACK OF A SUGAR PACKET
 Job cpu time:       0 days  5 hours 26 minutes 29.1 seconds.
 Elapsed time:       0 days  1 hours 21 minutes 50.9 seconds.
 File lengths (MBytes):  RWF=    435 Int=      0 D2E=      0 Chk=     17 Scr=      1
 Normal termination of Gaussian 16 at Wed May 17 15:03:25 2023.
### All Done ###
