### Starting Gaussian ###
 Entering Gaussian System, Link 0=g16
 Initial command:
 /cluster/software/gaussian/gaussian-16-A.03/avx2/g16/l1.exe "/local/scratch/ks29c/Gau-20590.inp" -scrdir="/local/scratch/ks29c/"
 Entering Link 1 = /cluster/software/gaussian/gaussian-16-A.03/avx2/g16/l1.exe PID=     20591.
  
 Copyright (c) 1988,1990,1992,1993,1995,1998,2003,2009,2016,
            Gaussian, Inc.  All Rights Reserved.
  
 This is part of the Gaussian(R) 16 program.  It is based on
 the Gaussian(R) 09 system (copyright 2009, Gaussian, Inc.),
 the Gaussian(R) 03 system (copyright 2003, Gaussian, Inc.),
 the Gaussian(R) 98 system (copyright 1998, Gaussian, Inc.),
 the Gaussian(R) 94 system (copyright 1995, Gaussian, Inc.),
 the Gaussian 92(TM) system (copyright 1992, Gaussian, Inc.),
 the Gaussian 90(TM) system (copyright 1990, Gaussian, Inc.),
 the Gaussian 88(TM) system (copyright 1988, Gaussian, Inc.),
 the Gaussian 86(TM) system (copyright 1986, Carnegie Mellon
 University), and the Gaussian 82(TM) system (copyright 1983,
 Carnegie Mellon University). Gaussian is a federally registered
 trademark of Gaussian, Inc.
  
 This software contains proprietary and confidential information,
 including trade secrets, belonging to Gaussian, Inc.
  
 This software is provided under written license and may be
 used, copied, transmitted, or stored only in accord with that
 written license.
  
 The following legend is applicable only to US Government
 contracts under FAR:
  
                    RESTRICTED RIGHTS LEGEND
  
 Use, reproduction and disclosure by the US Government is
 subject to restrictions as set forth in subparagraphs (a)
 and (c) of the Commercial Computer Software - Restricted
 Rights clause in FAR 52.227-19.
  
 Gaussian, Inc.
 340 Quinnipiac St., Bldg. 40, Wallingford CT 06492
  
  
 ---------------------------------------------------------------
 Warning -- This program may not be used in any manner that
 competes with the business of Gaussian, Inc. or will provide
 assistance to any competitor of Gaussian, Inc.  The licensee
 of this program is prohibited from giving any competitor of
 Gaussian, Inc. access to this program.  By using this program,
 the user acknowledges that Gaussian, Inc. is engaged in the
 business of creating and licensing software in the field of
 computational chemistry and represents and warrants to the
 licensee that it is not a competitor of Gaussian, Inc. and that
 it will not use this program in any manner prohibited above.
 ---------------------------------------------------------------
  

 Cite this work as:
 Gaussian 16, Revision A.03,
 M. J. Frisch, G. W. Trucks, H. B. Schlegel, G. E. Scuseria, 
 M. A. Robb, J. R. Cheeseman, G. Scalmani, V. Barone, 
 G. A. Petersson, H. Nakatsuji, X. Li, M. Caricato, A. V. Marenich, 
 J. Bloino, B. G. Janesko, R. Gomperts, B. Mennucci, H. P. Hratchian, 
 J. V. Ortiz, A. F. Izmaylov, J. L. Sonnenberg, D. Williams-Young, 
 F. Ding, F. Lipparini, F. Egidi, J. Goings, B. Peng, A. Petrone, 
 T. Henderson, D. Ranasinghe, V. G. Zakrzewski, J. Gao, N. Rega, 
 G. Zheng, W. Liang, M. Hada, M. Ehara, K. Toyota, R. Fukuda, 
 J. Hasegawa, M. Ishida, T. Nakajima, Y. Honda, O. Kitao, H. Nakai, 
 T. Vreven, K. Throssell, J. A. Montgomery, Jr., J. E. Peralta, 
 F. Ogliaro, M. J. Bearpark, J. J. Heyd, E. N. Brothers, K. N. Kudin, 
 V. N. Staroverov, T. A. Keith, R. Kobayashi, J. Normand, 
 K. Raghavachari, A. P. Rendell, J. C. Burant, S. S. Iyengar, 
 J. Tomasi, M. Cossi, J. M. Millam, M. Klene, C. Adamo, R. Cammi, 
 J. W. Ochterski, R. L. Martin, K. Morokuma, O. Farkas, 
 J. B. Foresman, and D. J. Fox, Gaussian, Inc., Wallingford CT, 2016.
 
 ******************************************
 Gaussian 16:  ES64L-G16RevA.03 25-Dec-2016
                16-May-2023 
 ******************************************
 %chk=CCCqOrC1dCCdCNdNNdCC1dN.chk
 %NProcShared=20
 Will use up to   20 processors via shared memory.
 -----------------------------
 # opt freq b3lyp/6-31g(2df,p)
 -----------------------------
 1/18=20,19=15,26=3,38=1/1,3;
 2/9=110,12=2,17=6,18=5,40=1/2;
 3/5=1,6=6,7=104,11=2,25=1,30=1,71=1,74=-5/1,2,3;
 4//1;
 5/5=2,38=5/2;
 6/7=2,8=2,9=2,10=2,28=1/1;
 7//1,2,3,16;
 1/18=20,19=15,26=3/3(2);
 2/9=110/2;
 99//99;
 2/9=110/2;
 3/5=1,6=6,7=104,11=2,25=1,30=1,71=1,74=-5/1,2,3;
 4/5=5,16=3,69=1/1;
 5/5=2,38=5/2;
 7//1,2,3,16;
 1/18=20,19=15,26=3/3(-5);
 2/9=110/2;
 6/7=2,8=2,9=2,10=2,19=2,28=1/1;
 99/9=1/99;
 -------------------
 Title Card Required
 -------------------
 Symbolic Z-matrix:
 Charge =  0 Multiplicity = 1
 C                     1.15822  -0.05682  -0.09915 
 C                     2.75663  -0.06253  -0.04747 
 C                     3.64703  -0.04792  -1.3759 
 O                     2.96679   1.03294  -2.17651 
 C                     5.5072   -0.1219   -1.72374 
 C                     5.4289   -0.0948   -3.03478 
 C                     6.64635  -0.08465  -3.57229 
 C                     7.02738  -0.07938  -4.80824 
 N                     8.29989  -0.07011  -4.76921 
 N                     9.43601  -0.09174  -5.12508 
 N                     10.19066  -0.05904  -3.48388 
 C                     9.24867  -0.0464   -2.20614 
 C                     7.33606  -0.07217  -1.2597 
 N                     7.19062   0.05093   0.04914 
 H                     0.74057  -0.05229   0.92919 
 H                     0.72852  -0.94627  -0.57973 
 H                     0.72442   0.82792  -0.58535 
 H                     3.00252  -0.95939   0.51363 
 H                     2.98954   0.84703   0.50252 
 H                     3.15096  -0.90026  -1.93252 
 H                     2.97604   1.87372  -1.68584 
 H                     4.56377  -0.0694   -3.6471 
 H                     7.51569  -0.11559  -3.02523 
 H                     6.44359  -0.08192  -5.64426 
 H                     9.18866  -0.08339  -3.2634 
 H                     6.15768  -0.05716   0.41814 
 
 Add virtual bond connecting atoms N11        and N10        Dist= 3.41D+00.
 Add virtual bond connecting atoms H25        and N9         Dist= 3.30D+00.
 Add virtual bond connecting atoms H25        and H23        Dist= 3.19D+00.
 Add virtual bond connecting atoms C5         and C13        Dist= 3.57D+00.
 Add virtual bond connecting atoms H23        and C13        Dist= 3.35D+00.
 Add virtual bond connecting atoms C5         and C3         Dist= 3.58D+00.

 GradGradGradGradGradGradGradGradGradGradGradGradGradGradGradGradGradGrad
 Berny optimization.
 Initialization pass.
                           ----------------------------
                           !    Initial Parameters    !
                           ! (Angstroms and Degrees)  !
 --------------------------                            --------------------------
 ! Name  Definition              Value          Derivative Info.                !
 --------------------------------------------------------------------------------
 ! R1    R(1,2)                  1.5993         estimate D2E/DX2                !
 ! R2    R(1,15)                 1.1099         estimate D2E/DX2                !
 ! R3    R(1,16)                 1.0985         estimate D2E/DX2                !
 ! R4    R(1,17)                 1.0988         estimate D2E/DX2                !
 ! R5    R(2,3)                  1.5993         estimate D2E/DX2                !
 ! R6    R(2,18)                 1.0861         estimate D2E/DX2                !
 ! R7    R(2,19)                 1.0881         estimate D2E/DX2                !
 ! R8    R(3,4)                  1.5073         estimate D2E/DX2                !
 ! R9    R(3,5)                  1.8939         estimate D2E/DX2                !
 ! R10   R(3,20)                 1.1324         estimate D2E/DX2                !
 ! R11   R(4,21)                 0.9735         estimate D2E/DX2                !
 ! R12   R(5,6)                  1.3137         estimate D2E/DX2                !
 ! R13   R(5,13)                 1.8875         estimate D2E/DX2                !
 ! R14   R(6,7)                  1.3309         estimate D2E/DX2                !
 ! R15   R(6,22)                 1.0602         estimate D2E/DX2                !
 ! R16   R(7,8)                  1.2934         estimate D2E/DX2                !
 ! R17   R(7,23)                 1.0276         estimate D2E/DX2                !
 ! R18   R(8,9)                  1.2731         estimate D2E/DX2                !
 ! R19   R(8,24)                 1.0197         estimate D2E/DX2                !
 ! R20   R(9,10)                 1.1907         estimate D2E/DX2                !
 ! R21   R(9,25)                 1.7486         estimate D2E/DX2                !
 ! R22   R(10,11)                1.8067         estimate D2E/DX2                !
 ! R23   R(11,12)                1.5875         estimate D2E/DX2                !
 ! R24   R(11,25)                1.0263         estimate D2E/DX2                !
 ! R25   R(12,25)                1.0596         estimate D2E/DX2                !
 ! R26   R(13,14)                1.3226         estimate D2E/DX2                !
 ! R27   R(13,23)                1.7752         estimate D2E/DX2                !
 ! R28   R(14,26)                1.1022         estimate D2E/DX2                !
 ! R29   R(23,25)                1.6901         estimate D2E/DX2                !
 ! A1    A(2,1,15)             110.2528         estimate D2E/DX2                !
 ! A2    A(2,1,16)             113.7162         estimate D2E/DX2                !
 ! A3    A(2,1,17)             114.3157         estimate D2E/DX2                !
 ! A4    A(15,1,16)            105.1556         estimate D2E/DX2                !
 ! A5    A(15,1,17)            104.9584         estimate D2E/DX2                !
 ! A6    A(16,1,17)            107.6947         estimate D2E/DX2                !
 ! A7    A(1,2,3)              121.9768         estimate D2E/DX2                !
 ! A8    A(1,2,18)             104.236          estimate D2E/DX2                !
 ! A9    A(1,2,19)             103.1371         estimate D2E/DX2                !
 ! A10   A(3,2,18)             108.0962         estimate D2E/DX2                !
 ! A11   A(3,2,19)             107.0397         estimate D2E/DX2                !
 ! A12   A(18,2,19)            112.3745         estimate D2E/DX2                !
 ! A13   A(2,3,4)              101.3317         estimate D2E/DX2                !
 ! A14   A(2,3,5)              134.3504         estimate D2E/DX2                !
 ! A15   A(2,3,20)              99.0628         estimate D2E/DX2                !
 ! A16   A(4,3,5)              111.9455         estimate D2E/DX2                !
 ! A17   A(4,3,20)              94.6433         estimate D2E/DX2                !
 ! A18   A(5,3,20)             108.0946         estimate D2E/DX2                !
 ! A19   A(3,4,21)             110.3227         estimate D2E/DX2                !
 ! A20   A(3,5,6)               97.1202         estimate D2E/DX2                !
 ! A21   A(3,5,13)             154.8946         estimate D2E/DX2                !
 ! A22   A(6,5,13)             107.6123         estimate D2E/DX2                !
 ! A23   A(5,6,7)              110.4083         estimate D2E/DX2                !
 ! A24   A(5,6,22)             128.7212         estimate D2E/DX2                !
 ! A25   A(7,6,22)             120.8653         estimate D2E/DX2                !
 ! A26   A(6,7,8)              130.9562         estimate D2E/DX2                !
 ! A27   A(6,7,23)             123.9623         estimate D2E/DX2                !
 ! A28   A(8,7,23)             105.0477         estimate D2E/DX2                !
 ! A29   A(7,8,9)              105.3784         estimate D2E/DX2                !
 ! A30   A(7,8,24)             127.9383         estimate D2E/DX2                !
 ! A31   A(9,8,24)             126.6833         estimate D2E/DX2                !
 ! A32   A(8,9,10)             160.7963         estimate D2E/DX2                !
 ! A33   A(8,9,25)             122.3013         estimate D2E/DX2                !
 ! A34   A(10,9,25)             76.8365         estimate D2E/DX2                !
 ! A35   A(9,10,11)             97.2801         estimate D2E/DX2                !
 ! A36   A(10,11,12)           118.9107         estimate D2E/DX2                !
 ! A37   A(10,11,25)            77.6962         estimate D2E/DX2                !
 ! A38   A(5,13,14)             98.0012         estimate D2E/DX2                !
 ! A39   A(5,13,23)             81.5403         estimate D2E/DX2                !
 ! A40   A(13,14,26)           115.1648         estimate D2E/DX2                !
 ! A41   A(7,23,13)            116.3036         estimate D2E/DX2                !
 ! A42   A(7,23,25)            139.6225         estimate D2E/DX2                !
 ! A43   A(13,23,25)           103.8775         estimate D2E/DX2                !
 ! A44   A(9,25,11)            108.124          estimate D2E/DX2                !
 ! A45   A(9,25,12)            152.5946         estimate D2E/DX2                !
 ! A46   A(9,25,23)             67.5661         estimate D2E/DX2                !
 ! A47   A(12,25,23)            85.1883         estimate D2E/DX2                !
 ! A48   L(14,13,23,5,-1)      179.5415         estimate D2E/DX2                !
 ! A49   L(11,25,23,9,-1)      175.69           estimate D2E/DX2                !
 ! A50   L(14,13,23,5,-2)      176.0111         estimate D2E/DX2                !
 ! A51   L(11,25,23,9,-2)      180.2123         estimate D2E/DX2                !
 ! D1    D(15,1,2,3)          -179.0814         estimate D2E/DX2                !
 ! D2    D(15,1,2,18)           58.4953         estimate D2E/DX2                !
 ! D3    D(15,1,2,19)          -59.0522         estimate D2E/DX2                !
 ! D4    D(16,1,2,3)            63.1134         estimate D2E/DX2                !
 ! D5    D(16,1,2,18)          -59.3099         estimate D2E/DX2                !
 ! D6    D(16,1,2,19)         -176.8574         estimate D2E/DX2                !
 ! D7    D(17,1,2,3)           -61.136          estimate D2E/DX2                !
 ! D8    D(17,1,2,18)          176.4407         estimate D2E/DX2                !
 ! D9    D(17,1,2,19)           58.8932         estimate D2E/DX2                !
 ! D10   D(1,2,3,4)             46.2798         estimate D2E/DX2                !
 ! D11   D(1,2,3,5)           -176.9237         estimate D2E/DX2                !
 ! D12   D(1,2,3,20)           -50.3567         estimate D2E/DX2                !
 ! D13   D(18,2,3,4)           166.8771         estimate D2E/DX2                !
 ! D14   D(18,2,3,5)           -56.3264         estimate D2E/DX2                !
 ! D15   D(18,2,3,20)           70.2406         estimate D2E/DX2                !
 ! D16   D(19,2,3,4)           -71.8572         estimate D2E/DX2                !
 ! D17   D(19,2,3,5)            64.9393         estimate D2E/DX2                !
 ! D18   D(19,2,3,20)         -168.4937         estimate D2E/DX2                !
 ! D19   D(2,3,4,21)            58.9891         estimate D2E/DX2                !
 ! D20   D(5,3,4,21)           -89.1553         estimate D2E/DX2                !
 ! D21   D(20,3,4,21)          159.2106         estimate D2E/DX2                !
 ! D22   D(2,3,5,6)            178.5486         estimate D2E/DX2                !
 ! D23   D(2,3,5,13)           -11.2943         estimate D2E/DX2                !
 ! D24   D(4,3,5,6)            -47.8109         estimate D2E/DX2                !
 ! D25   D(4,3,5,13)           122.3462         estimate D2E/DX2                !
 ! D26   D(20,3,5,6)            55.102          estimate D2E/DX2                !
 ! D27   D(20,3,5,13)         -134.7409         estimate D2E/DX2                !
 ! D28   D(3,5,6,7)            177.5691         estimate D2E/DX2                !
 ! D29   D(3,5,6,22)            -1.5925         estimate D2E/DX2                !
 ! D30   D(13,5,6,7)             1.9334         estimate D2E/DX2                !
 ! D31   D(13,5,6,22)         -177.2282         estimate D2E/DX2                !
 ! D32   D(3,5,13,14)            3.3497         estimate D2E/DX2                !
 ! D33   D(3,5,13,23)         -172.6614         estimate D2E/DX2                !
 ! D34   D(6,5,13,14)          173.0981         estimate D2E/DX2                !
 ! D35   D(6,5,13,23)           -2.913          estimate D2E/DX2                !
 ! D36   D(5,6,7,8)            178.8312         estimate D2E/DX2                !
 ! D37   D(5,6,7,23)             1.2763         estimate D2E/DX2                !
 ! D38   D(22,6,7,8)            -1.9308         estimate D2E/DX2                !
 ! D39   D(22,6,7,23)         -179.4857         estimate D2E/DX2                !
 ! D40   D(6,7,8,9)           -179.9925         estimate D2E/DX2                !
 ! D41   D(6,7,8,24)             0.013          estimate D2E/DX2                !
 ! D42   D(23,7,8,9)            -2.0923         estimate D2E/DX2                !
 ! D43   D(23,7,8,24)          177.9132         estimate D2E/DX2                !
 ! D44   D(6,7,23,13)           -4.1076         estimate D2E/DX2                !
 ! D45   D(6,7,23,25)         -177.9719         estimate D2E/DX2                !
 ! D46   D(8,7,23,13)          177.8043         estimate D2E/DX2                !
 ! D47   D(8,7,23,25)            3.94           estimate D2E/DX2                !
 ! D48   D(7,8,9,10)           175.5064         estimate D2E/DX2                !
 ! D49   D(7,8,9,25)             0.6512         estimate D2E/DX2                !
 ! D50   D(24,8,9,10)           -4.499          estimate D2E/DX2                !
 ! D51   D(24,8,9,25)         -179.3542         estimate D2E/DX2                !
 ! D52   D(8,9,10,11)         -176.9177         estimate D2E/DX2                !
 ! D53   D(25,9,10,11)          -1.3822         estimate D2E/DX2                !
 ! D54   D(8,9,25,11)         -179.1956         estimate D2E/DX2                !
 ! D55   D(8,9,25,12)           -5.9607         estimate D2E/DX2                !
 ! D56   D(8,9,25,23)            0.5921         estimate D2E/DX2                !
 ! D57   D(10,9,25,11)           2.5403         estimate D2E/DX2                !
 ! D58   D(10,9,25,12)         175.7752         estimate D2E/DX2                !
 ! D59   D(10,9,25,23)        -177.6721         estimate D2E/DX2                !
 ! D60   D(9,10,11,12)           1.2336         estimate D2E/DX2                !
 ! D61   D(9,10,11,25)           2.3475         estimate D2E/DX2                !
 ! D62   D(10,11,25,9)          -1.6683         estimate D2E/DX2                !
 ! D63   D(5,13,14,26)           8.0076         estimate D2E/DX2                !
 ! D64   D(26,14,23,7)          11.1213         estimate D2E/DX2                !
 ! D65   D(26,14,23,25)       -174.207          estimate D2E/DX2                !
 ! D66   D(5,13,23,7)            3.9371         estimate D2E/DX2                !
 ! D67   D(5,13,23,25)         179.847          estimate D2E/DX2                !
 ! D68   D(7,23,25,9)           -3.0287         estimate D2E/DX2                !
 ! D69   D(7,23,25,12)         173.9496         estimate D2E/DX2                !
 ! D70   D(13,23,25,9)        -177.3645         estimate D2E/DX2                !
 ! D71   D(13,23,25,12)         -0.3861         estimate D2E/DX2                !
 --------------------------------------------------------------------------------
 Trust Radius=3.00D-01 FncErr=1.00D-07 GrdErr=1.00D-06 EigMax=2.50D+02 EigMin=1.00D-04
 Number of steps in this run=    156 maximum allowed number of steps=    156.
 GradGradGradGradGradGradGradGradGradGradGradGradGradGradGradGradGradGrad

                          Input orientation:                          
 ---------------------------------------------------------------------
 Center     Atomic      Atomic             Coordinates (Angstroms)
 Number     Number       Type             X           Y           Z
 ---------------------------------------------------------------------
      1          6           0        1.158220   -0.056820   -0.099150
      2          6           0        2.756630   -0.062530   -0.047470
      3          6           0        3.647030   -0.047920   -1.375900
      4          8           0        2.966790    1.032940   -2.176510
      5          6           0        5.507200   -0.121900   -1.723740
      6          6           0        5.428900   -0.094800   -3.034780
      7          6           0        6.646350   -0.084650   -3.572290
      8          6           0        7.027380   -0.079380   -4.808240
      9          7           0        8.299890   -0.070110   -4.769210
     10          7           0        9.436010   -0.091740   -5.125080
     11          7           0       10.190660   -0.059040   -3.483880
     12          6           0        9.248670   -0.046400   -2.206140
     13          6           0        7.336060   -0.072170   -1.259700
     14          7           0        7.190620    0.050930    0.049140
     15          1           0        0.740570   -0.052290    0.929190
     16          1           0        0.728520   -0.946270   -0.579730
     17          1           0        0.724420    0.827920   -0.585350
     18          1           0        3.002520   -0.959390    0.513630
     19          1           0        2.989540    0.847030    0.502520
     20          1           0        3.150960   -0.900260   -1.932520
     21          1           0        2.976040    1.873720   -1.685840
     22          1           0        4.563770   -0.069400   -3.647100
     23          1           0        7.515690   -0.115590   -3.025230
     24          1           0        6.443590   -0.081920   -5.644260
     25          1           0        9.188660   -0.083390   -3.263400
     26          1           0        6.157680   -0.057160    0.418140
 ---------------------------------------------------------------------
                    Distance matrix (angstroms):
                    1          2          3          4          5
     1  C    0.000000
     2  C    1.599255   0.000000
     3  C    2.797203   1.599297   0.000000
     4  O    2.962082   2.403546   1.507303   0.000000
     5  C    4.642968   3.221652   1.893858   2.827073   0.000000
     6  C    5.182478   4.008253   2.434983   2.840847   1.313656
     7  C    6.494848   5.249263   3.717714   4.091011   2.171678
     8  C    7.524831   6.395664   4.817542   4.965043   3.439025
     9  N    8.533059   7.281663   5.758832   6.031647   4.132395
    10  N    9.684162   8.390298   6.897141   7.197901   5.196689
    11  N    9.645796   8.189855   6.874794   7.421990   5.003683
    12  C    8.360317   6.841542   5.662832   6.373999   3.773196
    13  C    6.285922   4.737169   3.690939   4.599166   1.887468
    14  N    6.035184   4.436493   3.820673   4.874280   2.450893
    15  H    1.109926   2.240194   3.709578   3.972298   5.455607
    16  H    1.098508   2.275418   3.155728   3.387747   4.982382
    17  H    1.098789   2.283001   3.151780   2.757181   5.007302
    18  H    2.142796   1.086118   2.194651   3.347762   3.461306
    19  H    2.129010   1.088134   2.182130   2.685569   3.497666
    20  H    2.836133   2.100167   1.132429   1.957220   2.490241
    21  H    3.090152   2.545871   2.058881   0.973526   3.223462
    22  H    4.917914   4.027796   2.449331   2.434776   2.142926
    23  H    6.998773   5.614136   4.206114   4.767802   2.393313
    24  H    7.660549   6.702097   5.103019   5.035508   4.030993
    25  H    8.631405   7.191220   5.854364   6.413984   3.990637
    26  H    5.026151   3.432778   3.085778   4.254680   2.239412
                    6          7          8          9         10
     6  C    0.000000
     7  C    1.330866   0.000000
     8  C    2.387580   1.293362   0.000000
     9  N    3.354317   2.041329   1.273142   0.000000
    10  N    4.519546   3.192712   2.429411   1.190748   0.000000
    11  N    4.783025   3.545505   3.429385   2.286309   1.806683
    12  C    3.908917   2.939370   3.421424   2.733144   2.925297
    13  C    2.605510   2.413282   3.561948   3.639455   4.399015
    14  N    3.554639   3.664610   4.861869   4.945870   5.642223
    15  H    6.139650   7.425807   8.511335   9.466541  10.595585
    16  H    5.370833   6.687190   7.635930   8.697416   9.859554
    17  H    5.383610   6.695062   7.640896   8.700511   9.866444
    18  H    4.384752   5.544133   6.730246   7.534013   8.598701
    19  H    4.398865   5.553770   6.735470   7.538707   8.608609
    20  H    2.655702   3.946114   4.895941   5.936955   7.095632
    21  H    3.422168   4.567831   5.475156   6.452056   7.577771
    22  H    1.060203   2.083979   2.723549   3.900990   5.091527
    23  H    2.086915   1.027611   1.849022   1.912722   2.845623
    24  H    2.799848   2.081869   1.019680   2.052243   3.037140
    25  H    3.766722   2.561007   2.656629   1.748586   1.878059
    26  H    3.529192   4.020334   5.298294   5.612293   6.440181
                   11         12         13         14         15
    11  N    0.000000
    12  C    1.587490   0.000000
    13  C    3.618824   2.134125   0.000000
    14  N    4.636223   3.054723   1.322637   0.000000
    15  H   10.429738   9.067419   6.949253   6.510629   0.000000
    16  H    9.937472   8.720547   6.699701   6.568761   1.753906
    17  H    9.939712   8.720908   6.706616   6.543549   1.751817
    18  H    8.274060   6.873506   4.765651   4.333207   2.472233
    19  H    8.280608   6.878355   4.779392   4.299814   2.459408
    20  H    7.257530   6.163279   4.318968   4.598977   3.836459
    21  H    7.682399   6.580536   4.793522   4.908707   3.942743
    22  H    5.629266   4.901549   3.658590   4.536189   5.963185
    23  H    2.714594   1.918050   1.775176   3.095989   7.844979
    24  H    4.325309   4.437387   4.474479   5.743736   8.702618
    25  H    1.026259   1.059608   2.728931   3.870804   9.431278
    26  H    5.611657   4.054773   2.050354   1.102184   5.441165
                   16         17         18         19         20
    16  H    0.000000
    17  H    1.774204   0.000000
    18  H    2.523229   3.097091   0.000000
    19  H    3.082110   2.512886   1.806501   0.000000
    20  H    2.774955   3.269491   2.451363   3.001416   0.000000
    21  H    3.771892   2.715616   3.586765   2.417270   2.790414
    22  H    4.988667   4.992004   4.532246   4.531820   2.371950
    23  H    7.261968   7.277676   5.796916   5.818736   4.567340
    24  H    7.684959   7.689557   7.108483   7.111703   5.028728
    25  H    8.917433   8.924449   7.300799   7.312792   6.236372
    26  H    5.591247   5.595594   3.283013   3.295723   3.908553
                   21         22         23         24         25
    21  H    0.000000
    22  H    3.184830   0.000000
    23  H    5.134174   3.017066   0.000000
    24  H    5.614047   2.742723   2.830168   0.000000
    25  H    6.701912   4.640800   1.690145   3.633718   0.000000
    26  H    4.275262   4.366563   3.701946   6.069189   4.768780
                   26
    26  H    0.000000
 Stoichiometry    C9H12N4O
 Framework group  C1[X(C9H12N4O)]
 Deg. of freedom    72
 Full point group                 C1      NOp   1
 Largest Abelian subgroup         C1      NOp   1
 Largest concise Abelian subgroup C1      NOp   1
                         Standard orientation:                         
 ---------------------------------------------------------------------
 Center     Atomic      Atomic             Coordinates (Angstroms)
 Number     Number       Type             X           Y           Z
 ---------------------------------------------------------------------
      1          6           0        5.305658   -0.185321   -0.268107
      2          6           0        3.904895    0.581872   -0.185060
      3          6           0        2.510153   -0.200605   -0.171869
      4          8           0        2.787414   -1.283096    0.839714
      5          6           0        0.693006    0.332757   -0.157688
      6          6           0        0.169538   -0.871809   -0.183992
      7          6           0       -1.158316   -0.802101   -0.127872
      8          6           0       -2.057657   -1.731379   -0.148201
      9          7           0       -3.173340   -1.123292   -0.068381
     10          7           0       -4.347431   -0.926641   -0.041587
     11          7           0       -4.275024    0.873531    0.093481
     12          6           0       -2.856432    1.586015    0.102781
     13          6           0       -0.724461    1.567933    0.008634
     14          7           0        0.002066    2.660933    0.172577
     15          1           0        6.143856    0.541965   -0.247762
     16          1           0        5.442700   -0.755573   -1.196951
     17          1           0        5.499665   -0.865276    0.572941
     18          1           0        3.911853    1.244498   -1.045602
     19          1           0        3.975256    1.124032    0.755762
     20          1           0        2.673035   -0.870664   -1.070136
     21          1           0        3.027985   -0.890646    1.697539
     22          1           0        0.663606   -1.808794   -0.228560
     23          1           0       -1.685881    0.078979   -0.091047
     24          1           0       -1.916476   -2.739109   -0.213746
     25          1           0       -3.283216    0.619443    0.023022
     26          1           0        1.086102    2.530027    0.022442
 ---------------------------------------------------------------------
 Rotational constants (GHZ):           1.5275378           0.2898039           0.2489895
 Standard basis: 6-31G(2df,p) (6D, 7F)
 There are   494 symmetry adapted cartesian basis functions of A   symmetry.
 There are   452 symmetry adapted basis functions of A   symmetry.
   452 basis functions,   700 primitive gaussians,   494 cartesian basis functions
    51 alpha electrons       51 beta electrons
       nuclear repulsion energy       801.6951847403 Hartrees.
 NAtoms=   26 NActive=   26 NUniq=   26 SFac= 1.00D+00 NAtFMM=   60 NAOKFM=F Big=F
 Integral buffers will be    131072 words long.
 Raffenetti 2 integral format.
 Two-electron integral symmetry is turned on.
 One-electron integrals computed using PRISM.
 PrsmSu:  requested number of processors reduced to:  12 ShMem   1 Linda.
 NBasis=   452 RedAO= T EigKep=  1.67D-04  NBF=   452
 NBsUse=   452 1.00D-06 EigRej= -1.00D+00 NBFU=   452
 ExpMin= 1.61D-01 ExpMax= 5.48D+03 ExpMxC= 8.25D+02 IAcc=3 IRadAn=         5 AccDes= 0.00D+00
 Harris functional with IExCor=  402 and IRadAn=       5 diagonalized for initial guess.
 HarFok:  IExCor=  402 AccDes= 0.00D+00 IRadAn=         5 IDoV= 1 UseB2=F ITyADJ=14
 ICtDFT=  3500011 ScaDFX=  1.000000  1.000000  1.000000  1.000000
 FoFCou: FMM=F IPFlag=           0 FMFlag=      100000 FMFlg1=           0
         NFxFlg=           0 DoJE=T BraDBF=F KetDBF=T FulRan=T
         wScrn=  0.000000 ICntrl=       500 IOpCl=  0 I1Cent=   200000004 NGrid=           0
         NMat0=    1 NMatS0=      1 NMatT0=    0 NMatD0=    1 NMtDS0=    0 NMtDT0=    0
 Petite list used in FoFCou.
 Requested convergence on RMS density matrix=1.00D-08 within 128 cycles.
 Requested convergence on MAX density matrix=1.00D-06.
 Requested convergence on             energy=1.00D-06.
 No special actions if energy rises.
 Integral accuracy reduced to 1.0D-05 until final iterations.
 EnCoef did     6 forward-backward iterations
 EnCoef did   100 forward-backward iterations
 EnCoef did     5 forward-backward iterations
 EnCoef did     6 forward-backward iterations
 EnCoef did     4 forward-backward iterations
 Initial convergence to 1.0D-05 achieved.  Increase integral accuracy.
 SCF Done:  E(RB3LYP) =  -643.631116175     A.U. after   24 cycles
            NFock= 24  Conv=0.86D-08     -V/T= 2.0061

 **********************************************************************

            Population analysis using the SCF density.

 **********************************************************************

 Orbital symmetries:
       Occupied  (A) (A) (A) (A) (A) (A) (A) (A) (A) (A) (A) (A)
                 (A) (A) (A) (A) (A) (A) (A) (A) (A) (A) (A) (A)
                 (A) (A) (A) (A) (A) (A) (A) (A) (A) (A) (A) (A)
                 (A) (A) (A) (A) (A) (A) (A) (A) (A) (A) (A) (A)
                 (A) (A) (A)
       Virtual   (A) (A) (A) (A) (A) (A) (A) (A) (A) (A) (A) (A)
                 (A) (A) (A) (A) (A) (A) (A) (A) (A) (A) (A) (A)
                 (A) (A) (A) (A) (A) (A) (A) (A) (A) (A) (A) (A)
                 (A) (A) (A) (A) (A) (A) (A) (A) (A) (A) (A) (A)
                 (A) (A) (A) (A) (A) (A) (A) (A) (A) (A) (A) (A)
                 (A) (A) (A) (A) (A) (A) (A) (A) (A) (A) (A) (A)
                 (A) (A) (A) (A) (A) (A) (A) (A) (A) (A) (A) (A)
                 (A) (A) (A) (A) (A) (A) (A) (A) (A) (A) (A) (A)
                 (A) (A) (A) (A) (A) (A) (A) (A) (A) (A) (A) (A)
                 (A) (A) (A) (A) (A) (A) (A) (A) (A) (A) (A) (A)
                 (A) (A) (A) (A) (A) (A) (A) (A) (A) (A) (A) (A)
                 (A) (A) (A) (A) (A) (A) (A) (A) (A) (A) (A) (A)
                 (A) (A) (A) (A) (A) (A) (A) (A) (A) (A) (A) (A)
                 (A) (A) (A) (A) (A) (A) (A) (A) (A) (A) (A) (A)
                 (A) (A) (A) (A) (A) (A) (A) (A) (A) (A) (A) (A)
                 (A) (A) (A) (A) (A) (A) (A) (A) (A) (A) (A) (A)
                 (A) (A) (A) (A) (A) (A) (A) (A) (A) (A) (A) (A)
                 (A) (A) (A) (A) (A) (A) (A) (A) (A) (A) (A) (A)
                 (A) (A) (A) (A) (A) (A) (A) (A) (A) (A) (A) (A)
                 (A) (A) (A) (A) (A) (A) (A) (A) (A) (A) (A) (A)
                 (A) (A) (A) (A) (A) (A) (A) (A) (A) (A) (A) (A)
                 (A) (A) (A) (A) (A) (A) (A) (A) (A) (A) (A) (A)
                 (A) (A) (A) (A) (A) (A) (A) (A) (A) (A) (A) (A)
                 (A) (A) (A) (A) (A) (A) (A) (A) (A) (A) (A) (A)
                 (A) (A) (A) (A) (A) (A) (A) (A) (A) (A) (A) (A)
                 (A) (A) (A) (A) (A) (A) (A) (A) (A) (A) (A) (A)
                 (A) (A) (A) (A) (A) (A) (A) (A) (A) (A) (A) (A)
                 (A) (A) (A) (A) (A) (A) (A) (A) (A) (A) (A) (A)
                 (A) (A) (A) (A) (A) (A) (A) (A) (A) (A) (A) (A)
                 (A) (A) (A) (A) (A) (A) (A) (A) (A) (A) (A) (A)
                 (A) (A) (A) (A) (A) (A) (A) (A) (A) (A) (A) (A)
                 (A) (A) (A) (A) (A) (A) (A) (A) (A) (A) (A) (A)
                 (A) (A) (A) (A) (A) (A) (A) (A) (A) (A) (A) (A)
                 (A) (A) (A) (A) (A)
 The electronic state is 1-A.
 Alpha  occ. eigenvalues --  -19.16183 -14.44153 -14.41157 -14.40476 -14.33762
 Alpha  occ. eigenvalues --  -10.29933 -10.28606 -10.26758 -10.24750 -10.23635
 Alpha  occ. eigenvalues --  -10.21105 -10.19705 -10.19380 -10.18734  -1.10387
 Alpha  occ. eigenvalues --   -1.01529  -0.95347  -0.91463  -0.87653  -0.83209
 Alpha  occ. eigenvalues --   -0.77308  -0.70368  -0.67028  -0.64100  -0.60593
 Alpha  occ. eigenvalues --   -0.58749  -0.56762  -0.53365  -0.52093  -0.48689
 Alpha  occ. eigenvalues --   -0.47610  -0.47332  -0.46810  -0.45717  -0.42485
 Alpha  occ. eigenvalues --   -0.41947  -0.41413  -0.40765  -0.37945  -0.37834
 Alpha  occ. eigenvalues --   -0.37394  -0.35840  -0.35446  -0.33085  -0.31652
 Alpha  occ. eigenvalues --   -0.30385  -0.29122  -0.28867  -0.26224  -0.24635
 Alpha  occ. eigenvalues --   -0.18735
 Alpha virt. eigenvalues --   -0.13382  -0.10363  -0.08419  -0.03457  -0.01502
 Alpha virt. eigenvalues --   -0.01303   0.02026   0.05486   0.06218   0.08136
 Alpha virt. eigenvalues --    0.10261   0.11538   0.13029   0.14001   0.14215
 Alpha virt. eigenvalues --    0.15224   0.15614   0.16741   0.17509   0.18486
 Alpha virt. eigenvalues --    0.19121   0.21434   0.22792   0.23474   0.25263
 Alpha virt. eigenvalues --    0.31334   0.32411   0.33978   0.35555   0.39625
 Alpha virt. eigenvalues --    0.42011   0.42473   0.43654   0.44767   0.45734
 Alpha virt. eigenvalues --    0.46294   0.47178   0.47756   0.49142   0.49868
 Alpha virt. eigenvalues --    0.50404   0.51842   0.52454   0.52800   0.53684
 Alpha virt. eigenvalues --    0.54052   0.54741   0.56079   0.57050   0.57819
 Alpha virt. eigenvalues --    0.58703   0.59900   0.61039   0.62894   0.63535
 Alpha virt. eigenvalues --    0.63908   0.65078   0.66690   0.67528   0.67701
 Alpha virt. eigenvalues --    0.69552   0.69782   0.71508   0.71993   0.72365
 Alpha virt. eigenvalues --    0.73354   0.73735   0.74401   0.74656   0.75210
 Alpha virt. eigenvalues --    0.76563   0.76875   0.77585   0.77960   0.78878
 Alpha virt. eigenvalues --    0.79590   0.81999   0.82916   0.83181   0.84217
 Alpha virt. eigenvalues --    0.84830   0.85386   0.85582   0.86452   0.87575
 Alpha virt. eigenvalues --    0.88375   0.90849   0.91631   0.93224   0.93635
 Alpha virt. eigenvalues --    0.94807   0.95647   0.96853   0.97587   0.98641
 Alpha virt. eigenvalues --    0.99934   1.01462   1.02158   1.04071   1.05158
 Alpha virt. eigenvalues --    1.05348   1.06141   1.07678   1.09870   1.13066
 Alpha virt. eigenvalues --    1.13890   1.14682   1.15988   1.17080   1.18255
 Alpha virt. eigenvalues --    1.19751   1.21159   1.23285   1.24491   1.25240
 Alpha virt. eigenvalues --    1.27452   1.29187   1.30643   1.31304   1.32902
 Alpha virt. eigenvalues --    1.34080   1.35610   1.37379   1.38005   1.38354
 Alpha virt. eigenvalues --    1.41054   1.42250   1.42630   1.43817   1.45686
 Alpha virt. eigenvalues --    1.47512   1.48030   1.48448   1.49919   1.50663
 Alpha virt. eigenvalues --    1.52310   1.53599   1.54092   1.56936   1.59060
 Alpha virt. eigenvalues --    1.60498   1.62162   1.62772   1.65969   1.68334
 Alpha virt. eigenvalues --    1.70456   1.71686   1.73174   1.74382   1.76127
 Alpha virt. eigenvalues --    1.77498   1.77921   1.79725   1.81049   1.84837
 Alpha virt. eigenvalues --    1.86318   1.89981   1.91377   1.93685   1.94730
 Alpha virt. eigenvalues --    1.96856   1.98107   2.00477   2.03489   2.05720
 Alpha virt. eigenvalues --    2.08287   2.11567   2.14288   2.19019   2.21101
 Alpha virt. eigenvalues --    2.23125   2.25525   2.27399   2.27895   2.31703
 Alpha virt. eigenvalues --    2.33956   2.34540   2.36969   2.39501   2.40160
 Alpha virt. eigenvalues --    2.40509   2.43893   2.45636   2.50198   2.52492
 Alpha virt. eigenvalues --    2.56836   2.57887   2.58376   2.58678   2.62252
 Alpha virt. eigenvalues --    2.67558   2.68402   2.70153   2.71338   2.73730
 Alpha virt. eigenvalues --    2.74012   2.75932   2.77243   2.78814   2.80232
 Alpha virt. eigenvalues --    2.80735   2.82313   2.83462   2.83899   2.85714
 Alpha virt. eigenvalues --    2.85796   2.88247   2.89698   2.91666   2.92249
 Alpha virt. eigenvalues --    2.94687   2.96996   2.98098   2.98500   2.98736
 Alpha virt. eigenvalues --    3.00429   3.02503   3.03562   3.05082   3.05823
 Alpha virt. eigenvalues --    3.06055   3.09658   3.10683   3.11538   3.14648
 Alpha virt. eigenvalues --    3.17316   3.18957   3.20005   3.20683   3.22225
 Alpha virt. eigenvalues --    3.23112   3.24329   3.25600   3.26743   3.29202
 Alpha virt. eigenvalues --    3.31460   3.32525   3.34435   3.35585   3.36416
 Alpha virt. eigenvalues --    3.38298   3.39350   3.40039   3.42261   3.43130
 Alpha virt. eigenvalues --    3.44543   3.46276   3.47521   3.51183   3.51811
 Alpha virt. eigenvalues --    3.53071   3.54698   3.55098   3.57264   3.58708
 Alpha virt. eigenvalues --    3.59758   3.60583   3.61954   3.62362   3.63345
 Alpha virt. eigenvalues --    3.65382   3.68530   3.69782   3.71949   3.75027
 Alpha virt. eigenvalues --    3.79044   3.80274   3.80572   3.83308   3.86249
 Alpha virt. eigenvalues --    3.86735   3.88721   3.90989   3.91546   3.93785
 Alpha virt. eigenvalues --    3.95967   3.97286   3.99341   4.00556   4.02406
 Alpha virt. eigenvalues --    4.03688   4.05205   4.06936   4.09306   4.11019
 Alpha virt. eigenvalues --    4.12690   4.14804   4.16080   4.16330   4.18332
 Alpha virt. eigenvalues --    4.18994   4.20658   4.21848   4.22991   4.24212
 Alpha virt. eigenvalues --    4.24890   4.25266   4.26759   4.28744   4.30365
 Alpha virt. eigenvalues --    4.31033   4.31993   4.33506   4.34181   4.36960
 Alpha virt. eigenvalues --    4.37637   4.39003   4.39816   4.40233   4.41065
 Alpha virt. eigenvalues --    4.43087   4.44184   4.44673   4.45273   4.45470
 Alpha virt. eigenvalues --    4.47181   4.51784   4.52660   4.52890   4.56073
 Alpha virt. eigenvalues --    4.56877   4.57429   4.58810   4.60432   4.60862
 Alpha virt. eigenvalues --    4.62065   4.64524   4.64671   4.68247   4.68460
 Alpha virt. eigenvalues --    4.69721   4.71131   4.73097   4.73428   4.74078
 Alpha virt. eigenvalues --    4.75986   4.76910   4.77183   4.78265   4.80147
 Alpha virt. eigenvalues --    4.82094   4.84575   4.86568   4.88906   4.90779
 Alpha virt. eigenvalues --    4.91710   4.92413   4.93598   4.95113   5.00151
 Alpha virt. eigenvalues --    5.04072   5.05983   5.07372   5.10787   5.12391
 Alpha virt. eigenvalues --    5.15894   5.16705   5.20124   5.25191   5.27364
 Alpha virt. eigenvalues --    5.28435   5.29553   5.31624   5.35239   5.38876
 Alpha virt. eigenvalues --    5.39350   5.43852   5.47354   5.50544   5.55386
 Alpha virt. eigenvalues --    5.56347   5.61692   5.66035   5.75218   5.83241
 Alpha virt. eigenvalues --    5.84654   5.90799   5.96954   5.98161   6.04591
 Alpha virt. eigenvalues --    6.10639   6.88581   6.99395   8.02522   9.62741
 Alpha virt. eigenvalues --    9.99079  10.40417  10.66283  10.82995  11.14674
 Alpha virt. eigenvalues --   11.19479  11.25449  11.30768  11.50918  11.56429
 Alpha virt. eigenvalues --   11.73773  11.99448  12.11606  12.62398  13.26611
 Alpha virt. eigenvalues --   20.29294
          Condensed to atoms (all electrons):
               1          2          3          4          5          6
     1  C    4.975249   0.382365  -0.015455   0.000141   0.001013  -0.000031
     2  C    0.382365   4.929183   0.394479  -0.045635  -0.016348   0.001229
     3  C   -0.015455   0.394479   4.858249   0.294833   0.235229  -0.001814
     4  O    0.000141  -0.045635   0.294833   7.914561  -0.018170  -0.007693
     5  C    0.001013  -0.016348   0.235229  -0.018170   5.371885   0.412532
     6  C   -0.000031   0.001229  -0.001814  -0.007693   0.412532   5.027229
     7  C   -0.000000  -0.000173  -0.001779   0.000438   0.083585   0.476044
     8  C   -0.000000  -0.000000  -0.000311   0.000001   0.018290  -0.091453
     9  N    0.000000  -0.000000   0.000002   0.000000  -0.000634   0.006821
    10  N   -0.000000   0.000000  -0.000000   0.000000   0.000031  -0.000558
    11  N   -0.000000  -0.000000  -0.000000   0.000000   0.000111  -0.000087
    12  C    0.000000   0.000000  -0.000001  -0.000000  -0.002996   0.001027
    13  C   -0.000002  -0.000083  -0.009533   0.000121   0.255945  -0.034297
    14  N    0.000001   0.000170   0.001297  -0.000002  -0.083550   0.014909
    15  H    0.373504  -0.020132   0.001798   0.000328  -0.000009   0.000000
    16  H    0.377278  -0.026814  -0.002499   0.000091  -0.000008  -0.000002
    17  H    0.377282  -0.026130  -0.003275   0.006725   0.000017  -0.000002
    18  H   -0.039018   0.351873  -0.027181   0.003514   0.001180  -0.000087
    19  H   -0.044966   0.361450  -0.034539  -0.001834  -0.001085   0.000009
    20  H   -0.006603  -0.048429   0.336500  -0.026001  -0.018849  -0.003144
    21  H   -0.001353  -0.002056  -0.055683   0.293548   0.000446   0.000407
    22  H   -0.000021   0.000766  -0.019345   0.015626  -0.056482   0.364159
    23  H    0.000000  -0.000007   0.000320  -0.000018  -0.013755  -0.086484
    24  H    0.000000  -0.000000   0.000004  -0.000004   0.000272  -0.008832
    25  H    0.000000   0.000000   0.000003  -0.000000  -0.000746   0.001842
    26  H    0.000010   0.000975   0.004253  -0.000051  -0.022984  -0.000192
               7          8          9         10         11         12
     1  C   -0.000000  -0.000000   0.000000  -0.000000  -0.000000   0.000000
     2  C   -0.000173  -0.000000  -0.000000   0.000000  -0.000000   0.000000
     3  C   -0.001779  -0.000311   0.000002  -0.000000  -0.000000  -0.000001
     4  O    0.000438   0.000001   0.000000   0.000000   0.000000  -0.000000
     5  C    0.083585   0.018290  -0.000634   0.000031   0.000111  -0.002996
     6  C    0.476044  -0.091453   0.006821  -0.000558  -0.000087   0.001027
     7  C    4.863351   0.404244  -0.088226   0.008515   0.004114  -0.005642
     8  C    0.404244   4.971076   0.558354  -0.064396  -0.001510  -0.000443
     9  N   -0.088226   0.558354   6.039360   0.604604  -0.160089   0.004851
    10  N    0.008515  -0.064396   0.604604   6.558950   0.108681  -0.015792
    11  N    0.004114  -0.001510  -0.160089   0.108681   7.020758   0.233402
    12  C   -0.005642  -0.000443   0.004851  -0.015792   0.233402   5.805025
    13  C   -0.112917   0.004469   0.009116  -0.001701  -0.006430   0.041608
    14  N   -0.003314  -0.000578   0.000013  -0.000000  -0.000053  -0.000299
    15  H   -0.000000   0.000000  -0.000000   0.000000   0.000000   0.000000
    16  H   -0.000000   0.000000  -0.000000   0.000000   0.000000  -0.000000
    17  H   -0.000000  -0.000000   0.000000  -0.000000  -0.000000   0.000000
    18  H    0.000005   0.000000   0.000000  -0.000000  -0.000000   0.000000
    19  H    0.000011   0.000000  -0.000000   0.000000   0.000000  -0.000000
    20  H    0.001556   0.000020  -0.000000   0.000000   0.000000  -0.000000
    21  H    0.000099  -0.000001  -0.000000   0.000000   0.000000  -0.000000
    22  H   -0.042594  -0.009522  -0.000032   0.000013   0.000005  -0.000121
    23  H    0.325989  -0.042137  -0.028248   0.000704   0.009209  -0.034935
    24  H   -0.047641   0.362646  -0.035951  -0.003774  -0.000606  -0.000319
    25  H   -0.002229  -0.009233   0.041140  -0.027212   0.075273   0.167523
    26  H   -0.000606   0.000002   0.000003  -0.000000  -0.000005   0.000327
              13         14         15         16         17         18
     1  C   -0.000002   0.000001   0.373504   0.377278   0.377282  -0.039018
     2  C   -0.000083   0.000170  -0.020132  -0.026814  -0.026130   0.351873
     3  C   -0.009533   0.001297   0.001798  -0.002499  -0.003275  -0.027181
     4  O    0.000121  -0.000002   0.000328   0.000091   0.006725   0.003514
     5  C    0.255945  -0.083550  -0.000009  -0.000008   0.000017   0.001180
     6  C   -0.034297   0.014909   0.000000  -0.000002  -0.000002  -0.000087
     7  C   -0.112917  -0.003314  -0.000000  -0.000000  -0.000000   0.000005
     8  C    0.004469  -0.000578   0.000000   0.000000  -0.000000   0.000000
     9  N    0.009116   0.000013  -0.000000  -0.000000   0.000000   0.000000
    10  N   -0.001701  -0.000000   0.000000   0.000000  -0.000000  -0.000000
    11  N   -0.006430  -0.000053   0.000000   0.000000  -0.000000  -0.000000
    12  C    0.041608  -0.000299   0.000000  -0.000000   0.000000   0.000000
    13  C    5.294991   0.524834   0.000000   0.000000  -0.000000  -0.000008
    14  N    0.524834   6.655631   0.000000  -0.000000  -0.000000  -0.000039
    15  H    0.000000   0.000000   0.589286  -0.033465  -0.033359  -0.002258
    16  H    0.000000  -0.000000  -0.033465   0.584600  -0.029997  -0.001889
    17  H   -0.000000  -0.000000  -0.033359  -0.029997   0.579605   0.004734
    18  H   -0.000008  -0.000039  -0.002258  -0.001889   0.004734   0.625096
    19  H    0.000033  -0.000010  -0.002849   0.004825  -0.002186  -0.025837
    20  H    0.000275  -0.000036  -0.000162   0.003855  -0.000023  -0.000900
    21  H    0.000001  -0.000001  -0.000098   0.000092   0.000513  -0.000097
    22  H    0.001724  -0.000205   0.000000  -0.000000  -0.000003  -0.000042
    23  H    0.000266  -0.011925  -0.000000  -0.000000  -0.000000   0.000000
    24  H    0.000014  -0.000000  -0.000000  -0.000000   0.000000   0.000000
    25  H    0.005031   0.000810  -0.000000  -0.000000   0.000000   0.000000
    26  H   -0.069845   0.334097  -0.000000   0.000000   0.000001   0.000483
              19         20         21         22         23         24
     1  C   -0.044966  -0.006603  -0.001353  -0.000021   0.000000   0.000000
     2  C    0.361450  -0.048429  -0.002056   0.000766  -0.000007  -0.000000
     3  C   -0.034539   0.336500  -0.055683  -0.019345   0.000320   0.000004
     4  O   -0.001834  -0.026001   0.293548   0.015626  -0.000018  -0.000004
     5  C   -0.001085  -0.018849   0.000446  -0.056482  -0.013755   0.000272
     6  C    0.000009  -0.003144   0.000407   0.364159  -0.086484  -0.008832
     7  C    0.000011   0.001556   0.000099  -0.042594   0.325989  -0.047641
     8  C    0.000000   0.000020  -0.000001  -0.009522  -0.042137   0.362646
     9  N   -0.000000  -0.000000  -0.000000  -0.000032  -0.028248  -0.035951
    10  N    0.000000   0.000000   0.000000   0.000013   0.000704  -0.003774
    11  N    0.000000   0.000000   0.000000   0.000005   0.009209  -0.000606
    12  C   -0.000000  -0.000000  -0.000000  -0.000121  -0.034935  -0.000319
    13  C    0.000033   0.000275   0.000001   0.001724   0.000266   0.000014
    14  N   -0.000010  -0.000036  -0.000001  -0.000205  -0.011925  -0.000000
    15  H   -0.002849  -0.000162  -0.000098   0.000000  -0.000000  -0.000000
    16  H    0.004825   0.003855   0.000092  -0.000000  -0.000000  -0.000000
    17  H   -0.002186  -0.000023   0.000513  -0.000003  -0.000000   0.000000
    18  H   -0.025837  -0.000900  -0.000097  -0.000042   0.000000   0.000000
    19  H    0.627984   0.006260   0.005981  -0.000007  -0.000000  -0.000000
    20  H    0.006260   0.614349   0.007434   0.000330   0.000009  -0.000003
    21  H    0.005981   0.007434   0.463396  -0.000787   0.000002   0.000000
    22  H   -0.000007   0.000330  -0.000787   0.618683   0.007645   0.001359
    23  H   -0.000000   0.000009   0.000002   0.007645   0.756817   0.009289
    24  H   -0.000000  -0.000003   0.000000   0.001359   0.009289   0.589115
    25  H   -0.000000  -0.000000  -0.000000  -0.000055  -0.007853   0.000695
    26  H    0.000199  -0.000177  -0.000020  -0.000132  -0.000258  -0.000000
              25         26
     1  C    0.000000   0.000010
     2  C    0.000000   0.000975
     3  C    0.000003   0.004253
     4  O   -0.000000  -0.000051
     5  C   -0.000746  -0.022984
     6  C    0.001842  -0.000192
     7  C   -0.002229  -0.000606
     8  C   -0.009233   0.000002
     9  N    0.041140   0.000003
    10  N   -0.027212  -0.000000
    11  N    0.075273  -0.000005
    12  C    0.167523   0.000327
    13  C    0.005031  -0.069845
    14  N    0.000810   0.334097
    15  H   -0.000000  -0.000000
    16  H   -0.000000   0.000000
    17  H    0.000000   0.000001
    18  H    0.000000   0.000483
    19  H   -0.000000   0.000199
    20  H   -0.000000  -0.000177
    21  H   -0.000000  -0.000020
    22  H   -0.000055  -0.000132
    23  H   -0.007853  -0.000258
    24  H    0.000695  -0.000000
    25  H    0.303325   0.000018
    26  H    0.000018   0.478656
 Mulliken charges:
               1
     1  C   -0.379392
     2  C   -0.236683
     3  C    0.044447
     4  O   -0.430519
     5  C   -0.144924
     6  C   -0.071535
     7  C    0.137169
     8  C   -0.099518
     9  N    0.048916
    10  N   -0.168066
    11  N   -0.282773
    12  C   -0.193213
    13  C    0.096388
    14  N   -0.431752
    15  H    0.127416
    16  H    0.123933
    17  H    0.126100
    18  H    0.110470
    19  H    0.106561
    20  H    0.133739
    21  H    0.288176
    22  H    0.119040
    23  H    0.115369
    24  H    0.133736
    25  H    0.451668
    26  H    0.275245
 Sum of Mulliken charges =  -0.00000
 Mulliken charges with hydrogens summed into heavy atoms:
               1
     1  C   -0.001944
     2  C   -0.019652
     3  C    0.178187
     4  O   -0.142342
     5  C   -0.144924
     6  C    0.047505
     7  C    0.252538
     8  C    0.034218
     9  N    0.048916
    10  N   -0.168066
    11  N    0.168895
    12  C   -0.193213
    13  C    0.096388
    14  N   -0.156507
 Electronic spatial extent (au):  <R**2>=           4209.3582
 Charge=             -0.0000 electrons
 Dipole moment (field-independent basis, Debye):
    X=              4.8287    Y=             -3.7885    Z=             -0.2033  Tot=              6.1409
 Quadrupole moment (field-independent basis, Debye-Ang):
   XX=            -88.7860   YY=            -91.7233   ZZ=            -79.8866
   XY=             12.0792   XZ=              2.2000   YZ=             -0.2972
 Traceless Quadrupole moment (field-independent basis, Debye-Ang):
   XX=             -1.9874   YY=             -4.9247   ZZ=              6.9121
   XY=             12.0792   XZ=              2.2000   YZ=             -0.2972
 Octapole moment (field-independent basis, Debye-Ang**2):
  XXX=            134.5130  YYY=            -58.1904  ZZZ=             10.7727  XYY=             11.9626
  XXY=             -9.7487  XXZ=              5.1706  XZZ=             15.1980  YZZ=             -7.7486
  YYZ=             -5.9832  XYZ=              1.6748
 Hexadecapole moment (field-independent basis, Debye-Ang**3):
 XXXX=          -4835.5853 YYYY=           -969.5661 ZZZZ=           -125.8879 XXXY=             79.3087
 XXXZ=             37.2854 YYYX=             93.3422 YYYZ=            -11.1079 ZZZX=             34.3622
 ZZZY=            -11.0217 XXYY=           -962.9623 XXZZ=           -749.6207 YYZZ=           -172.0480
 XXYZ=             -4.8811 YYXZ=              2.8380 ZZXY=             -3.3662
 N-N= 8.016951847403D+02 E-N=-3.101920057122D+03  KE= 6.397063245531D+02
 PrsmSu:  requested number of processors reduced to:  13 ShMem   1 Linda.
 Calling FoFJK, ICntrl=      2127 FMM=F ISym2X=0 I1Cent= 0 IOpClX= 0 NMat=1 NMatS=1 NMatT=0.
 ***** Axes restored to original set *****
 -------------------------------------------------------------------
 Center     Atomic                   Forces (Hartrees/Bohr)
 Number     Number              X              Y              Z
 -------------------------------------------------------------------
      1        6           0.008774495   -0.000623909   -0.007845991
      2        6           0.006050759    0.004419862    0.001249268
      3        6          -0.070132701    0.010208772   -0.006830754
      4        8           0.035475109   -0.011360076    0.010996734
      5        6          -0.042163148    0.000494649    0.016256197
      6        6          -0.033384140   -0.001018843   -0.005526508
      7        6          -0.019522661   -0.004394650   -0.014481197
      8        6          -0.017212324    0.002186051   -0.039296258
      9        7           0.109583715   -0.002102053   -0.079729949
     10        7          -0.033455308    0.000914694   -0.013540164
     11        7           0.017908448    0.002605019    0.100777223
     12        6           0.127439788    0.007095247    0.089963982
     13        6          -0.098672098    0.006972007    0.143728240
     14        7           0.014149674   -0.012035361   -0.052102788
     15        1           0.011425795   -0.000959784   -0.005274187
     16        1           0.004576535    0.001499160   -0.002401513
     17        1           0.006700013   -0.002854610   -0.002356571
     18        1           0.008515216    0.000394525    0.009021571
     19        1           0.007960012   -0.000701387    0.010734223
     20        1           0.034081089    0.004350361    0.004202697
     21        1           0.004718792   -0.009077486   -0.000386181
     22        1          -0.018104379    0.002191924   -0.006614107
     23        1          -0.010587110    0.000647613    0.023538814
     24        1          -0.026278612    0.000658613   -0.049890637
     25        1          -0.082688677   -0.006618461   -0.102355253
     26        1           0.054841717    0.007108122   -0.021836891
 -------------------------------------------------------------------
 Cartesian Forces:  Max     0.143728240 RMS     0.040424185

 GradGradGradGradGradGradGradGradGradGradGradGradGradGradGradGradGradGrad
 Berny optimization.
 FormGI is forming the generalized inverse of G from B-inverse, IUseBI=4.
 Internal  Forces:  Max     0.115740060 RMS     0.028652773
 Search for a local minimum.
 Step number   1 out of a maximum of  156
 All quantities printed in internal units (Hartrees-Bohrs-Radians)
 Mixed Optimization -- RFO/linear search
 Second derivative matrix not updated -- first step.
 ITU=  0
     Eigenvalues ---    0.00230   0.00230   0.00230   0.00230   0.00243
     Eigenvalues ---    0.00272   0.00449   0.00555   0.00714   0.00794
     Eigenvalues ---    0.01272   0.01970   0.02012   0.02463   0.02646
     Eigenvalues ---    0.02824   0.03129   0.03257   0.03438   0.04670
     Eigenvalues ---    0.04735   0.04796   0.05399   0.05771   0.07351
     Eigenvalues ---    0.09591   0.09743   0.10225   0.10973   0.11180
     Eigenvalues ---    0.13003   0.13056   0.13817   0.15981   0.15998
     Eigenvalues ---    0.16000   0.16000   0.16000   0.16000   0.16000
     Eigenvalues ---    0.17193   0.19759   0.19971   0.20368   0.20937
     Eigenvalues ---    0.22346   0.22493   0.22554   0.22674   0.23851
     Eigenvalues ---    0.23854   0.24555   0.30336   0.31623   0.32608
     Eigenvalues ---    0.33244   0.33442   0.33816   0.33848   0.35029
     Eigenvalues ---    0.35265   0.36874   0.37483   0.38496   0.44389
     Eigenvalues ---    0.52663   0.55369   0.60328   0.61278   0.63421
     Eigenvalues ---    0.69695   1.00192
 RFO step:  Lambda=-2.33895351D-01 EMin= 2.30000000D-03
 Linear search not attempted -- first point.
 Maximum step size (   0.300) exceeded in Quadratic search.
    -- Step size scaled by   0.435
 Iteration  1 RMS(Cart)=  0.06064737 RMS(Int)=  0.00111471
 Iteration  2 RMS(Cart)=  0.00195177 RMS(Int)=  0.00032812
 Iteration  3 RMS(Cart)=  0.00000065 RMS(Int)=  0.00032812
 Variable       Old X    -DE/DX   Delta X   Delta X   Delta X     New X
                                 (Linear)    (Quad)   (Total)
    R1        3.02215  -0.03089   0.00000  -0.02844  -0.02844   2.99371
    R2        2.09746  -0.00919   0.00000  -0.00714  -0.00714   2.09032
    R3        2.07588  -0.00195   0.00000  -0.00148  -0.00148   2.07440
    R4        2.07641  -0.00390   0.00000  -0.00297  -0.00297   2.07344
    R5        3.02223  -0.02748   0.00000  -0.02530  -0.02530   2.99693
    R6        2.05247   0.00626   0.00000   0.00464   0.00464   2.05711
    R7        2.05628   0.00654   0.00000   0.00487   0.00487   2.06115
    R8        2.84839  -0.03843   0.00000  -0.03039  -0.03039   2.81800
    R9        3.57887  -0.05525   0.00000  -0.06953  -0.06953   3.50935
   R10        2.13998  -0.02027   0.00000  -0.01641  -0.01641   2.12357
   R11        1.83970  -0.00799   0.00000  -0.00457  -0.00457   1.83513
   R12        2.48245   0.06490   0.00000   0.03598   0.03597   2.51842
   R13        3.56680  -0.00638   0.00000  -0.01480  -0.01498   3.55182
   R14        2.51497   0.06861   0.00000   0.04131   0.04147   2.55644
   R15        2.00349   0.01865   0.00000   0.01311   0.01311   2.01660
   R16        2.44410   0.10334   0.00000   0.05328   0.05325   2.49735
   R17        1.94190   0.05237   0.00000   0.03387   0.03406   1.97597
   R18        2.40589   0.08767   0.00000   0.04228   0.04222   2.44811
   R19        1.92692   0.05595   0.00000   0.03591   0.03591   1.96282
   R20        2.25019  -0.02072   0.00000  -0.00650  -0.00669   2.24349
   R21        3.30435   0.03477   0.00000   0.04469   0.04479   3.34914
   R22        3.41414   0.04714   0.00000   0.05683   0.05672   3.47086
   R23        2.99992  -0.03751   0.00000  -0.04582  -0.04764   2.95228
   R24        1.93935   0.02355   0.00000   0.02038   0.02194   1.96129
   R25        2.00237   0.11574   0.00000   0.08919   0.09048   2.09285
   R26        2.49942  -0.08121   0.00000  -0.04172  -0.04172   2.45770
   R27        3.35460   0.03341   0.00000   0.03672   0.03670   3.39130
   R28        2.08283  -0.05940   0.00000  -0.04547  -0.04547   2.03736
   R29        3.19391   0.05040   0.00000   0.06438   0.06445   3.25836
    A1        1.92427  -0.00946   0.00000  -0.01020  -0.01022   1.91406
    A2        1.98472  -0.00271   0.00000  -0.00314  -0.00316   1.98157
    A3        1.99518  -0.00495   0.00000  -0.00556  -0.00558   1.98960
    A4        1.83531   0.00704   0.00000   0.00795   0.00794   1.84325
    A5        1.83187   0.00860   0.00000   0.00977   0.00975   1.84162
    A6        1.87963   0.00342   0.00000   0.00339   0.00338   1.88301
    A7        2.12890  -0.03773   0.00000  -0.03549  -0.03540   2.09350
    A8        1.81926   0.01460   0.00000   0.01437   0.01434   1.83360
    A9        1.80008   0.01449   0.00000   0.01501   0.01504   1.81513
   A10        1.88664   0.00827   0.00000   0.00692   0.00699   1.89363
   A11        1.86819   0.00950   0.00000   0.00915   0.00928   1.87747
   A12        1.96130  -0.01011   0.00000  -0.01105  -0.01119   1.95011
   A13        1.76857   0.04042   0.00000   0.03812   0.03780   1.80638
   A14        2.34486  -0.03274   0.00000  -0.03292  -0.03288   2.31197
   A15        1.72897   0.02368   0.00000   0.02869   0.02827   1.75724
   A16        1.95382  -0.01739   0.00000  -0.01735  -0.01720   1.93662
   A17        1.65184   0.00763   0.00000   0.01400   0.01331   1.66515
   A18        1.88661  -0.00657   0.00000  -0.01245  -0.01223   1.87438
   A19        1.92549  -0.01110   0.00000  -0.01226  -0.01226   1.91323
   A20        1.69507   0.03789   0.00000   0.03514   0.03524   1.73031
   A21        2.70342  -0.05740   0.00000  -0.05160  -0.05154   2.65188
   A22        1.87819   0.01886   0.00000   0.01592   0.01578   1.89397
   A23        1.92699  -0.00926   0.00000   0.00225   0.00239   1.92938
   A24        2.24661  -0.00038   0.00000  -0.00668  -0.00675   2.23986
   A25        2.10950   0.00961   0.00000   0.00441   0.00434   2.11383
   A26        2.28562   0.04722   0.00000   0.04060   0.04040   2.32602
   A27        2.16355  -0.04056   0.00000  -0.03852  -0.03832   2.12523
   A28        1.83343  -0.00660   0.00000  -0.00200  -0.00201   1.83141
   A29        1.83920  -0.00761   0.00000   0.00610   0.00614   1.84534
   A30        2.23294   0.01057   0.00000   0.00442   0.00440   2.23735
   A31        2.21104  -0.00296   0.00000  -0.01052  -0.01054   2.20050
   A32        2.80642   0.01756   0.00000   0.01726   0.01712   2.82354
   A33        2.13456  -0.00612   0.00000  -0.00321  -0.00327   2.13129
   A34        1.34105  -0.01135   0.00000  -0.01395  -0.01375   1.32730
   A35        1.69786   0.02418   0.00000   0.02174   0.02192   1.71977
   A36        2.07538   0.04881   0.00000   0.03875   0.03909   2.11448
   A37        1.35606  -0.02877   0.00000  -0.02801  -0.02755   1.32850
   A38        1.71044   0.07085   0.00000   0.08916   0.08929   1.79973
   A39        1.42315   0.00522   0.00000  -0.00123  -0.00148   1.42166
   A40        2.01001  -0.00400   0.00000  -0.00446  -0.00446   2.00554
   A41        2.02988   0.02576   0.00000   0.02161   0.02166   2.05154
   A42        2.43687  -0.00436   0.00000  -0.00944  -0.00932   2.42755
   A43        1.81300  -0.02142   0.00000  -0.01216  -0.01234   1.80067
   A44        1.88712   0.01598   0.00000   0.02025   0.01942   1.90654
   A45        2.66328   0.09725   0.00000   0.08146   0.08004   2.74331
   A46        1.17925   0.02468   0.00000   0.00858   0.00847   1.18772
   A47        1.48682   0.07240   0.00000   0.07285   0.07149   1.55831
   A48        3.13359   0.07607   0.00000   0.08793   0.08780   3.22139
   A49        3.06637   0.04067   0.00000   0.02882   0.02789   3.09426
   A50        3.07197  -0.00050   0.00000  -0.00181  -0.00182   3.07016
   A51        3.14530  -0.00086   0.00000  -0.00063  -0.00084   3.14446
    D1       -3.12556  -0.00125   0.00000  -0.00200  -0.00199  -3.12756
    D2        1.02094   0.00058   0.00000   0.00031   0.00038   1.02132
    D3       -1.03066   0.00007   0.00000   0.00071   0.00064  -1.03002
    D4        1.10154  -0.00190   0.00000  -0.00301  -0.00301   1.09853
    D5       -1.03515  -0.00007   0.00000  -0.00070  -0.00063  -1.03579
    D6       -3.08674  -0.00058   0.00000  -0.00030  -0.00038  -3.08712
    D7       -1.06703  -0.00019   0.00000  -0.00037  -0.00036  -1.06739
    D8        3.07947   0.00164   0.00000   0.00194   0.00201   3.08148
    D9        1.02788   0.00113   0.00000   0.00234   0.00227   1.03015
   D10        0.80773   0.01186   0.00000   0.01663   0.01698   0.82471
   D11       -3.08790   0.00093   0.00000   0.00175   0.00172  -3.08618
   D12       -0.87889  -0.00870   0.00000  -0.01121  -0.01157  -0.89046
   D13        2.91255   0.01159   0.00000   0.01649   0.01686   2.92942
   D14       -0.98308   0.00066   0.00000   0.00161   0.00160  -0.98148
   D15        1.22593  -0.00897   0.00000  -0.01135  -0.01168   1.21425
   D16       -1.25415   0.00956   0.00000   0.01240   0.01276  -1.24138
   D17        1.13340  -0.00137   0.00000  -0.00249  -0.00250   1.13090
   D18       -2.94077  -0.01100   0.00000  -0.01544  -0.01578  -2.95655
   D19        1.02955  -0.01661   0.00000  -0.01859  -0.01883   1.01072
   D20       -1.55605   0.00615   0.00000   0.00691   0.00697  -1.54908
   D21        2.77875   0.01416   0.00000   0.01845   0.01864   2.79739
   D22        3.11626  -0.00241   0.00000  -0.00040  -0.00042   3.11584
   D23       -0.19712  -0.00033   0.00000   0.00197   0.00187  -0.19525
   D24       -0.83446   0.00123   0.00000  -0.00167  -0.00139  -0.83585
   D25        2.13534   0.00331   0.00000   0.00069   0.00090   2.13624
   D26        0.96171  -0.00056   0.00000   0.00107   0.00092   0.96263
   D27       -2.35167   0.00152   0.00000   0.00343   0.00321  -2.34846
   D28        3.09917  -0.00764   0.00000  -0.00625  -0.00610   3.09306
   D29       -0.02779  -0.00598   0.00000  -0.00443  -0.00433  -0.03212
   D30        0.03374   0.00125   0.00000   0.00151   0.00150   0.03525
   D31       -3.09322   0.00291   0.00000   0.00332   0.00328  -3.08994
   D32        0.05846  -0.00332   0.00000  -0.00479  -0.00478   0.05368
   D33       -3.01351  -0.00282   0.00000  -0.00298  -0.00296  -3.01647
   D34        3.02113  -0.00137   0.00000  -0.00244  -0.00241   3.01872
   D35       -0.05084  -0.00087   0.00000  -0.00064  -0.00060  -0.05144
   D36        3.12119  -0.00082   0.00000  -0.00017  -0.00021   3.12098
   D37        0.02228  -0.00257   0.00000  -0.00269  -0.00264   0.01964
   D38       -0.03370  -0.00242   0.00000  -0.00193  -0.00194  -0.03564
   D39       -3.13262  -0.00416   0.00000  -0.00445  -0.00437  -3.13699
   D40       -3.14146   0.00118   0.00000   0.00076   0.00077  -3.14070
   D41        0.00023  -0.00041   0.00000  -0.00074  -0.00076  -0.00053
   D42       -0.03652   0.00174   0.00000   0.00199   0.00201  -0.03451
   D43        3.10517   0.00015   0.00000   0.00049   0.00048   3.10565
   D44       -0.07169   0.00187   0.00000   0.00217   0.00216  -0.06953
   D45       -3.10620   0.00286   0.00000   0.00230   0.00227  -3.10393
   D46        3.10327  -0.00092   0.00000  -0.00099  -0.00088   3.10239
   D47        0.06877   0.00007   0.00000  -0.00086  -0.00078   0.06799
   D48        3.06316  -0.00140   0.00000  -0.00155  -0.00152   3.06164
   D49        0.01137  -0.00314   0.00000  -0.00353  -0.00360   0.00776
   D50       -0.07852   0.00016   0.00000  -0.00007  -0.00004  -0.07856
   D51       -3.13032  -0.00158   0.00000  -0.00206  -0.00212  -3.13244
   D52       -3.08780  -0.00066   0.00000  -0.00103  -0.00108  -3.08887
   D53       -0.02412   0.00034   0.00000   0.00028   0.00032  -0.02381
   D54       -3.12755   0.00158   0.00000   0.00200   0.00187  -3.12569
   D55       -0.10403  -0.00460   0.00000  -0.00577  -0.00591  -0.10995
   D56        0.01033   0.00244   0.00000   0.00263   0.00270   0.01304
   D57        0.04434  -0.00045   0.00000  -0.00007  -0.00020   0.04414
   D58        3.06786  -0.00663   0.00000  -0.00784  -0.00798   3.05988
   D59       -3.10096   0.00040   0.00000   0.00056   0.00064  -3.10033
   D60        0.02153   0.00297   0.00000   0.00193   0.00236   0.02388
   D61        0.04097  -0.00049   0.00000  -0.00024  -0.00032   0.04065
   D62       -0.02912   0.00086   0.00000   0.00053   0.00060  -0.02852
   D63        0.13976  -0.00209   0.00000  -0.00196  -0.00194   0.13781
   D64        0.19410   0.00032   0.00000  -0.00046  -0.00042   0.19368
   D65       -3.04049  -0.00123   0.00000  -0.00289  -0.00295  -3.04344
   D66        0.06871   0.00108   0.00000   0.00067   0.00060   0.06931
   D67        3.13892   0.00043   0.00000   0.00000  -0.00004   3.13888
   D68       -0.05286  -0.00192   0.00000  -0.00102  -0.00112  -0.05398
   D69        3.03599   0.00507   0.00000   0.00373   0.00402   3.04001
   D70       -3.09560  -0.00279   0.00000  -0.00226  -0.00240  -3.09799
   D71       -0.00674   0.00420   0.00000   0.00249   0.00274  -0.00400
         Item               Value     Threshold  Converged?
 Maximum Force            0.115740     0.000450     NO 
 RMS     Force            0.028653     0.000300     NO 
 Maximum Displacement     0.227628     0.001800     NO 
 RMS     Displacement     0.061018     0.001200     NO 
 Predicted change in Energy=-9.034061D-02
 GradGradGradGradGradGradGradGradGradGradGradGradGradGradGradGradGradGrad

                          Input orientation:                          
 ---------------------------------------------------------------------
 Center     Atomic      Atomic             Coordinates (Angstroms)
 Number     Number       Type             X           Y           Z
 ---------------------------------------------------------------------
      1          6           0        1.205844   -0.054984   -0.059090
      2          6           0        2.789861   -0.063936   -0.036470
      3          6           0        3.601232   -0.047141   -1.399003
      4          8           0        2.939432    1.033663   -2.184898
      5          6           0        5.417506   -0.126984   -1.777779
      6          6           0        5.357574   -0.099246   -3.108832
      7          6           0        6.601708   -0.087331   -3.639952
      8          6           0        7.057008   -0.080969   -4.880569
      9          7           0        8.348594   -0.070963   -4.780640
     10          7           0        9.501637   -0.090858   -5.062689
     11          7           0       10.198555   -0.053734   -3.363750
     12          6           0        9.268263   -0.042614   -2.108700
     13          6           0        7.223641   -0.073753   -1.260354
     14          7           0        7.156735    0.050195    0.032556
     15          1           0        0.818723   -0.054382    0.977105
     16          1           0        0.769269   -0.941545   -0.537012
     17          1           0        0.771400    0.832940   -0.535263
     18          1           0        3.059735   -0.962769    0.515131
     19          1           0        3.051003    0.841078    0.513447
     20          1           0        3.106300   -0.894463   -1.946623
     21          1           0        2.979100    1.868018   -1.689591
     22          1           0        4.491690   -0.073086   -3.732005
     23          1           0        7.457031   -0.116755   -3.039192
     24          1           0        6.511913   -0.084487   -5.764716
     25          1           0        9.172255   -0.079580   -3.211398
     26          1           0        6.166361   -0.046905    0.447385
 ---------------------------------------------------------------------
                    Distance matrix (angstroms):
                    1          2          3          4          5
     1  C    0.000000
     2  C    1.584204   0.000000
     3  C    2.744688   1.585908   0.000000
     4  O    2.951193   2.417196   1.491223   0.000000
     5  C    4.549415   3.152880   1.857067   2.766532   0.000000
     6  C    5.151674   4.004224   2.451727   2.825694   1.332690
     7  C    6.476030   5.245552   3.745173   4.097081   2.207169
     8  C    7.581784   6.455550   4.905591   5.046134   3.509613
     9  N    8.562252   7.307989   5.828677   6.100582   4.196615
    10  N    9.688006   8.385198   6.945450   7.253190   5.241380
    11  N    9.580690   8.121554   6.883672   7.434177   5.037767
    12  C    8.318873   6.801785   5.711298   6.420146   3.865870
    13  C    6.136551   4.599608   3.625158   4.520574   1.879543
    14  N    5.952526   4.368911   3.834115   4.865178   2.516669
    15  H    1.106148   2.216486   3.659003   3.959736   5.361294
    16  H    1.097723   2.259100   3.092410   3.365498   4.879459
    17  H    1.097220   2.264368   3.086833   2.731657   4.904243
    18  H    2.142595   1.088576   2.189865   3.360115   3.393385
    19  H    2.129633   1.090712   2.179255   2.707509   3.433250
    20  H    2.806998   2.106798   1.123744   1.949946   2.441149
    21  H    3.082354   2.549719   2.034533   0.971108   3.151767
    22  H    4.928226   4.068573   2.497295   2.455185   2.163108
    23  H    6.925471   5.549919   4.190733   4.739406   2.398109
    24  H    7.791624   6.831317   5.247180   5.179573   4.134633
    25  H    8.567459   7.128490   5.858508   6.414132   4.019409
    26  H    4.986313   3.411035   3.160544   4.302280   2.349160
                    6          7          8          9         10
     6  C    0.000000
     7  C    1.352812   0.000000
     8  C    2.455089   1.321540   0.000000
     9  N    3.426651   2.086395   1.295485   0.000000
    10  N    4.581581   3.230136   2.451424   1.187206   0.000000
    11  N    4.847902   3.607593   3.488668   2.330285   1.836700
    12  C    4.036949   3.075264   3.546037   2.825926   2.963586
    13  C    2.626733   2.459568   3.624055   3.695665   4.432529
    14  N    3.623207   3.716757   4.915887   4.960046   5.610702
    15  H    6.107214   7.400083   8.557409   9.478969  10.577024
    16  H    5.326938   6.661476   7.690431   8.729974   9.872166
    17  H    5.340901   6.669219   7.695828   8.732361   9.877653
    18  H    4.377082   5.529619   6.772691   7.537409   8.565653
    19  H    4.396065   5.542579   6.781862   7.544776   8.577441
    20  H    2.655435   3.966951   4.987775   6.015932   7.159328
    21  H    3.397280   4.555281   5.532650   6.491971   7.599900
    22  H    1.067138   2.112073   2.810714   3.996917   5.183687
    23  H    2.100684   1.045636   1.884667   1.956942   2.876739
    24  H    2.895934   2.126662   1.038680   2.083743   3.071047
    25  H    3.816110   2.606037   2.694514   1.772290   1.880398
    26  H    3.647403   4.110655   5.401990   5.665241   6.441033
                   11         12         13         14         15
    11  N    0.000000
    12  C    1.562280   0.000000
    13  C    3.643459   2.213852   0.000000
    14  N    4.560522   3.008677   1.300559   0.000000
    15  H   10.335583   8.995391   6.784509   6.408862   0.000000
    16  H    9.883829   8.689716   6.552495   6.489042   1.755578
    17  H    9.882195   8.685561   6.555856   6.458143   1.754091
    18  H    8.175257   6.802720   4.613113   4.247869   2.461853
    19  H    8.180517   6.805211   4.625386   4.208776   2.449469
    20  H    7.281151   6.222677   4.254060   4.606034   3.806170
    21  H    7.656140   6.586330   4.687307   4.870617   3.933716
    22  H    5.718767   5.044968   3.684103   4.614063   5.972165
    23  H    2.761388   2.037615   1.794599   3.090903   7.758973
    24  H    4.399649   4.578829   4.560257   5.834577   8.824141
    25  H    1.037868   1.107487   2.757482   3.821309   9.344822
    26  H    5.548277   4.019375   2.008714   1.078124   5.373816
                   16         17         18         19         20
    16  H    0.000000
    17  H    1.774487   0.000000
    18  H    2.520652   3.092632   0.000000
    19  H    3.080181   2.509272   1.803869   0.000000
    20  H    2.729640   3.229182   2.463142   3.011164   0.000000
    21  H    3.755720   2.697739   3.588964   2.431698   2.777328
    22  H    4.981828   4.988045   4.569486   4.575493   2.404486
    23  H    7.187999   7.202030   5.717094   5.740363   4.552735
    24  H    7.812899   7.819357   7.219792   7.228409   5.179970
    25  H    8.860332   8.863902   7.213179   7.224390   6.249760
    26  H    5.558599   5.553857   3.239526   3.240114   3.976632
                   21         22         23         24         25
    21  H    0.000000
    22  H    3.198010   0.000000
    23  H    5.080611   3.045512   0.000000
    24  H    5.735825   2.865894   2.884921   0.000000
    25  H    6.668149   4.709433   1.724248   3.687394   0.000000
    26  H    4.288617   4.502500   3.718457   6.221817   4.735309
                   26
    26  H    0.000000
 Stoichiometry    C9H12N4O
 Framework group  C1[X(C9H12N4O)]
 Deg. of freedom    72
 Full point group                 C1      NOp   1
 Largest Abelian subgroup         C1      NOp   1
 Largest concise Abelian subgroup C1      NOp   1
                         Standard orientation:                         
 ---------------------------------------------------------------------
 Center     Atomic      Atomic             Coordinates (Angstroms)
 Number     Number       Type             X           Y           Z
 ---------------------------------------------------------------------
      1          6           0        5.273768   -0.117317   -0.260606
      2          6           0        3.871269    0.615418   -0.184455
      3          6           0        2.533026   -0.235509   -0.172996
      4          8           0        2.802229   -1.293905    0.842423
      5          6           0        0.739938    0.247730   -0.169513
      6          6           0        0.193176   -0.967420   -0.192372
      7          6           0       -1.155658   -0.882311   -0.133180
      8          6           0       -2.121673   -1.784030   -0.146740
      9          7           0       -3.227911   -1.114888   -0.064480
     10          7           0       -4.384047   -0.846900   -0.033019
     11          7           0       -4.237102    0.978960    0.101547
     12          6           0       -2.840479    1.679048    0.107795
     13          6           0       -0.635220    1.517977   -0.001887
     14          7           0        0.012185    2.633649    0.164240
     15          1           0        6.086897    0.632417   -0.243741
     16          1           0        5.419357   -0.690226   -1.185579
     17          1           0        5.474041   -0.786631    0.585443
     18          1           0        3.851458    1.278607   -1.047465
     19          1           0        3.915201    1.172621    0.752160
     20          1           0        2.700411   -0.898977   -1.064396
     21          1           0        3.016762   -0.881009    1.694798
     22          1           0        0.684677   -1.913695   -0.234504
     23          1           0       -1.647965    0.039417   -0.095664
     24          1           0       -2.034996   -2.817109   -0.210705
     25          1           0       -3.253987    0.654870    0.026568
     26          1           0        1.079553    2.563685    0.029403
 ---------------------------------------------------------------------
 Rotational constants (GHZ):           1.4927804           0.2897924           0.2480560
 Standard basis: 6-31G(2df,p) (6D, 7F)
 There are   494 symmetry adapted cartesian basis functions of A   symmetry.
 There are   452 symmetry adapted basis functions of A   symmetry.
   452 basis functions,   700 primitive gaussians,   494 cartesian basis functions
    51 alpha electrons       51 beta electrons
       nuclear repulsion energy       797.6917325571 Hartrees.
 NAtoms=   26 NActive=   26 NUniq=   26 SFac= 1.00D+00 NAtFMM=   60 NAOKFM=F Big=F
 Integral buffers will be    131072 words long.
 Raffenetti 2 integral format.
 Two-electron integral symmetry is turned on.
 One-electron integrals computed using PRISM.
 PrsmSu:  requested number of processors reduced to:  12 ShMem   1 Linda.
 NBasis=   452 RedAO= T EigKep=  1.81D-04  NBF=   452
[...]
     26        1           0.004343773   -0.030969270    0.012894441
 -------------------------------------------------------------------
 Cartesian Forces:  Max     0.060677652 RMS     0.013866020

 GradGradGradGradGradGradGradGradGradGradGradGradGradGradGradGradGradGrad
 Berny optimization.
 Using GEDIIS/GDIIS optimizer.
 FormGI is forming the generalized inverse of G from B-inverse, IUseBI=4.
 Internal  Forces:  Max     0.046029150 RMS     0.006338617
 Search for a local minimum.
 Step number  48 out of a maximum of  156
 All quantities printed in internal units (Hartrees-Bohrs-Radians)
 Mixed Optimization -- RFO/linear search
 Update second derivatives using D2CorX and points   47   48
 DE= -9.92D-03 DEPred=-1.75D-02 R= 5.68D-01
 TightC=F SS=  1.41D+00  RLast= 7.36D-01 DXNew= 1.2613D+00 2.2092D+00
 Trust test= 5.68D-01 RLast= 7.36D-01 DXMaxT set to 1.26D+00
 ITU=  1  1  0  0  0  0  0  0  0  0  0  0  0  0  0  0  0  0  0  0
 ITU=  0  0  0  0  0  0  0  0  0  0 -1  0 -1  1  1  0  1  1  1  0
 ITU=  1  1  1  1  0  0  1  0
 Use linear search instead of GDIIS.
     Eigenvalues ---    0.00044   0.00103   0.00135   0.00230   0.00231
     Eigenvalues ---    0.00269   0.00279   0.00628   0.00943   0.01126
     Eigenvalues ---    0.01337   0.01558   0.01789   0.02673   0.02758
     Eigenvalues ---    0.02995   0.03273   0.03458   0.03546   0.04341
     Eigenvalues ---    0.04789   0.05201   0.05339   0.05454   0.05475
     Eigenvalues ---    0.05869   0.08190   0.08269   0.08888   0.09533
     Eigenvalues ---    0.11391   0.12074   0.12183   0.13986   0.14293
     Eigenvalues ---    0.15744   0.16002   0.16005   0.16014   0.16122
     Eigenvalues ---    0.16152   0.17640   0.19088   0.20546   0.21496
     Eigenvalues ---    0.21983   0.23755   0.23873   0.24772   0.25812
     Eigenvalues ---    0.30401   0.31627   0.32629   0.33830   0.33871
     Eigenvalues ---    0.35010   0.36407   0.36919   0.38558   0.39364
     Eigenvalues ---    0.44738   0.50113   0.51858   0.53534   0.56530
     Eigenvalues ---    0.61411   0.64110   0.73372   0.82894   0.89752
     Eigenvalues ---    1.07661   1.74748
 RFO step:  Lambda=-1.30466238D-02 EMin= 4.44775670D-04
 Quartic linear search produced a step of -0.10634.
 Iteration  1 RMS(Cart)=  0.00474462 RMS(Int)=  0.03462651
 Iteration  2 RMS(Cart)=  0.00096631 RMS(Int)=  0.03383708
 Iteration  3 RMS(Cart)=  0.00089694 RMS(Int)=  0.03310050
 Iteration  4 RMS(Cart)=  0.00082628 RMS(Int)=  0.25554226
 New curvilinear step failed, DQL= 3.16D+00 SP=-3.87D-01.
 ITry= 1 IFail=1 DXMaxC= 5.24D-02 DCOld= 1.00D+10 DXMaxT= 1.26D+00 DXLimC= 3.00D+00 Rises=F
 Iteration  1 RMS(Cart)=  0.00425026 RMS(Int)=  0.03080711
 Iteration  2 RMS(Cart)=  0.00077134 RMS(Int)=  0.03018259
 Iteration  3 RMS(Cart)=  0.00072569 RMS(Int)=  0.02959426
 Iteration  4 RMS(Cart)=  0.00068320 RMS(Int)=  0.02903895
 Iteration  5 RMS(Cart)=  0.00064219 RMS(Int)=  0.02850981
 Iteration  6 RMS(Cart)=  0.00059090 RMS(Int)=  0.25525491
 Iteration  7 RMS(Cart)=  0.00215526 RMS(Int)=  0.02645413
 Iteration  8 RMS(Cart)=  0.00031688 RMS(Int)=  0.25645690
 New curvilinear step failed, DQL= 3.15D+00 SP=-4.99D-01.
 ITry= 2 IFail=1 DXMaxC= 5.95D-02 DCOld= 1.00D+10 DXMaxT= 1.26D+00 DXLimC= 3.00D+00 Rises=F
 Iteration  1 RMS(Cart)=  0.00376298 RMS(Int)=  0.02699024
 Iteration  2 RMS(Cart)=  0.00059514 RMS(Int)=  0.02651413
 Iteration  3 RMS(Cart)=  0.00056611 RMS(Int)=  0.02606098
 Iteration  4 RMS(Cart)=  0.00053912 RMS(Int)=  0.02562913
 Iteration  5 RMS(Cart)=  0.00051389 RMS(Int)=  0.02521712
 Iteration  6 RMS(Cart)=  0.00049011 RMS(Int)=  0.02482358
 Iteration  7 RMS(Cart)=  0.00046731 RMS(Int)=  0.02444700
 Iteration  8 RMS(Cart)=  0.00044425 RMS(Int)=  0.02407374
 Iteration  9 RMS(Cart)=  0.00039886 RMS(Int)=  0.25507401
 Iteration 10 RMS(Cart)=  0.00180882 RMS(Int)=  0.02244554
 Iteration 11 RMS(Cart)=  0.00015762 RMS(Int)=  0.02231959
 Iteration 12 RMS(Cart)=  0.00015290 RMS(Int)=  0.25659875
 Iteration 13 RMS(Cart)=  0.00164120 RMS(Int)=  0.02109467
 Iteration 14 RMS(Cart)=  0.00016531 RMS(Int)=  0.02096251
 Iteration 15 RMS(Cart)=  0.00016129 RMS(Int)=  0.02083152
 Iteration 16 RMS(Cart)=  0.00014276 RMS(Int)=  0.25627739
 New curvilinear step failed, DQL= 3.15D+00 SP=-6.16D-01.
 ITry= 3 IFail=1 DXMaxC= 6.34D-02 DCOld= 1.00D+10 DXMaxT= 1.26D+00 DXLimC= 3.00D+00 Rises=F
 Iteration  1 RMS(Cart)=  0.00328592 RMS(Int)=  0.02318162
 Iteration  2 RMS(Cart)=  0.00044443 RMS(Int)=  0.02283234
 Iteration  3 RMS(Cart)=  0.00042675 RMS(Int)=  0.02249685
 Iteration  4 RMS(Cart)=  0.00041016 RMS(Int)=  0.02217429
 Iteration  5 RMS(Cart)=  0.00039455 RMS(Int)=  0.02186392
 Iteration  6 RMS(Cart)=  0.00037983 RMS(Int)=  0.02156501
 Iteration  7 RMS(Cart)=  0.00036592 RMS(Int)=  0.02127693
 Iteration  8 RMS(Cart)=  0.00035274 RMS(Int)=  0.02099909
 Iteration  9 RMS(Cart)=  0.00034020 RMS(Int)=  0.02073096
 Iteration 10 RMS(Cart)=  0.00032823 RMS(Int)=  0.02047201
 Iteration 11 RMS(Cart)=  0.00031669 RMS(Int)=  0.02022176
 Iteration 12 RMS(Cart)=  0.00030535 RMS(Int)=  0.01997940
 Iteration 13 RMS(Cart)=  0.00029348 RMS(Int)=  0.01972774
 Iteration 14 RMS(Cart)=  0.00025979 RMS(Int)=  0.25490989
 Iteration 15 RMS(Cart)=  0.00149233 RMS(Int)=  0.01846656
 Iteration 16 RMS(Cart)=  0.00012597 RMS(Int)=  0.01836754
 Iteration 17 RMS(Cart)=  0.00012318 RMS(Int)=  0.25593165
 New curvilinear step failed, DQL= 3.14D+00 SP=-6.60D-01.
 ITry= 4 IFail=1 DXMaxC= 5.33D-02 DCOld= 1.00D+10 DXMaxT= 1.26D+00 DXLimC= 3.00D+00 Rises=F
 Iteration  1 RMS(Cart)=  0.00282426 RMS(Int)=  0.01938937
 Iteration  2 RMS(Cart)=  0.00032090 RMS(Int)=  0.01914424
 Iteration  3 RMS(Cart)=  0.00031066 RMS(Int)=  0.01890688
 Iteration  4 RMS(Cart)=  0.00030094 RMS(Int)=  0.01867692
 Iteration  5 RMS(Cart)=  0.00029169 RMS(Int)=  0.01845398
 Iteration  6 RMS(Cart)=  0.00028289 RMS(Int)=  0.01823774
 Iteration  7 RMS(Cart)=  0.00027450 RMS(Int)=  0.01802787
 Iteration  8 RMS(Cart)=  0.00026650 RMS(Int)=  0.01782408
 Iteration  9 RMS(Cart)=  0.00025887 RMS(Int)=  0.01762610
 Iteration 10 RMS(Cart)=  0.00025157 RMS(Int)=  0.01743367
 Iteration 11 RMS(Cart)=  0.00024458 RMS(Int)=  0.01724655
 Iteration 12 RMS(Cart)=  0.00023790 RMS(Int)=  0.01706451
 Iteration 13 RMS(Cart)=  0.00023149 RMS(Int)=  0.01688734
 Iteration 14 RMS(Cart)=  0.00022533 RMS(Int)=  0.01671484
 Iteration 15 RMS(Cart)=  0.00021942 RMS(Int)=  0.01654682
 Iteration 16 RMS(Cart)=  0.00021373 RMS(Int)=  0.01638311
 Iteration 17 RMS(Cart)=  0.00020824 RMS(Int)=  0.01622354
 Iteration 18 RMS(Cart)=  0.00020293 RMS(Int)=  0.01606797
 Iteration 19 RMS(Cart)=  0.00019778 RMS(Int)=  0.01591622
 Iteration 20 RMS(Cart)=  0.00019275 RMS(Int)=  0.01576815
 Iteration 21 RMS(Cart)=  0.00018778 RMS(Int)=  0.01562350
 Iteration 22 RMS(Cart)=  0.00018270 RMS(Int)=  0.01548130
 Iteration 23 RMS(Cart)=  0.00017664 RMS(Int)=  0.25456831
 New curvilinear step failed, DQL= 3.14D+00 SP=-7.23D-01.
 ITry= 5 IFail=1 DXMaxC= 4.63D-02 DCOld= 1.00D+10 DXMaxT= 1.26D+00 DXLimC= 3.00D+00 Rises=F
 Iteration  1 RMS(Cart)=  0.00238696 RMS(Int)=  0.01562803
 Iteration  2 RMS(Cart)=  0.00022389 RMS(Int)=  0.01546515
 Iteration  3 RMS(Cart)=  0.00021826 RMS(Int)=  0.01530634
 Iteration  4 RMS(Cart)=  0.00021286 RMS(Int)=  0.01515145
 Iteration  5 RMS(Cart)=  0.00020767 RMS(Int)=  0.01500033
 Iteration  6 RMS(Cart)=  0.00020268 RMS(Int)=  0.01485283
 Iteration  7 RMS(Cart)=  0.00019788 RMS(Int)=  0.01470881
 Iteration  8 RMS(Cart)=  0.00019326 RMS(Int)=  0.01456815
 Iteration  9 RMS(Cart)=  0.00018881 RMS(Int)=  0.01443072
 Iteration 10 RMS(Cart)=  0.00018452 RMS(Int)=  0.01429639
 Iteration 11 RMS(Cart)=  0.00018038 RMS(Int)=  0.01416507
 Iteration 12 RMS(Cart)=  0.00017640 RMS(Int)=  0.01403665
 Iteration 13 RMS(Cart)=  0.00017255 RMS(Int)=  0.01391102
 Iteration 14 RMS(Cart)=  0.00016883 RMS(Int)=  0.01378808
 Iteration 15 RMS(Cart)=  0.00016524 RMS(Int)=  0.01366776
 Iteration 16 RMS(Cart)=  0.00016177 RMS(Int)=  0.01354995
 Iteration 17 RMS(Cart)=  0.00015842 RMS(Int)=  0.01343459
 Iteration 18 RMS(Cart)=  0.00015517 RMS(Int)=  0.01332158
 Iteration 19 RMS(Cart)=  0.00015203 RMS(Int)=  0.01321085
 Iteration 20 RMS(Cart)=  0.00014899 RMS(Int)=  0.01310233
 Iteration 21 RMS(Cart)=  0.00014604 RMS(Int)=  0.01299595
 Iteration 22 RMS(Cart)=  0.00014319 RMS(Int)=  0.01289165
 Iteration 23 RMS(Cart)=  0.00014042 RMS(Int)=  0.01278935
 Iteration 24 RMS(Cart)=  0.00013773 RMS(Int)=  0.01268901
 Iteration 25 RMS(Cart)=  0.00013513 RMS(Int)=  0.01259056
 Iteration 26 RMS(Cart)=  0.00013260 RMS(Int)=  0.01249395
 Iteration 27 RMS(Cart)=  0.00013014 RMS(Int)=  0.01239912
 Iteration 28 RMS(Cart)=  0.00012775 RMS(Int)=  0.01230602
 Iteration 29 RMS(Cart)=  0.00012543 RMS(Int)=  0.01221461
 Iteration 30 RMS(Cart)=  0.00012318 RMS(Int)=  0.01212484
 Iteration 31 RMS(Cart)=  0.00012098 RMS(Int)=  0.01203666
 Iteration 32 RMS(Cart)=  0.00011884 RMS(Int)=  0.01195003
 Iteration 33 RMS(Cart)=  0.00011676 RMS(Int)=  0.01186490
 Iteration 34 RMS(Cart)=  0.00011473 RMS(Int)=  0.01178124
 Iteration 35 RMS(Cart)=  0.00011276 RMS(Int)=  0.01169902
 Iteration 36 RMS(Cart)=  0.00011082 RMS(Int)=  0.01161818
 Iteration 37 RMS(Cart)=  0.00010894 RMS(Int)=  0.01153870
 Iteration 38 RMS(Cart)=  0.00010709 RMS(Int)=  0.01146055
 Iteration 39 RMS(Cart)=  0.00010527 RMS(Int)=  0.01138368
 Iteration 40 RMS(Cart)=  0.00010349 RMS(Int)=  0.01130806
 Iteration 41 RMS(Cart)=  0.00010173 RMS(Int)=  0.01123365
 Iteration 42 RMS(Cart)=  0.00009997 RMS(Int)=  0.01116037
 Iteration 43 RMS(Cart)=  0.00009817 RMS(Int)=  0.01108797
 Iteration 44 RMS(Cart)=  0.00009619 RMS(Int)=  0.01100985
 Iteration 45 RMS(Cart)=  0.00009038 RMS(Int)=  0.25472648
 Iteration 46 RMS(Cart)=  0.00090534 RMS(Int)=  0.01036428
 Iteration 47 RMS(Cart)=  0.00006146 RMS(Int)=  0.01031943
 Iteration 48 RMS(Cart)=  0.00006070 RMS(Int)=  0.01027502
 Iteration 49 RMS(Cart)=  0.00005987 RMS(Int)=  0.01023016
 Iteration 50 RMS(Cart)=  0.00005828 RMS(Int)=  0.25510406
 New curvilinear step failed, DQL= 3.14D+00 SP=-8.53D-01.
 ITry= 6 IFail=1 DXMaxC= 5.68D-02 DCOld= 1.00D+10 DXMaxT= 1.26D+00 DXLimC= 3.00D+00 Rises=F
 Iteration  1 RMS(Cart)=  0.00199013 RMS(Int)=  0.01192912
 Iteration  2 RMS(Cart)=  0.00015158 RMS(Int)=  0.01182836
 Iteration  3 RMS(Cart)=  0.00014863 RMS(Int)=  0.01172955
 Iteration  4 RMS(Cart)=  0.00014577 RMS(Int)=  0.01163264
 Iteration  5 RMS(Cart)=  0.00014300 RMS(Int)=  0.01153757
 Iteration  6 RMS(Cart)=  0.00014031 RMS(Int)=  0.01144429
 Iteration  7 RMS(Cart)=  0.00013770 RMS(Int)=  0.01135274
 Iteration  8 RMS(Cart)=  0.00013517 RMS(Int)=  0.01126288
 Iteration  9 RMS(Cart)=  0.00013271 RMS(Int)=  0.01117465
 Iteration 10 RMS(Cart)=  0.00013033 RMS(Int)=  0.01108800
 Iteration 11 RMS(Cart)=  0.00012801 RMS(Int)=  0.01100290
 Iteration 12 RMS(Cart)=  0.00012575 RMS(Int)=  0.01091929
 Iteration 13 RMS(Cart)=  0.00012356 RMS(Int)=  0.01083714
 Iteration 14 RMS(Cart)=  0.00012143 RMS(Int)=  0.01075641
 Iteration 15 RMS(Cart)=  0.00011936 RMS(Int)=  0.01067706
 Iteration 16 RMS(Cart)=  0.00011734 RMS(Int)=  0.01059905
 Iteration 17 RMS(Cart)=  0.00011538 RMS(Int)=  0.01052234
 Iteration 18 RMS(Cart)=  0.00011347 RMS(Int)=  0.01044690
 Iteration 19 RMS(Cart)=  0.00011161 RMS(Int)=  0.01037271
 Iteration 20 RMS(Cart)=  0.00010980 RMS(Int)=  0.01029971
 Iteration 21 RMS(Cart)=  0.00010803 RMS(Int)=  0.01022790
 Iteration 22 RMS(Cart)=  0.00010631 RMS(Int)=  0.01015723
 Iteration 23 RMS(Cart)=  0.00010463 RMS(Int)=  0.01008767
 Iteration 24 RMS(Cart)=  0.00010299 RMS(Int)=  0.01001920
 Iteration 25 RMS(Cart)=  0.00010140 RMS(Int)=  0.00995180
 Iteration 26 RMS(Cart)=  0.00009984 RMS(Int)=  0.00988543
 Iteration 27 RMS(Cart)=  0.00009832 RMS(Int)=  0.00982007
 Iteration 28 RMS(Cart)=  0.00009684 RMS(Int)=  0.00975570
 Iteration 29 RMS(Cart)=  0.00009539 RMS(Int)=  0.00969229
 Iteration 30 RMS(Cart)=  0.00009398 RMS(Int)=  0.00962983
 Iteration 31 RMS(Cart)=  0.00009259 RMS(Int)=  0.00956828
 Iteration 32 RMS(Cart)=  0.00009125 RMS(Int)=  0.00950763
 Iteration 33 RMS(Cart)=  0.00008993 RMS(Int)=  0.00944786
 Iteration 34 RMS(Cart)=  0.00008864 RMS(Int)=  0.00938894
 Iteration 35 RMS(Cart)=  0.00008738 RMS(Int)=  0.00933086
 Iteration 36 RMS(Cart)=  0.00008615 RMS(Int)=  0.00927360
 Iteration 37 RMS(Cart)=  0.00008495 RMS(Int)=  0.00921714
 Iteration 38 RMS(Cart)=  0.00008377 RMS(Int)=  0.00916147
 Iteration 39 RMS(Cart)=  0.00008262 RMS(Int)=  0.00910656
 Iteration 40 RMS(Cart)=  0.00008149 RMS(Int)=  0.00905240
 Iteration 41 RMS(Cart)=  0.00008039 RMS(Int)=  0.00899898
 Iteration 42 RMS(Cart)=  0.00007931 RMS(Int)=  0.00894627
 Iteration 43 RMS(Cart)=  0.00007825 RMS(Int)=  0.00889427
 Iteration 44 RMS(Cart)=  0.00007722 RMS(Int)=  0.00884295
 Iteration 45 RMS(Cart)=  0.00007621 RMS(Int)=  0.00879231
 Iteration 46 RMS(Cart)=  0.00007522 RMS(Int)=  0.00874233
 Iteration 47 RMS(Cart)=  0.00007424 RMS(Int)=  0.00869300
 Iteration 48 RMS(Cart)=  0.00007329 RMS(Int)=  0.00864430
 Iteration 49 RMS(Cart)=  0.00007236 RMS(Int)=  0.00859622
 Iteration 50 RMS(Cart)=  0.00007144 RMS(Int)=  0.00854875
 Iteration 51 RMS(Cart)=  0.00007055 RMS(Int)=  0.00850187
 Iteration 52 RMS(Cart)=  0.00006967 RMS(Int)=  0.00845558
 Iteration 53 RMS(Cart)=  0.00006881 RMS(Int)=  0.00840987
 Iteration 54 RMS(Cart)=  0.00006796 RMS(Int)=  0.00836472
 Iteration 55 RMS(Cart)=  0.00006714 RMS(Int)=  0.00832012
 Iteration 56 RMS(Cart)=  0.00006632 RMS(Int)=  0.00827606
 Iteration 57 RMS(Cart)=  0.00006553 RMS(Int)=  0.00823253
 Iteration 58 RMS(Cart)=  0.00006474 RMS(Int)=  0.00818952
 Iteration 59 RMS(Cart)=  0.00006398 RMS(Int)=  0.00814702
 Iteration 60 RMS(Cart)=  0.00006322 RMS(Int)=  0.00810503
 Iteration 61 RMS(Cart)=  0.00006248 RMS(Int)=  0.00806352
 Iteration 62 RMS(Cart)=  0.00006176 RMS(Int)=  0.00802250
 Iteration 63 RMS(Cart)=  0.00006104 RMS(Int)=  0.00798196
 Iteration 64 RMS(Cart)=  0.00006034 RMS(Int)=  0.00794188
 Iteration 65 RMS(Cart)=  0.00005966 RMS(Int)=  0.00790226
 Iteration 66 RMS(Cart)=  0.00005898 RMS(Int)=  0.00786309
 Iteration 67 RMS(Cart)=  0.00005832 RMS(Int)=  0.00782436
 Iteration 68 RMS(Cart)=  0.00005766 RMS(Int)=  0.00778607
 Iteration 69 RMS(Cart)=  0.00005702 RMS(Int)=  0.00774820
 Iteration 70 RMS(Cart)=  0.00005639 RMS(Int)=  0.00771075
 Iteration 71 RMS(Cart)=  0.00005578 RMS(Int)=  0.00767371
 Iteration 72 RMS(Cart)=  0.00005517 RMS(Int)=  0.00763708
 Iteration 73 RMS(Cart)=  0.00005457 RMS(Int)=  0.00760085
 Iteration 74 RMS(Cart)=  0.00005398 RMS(Int)=  0.00756500
 Iteration 75 RMS(Cart)=  0.00005340 RMS(Int)=  0.00752955
 Iteration 76 RMS(Cart)=  0.00005283 RMS(Int)=  0.00749447
 Iteration 77 RMS(Cart)=  0.00005227 RMS(Int)=  0.00745976
 Iteration 78 RMS(Cart)=  0.00005172 RMS(Int)=  0.00742542
 Iteration 79 RMS(Cart)=  0.00005118 RMS(Int)=  0.00739144
 Iteration 80 RMS(Cart)=  0.00005065 RMS(Int)=  0.00735781
 Iteration 81 RMS(Cart)=  0.00005013 RMS(Int)=  0.00732454
 Iteration 82 RMS(Cart)=  0.00004961 RMS(Int)=  0.00729160
 Iteration 83 RMS(Cart)=  0.00004910 RMS(Int)=  0.00725901
 Iteration 84 RMS(Cart)=  0.00004860 RMS(Int)=  0.00722674
 Iteration 85 RMS(Cart)=  0.00004811 RMS(Int)=  0.00719481
 Iteration 86 RMS(Cart)=  0.00004763 RMS(Int)=  0.00716319
 Iteration 87 RMS(Cart)=  0.00004715 RMS(Int)=  0.00713190
 Iteration 88 RMS(Cart)=  0.00004668 RMS(Int)=  0.00710091
 Iteration 89 RMS(Cart)=  0.00004621 RMS(Int)=  0.00707023
 Iteration 90 RMS(Cart)=  0.00004576 RMS(Int)=  0.00703986
 Iteration 91 RMS(Cart)=  0.00004531 RMS(Int)=  0.00700979
 Iteration 92 RMS(Cart)=  0.00004487 RMS(Int)=  0.00698000
 Iteration 93 RMS(Cart)=  0.00004443 RMS(Int)=  0.00695051
 Iteration 94 RMS(Cart)=  0.00004400 RMS(Int)=  0.00692131
 Iteration 95 RMS(Cart)=  0.00004357 RMS(Int)=  0.00689238
 Iteration 96 RMS(Cart)=  0.00004315 RMS(Int)=  0.00686373
 Iteration 97 RMS(Cart)=  0.00004274 RMS(Int)=  0.00683536
 Iteration 98 RMS(Cart)=  0.00004233 RMS(Int)=  0.00680725
 Iteration 99 RMS(Cart)=  0.00004193 RMS(Int)=  0.00677941
 Iteration100 RMS(Cart)=  0.00004153 RMS(Int)=  0.00675183
 New curvilinear step not converged.
 ITry= 7 IFail=1 DXMaxC= 5.81D-02 DCOld= 1.00D+10 DXMaxT= 1.26D+00 DXLimC= 3.00D+00 Rises=F
 Iteration  1 RMS(Cart)=  0.00166301 RMS(Int)=  0.00837795
 Iteration  2 RMS(Cart)=  0.00010319 RMS(Int)=  0.00832050
 Iteration  3 RMS(Cart)=  0.00010160 RMS(Int)=  0.00826393
 Iteration  4 RMS(Cart)=  0.00010006 RMS(Int)=  0.00820823
 Iteration  5 RMS(Cart)=  0.00009854 RMS(Int)=  0.00815337
 Iteration  6 RMS(Cart)=  0.00009707 RMS(Int)=  0.00809934
 Iteration  7 RMS(Cart)=  0.00009563 RMS(Int)=  0.00804611
 Iteration  8 RMS(Cart)=  0.00009422 RMS(Int)=  0.00799367
 Iteration  9 RMS(Cart)=  0.00009285 RMS(Int)=  0.00794199
 Iteration 10 RMS(Cart)=  0.00009151 RMS(Int)=  0.00789107
 Iteration 11 RMS(Cart)=  0.00009020 RMS(Int)=  0.00784087
 Iteration 12 RMS(Cart)=  0.00008891 RMS(Int)=  0.00779140
 Iteration 13 RMS(Cart)=  0.00008766 RMS(Int)=  0.00774262
 Iteration 14 RMS(Cart)=  0.00008644 RMS(Int)=  0.00769452
 Iteration 15 RMS(Cart)=  0.00008524 RMS(Int)=  0.00764710
 Iteration 16 RMS(Cart)=  0.00008407 RMS(Int)=  0.00760033
 Iteration 17 RMS(Cart)=  0.00008293 RMS(Int)=  0.00755419
 Iteration 18 RMS(Cart)=  0.00008181 RMS(Int)=  0.00750869
 Iteration 19 RMS(Cart)=  0.00008071 RMS(Int)=  0.00746379
 Iteration 20 RMS(Cart)=  0.00007964 RMS(Int)=  0.00741950
 Iteration 21 RMS(Cart)=  0.00007859 RMS(Int)=  0.00737579
 Iteration 22 RMS(Cart)=  0.00007756 RMS(Int)=  0.00733266
 Iteration 23 RMS(Cart)=  0.00007655 RMS(Int)=  0.00729009
 Iteration 24 RMS(Cart)=  0.00007556 RMS(Int)=  0.00724807
 Iteration 25 RMS(Cart)=  0.00007460 RMS(Int)=  0.00720659
 Iteration 26 RMS(Cart)=  0.00007365 RMS(Int)=  0.00716563
 Iteration 27 RMS(Cart)=  0.00007272 RMS(Int)=  0.00712520
 Iteration 28 RMS(Cart)=  0.00007181 RMS(Int)=  0.00708528
 Iteration 29 RMS(Cart)=  0.00007092 RMS(Int)=  0.00704585
 Iteration 30 RMS(Cart)=  0.00007005 RMS(Int)=  0.00700691
 Iteration 31 RMS(Cart)=  0.00006919 RMS(Int)=  0.00696845
 Iteration 32 RMS(Cart)=  0.00006835 RMS(Int)=  0.00693046
 Iteration 33 RMS(Cart)=  0.00006753 RMS(Int)=  0.00689293
 Iteration 34 RMS(Cart)=  0.00006672 RMS(Int)=  0.00685585
 Iteration 35 RMS(Cart)=  0.00006592 RMS(Int)=  0.00681922
 Iteration 36 RMS(Cart)=  0.00006515 RMS(Int)=  0.00678302
 Iteration 37 RMS(Cart)=  0.00006438 RMS(Int)=  0.00674725
 Iteration 38 RMS(Cart)=  0.00006363 RMS(Int)=  0.00671189
 Iteration 39 RMS(Cart)=  0.00006290 RMS(Int)=  0.00667695
 Iteration 40 RMS(Cart)=  0.00006217 RMS(Int)=  0.00664241
 Iteration 41 RMS(Cart)=  0.00006146 RMS(Int)=  0.00660826
 Iteration 42 RMS(Cart)=  0.00006077 RMS(Int)=  0.00657451
 Iteration 43 RMS(Cart)=  0.00006008 RMS(Int)=  0.00654114
 Iteration 44 RMS(Cart)=  0.00005941 RMS(Int)=  0.00650814
 Iteration 45 RMS(Cart)=  0.00005875 RMS(Int)=  0.00647551
 Iteration 46 RMS(Cart)=  0.00005810 RMS(Int)=  0.00644325
 Iteration 47 RMS(Cart)=  0.00005746 RMS(Int)=  0.00641134
 Iteration 48 RMS(Cart)=  0.00005684 RMS(Int)=  0.00637978
 Iteration 49 RMS(Cart)=  0.00005622 RMS(Int)=  0.00634857
 Iteration 50 RMS(Cart)=  0.00005562 RMS(Int)=  0.00631769
 Iteration 51 RMS(Cart)=  0.00005502 RMS(Int)=  0.00628715
 Iteration 52 RMS(Cart)=  0.00005444 RMS(Int)=  0.00625693
 Iteration 53 RMS(Cart)=  0.00005386 RMS(Int)=  0.00622703
 Iteration 54 RMS(Cart)=  0.00005329 RMS(Int)=  0.00619745
 Iteration 55 RMS(Cart)=  0.00005274 RMS(Int)=  0.00616818
 Iteration 56 RMS(Cart)=  0.00005219 RMS(Int)=  0.00613922
 Iteration 57 RMS(Cart)=  0.00005165 RMS(Int)=  0.00611056
 Iteration 58 RMS(Cart)=  0.00005112 RMS(Int)=  0.00608219
 Iteration 59 RMS(Cart)=  0.00005060 RMS(Int)=  0.00605411
 Iteration 60 RMS(Cart)=  0.00005009 RMS(Int)=  0.00602632
 Iteration 61 RMS(Cart)=  0.00004958 RMS(Int)=  0.00599882
 Iteration 62 RMS(Cart)=  0.00004909 RMS(Int)=  0.00597159
 Iteration 63 RMS(Cart)=  0.00004860 RMS(Int)=  0.00594463
slurmstepd: error: *** JOB 27448328 ON lewis4-r630-hpc4rc-node370 CANCELLED AT 2023-05-17T13:17:46 DUE TO TIME LIMIT ***
