### Starting Gaussian ###
 Entering Gaussian System, Link 0=g16
 Initial command:
 /cluster/software/gaussian/gaussian-16-A.03/avx2/g16/l1.exe "/local/scratch/linjian/Gau-11037.inp" -scrdir="/local/scratch/linjian/"
 Entering Link 1 = /cluster/software/gaussian/gaussian-16-A.03/avx2/g16/l1.exe PID=     11038.
  
 Copyright (c) 1988,1990,1992,1993,1995,1998,2003,2009,2016,
            Gaussian, Inc.  All Rights Reserved.
  
 This is part of the Gaussian(R) 16 program.  It is based on
 the Gaussian(R) 09 system (copyright 2009, Gaussian, Inc.),
 the Gaussian(R) 03 system (copyright 2003, Gaussian, Inc.),
 the Gaussian(R) 98 system (copyright 1998, Gaussian, Inc.),
 the Gaussian(R) 94 system (copyright 1995, Gaussian, Inc.),
 the Gaussian 92(TM) system (copyright 1992, Gaussian, Inc.),
 the Gaussian 90(TM) system (copyright 1990, Gaussian, Inc.),
 the Gaussian 88(TM) system (copyright 1988, Gaussian, Inc.),
 the Gaussian 86(TM) system (copyright 1986, Carnegie Mellon
 University), and the Gaussian 82(TM) system (copyright 1983,
 Carnegie Mellon University). Gaussian is a federally registered
 trademark of Gaussian, Inc.
  
 This software contains proprietary and confidential information,
 including trade secrets, belonging to Gaussian, Inc.
  
 This software is provided under written license and may be
 used, copied, transmitted, or stored only in accord with that
 written license.
  
 The following legend is applicable only to US Government
 contracts under FAR:
  
                    RESTRICTED RIGHTS LEGEND
  
 Use, reproduction and disclosure by the US Government is
 subject to restrictions as set forth in subparagraphs (a)
 and (c) of the Commercial Computer Software - Restricted
 Rights clause in FAR 52.227-19.
  
 Gaussian, Inc.
 340 Quinnipiac St., Bldg. 40, Wallingford CT 06492
  
  
 ---------------------------------------------------------------
 Warning -- This program may not be used in any manner that
 competes with the business of Gaussian, Inc. or will provide
 assistance to any competitor of Gaussian, Inc.  The licensee
 of this program is prohibited from giving any competitor of
 Gaussian, Inc. access to this program.  By using this program,
 the user acknowledges that Gaussian, Inc. is engaged in the
 business of creating and licensing software in the field of
 computational chemistry and represents and warrants to the
 licensee that it is not a competitor of Gaussian, Inc. and that
 it will not use this program in any manner prohibited above.
 ---------------------------------------------------------------
  

 Cite this work as:
 Gaussian 16, Revision A.03,
 M. J. Frisch, G. W. Trucks, H. B. Schlegel, G. E. Scuseria, 
 M. A. Robb, J. R. Cheeseman, G. Scalmani, V. Barone, 
 G. A. Petersson, H. Nakatsuji, X. Li, M. Caricato, A. V. Marenich, 
 J. Bloino, B. G. Janesko, R. Gomperts, B. Mennucci, H. P. Hratchian, 
 J. V. Ortiz, A. F. Izmaylov, J. L. Sonnenberg, D. Williams-Young, 
 F. Ding, F. Lipparini, F. Egidi, J. Goings, B. Peng, A. Petrone, 
 T. Henderson, D. Ranasinghe, V. G. Zakrzewski, J. Gao, N. Rega, 
 G. Zheng, W. Liang, M. Hada, M. Ehara, K. Toyota, R. Fukuda, 
 J. Hasegawa, M. Ishida, T. Nakajima, Y. Honda, O. Kitao, H. Nakai, 
 T. Vreven, K. Throssell, J. A. Montgomery, Jr., J. E. Peralta, 
 F. Ogliaro, M. J. Bearpark, J. J. Heyd, E. N. Brothers, K. N. Kudin, 
 V. N. Staroverov, T. A. Keith, R. Kobayashi, J. Normand, 
 K. Raghavachari, A. P. Rendell, J. C. Burant, S. S. Iyengar, 
 J. Tomasi, M. Cossi, J. M. Millam, M. Klene, C. Adamo, R. Cammi, 
 J. W. Ochterski, R. L. Martin, K. Morokuma, O. Farkas, 
 J. B. Foresman, and D. J. Fox, Gaussian, Inc., Wallingford CT, 2016.
 
 ******************************************
 Gaussian 16:  ES64L-G16RevA.03 25-Dec-2016
                18-May-2023 
 ******************************************
 %chk=CCCqCrc1ccc2nn3cqcc1-2rCdCCdCCdCCdCO3.chk
 %NProcShared=20
 Will use up to   20 processors via shared memory.
 -----------------------------
 # opt freq b3lyp/6-31g(2df,p)
 -----------------------------
 1/18=20,19=15,26=3,38=1/1,3;
 2/9=110,12=2,17=6,18=5,40=1/2;
 3/5=1,6=6,7=104,11=2,25=1,30=1,71=1,74=-5/1,2,3;
 4//1;
 5/5=2,38=5/2;
 6/7=2,8=2,9=2,10=2,28=1/1;
 7//1,2,3,16;
 1/18=20,19=15,26=3/3(2);
 2/9=110/2;
 99//99;
 2/9=110/2;
 3/5=1,6=6,7=104,11=2,25=1,30=1,71=1,74=-5/1,2,3;
 4/5=5,16=3,69=1/1;
 5/5=2,38=5/2;
 7//1,2,3,16;
 1/18=20,19=15,26=3/3(-5);
 2/9=110/2;
 6/7=2,8=2,9=2,10=2,19=2,28=1/1;
 99/9=1/99;
 -------------------
 Title Card Required
 -------------------
 Symbolic Z-matrix:
 Charge =  0 Multiplicity = 1
 C                     0.95379   0.06916   0.0519 
 C                     2.47431   0.07252   0.02699 
 C                     3.03777  -0.01258  -1.42249 
 C                     2.48167   1.1726   -2.1941 
 C                     4.60888  -0.02929  -1.6315 
 C                     5.4393   -0.02054  -0.43946 
 C                     6.76238  -0.01713  -0.92501 
 C                     7.08388  -0.02181  -2.84594 
 N                     8.14471  -0.03318  -4.19934 
 N                     8.23428  -0.0823   -6.23246 
 C                     6.51181  -0.03409  -5.45688 
 C                     5.3891   -0.02075  -4.27027 
 C                     5.45627  -0.02411  -2.80711 
 C                     5.72163  -0.00677  -6.51584 
 C                     6.50798   0.00832  -7.49701 
 C                     6.23258  -0.01277  -8.74812 
 C                     7.07682   0.07788  -9.63717 
 C                     7.04122   0.13181  -10.93998 
 C                     8.3946    0.28627  -11.05357 
 C                     8.63684  -0.22091  -12.16272 
 C                     9.10724  -0.44142  -10.4124 
 O                     9.02845  -0.13752  -8.23271 
 H                     0.58143   0.13846   1.07406 
 H                     0.57388  -0.84533  -0.4086 
 H                     0.55517   0.92485  -0.49474 
 H                     2.82609  -0.77802   0.61776 
 H                     2.8259    0.99214   0.50742 
 H                     2.62582  -0.93731  -1.84887 
 H                     2.82618   2.10719  -1.743 
 H                     1.39008   1.18475  -2.22148 
 H                     2.8159    1.1295   -3.22364 
 H                     4.99219  -0.019     0.61655 
 H                     7.50071  -0.01765  -0.10953 
 H                     4.2401   -0.02311  -4.38266 
 H                     4.71561  -0.0051   -6.67645 
 H                     7.50609   0.0269   -7.59478 
 H                     5.33955  -0.00816  -9.12294 
 H                     7.98307   0.31387  -9.30204 
 H                     6.20381   0.00363  -11.57928 
 H                     10.06259   0.39208  -11.14035 
 H                     7.6429    0.01281  -13.24235 
 H                     9.51615  -0.23661  -12.00911 
 
 Add virtual bond connecting atoms H42        and H40        Dist= 2.27D+00.
 Add virtual bond connecting atoms H41        and C20        Dist= 2.81D+00.
 Add virtual bond connecting atoms H36        and N10        Dist= 2.93D+00.
 Add virtual bond connecting atoms H36        and O22        Dist= 3.13D+00.
 Add virtual bond connecting atoms H38        and O22        Dist= 2.95D+00.

 GradGradGradGradGradGradGradGradGradGradGradGradGradGradGradGradGradGrad
 Berny optimization.
 Initialization pass.
                           ----------------------------
                           !    Initial Parameters    !
                           ! (Angstroms and Degrees)  !
 --------------------------                            --------------------------
 ! Name  Definition              Value          Derivative Info.                !
 --------------------------------------------------------------------------------
 ! R1    R(1,2)                  1.5207         estimate D2E/DX2                !
 ! R2    R(1,23)                 1.0901         estimate D2E/DX2                !
 ! R3    R(1,24)                 1.0921         estimate D2E/DX2                !
 ! R4    R(1,25)                 1.0908         estimate D2E/DX2                !
 ! R5    R(2,3)                  1.5575         estimate D2E/DX2                !
 ! R6    R(2,26)                 1.0937         estimate D2E/DX2                !
 ! R7    R(2,27)                 1.0955         estimate D2E/DX2                !
 ! R8    R(3,4)                  1.5196         estimate D2E/DX2                !
 ! R9    R(3,5)                  1.585          estimate D2E/DX2                !
 ! R10   R(3,28)                 1.0985         estimate D2E/DX2                !
 ! R11   R(4,29)                 1.0935         estimate D2E/DX2                !
 ! R12   R(4,30)                 1.092          estimate D2E/DX2                !
 ! R13   R(4,31)                 1.0833         estimate D2E/DX2                !
 ! R14   R(5,6)                  1.4528         estimate D2E/DX2                !
 ! R15   R(5,13)                 1.4492         estimate D2E/DX2                !
 ! R16   R(6,7)                  1.4094         estimate D2E/DX2                !
 ! R17   R(6,32)                 1.1468         estimate D2E/DX2                !
 ! R18   R(7,33)                 1.1001         estimate D2E/DX2                !
 ! R19   R(8,9)                  1.7196         estimate D2E/DX2                !
 ! R20   R(8,13)                 1.6281         estimate D2E/DX2                !
 ! R21   R(10,36)                1.5486         estimate D2E/DX2                !
 ! R22   R(11,12)                1.6336         estimate D2E/DX2                !
 ! R23   R(11,14)                1.3216         estimate D2E/DX2                !
 ! R24   R(12,13)                1.4647         estimate D2E/DX2                !
 ! R25   R(12,34)                1.1545         estimate D2E/DX2                !
 ! R26   R(14,15)                1.2575         estimate D2E/DX2                !
 ! R27   R(14,35)                1.0188         estimate D2E/DX2                !
 ! R28   R(15,16)                1.2812         estimate D2E/DX2                !
 ! R29   R(15,36)                1.0031         estimate D2E/DX2                !
 ! R30   R(16,17)                1.2294         estimate D2E/DX2                !
 ! R31   R(16,37)                0.9685         estimate D2E/DX2                !
 ! R32   R(17,18)                1.3044         estimate D2E/DX2                !
 ! R33   R(17,38)                0.9946         estimate D2E/DX2                !
 ! R34   R(18,19)                1.3669         estimate D2E/DX2                !
 ! R35   R(18,39)                1.0613         estimate D2E/DX2                !
 ! R36   R(19,20)                1.2434         estimate D2E/DX2                !
 ! R37   R(19,21)                1.2035         estimate D2E/DX2                !
 ! R38   R(20,21)                1.8258         estimate D2E/DX2                !
 ! R39   R(20,41)                1.486          estimate D2E/DX2                !
 ! R40   R(20,42)                0.8928         estimate D2E/DX2                !
 ! R41   R(22,36)                1.6588         estimate D2E/DX2                !
 ! R42   R(22,38)                1.5621         estimate D2E/DX2                !
 ! R43   R(40,42)                1.2036         estimate D2E/DX2                !
 ! A1    A(2,1,23)             110.9016         estimate D2E/DX2                !
 ! A2    A(2,1,24)             110.0455         estimate D2E/DX2                !
 ! A3    A(2,1,25)             110.8201         estimate D2E/DX2                !
 ! A4    A(23,1,24)            109.2565         estimate D2E/DX2                !
 ! A5    A(23,1,25)            107.1697         estimate D2E/DX2                !
 ! A6    A(24,1,25)            108.5683         estimate D2E/DX2                !
 ! A7    A(1,2,3)              112.1389         estimate D2E/DX2                !
 ! A8    A(1,2,26)             108.1215         estimate D2E/DX2                !
 ! A9    A(1,2,27)             108.395          estimate D2E/DX2                !
 ! A10   A(3,2,26)             110.1116         estimate D2E/DX2                !
 ! A11   A(3,2,27)             109.7488         estimate D2E/DX2                !
 ! A12   A(26,2,27)            108.2223         estimate D2E/DX2                !
 ! A13   A(2,3,4)              107.3104         estimate D2E/DX2                !
 ! A14   A(2,3,5)              118.8093         estimate D2E/DX2                !
 ! A15   A(2,3,28)             105.7576         estimate D2E/DX2                !
 ! A16   A(4,3,5)              107.6977         estimate D2E/DX2                !
 ! A17   A(4,3,28)             108.7978         estimate D2E/DX2                !
 ! A18   A(5,3,28)             108.1598         estimate D2E/DX2                !
 ! A19   A(3,4,29)             109.9885         estimate D2E/DX2                !
 ! A20   A(3,4,30)             112.7813         estimate D2E/DX2                !
 ! A21   A(3,4,31)             109.7935         estimate D2E/DX2                !
 ! A22   A(29,4,30)            108.408          estimate D2E/DX2                !
 ! A23   A(29,4,31)            109.2005         estimate D2E/DX2                !
 ! A24   A(30,4,31)            106.5606         estimate D2E/DX2                !
 ! A25   A(3,5,6)              117.2785         estimate D2E/DX2                !
 ! A26   A(3,5,13)             133.3558         estimate D2E/DX2                !
 ! A27   A(6,5,13)             109.3513         estimate D2E/DX2                !
 ! A28   A(5,6,7)              104.7107         estimate D2E/DX2                !
 ! A29   A(5,6,32)             122.1898         estimate D2E/DX2                !
 ! A30   A(7,6,32)             133.0995         estimate D2E/DX2                !
 ! A31   A(6,7,33)             112.005          estimate D2E/DX2                !
 ! A32   A(9,8,13)             129.4551         estimate D2E/DX2                !
 ! A33   A(12,11,14)            99.843          estimate D2E/DX2                !
 ! A34   A(11,12,13)           133.9531         estimate D2E/DX2                !
 ! A35   A(11,12,34)           127.8256         estimate D2E/DX2                !
 ! A36   A(13,12,34)            98.2148         estimate D2E/DX2                !
 ! A37   A(5,13,8)             127.1511         estimate D2E/DX2                !
 ! A38   A(5,13,12)            141.5873         estimate D2E/DX2                !
 ! A39   A(8,13,12)             91.2616         estimate D2E/DX2                !
 ! A40   A(11,14,15)           104.5706         estimate D2E/DX2                !
 ! A41   A(11,14,35)           135.7905         estimate D2E/DX2                !
 ! A42   A(15,14,35)           119.6358         estimate D2E/DX2                !
 ! A43   A(14,15,16)           128.8515         estimate D2E/DX2                !
 ! A44   A(14,15,36)           134.3089         estimate D2E/DX2                !
 ! A45   A(16,15,36)            96.8351         estimate D2E/DX2                !
 ! A46   A(15,16,17)           123.8723         estimate D2E/DX2                !
 ! A47   A(15,16,37)           125.1714         estimate D2E/DX2                !
 ! A48   A(17,16,37)           110.6696         estimate D2E/DX2                !
 ! A49   A(16,17,18)           134.9581         estimate D2E/DX2                !
 ! A50   A(16,17,38)           113.5489         estimate D2E/DX2                !
 ! A51   A(18,17,38)           110.5841         estimate D2E/DX2                !
 ! A52   A(17,18,19)            93.477          estimate D2E/DX2                !
 ! A53   A(17,18,39)           128.1824         estimate D2E/DX2                !
 ! A54   A(19,18,39)           138.1437         estimate D2E/DX2                !
 ! A55   A(18,19,20)           102.7633         estimate D2E/DX2                !
 ! A56   A(18,19,21)           118.2732         estimate D2E/DX2                !
 ! A57   A(19,20,41)           116.9761         estimate D2E/DX2                !
 ! A58   A(19,20,42)            92.612          estimate D2E/DX2                !
 ! A59   A(21,20,41)           152.6026         estimate D2E/DX2                !
 ! A60   A(21,20,42)            65.1129         estimate D2E/DX2                !
 ! A61   A(41,20,42)           141.8664         estimate D2E/DX2                !
 ! A62   A(36,22,38)            67.6932         estimate D2E/DX2                !
 ! A63   A(10,36,15)           112.3867         estimate D2E/DX2                !
 ! A64   A(10,36,22)            84.2478         estimate D2E/DX2                !
 ! A65   A(15,36,22)           161.6002         estimate D2E/DX2                !
 ! A66   A(17,38,22)           140.521          estimate D2E/DX2                !
 ! A67   A(20,42,40)           124.2069         estimate D2E/DX2                !
 ! D1    D(23,1,2,3)          -179.4828         estimate D2E/DX2                !
 ! D2    D(23,1,2,26)           58.9338         estimate D2E/DX2                !
 ! D3    D(23,1,2,27)          -58.1682         estimate D2E/DX2                !
 ! D4    D(24,1,2,3)            59.5106         estimate D2E/DX2                !
 ! D5    D(24,1,2,26)          -62.0728         estimate D2E/DX2                !
 ! D6    D(24,1,2,27)         -179.1748         estimate D2E/DX2                !
 ! D7    D(25,1,2,3)           -60.582          estimate D2E/DX2                !
 ! D8    D(25,1,2,26)          177.8347         estimate D2E/DX2                !
 ! D9    D(25,1,2,27)           60.7326         estimate D2E/DX2                !
 ! D10   D(1,2,3,4)             58.0483         estimate D2E/DX2                !
 ! D11   D(1,2,3,5)           -179.6214         estimate D2E/DX2                !
 ! D12   D(1,2,3,28)           -57.9688         estimate D2E/DX2                !
 ! D13   D(26,2,3,4)           178.484          estimate D2E/DX2                !
 ! D14   D(26,2,3,5)           -59.1856         estimate D2E/DX2                !
 ! D15   D(26,2,3,28)           62.4669         estimate D2E/DX2                !
 ! D16   D(27,2,3,4)           -62.485          estimate D2E/DX2                !
 ! D17   D(27,2,3,5)            59.8454         estimate D2E/DX2                !
 ! D18   D(27,2,3,28)         -178.5021         estimate D2E/DX2                !
 ! D19   D(2,3,4,29)            62.2051         estimate D2E/DX2                !
 ! D20   D(2,3,4,30)           -58.9408         estimate D2E/DX2                !
 ! D21   D(2,3,4,31)          -177.607          estimate D2E/DX2                !
 ! D22   D(5,3,4,29)           -66.7923         estimate D2E/DX2                !
 ! D23   D(5,3,4,30)           172.0619         estimate D2E/DX2                !
 ! D24   D(5,3,4,31)            53.3957         estimate D2E/DX2                !
 ! D25   D(28,3,4,29)          176.1943         estimate D2E/DX2                !
 ! D26   D(28,3,4,30)           55.0484         estimate D2E/DX2                !
 ! D27   D(28,3,4,31)          -63.6177         estimate D2E/DX2                !
 ! D28   D(2,3,5,6)              2.5428         estimate D2E/DX2                !
 ! D29   D(2,3,5,13)          -175.9054         estimate D2E/DX2                !
 ! D30   D(4,3,5,6)            124.6794         estimate D2E/DX2                !
 ! D31   D(4,3,5,13)           -53.7687         estimate D2E/DX2                !
 ! D32   D(28,3,5,6)          -117.8926         estimate D2E/DX2                !
 ! D33   D(28,3,5,13)           63.6593         estimate D2E/DX2                !
 ! D34   D(3,5,6,7)           -179.0897         estimate D2E/DX2                !
 ! D35   D(3,5,6,32)             0.9839         estimate D2E/DX2                !
 ! D36   D(13,5,6,7)            -0.2855         estimate D2E/DX2                !
 ! D37   D(13,5,6,32)          179.788          estimate D2E/DX2                !
 ! D38   D(3,5,13,8)           179.0295         estimate D2E/DX2                !
 ! D39   D(3,5,13,12)           -1.0709         estimate D2E/DX2                !
 ! D40   D(6,5,13,8)             0.4913         estimate D2E/DX2                !
 ! D41   D(6,5,13,12)         -179.6091         estimate D2E/DX2                !
 ! D42   D(5,6,7,33)          -179.5944         estimate D2E/DX2                !
 ! D43   D(32,6,7,33)            0.3203         estimate D2E/DX2                !
 ! D44   D(9,8,13,5)           179.2471         estimate D2E/DX2                !
 ! D45   D(9,8,13,12)           -0.6905         estimate D2E/DX2                !
 ! D46   D(14,11,12,13)       -179.3502         estimate D2E/DX2                !
 ! D47   D(14,11,12,34)          1.795          estimate D2E/DX2                !
 ! D48   D(12,11,14,15)        178.9169         estimate D2E/DX2                !
 ! D49   D(12,11,14,35)         -1.7637         estimate D2E/DX2                !
 ! D50   D(11,12,13,5)        -179.0595         estimate D2E/DX2                !
 ! D51   D(11,12,13,8)           0.8605         estimate D2E/DX2                !
 ! D52   D(34,12,13,5)           0.0266         estimate D2E/DX2                !
 ! D53   D(34,12,13,8)         179.9465         estimate D2E/DX2                !
 ! D54   D(11,14,15,16)        177.1895         estimate D2E/DX2                !
 ! D55   D(11,14,15,36)         -1.8573         estimate D2E/DX2                !
 ! D56   D(35,14,15,16)         -2.2645         estimate D2E/DX2                !
 ! D57   D(35,14,15,36)        178.6887         estimate D2E/DX2                !
 ! D58   D(14,15,16,17)        175.9112         estimate D2E/DX2                !
 ! D59   D(14,15,16,37)          2.6414         estimate D2E/DX2                !
 ! D60   D(36,15,16,17)         -4.7758         estimate D2E/DX2                !
 ! D61   D(36,15,16,37)       -178.0456         estimate D2E/DX2                !
 ! D62   D(14,15,36,10)          4.8884         estimate D2E/DX2                !
 ! D63   D(14,15,36,22)        158.3736         estimate D2E/DX2                !
 ! D64   D(16,15,36,10)       -174.3639         estimate D2E/DX2                !
 ! D65   D(16,15,36,22)        -20.8787         estimate D2E/DX2                !
 ! D66   D(15,16,17,18)       -176.8875         estimate D2E/DX2                !
 ! D67   D(15,16,17,38)         -9.1523         estimate D2E/DX2                !
 ! D68   D(37,16,17,18)         -2.7642         estimate D2E/DX2                !
 ! D69   D(37,16,17,38)        164.971          estimate D2E/DX2                !
 ! D70   D(16,17,18,19)        177.2495         estimate D2E/DX2                !
 ! D71   D(16,17,18,39)         -7.1277         estimate D2E/DX2                !
 ! D72   D(38,17,18,19)          9.2558         estimate D2E/DX2                !
 ! D73   D(38,17,18,39)       -175.1214         estimate D2E/DX2                !
 ! D74   D(16,17,38,22)         51.2056         estimate D2E/DX2                !
 ! D75   D(18,17,38,22)       -138.0345         estimate D2E/DX2                !
 ! D76   D(17,18,19,20)        151.4762         estimate D2E/DX2                !
 ! D77   D(17,18,19,21)         46.7819         estimate D2E/DX2                !
 ! D78   D(39,18,19,20)        -23.3654         estimate D2E/DX2                !
 ! D79   D(39,18,19,21)       -128.0597         estimate D2E/DX2                !
 ! D80   D(18,19,20,41)         38.0629         estimate D2E/DX2                !
 ! D81   D(18,19,20,42)       -166.878          estimate D2E/DX2                !
 ! D82   D(19,20,42,40)        -16.0134         estimate D2E/DX2                !
 ! D83   D(21,20,42,40)        -47.2465         estimate D2E/DX2                !
 ! D84   D(41,20,42,40)        126.499          estimate D2E/DX2                !
 ! D85   D(38,22,36,10)       -167.6638         estimate D2E/DX2                !
 ! D86   D(38,22,36,15)         36.8474         estimate D2E/DX2                !
 ! D87   D(36,22,38,17)        -48.4513         estimate D2E/DX2                !
 --------------------------------------------------------------------------------
 Trust Radius=3.00D-01 FncErr=1.00D-07 GrdErr=1.00D-06 EigMax=2.50D+02 EigMin=1.00D-04
 Number of steps in this run=    207 maximum allowed number of steps=    252.
 GradGradGradGradGradGradGradGradGradGradGradGradGradGradGradGradGradGrad

                          Input orientation:                          
 ---------------------------------------------------------------------
 Center     Atomic      Atomic             Coordinates (Angstroms)
 Number     Number       Type             X           Y           Z
 ---------------------------------------------------------------------
      1          6           0        0.953790    0.069160    0.051900
      2          6           0        2.474310    0.072520    0.026990
      3          6           0        3.037770   -0.012580   -1.422490
      4          6           0        2.481670    1.172600   -2.194100
      5          6           0        4.608880   -0.029290   -1.631500
      6          6           0        5.439300   -0.020540   -0.439460
      7          6           0        6.762380   -0.017130   -0.925010
      8          6           0        7.083880   -0.021810   -2.845940
      9          7           0        8.144710   -0.033180   -4.199340
     10          7           0        8.234280   -0.082300   -6.232460
     11          6           0        6.511810   -0.034090   -5.456880
     12          6           0        5.389100   -0.020750   -4.270270
     13          6           0        5.456270   -0.024110   -2.807110
     14          6           0        5.721630   -0.006770   -6.515840
     15          6           0        6.507980    0.008320   -7.497010
     16          6           0        6.232580   -0.012770   -8.748120
     17          6           0        7.076820    0.077880   -9.637170
     18          6           0        7.041220    0.131810  -10.939980
     19          6           0        8.394600    0.286270  -11.053570
     20          6           0        8.636840   -0.220910  -12.162720
     21          6           0        9.107240   -0.441420  -10.412400
     22          8           0        9.028450   -0.137520   -8.232710
     23          1           0        0.581430    0.138460    1.074060
     24          1           0        0.573880   -0.845330   -0.408600
     25          1           0        0.555170    0.924850   -0.494740
     26          1           0        2.826090   -0.778020    0.617760
     27          1           0        2.825900    0.992140    0.507420
     28          1           0        2.625820   -0.937310   -1.848870
     29          1           0        2.826180    2.107190   -1.743000
     30          1           0        1.390080    1.184750   -2.221480
     31          1           0        2.815900    1.129500   -3.223640
     32          1           0        4.992190   -0.019000    0.616550
     33          1           0        7.500710   -0.017650   -0.109530
     34          1           0        4.240100   -0.023110   -4.382660
     35          1           0        4.715610   -0.005100   -6.676450
     36          1           0        7.506090    0.026900   -7.594780
     37          1           0        5.339550   -0.008160   -9.122940
     38          1           0        7.983070    0.313870   -9.302040
     39          1           0        6.203810    0.003630  -11.579280
     40          1           0       10.062590    0.392080  -11.140350
     41          1           0        7.642900    0.012810  -13.242350
     42          1           0        9.516150   -0.236610  -12.009110
 ---------------------------------------------------------------------
                    Distance matrix (angstroms):
                    1          2          3          4          5
     1  C    0.000000
     2  C    1.520728   0.000000
     3  C    2.554110   1.557473   0.000000
     4  C    2.931981   2.478603   1.519632   0.000000
     5  C    4.025321   2.705059   1.585040   2.507206   0.000000
     6  C    4.513234   3.002899   2.594948   3.640044   1.452802
     7  C    5.890799   4.393391   3.757689   4.620663   2.266459
     8  C    6.781132   5.432381   4.289208   4.799151   2.756909
     9  N    8.354211   7.072940   5.813102   6.127391   4.369887
    10  N    9.618818   8.507758   7.081270   7.139723   5.857915
    11  C    7.826168   6.810698   5.324070   5.323895   4.272552
    12  C    6.193643   5.193375   3.693057   3.766658   2.751713
    13  C    5.334319   4.115039   2.786835   3.264375   1.449191
    14  C    8.116235   7.304793   5.757200   5.528625   5.009541
    15  C    9.372234   8.537282   6.995898   6.759258   6.165404
    16  C   10.262197   9.546435   7.991975   7.643926   7.299517
    17  C   11.461660  10.704163   9.154402   8.815504   8.378124
    18  C   12.565117  11.880009  10.326232   9.917820   9.622371
    19  C   13.369527  12.564805  11.024638  10.688243  10.159068
    20  C   14.432960  13.662061  12.113857  11.798363  11.276869
    21  C   13.275580  12.379045  10.855453  10.679124   9.874680
    22  O   11.570549  10.546256   9.070995   9.002308   7.944828
    23  H    1.090076   2.164185   3.505593   3.919340   4.854745
    24  H    1.092101   2.154953   2.791451   3.301472   4.294488
    25  H    1.090834   2.163739   2.811192   2.580815   4.316847
    26  H    2.131530   1.093699   2.189367   3.439491   2.966160
    27  H    2.136396   1.095504   2.186070   2.729335   2.966027
    28  H    2.724260   2.135782   1.098466   2.142821   2.191866
    29  H    3.298648   2.719662   2.154280   1.093452   2.784780
    30  H    2.569659   2.732806   2.187891   1.092001   3.490364
    31  H    3.914197   3.435184   2.144228   1.083291   2.663171
    32  H    4.078637   2.587601   2.824444   3.952515   2.280518
    33  H    6.549485   5.029062   4.652067   5.563532   3.267906
    34  H    5.520296   4.751018   3.195045   3.051490   2.775773
    35  H    7.708923   7.068632   5.515369   5.144796   5.046137
    36  H   10.070061   9.133032   7.620014   7.464902   6.630060
    37  H   10.169492   9.588396   8.037110   7.587522   7.527018
    38  H   11.703284  10.836766   9.308591   9.029154   8.386901
    39  H   12.761323  12.190956  10.638818  10.163780  10.074880
    40  H   14.434021  13.505317  11.997860  11.752232  10.969901
    41  H   14.882354  14.240550  12.685305  12.249377  12.000787
    42  H   14.794440  13.948146  12.413546  12.157475  11.481249
                    6          7          8          9         10
     6  C    0.000000
     7  C    1.409366   0.000000
     8  C    2.914754   1.947654   0.000000
     9  N    4.632073   3.554199   1.719646   0.000000
    10  N    6.432307   5.508154   3.577093   2.035685   0.000000
    11  C    5.130786   4.538823   2.672905   2.061012   1.889643
    12  C    3.831139   3.616169   2.213819   2.756551   3.456737
    13  C    2.367714   2.290911   1.628075   3.027556   4.410640
    14  C    6.082951   5.686884   3.914603   3.352340   2.529707
    15  C    7.138061   6.576971   4.686685   3.681743   2.141824
    16  C    8.346447   7.841030   5.963264   4.934375   3.215615
    17  C    9.342860   8.718350   6.791965   5.542808   3.599642
    18  C   10.623101  10.019958   8.095610   6.832360   4.861068
    19  C   11.022126  10.263719   8.317337   6.866219   4.837835
    20  C   12.153157  11.394791   9.447418   7.980780   5.945524
    21  C   10.634400   9.782073   7.843556   6.300416   4.285198
    22  O    8.580817   7.651931   5.728179   4.130370   2.152848
    23  H    5.090670   6.498048   7.594336   9.221790  10.583009
    24  H    4.934931   6.264992   6.999922   8.505690   9.653046
    25  H    4.975092   6.293005   7.003453   8.499588   9.638699
    26  H    2.918965   4.295750   5.540564   7.214358   8.755459
    27  H    2.958372   4.308870   5.513938   7.175975   8.708098
    28  H    3.277587   4.337208   4.659033   6.066326   7.169500
    29  H    3.613149   4.547033   4.886423   6.237111   7.361838
    30  H    4.585248   5.655701   5.853640   7.142850   8.033458
    31  H    3.994556   4.708839   4.436646   5.540761   6.315085
    32  H    1.146764   2.347335   4.045246   5.755986   7.577869
    33  H    2.087648   1.100063   2.767978   4.140232   6.167056
    34  H    4.121518   4.279869   3.232429   3.908924   4.402129
    35  H    6.278854   6.104791   4.503531   4.230318   3.547411
    36  H    7.447985   6.711250   4.767821   3.455497   1.548580
    37  H    8.684062   8.320492   6.514875   5.666691   4.091434
    38  H    9.226479   8.471970   6.527055   5.117042   3.105218
    39  H   11.166049  10.668922   8.777608   7.630987   5.720024
    40  H   11.664224  10.742998   8.822769   7.213649   5.258815
    41  H   12.991188  12.348809  10.411486   9.057039   7.035434
    42  H   12.268830  11.423165   9.482919   7.931881   5.919180
                   11         12         13         14         15
    11  C    0.000000
    12  C    1.633615   0.000000
    13  C    2.852288   1.464705   0.000000
    14  C    1.321562   2.270100   3.718252   0.000000
    15  C    2.040574   3.415346   4.806486   1.257485   0.000000
    16  C    3.303133   4.556607   5.991526   2.290017   1.281236
    17  C    4.219786   5.626877   7.020420   3.403881   2.215559
    18  C    5.511096   6.872977   8.287337   4.618824   3.486207
    19  C    5.913583   7.425662   8.759807   5.274622   4.035556
    20  C    7.036970   8.536899   9.883430   6.358582   5.133560
    21  C    5.608864   7.192169   8.446548   5.180198   3.931656
    22  O    3.748254   5.381397   6.496958   3.728243   2.629694
    23  H    8.823398   7.190334   6.233296   9.167842  10.421333
    24  H    7.835959   6.227260   5.501362   8.031245   9.283739
    25  H    7.811783   6.206099   5.501669   7.988358   9.236220
    26  H    7.144173   5.570935   4.383601   7.737392   8.945621
    27  H    7.086039   5.515638   4.351749   7.662196   8.865468
    28  H    5.379076   3.786684   3.124677   5.677196   6.918589
    29  H    5.653482   4.181361   3.548541   5.969293   7.146295
    30  H    6.179442   4.652196   4.282313   6.214787   7.443662
    31  H    4.472254   3.006637   2.911334   4.535742   5.757620
    32  H    6.260673   4.902912   3.454974   7.169604   8.253982
    33  H    5.438046   4.665904   3.384777   6.648763   7.453928
    34  H    2.512914   1.154486   1.990334   2.597240   3.852719
    35  H    2.171296   2.498707   3.939636   1.018761   1.971317
    36  H    2.358586   3.941609   5.208277   2.085556   1.003059
    37  H    3.849008   4.852939   6.316929   2.634949   2.002286
    38  H    4.131699   5.670922   6.977325   3.602753   2.351039
    39  H    6.130258   7.354317   8.804008   5.086357   4.093589
    40  H    6.715020   8.319251   9.530702   6.355243   5.104552
    41  H    7.867344   9.250890  10.661939   6.995541   5.856364
    42  H    7.211019   8.773185  10.060049   6.680361   5.428455
                   16         17         18         19         20
    16  C    0.000000
    17  C    1.229377   0.000000
    18  C    2.340738   1.304412   0.000000
    19  C    3.174721   1.945806   1.366894   0.000000
    20  C    4.181301   2.983511   2.040958   1.243433   0.000000
    21  C    3.349215   2.234560   2.208024   1.203531   1.825793
    22  O    2.845716   2.414076   3.369115   2.922091   3.950353
    23  H   11.332854  12.526939  13.640604  14.427296  15.499391
    24  H   10.112450  11.327270  12.397228  13.257434  14.267465
    25  H   10.061332  11.262029  12.320747  13.166371  14.239660
    26  H    9.995473  11.133951  12.335983  12.975398  14.050475
    27  H    9.913644  11.037160  12.229148  12.851660  13.991818
    28  H    7.839843   9.027714  10.163024  10.931719  11.959143
    29  H    8.072763   9.192604  10.307916  11.000444  12.155426
    30  H    8.214675   9.410453  10.443003  11.308244  12.382232
    31  H    6.595329   7.771403   8.853848   9.650945  10.752400
    32  H    9.446462  10.463931  11.737745  12.159823  13.290372
    33  H    8.731175   9.537543  10.841223  10.984690  12.108323
    34  H    4.798679   5.972190   7.132231   7.864898   8.938668
    35  H    2.567698   3.787883   4.858487   5.725299   6.746983
    36  H    1.718603   2.087637   3.378975   3.580496   4.712333
    37  H    0.968511   1.813820   2.493373   3.625928   4.489727
    38  H    1.864869   0.994632   1.898177   1.799438   2.982766
    39  H    2.831354   2.130599   1.061315   2.270642   2.512062
    40  H    4.533833   3.357543   3.039172   1.673594   1.858430
    41  H    4.710389   3.649932   2.382664   2.330363   1.485982
    42  H    4.633141   3.416919   2.721039   1.563437   0.892765
                   21         22         23         24         25
    21  C    0.000000
    22  O    2.202183   0.000000
    23  H   14.316580  12.571566   0.000000
    24  H   13.155128  11.541120   1.779376   0.000000
    25  H   13.166798  11.523944   1.755059   1.772373   0.000000
    26  H   12.697660  10.826372   2.467112   2.475964   3.048688
    27  H   12.678833  10.776717   2.467285   3.047455   2.482955
    28  H   10.751221   9.076715   3.725632   2.508644   3.096595
    29  H   11.004800   9.253281   4.104952   3.945992   2.848432
    30  H   11.370583   9.809586   3.550947   2.841468   1.935524
    31  H    9.681272   8.080340   4.944213   4.105004   3.549602
    32  H   11.779211   9.727016   4.437219   4.610338   4.670435
    33  H   10.435979   8.266463   7.021516   6.982512   7.019773
    34  H    7.760271   6.145264   6.571740   5.469037   5.439969
    35  H    5.782224   4.586946   8.785355   7.559488   7.509168
    36  H    3.274445   1.658785  11.095591  10.022849   9.976581
    37  H    4.005735   3.797002  11.253444   9.967557   9.909926
    38  H    1.751320   1.562062  12.746705  11.633276  11.537570
    39  H    3.160630   4.381557  13.846890  12.537980  12.474887
    40  H    1.461960   3.131181  15.464428  14.378361  14.282993
    41  H    3.218576   5.199889  15.963701  14.676941  14.614010
    42  H    1.660915   3.809051  15.847373  14.659692  14.636559
                   26         27         28         29         30
    26  H    0.000000
    27  H    1.773596   0.000000
    28  H    2.479868   3.052034   0.000000
    29  H    3.727952   2.511519   3.052922   0.000000
    30  H    3.738432   3.089591   2.483753   1.772631   0.000000
    31  H    4.288950   3.733601   2.489543   1.774339   1.743657
    32  H    2.295235   2.393141   3.538544   3.844445   4.741163
    33  H    4.791574   4.822256   5.256960   5.388358   6.576161
    34  H    5.251049   5.190720   3.140343   3.674936   3.775214
    35  H    7.574509   7.494897   5.342449   5.689521   5.685213
    36  H    9.486628   9.406461   7.600146   7.776406   8.223050
    37  H   10.089173  10.003143   7.819191   8.078072   8.040616
    38  H   11.233392  11.103241   9.263656   9.324623   9.713922
    39  H   12.680211  12.588715  10.410008  10.610643  10.589403
    40  H   13.856017  13.725899  11.975159  11.984049  12.465432
    41  H   14.694547  14.602012  12.485400  12.642083  12.725202
    42  H   14.299926  14.245448  12.296264  12.475661  12.800429
                   31         32         33         34         35
    31  H    0.000000
    32  H    4.560959   0.000000
    33  H    5.741174   2.611487   0.000000
    34  H    2.167991   5.055468   5.375058   0.000000
    35  H    4.100989   7.298256   7.133118   2.342628   0.000000
    36  H    6.505419   8.587650   7.485385   4.581147   2.937879
    37  H    6.516504   9.745688   9.268887   4.866135   2.524802
    38  H    8.019467  10.365066   9.211125   6.190612   4.203779
    39  H    9.086376  12.255889  11.542858   7.459773   5.123725
    40  H   10.757909  12.810255  11.331818   8.929734   6.976701
    41  H   11.176828  14.110152  13.133625   9.490756   7.188907
    42  H   11.133018  13.413458  12.071037   9.276046   7.178861
                   36         37         38         39         40
    36  H    0.000000
    37  H    2.651490   0.000000
    38  H    1.795717   2.669078   0.000000
    39  H    4.191982   2.603976   2.906516   0.000000
    40  H    4.386356   5.151431   2.776671   3.903042   0.000000
    41  H    5.649244   4.719682   3.966408   2.199288   3.227561
    42  H    4.857580   5.081944   3.159366   3.348741   1.203575
                   41         42
    41  H    0.000000
    42  H    2.256581   0.000000
 Stoichiometry    C19H20N2O
 Framework group  C1[X(C19H20N2O)]
 Deg. of freedom   120
 Full point group                 C1      NOp   1
 Largest Abelian subgroup         C1      NOp   1
 Largest concise Abelian subgroup C1      NOp   1
                         Standard orientation:                         
 ---------------------------------------------------------------------
 Center     Atomic      Atomic             Coordinates (Angstroms)
 Number     Number       Type             X           Y           Z
 ---------------------------------------------------------------------
      1          6           0        7.024175   -2.080004   -0.307510
      2          6           0        6.319917   -0.738828   -0.173787
      3          6           0        4.770294   -0.880470   -0.239559
      4          6           0        4.354607   -1.823279    0.877400
      5          6           0        3.878436    0.424853   -0.125220
      6          6           0        4.571207    1.697562   -0.020757
      7          6           0        3.543932    2.656457    0.086644
      8          6           0        1.683249    2.081167    0.070552
      9          7           0       -0.002122    2.418736    0.122989
     10          7           0       -1.859920    1.590620    0.040383
     11          6           0       -0.393285    0.402093   -0.044074
     12          6           0        1.170857   -0.065514   -0.103271
     13          6           0        2.448004    0.650878   -0.071051
     14          6           0       -0.984459   -0.778226   -0.106436
     15          6           0       -2.213572   -0.520131   -0.043691
     16          6           0       -3.208345   -1.324536   -0.113873
     17          6           0       -4.379567   -0.980121    0.030994
     18          6           0       -5.526565   -1.600850    0.055126
     19          6           0       -6.231986   -0.461141    0.323165
     20          6           0       -7.342084   -0.699554   -0.183755
     21          6           0       -5.993688    0.523047   -0.327278
     22          8           0       -4.004540    1.404579    0.013021
     23          1           0        8.105937   -1.958691   -0.249725
     24          1           0        6.764382   -2.545855   -1.260492
     25          1           0        6.732103   -2.753452    0.499386
     26          1           0        6.672536   -0.087696   -0.978686
     27          1           0        6.610326   -0.289672    0.782273
     28          1           0        4.555150   -1.358636   -1.204804
     29          1           0        4.622292   -1.394865    1.847165
     30          1           0        4.820053   -2.807673    0.794983
     31          1           0        3.283892   -1.984077    0.842281
     32          1           0        5.715357    1.773393   -0.036212
     33          1           0        3.941363    3.679123    0.166280
     34          1           0        1.585801   -1.137865   -0.206814
     35          1           0       -0.676655   -1.745361   -0.194638
     36          1           0       -2.748278    0.322321    0.058741
     37          1           0       -3.142564   -2.287501   -0.193782
     38          1           0       -4.481809   -0.043903    0.350889
     39          1           0       -5.724771   -2.621551   -0.157648
     40          1           0       -7.055576    0.974653    0.570371
     41          1           0       -7.856093   -2.088166   -0.058485
     42          1           0       -7.599591    0.152929   -0.120577
 ---------------------------------------------------------------------
 Rotational constants (GHZ):           0.8152645           0.0909185           0.0824885
 Standard basis: 6-31G(2df,p) (6D, 7F)
 There are   782 symmetry adapted cartesian basis functions of A   symmetry.
 There are   716 symmetry adapted basis functions of A   symmetry.
   716 basis functions,  1108 primitive gaussians,   782 cartesian basis functions
    78 alpha electrons       78 beta electrons
       nuclear repulsion energy      1562.2595903056 Hartrees.
 NAtoms=   42 NActive=   42 NUniq=   42 SFac= 1.00D+00 NAtFMM=   60 NAOKFM=F Big=F
 Integral buffers will be    131072 words long.
 Raffenetti 2 integral format.
 Two-electron integral symmetry is turned on.
 One-electron integrals computed using PRISM.
 PrsmSu:  requested number of processors reduced to:  12 ShMem   1 Linda.
 NBasis=   716 RedAO= T EigKep=  1.01D-04  NBF=   716
 NBsUse=   716 1.00D-06 EigRej= -1.00D+00 NBFU=   716
 ExpMin= 1.61D-01 ExpMax= 5.48D+03 ExpMxC= 8.25D+02 IAcc=3 IRadAn=         5 AccDes= 0.00D+00
 Harris functional with IExCor=  402 and IRadAn=       5 diagonalized for initial guess.
 HarFok:  IExCor=  402 AccDes= 0.00D+00 IRadAn=         5 IDoV= 1 UseB2=F ITyADJ=14
 ICtDFT=  3500011 ScaDFX=  1.000000  1.000000  1.000000  1.000000
 FoFCou: FMM=F IPFlag=           0 FMFlag=      100000 FMFlg1=           0
         NFxFlg=           0 DoJE=T BraDBF=F KetDBF=T FulRan=T
         wScrn=  0.000000 ICntrl=       500 IOpCl=  0 I1Cent=   200000004 NGrid=           0
         NMat0=    1 NMatS0=      1 NMatT0=    0 NMatD0=    1 NMtDS0=    0 NMtDT0=    0
 Petite list used in FoFCou.
 Requested convergence on RMS density matrix=1.00D-08 within 128 cycles.
 Requested convergence on MAX density matrix=1.00D-06.
 Requested convergence on             energy=1.00D-06.
 No special actions if energy rises.
 Integral accuracy reduced to 1.0D-05 until final iterations.
 EnCoef did   100 forward-backward iterations
 EnCoef did     4 forward-backward iterations
 EnCoef did     2 forward-backward iterations
 EnCoef did    16 forward-backward iterations
 EnCoef did    16 forward-backward iterations
 EnCoef did   100 forward-backward iterations
 EnCoef did   100 forward-backward iterations
 EnCoef did     4 forward-backward iterations
 EnCoef did     7 forward-backward iterations
 EnCoef did     3 forward-backward iterations
 EnCoef did     4 forward-backward iterations
 Restarting incremental Fock formation.
 Initial convergence to 1.0D-05 achieved.  Increase integral accuracy.
 EnCoef did    22 forward-backward iterations
 SCF Done:  E(RB3LYP) =  -919.092564736     A.U. after   42 cycles
            NFock= 42  Conv=0.44D-08     -V/T= 2.0047

 **********************************************************************

            Population analysis using the SCF density.

 **********************************************************************

 Orbital symmetries:
       Occupied  (A) (A) (A) (A) (A) (A) (A) (A) (A) (A) (A) (A)
                 (A) (A) (A) (A) (A) (A) (A) (A) (A) (A) (A) (A)
                 (A) (A) (A) (A) (A) (A) (A) (A) (A) (A) (A) (A)
                 (A) (A) (A) (A) (A) (A) (A) (A) (A) (A) (A) (A)
                 (A) (A) (A) (A) (A) (A) (A) (A) (A) (A) (A) (A)
                 (A) (A) (A) (A) (A) (A) (A) (A) (A) (A) (A) (A)
                 (A) (A) (A) (A) (A) (A)
       Virtual   (A) (A) (A) (A) (A) (A) (A) (A) (A) (A) (A) (A)
                 (A) (A) (A) (A) (A) (A) (A) (A) (A) (A) (A) (A)
                 (A) (A) (A) (A) (A) (A) (A) (A) (A) (A) (A) (A)
                 (A) (A) (A) (A) (A) (A) (A) (A) (A) (A) (A) (A)
                 (A) (A) (A) (A) (A) (A) (A) (A) (A) (A) (A) (A)
                 (A) (A) (A) (A) (A) (A) (A) (A) (A) (A) (A) (A)
                 (A) (A) (A) (A) (A) (A) (A) (A) (A) (A) (A) (A)
                 (A) (A) (A) (A) (A) (A) (A) (A) (A) (A) (A) (A)
                 (A) (A) (A) (A) (A) (A) (A) (A) (A) (A) (A) (A)
                 (A) (A) (A) (A) (A) (A) (A) (A) (A) (A) (A) (A)
                 (A) (A) (A) (A) (A) (A) (A) (A) (A) (A) (A) (A)
                 (A) (A) (A) (A) (A) (A) (A) (A) (A) (A) (A) (A)
                 (A) (A) (A) (A) (A) (A) (A) (A) (A) (A) (A) (A)
                 (A) (A) (A) (A) (A) (A) (A) (A) (A) (A) (A) (A)
                 (A) (A) (A) (A) (A) (A) (A) (A) (A) (A) (A) (A)
                 (A) (A) (A) (A) (A) (A) (A) (A) (A) (A) (A) (A)
                 (A) (A) (A) (A) (A) (A) (A) (A) (A) (A) (A) (A)
                 (A) (A) (A) (A) (A) (A) (A) (A) (A) (A) (A) (A)
                 (A) (A) (A) (A) (A) (A) (A) (A) (A) (A) (A) (A)
                 (A) (A) (A) (A) (A) (A) (A) (A) (A) (A) (A) (A)
                 (A) (A) (A) (A) (A) (A) (A) (A) (A) (A) (A) (A)
                 (A) (A) (A) (A) (A) (A) (A) (A) (A) (A) (A) (A)
                 (A) (A) (A) (A) (A) (A) (A) (A) (A) (A) (A) (A)
                 (A) (A) (A) (A) (A) (A) (A) (A) (A) (A) (A) (A)
                 (A) (A) (A) (A) (A) (A) (A) (A) (A) (A) (A) (A)
                 (A) (A) (A) (A) (A) (A) (A) (A) (A) (A) (A) (A)
                 (A) (A) (A) (A) (A) (A) (A) (A) (A) (A) (A) (A)
                 (A) (A) (A) (A) (A) (A) (A) (A) (A) (A) (A) (A)
                 (A) (A) (A) (A) (A) (A) (A) (A) (A) (A) (A) (A)
                 (A) (A) (A) (A) (A) (A) (A) (A) (A) (A) (A) (A)
                 (A) (A) (A) (A) (A) (A) (A) (A) (A) (A) (A) (A)
                 (A) (A) (A) (A) (A) (A) (A) (A) (A) (A) (A) (A)
                 (A) (A) (A) (A) (A) (A) (A) (A) (A) (A) (A) (A)
                 (A) (A) (A) (A) (A) (A) (A) (A) (A) (A) (A) (A)
                 (A) (A) (A) (A) (A) (A) (A) (A) (A) (A) (A) (A)
                 (A) (A) (A) (A) (A) (A) (A) (A) (A) (A) (A) (A)
                 (A) (A) (A) (A) (A) (A) (A) (A) (A) (A) (A) (A)
                 (A) (A) (A) (A) (A) (A) (A) (A) (A) (A) (A) (A)
                 (A) (A) (A) (A) (A) (A) (A) (A) (A) (A) (A) (A)
                 (A) (A) (A) (A) (A) (A) (A) (A) (A) (A) (A) (A)
                 (A) (A) (A) (A) (A) (A) (A) (A) (A) (A) (A) (A)
                 (A) (A) (A) (A) (A) (A) (A) (A) (A) (A) (A) (A)
                 (A) (A) (A) (A) (A) (A) (A) (A) (A) (A) (A) (A)
                 (A) (A) (A) (A) (A) (A) (A) (A) (A) (A) (A) (A)
                 (A) (A) (A) (A) (A) (A) (A) (A) (A) (A) (A) (A)
                 (A) (A) (A) (A) (A) (A) (A) (A) (A) (A) (A) (A)
                 (A) (A) (A) (A) (A) (A) (A) (A) (A) (A) (A) (A)
                 (A) (A) (A) (A) (A) (A) (A) (A) (A) (A) (A) (A)
                 (A) (A) (A) (A) (A) (A) (A) (A) (A) (A) (A) (A)
                 (A) (A) (A) (A) (A) (A) (A) (A) (A) (A) (A) (A)
                 (A) (A) (A) (A) (A) (A) (A) (A) (A) (A) (A) (A)
                 (A) (A) (A) (A) (A) (A) (A) (A) (A) (A) (A) (A)
                 (A) (A) (A) (A) (A) (A) (A) (A) (A) (A) (A) (A)
                 (A) (A)
 The electronic state is 1-A.
 Alpha  occ. eigenvalues --  -19.09901 -14.39600 -14.39209 -10.29248 -10.27214
 Alpha  occ. eigenvalues --  -10.25339 -10.25253 -10.24033 -10.23998 -10.23309
 Alpha  occ. eigenvalues --  -10.23035 -10.22705 -10.22637 -10.20604 -10.20364
 Alpha  occ. eigenvalues --  -10.19225 -10.19187 -10.18573 -10.18138 -10.16858
 Alpha  occ. eigenvalues --  -10.15406 -10.12949  -1.00611  -0.91117  -0.86500
 Alpha  occ. eigenvalues --   -0.85697  -0.82252  -0.82108  -0.79483  -0.76735
 Alpha  occ. eigenvalues --   -0.75201  -0.74605  -0.69809  -0.68839  -0.67887
 Alpha  occ. eigenvalues --   -0.67688  -0.64539  -0.61414  -0.59376  -0.58981
 Alpha  occ. eigenvalues --   -0.56302  -0.55069  -0.53725  -0.51884  -0.49928
 Alpha  occ. eigenvalues --   -0.49603  -0.48642  -0.46950  -0.46328  -0.44907
 Alpha  occ. eigenvalues --   -0.44249  -0.43659  -0.42840  -0.40438  -0.40277
 Alpha  occ. eigenvalues --   -0.39879  -0.38693  -0.38339  -0.37072  -0.36666
 Alpha  occ. eigenvalues --   -0.36167  -0.35456  -0.34999  -0.34523  -0.33693
 Alpha  occ. eigenvalues --   -0.33182  -0.32802  -0.31800  -0.31373  -0.27876
 Alpha  occ. eigenvalues --   -0.26545  -0.25202  -0.24373  -0.22572  -0.21765
 Alpha  occ. eigenvalues --   -0.19362  -0.18960  -0.17953
 Alpha virt. eigenvalues --   -0.13401  -0.13089  -0.10447  -0.09115  -0.06764
 Alpha virt. eigenvalues --   -0.04112  -0.01380  -0.00194   0.00417   0.01100
 Alpha virt. eigenvalues --    0.02665   0.05425   0.06049   0.06639   0.07331
 Alpha virt. eigenvalues --    0.08562   0.09573   0.10761   0.11249   0.11611
 Alpha virt. eigenvalues --    0.12386   0.12722   0.13239   0.13889   0.15076
 Alpha virt. eigenvalues --    0.15767   0.16316   0.16845   0.17540   0.18791
 Alpha virt. eigenvalues --    0.19960   0.20342   0.21735   0.22140   0.22761
 Alpha virt. eigenvalues --    0.23559   0.24844   0.26086   0.26664   0.28105
 Alpha virt. eigenvalues --    0.28708   0.30029   0.31289   0.32110   0.34517
 Alpha virt. eigenvalues --    0.35469   0.37746   0.38961   0.39005   0.39867
 Alpha virt. eigenvalues --    0.40597   0.40889   0.43185   0.43459   0.45086
 Alpha virt. eigenvalues --    0.45636   0.46007   0.46252   0.47594   0.47644
 Alpha virt. eigenvalues --    0.48268   0.49252   0.49432   0.49939   0.50718
 Alpha virt. eigenvalues --    0.51852   0.52184   0.52754   0.53028   0.53950
 Alpha virt. eigenvalues --    0.54001   0.54953   0.55349   0.55627   0.56028
 Alpha virt. eigenvalues --    0.56513   0.56903   0.57768   0.58479   0.59537
 Alpha virt. eigenvalues --    0.59796   0.60623   0.61386   0.61643   0.62114
 Alpha virt. eigenvalues --    0.62517   0.63993   0.64206   0.64857   0.65777
 Alpha virt. eigenvalues --    0.66363   0.67025   0.67301   0.67699   0.68495
 Alpha virt. eigenvalues --    0.68870   0.68951   0.69439   0.70138   0.71015
 Alpha virt. eigenvalues --    0.71667   0.71765   0.72444   0.72691   0.73304
 Alpha virt. eigenvalues --    0.73428   0.73927   0.74084   0.75139   0.75472
 Alpha virt. eigenvalues --    0.75893   0.75979   0.76572   0.76870   0.77411
 Alpha virt. eigenvalues --    0.77774   0.77971   0.78697   0.79210   0.80803
 Alpha virt. eigenvalues --    0.81652   0.81793   0.82282   0.82851   0.83333
 Alpha virt. eigenvalues --    0.84176   0.85393   0.86040   0.86773   0.86972
 Alpha virt. eigenvalues --    0.87795   0.88302   0.89267   0.89699   0.91066
 Alpha virt. eigenvalues --    0.92145   0.92539   0.93327   0.93792   0.94044
 Alpha virt. eigenvalues --    0.95014   0.95633   0.96219   0.97753   0.97892
 Alpha virt. eigenvalues --    0.98738   0.99098   1.00195   1.01071   1.02114
 Alpha virt. eigenvalues --    1.02990   1.03821   1.04081   1.04733   1.05252
 Alpha virt. eigenvalues --    1.06224   1.06409   1.08038   1.09011   1.09541
 Alpha virt. eigenvalues --    1.10827   1.12079   1.13007   1.13071   1.13976
 Alpha virt. eigenvalues --    1.14241   1.15119   1.16040   1.17219   1.17844
 Alpha virt. eigenvalues --    1.19782   1.19932   1.22246   1.22473   1.23035
 Alpha virt. eigenvalues --    1.25332   1.26348   1.26555   1.27024   1.27786
 Alpha virt. eigenvalues --    1.28380   1.28735   1.29471   1.30328   1.30833
 Alpha virt. eigenvalues --    1.31701   1.32853   1.33365   1.33683   1.35201
 Alpha virt. eigenvalues --    1.36170   1.36400   1.37120   1.37615   1.38190
 Alpha virt. eigenvalues --    1.38648   1.41233   1.41396   1.43478   1.44241
 Alpha virt. eigenvalues --    1.44608   1.45541   1.47402   1.48032   1.48582
 Alpha virt. eigenvalues --    1.49022   1.49747   1.50575   1.51502   1.52597
 Alpha virt. eigenvalues --    1.53283   1.53711   1.54419   1.54799   1.55375
 Alpha virt. eigenvalues --    1.56778   1.57385   1.58205   1.58894   1.59719
 Alpha virt. eigenvalues --    1.60321   1.60764   1.61711   1.62497   1.63557
 Alpha virt. eigenvalues --    1.65772   1.66505   1.66854   1.68448   1.69183
 Alpha virt. eigenvalues --    1.71535   1.72424   1.73559   1.74242   1.75529
 Alpha virt. eigenvalues --    1.77077   1.77217   1.78443   1.80294   1.80429
 Alpha virt. eigenvalues --    1.81708   1.82105   1.83008   1.84549   1.84690
 Alpha virt. eigenvalues --    1.87089   1.88358   1.89748   1.90531   1.90756
 Alpha virt. eigenvalues --    1.93206   1.94386   1.95305   1.96490   1.97057
 Alpha virt. eigenvalues --    1.98042   1.98735   1.99859   2.02293   2.05945
 Alpha virt. eigenvalues --    2.06518   2.07854   2.09549   2.12044   2.12357
 Alpha virt. eigenvalues --    2.13372   2.13795   2.15032   2.16911   2.18406
 Alpha virt. eigenvalues --    2.20062   2.20711   2.21766   2.22313   2.24190
 Alpha virt. eigenvalues --    2.25905   2.26774   2.28888   2.29613   2.30526
 Alpha virt. eigenvalues --    2.31065   2.33558   2.33937   2.34711   2.34944
 Alpha virt. eigenvalues --    2.35223   2.36457   2.37213   2.38934   2.40740
 Alpha virt. eigenvalues --    2.41093   2.44323   2.45823   2.46736   2.49786
 Alpha virt. eigenvalues --    2.49938   2.51862   2.53267   2.54840   2.56456
 Alpha virt. eigenvalues --    2.57870   2.58732   2.59359   2.60590   2.62291
 Alpha virt. eigenvalues --    2.62680   2.63688   2.65812   2.67333   2.67981
 Alpha virt. eigenvalues --    2.69980   2.70837   2.71859   2.73154   2.74238
 Alpha virt. eigenvalues --    2.76203   2.76446   2.77173   2.78654   2.80570
 Alpha virt. eigenvalues --    2.80713   2.81424   2.82116   2.84455   2.85066
 Alpha virt. eigenvalues --    2.85514   2.86243   2.86885   2.87830   2.89264
 Alpha virt. eigenvalues --    2.89943   2.90623   2.90997   2.91403   2.92563
 Alpha virt. eigenvalues --    2.92847   2.94286   2.94625   2.95280   2.96239
 Alpha virt. eigenvalues --    2.96416   2.96782   2.97955   2.99293   3.00232
 Alpha virt. eigenvalues --    3.00881   3.03149   3.03765   3.04738   3.04806
 Alpha virt. eigenvalues --    3.06195   3.07395   3.07778   3.08536   3.09612
 Alpha virt. eigenvalues --    3.10073   3.11419   3.12178   3.12729   3.13235
 Alpha virt. eigenvalues --    3.13928   3.14910   3.15875   3.16707   3.17169
 Alpha virt. eigenvalues --    3.17563   3.19168   3.20395   3.20799   3.21544
 Alpha virt. eigenvalues --    3.22217   3.23118   3.23981   3.25117   3.25336
 Alpha virt. eigenvalues --    3.26762   3.27465   3.28060   3.28374   3.28869
 Alpha virt. eigenvalues --    3.31204   3.31852   3.33046   3.33424   3.34088
 Alpha virt. eigenvalues --    3.35188   3.35719   3.36731   3.37191   3.38200
 Alpha virt. eigenvalues --    3.39077   3.40890   3.42157   3.42212   3.43056
 Alpha virt. eigenvalues --    3.43951   3.44448   3.45936   3.47208   3.47597
 Alpha virt. eigenvalues --    3.48250   3.49200   3.50423   3.51401   3.52913
 Alpha virt. eigenvalues --    3.53368   3.53690   3.54807   3.56030   3.57675
 Alpha virt. eigenvalues --    3.58171   3.60577   3.61664   3.61749   3.62682
 Alpha virt. eigenvalues --    3.63692   3.64616   3.64792   3.66083   3.66656
 Alpha virt. eigenvalues --    3.67079   3.67634   3.68137   3.68833   3.69828
 Alpha virt. eigenvalues --    3.70520   3.71851   3.72818   3.73284   3.74826
 Alpha virt. eigenvalues --    3.75820   3.75971   3.77441   3.78309   3.79073
 Alpha virt. eigenvalues --    3.79214   3.80777   3.81640   3.83001   3.84841
 Alpha virt. eigenvalues --    3.85375   3.86429   3.86971   3.87608   3.89831
 Alpha virt. eigenvalues --    3.91729   3.91871   3.92194   3.93520   3.94228
 Alpha virt. eigenvalues --    3.96631   3.98326   3.99759   4.00787   4.02886
 Alpha virt. eigenvalues --    4.02981   4.04275   4.05675   4.05988   4.06858
 Alpha virt. eigenvalues --    4.09448   4.11854   4.14389   4.14980   4.16601
 Alpha virt. eigenvalues --    4.16980   4.19534   4.20213   4.22052   4.22467
 Alpha virt. eigenvalues --    4.23759   4.24593   4.26203   4.27294   4.27653
 Alpha virt. eigenvalues --    4.29505   4.29836   4.30539   4.31887   4.32722
 Alpha virt. eigenvalues --    4.33568   4.35230   4.36309   4.36831   4.37767
 Alpha virt. eigenvalues --    4.38098   4.38850   4.40998   4.41992   4.42999
 Alpha virt. eigenvalues --    4.43296   4.43546   4.44181   4.45202   4.45907
 Alpha virt. eigenvalues --    4.46231   4.46577   4.47302   4.48013   4.48349
 Alpha virt. eigenvalues --    4.49440   4.50252   4.51098   4.52029   4.52546
 Alpha virt. eigenvalues --    4.53417   4.54798   4.54902   4.55474   4.56986
 Alpha virt. eigenvalues --    4.57488   4.58559   4.59310   4.59819   4.61582
 Alpha virt. eigenvalues --    4.61950   4.62815   4.63452   4.64547   4.65527
 Alpha virt. eigenvalues --    4.66839   4.67235   4.68351   4.68762   4.70192
 Alpha virt. eigenvalues --    4.70635   4.71075   4.72221   4.73330   4.73834
 Alpha virt. eigenvalues --    4.74135   4.74797   4.75572   4.77531   4.77579
 Alpha virt. eigenvalues --    4.78516   4.79860   4.80015   4.81002   4.82508
 Alpha virt. eigenvalues --    4.83903   4.84834   4.85172   4.86471   4.87870
 Alpha virt. eigenvalues --    4.88520   4.89851   4.90098   4.90402   4.92037
 Alpha virt. eigenvalues --    4.93240   4.94360   4.95912   4.98102   5.00229
 Alpha virt. eigenvalues --    5.02464   5.04649   5.05338   5.05752   5.06906
 Alpha virt. eigenvalues --    5.09178   5.09942   5.12647   5.12950   5.13696
 Alpha virt. eigenvalues --    5.15725   5.16061   5.17079   5.18116   5.20101
 Alpha virt. eigenvalues --    5.20848   5.22552   5.23613   5.27141   5.28307
 Alpha virt. eigenvalues --    5.29477   5.30324   5.33541   5.34608   5.34941
 Alpha virt. eigenvalues --    5.35668   5.38300   5.39368   5.41006   5.42246
 Alpha virt. eigenvalues --    5.42437   5.44086   5.46559   5.48936   5.49534
 Alpha virt. eigenvalues --    5.51331   5.54665   5.58715   5.59633   5.60688
 Alpha virt. eigenvalues --    5.61454   5.67141   5.72030   5.77037   5.78481
 Alpha virt. eigenvalues --    5.84990   5.87066   5.91935   5.93977   5.97772
 Alpha virt. eigenvalues --    6.03556   6.11303   6.18820   6.25714   6.32860
 Alpha virt. eigenvalues --    6.62100   6.81344   6.90654   8.00652   8.85207
 Alpha virt. eigenvalues --    9.90254  10.07852  10.29845  10.37052  10.56940
 Alpha virt. eigenvalues --   10.63194  10.71075  10.91828  11.09759  11.28514
 Alpha virt. eigenvalues --   11.32067  11.33186  11.43894  11.52523  11.68532
 Alpha virt. eigenvalues --   11.77797  11.99565  12.12741  12.19160  12.32383
 Alpha virt. eigenvalues --   12.57484  12.68202  13.22093
          Condensed to atoms (all electrons):
               1          2          3          4          5          6
     1  C    4.961351   0.412409  -0.031640  -0.007873   0.001765   0.000089
     2  C    0.412409   4.840393   0.406982  -0.043000  -0.022067  -0.009393
     3  C   -0.031640   0.406982   4.897863   0.374406   0.415866  -0.090769
     4  C   -0.007873  -0.043000   0.374406   5.005528  -0.020105   0.002176
     5  C    0.001765  -0.022067   0.415866  -0.020105   4.854513   0.299938
     6  C    0.000089  -0.009393  -0.090769   0.002176   0.299938   5.071643
     7  C   -0.000011   0.000153   0.008888  -0.000266  -0.003635   0.531358
     8  C    0.000000  -0.000031   0.003473  -0.000085  -0.008190  -0.025388
     9  N   -0.000000   0.000000   0.000001  -0.000000   0.000530   0.000099
    10  N   -0.000000  -0.000000   0.000000   0.000000   0.000005  -0.000000
    11  C    0.000000   0.000000  -0.000029   0.000026   0.001353   0.000128
    12  C   -0.000001   0.000024  -0.011062   0.000591  -0.073782   0.017993
    13  C   -0.000057   0.002624  -0.064781  -0.002059   0.481820  -0.005266
    14  C    0.000000  -0.000000  -0.000002  -0.000001  -0.000109  -0.000002
    15  C    0.000000  -0.000000  -0.000000   0.000000   0.000001   0.000000
    16  C    0.000000  -0.000000  -0.000000   0.000000   0.000000  -0.000000
    17  C   -0.000000  -0.000000  -0.000000   0.000000   0.000000  -0.000000
    18  C    0.000000   0.000000  -0.000000  -0.000000   0.000000  -0.000000
    19  C    0.000000   0.000000   0.000000  -0.000000   0.000000  -0.000000
    20  C    0.000000   0.000000   0.000000  -0.000000   0.000000  -0.000000
    21  C    0.000000   0.000000  -0.000000   0.000000  -0.000000   0.000000
    22  O    0.000000   0.000000  -0.000000  -0.000000  -0.000000   0.000000
    23  H    0.377305  -0.021416   0.002824   0.000408  -0.000089   0.000008
    24  H    0.377376  -0.029535  -0.002907  -0.001091   0.000256   0.000010
    25  H    0.381170  -0.028940  -0.006177  -0.000272   0.000116   0.000008
    26  H   -0.035531   0.362519  -0.026035   0.005349  -0.002403   0.001115
    27  H   -0.038039   0.364764  -0.024979  -0.008691  -0.003845   0.002171
    28  H   -0.004715  -0.049811   0.350377  -0.040570  -0.020162   0.004312
    29  H   -0.000456  -0.007417  -0.029347   0.378164  -0.002437   0.001203
    30  H   -0.000855  -0.005519  -0.021503   0.369233   0.002235  -0.000190
    31  H    0.000342   0.005234  -0.031255   0.368685  -0.004875  -0.000119
    32  H   -0.000159   0.005888  -0.011983   0.000364  -0.038600   0.375631
    33  H    0.000000  -0.000004  -0.000143   0.000001   0.009147  -0.054508
    34  H    0.000001  -0.000043   0.004890  -0.001271  -0.008925  -0.001314
    35  H    0.000000  -0.000000  -0.000000  -0.000005   0.000002  -0.000000
    36  H    0.000000   0.000000  -0.000000  -0.000000  -0.000000   0.000000
    37  H    0.000000  -0.000000   0.000000  -0.000000  -0.000000   0.000000
    38  H   -0.000000   0.000000   0.000000  -0.000000   0.000000   0.000000
    39  H    0.000000  -0.000000   0.000000  -0.000000  -0.000000   0.000000
    40  H    0.000000   0.000000   0.000000   0.000000   0.000000  -0.000000
    41  H    0.000000   0.000000   0.000000  -0.000000  -0.000000   0.000000
    42  H    0.000000   0.000000  -0.000000   0.000000  -0.000000  -0.000000
               7          8          9         10         11         12
     1  C   -0.000011   0.000000  -0.000000  -0.000000   0.000000  -0.000001
     2  C    0.000153  -0.000031   0.000000  -0.000000   0.000000   0.000024
     3  C    0.008888   0.003473   0.000001   0.000000  -0.000029  -0.011062
     4  C   -0.000266  -0.000085  -0.000000   0.000000   0.000026   0.000591
     5  C   -0.003635  -0.008190   0.000530   0.000005   0.001353  -0.073782
     6  C    0.531358  -0.025388   0.000099  -0.000000   0.000128   0.017993
     7  C    5.208022   0.252115  -0.008135  -0.000009   0.001023   0.001354
     8  C    0.252115   5.277125   0.328992  -0.001187  -0.038881  -0.103320
     9  N   -0.008135   0.328992   6.946759  -0.010180   0.077601  -0.022374
    10  N   -0.000009  -0.001187  -0.010180   7.123924   0.131965  -0.006231
    11  C    0.001023  -0.038881   0.077601   0.131965   5.048977   0.266516
    12  C    0.001354  -0.103320  -0.022374  -0.006231   0.266516   5.453833
    13  C   -0.066152   0.288883  -0.026509   0.001048  -0.014300   0.446870
    14  C   -0.000018   0.001396  -0.011520   0.032729   0.388064  -0.021040
    15  C    0.000000  -0.000119   0.004648   0.016621   0.046395  -0.014505
    16  C    0.000000  -0.000003   0.000016  -0.018056   0.004392  -0.000839
    17  C   -0.000000  -0.000000  -0.000027   0.007636   0.000052   0.000021
    18  C   -0.000000   0.000000  -0.000000  -0.000089   0.000045  -0.000001
    19  C   -0.000000  -0.000000  -0.000000   0.000041  -0.000002   0.000000
    20  C   -0.000000   0.000000  -0.000000   0.000000  -0.000000   0.000000
    21  C    0.000000   0.000000   0.000000  -0.000108  -0.000020   0.000000
    22  O    0.000000  -0.000002   0.000207   0.040273   0.001497  -0.000011
    23  H    0.000000  -0.000000   0.000000  -0.000000  -0.000000  -0.000000
    24  H    0.000000  -0.000000   0.000000   0.000000  -0.000000   0.000000
    25  H    0.000000  -0.000000   0.000000   0.000000  -0.000000   0.000000
    26  H    0.000021  -0.000001   0.000000   0.000000  -0.000000   0.000005
    27  H    0.000008  -0.000002  -0.000000   0.000000  -0.000000   0.000003
    28  H   -0.000238  -0.000054   0.000000  -0.000000   0.000001   0.000907
    29  H   -0.000031  -0.000024  -0.000000   0.000000   0.000001   0.000165
    30  H    0.000005   0.000001  -0.000000   0.000000  -0.000000  -0.000053
    31  H    0.000010   0.000006   0.000000  -0.000000  -0.000001   0.000186
    32  H   -0.038233   0.000919  -0.000001  -0.000000   0.000001   0.000030
    33  H    0.330013  -0.021253   0.000144   0.000000  -0.000016  -0.000319
    34  H   -0.000245   0.013213   0.001703  -0.000033  -0.049873   0.277903
    35  H    0.000000  -0.000015  -0.000010   0.003579  -0.040509  -0.004310
    36  H    0.000000  -0.000051   0.004700  -0.066367  -0.010407  -0.001009
    37  H    0.000000  -0.000000   0.000006   0.000051   0.000840  -0.000097
    38  H    0.000000   0.000000   0.000002  -0.000004  -0.000783  -0.000000
    39  H    0.000000  -0.000000   0.000000   0.000001   0.000000   0.000000
    40  H   -0.000000  -0.000000  -0.000000  -0.000000   0.000000   0.000000
    41  H    0.000000  -0.000000   0.000000   0.000000   0.000000  -0.000000
    42  H   -0.000000  -0.000000  -0.000000   0.000000  -0.000000   0.000000
              13         14         15         16         17         18
     1  C   -0.000057   0.000000   0.000000   0.000000  -0.000000   0.000000
     2  C    0.002624  -0.000000  -0.000000  -0.000000  -0.000000   0.000000
     3  C   -0.064781  -0.000002  -0.000000  -0.000000  -0.000000  -0.000000
     4  C   -0.002059  -0.000001   0.000000   0.000000   0.000000  -0.000000
     5  C    0.481820  -0.000109   0.000001   0.000000   0.000000   0.000000
     6  C   -0.005266  -0.000002   0.000000  -0.000000  -0.000000  -0.000000
     7  C   -0.066152  -0.000018   0.000000   0.000000  -0.000000  -0.000000
     8  C    0.288883   0.001396  -0.000119  -0.000003  -0.000000   0.000000
     9  N   -0.026509  -0.011520   0.004648   0.000016  -0.000027  -0.000000
    10  N    0.001048   0.032729   0.016621  -0.018056   0.007636  -0.000089
    11  C   -0.014300   0.388064   0.046395   0.004392   0.000052   0.000045
    12  C    0.446870  -0.021040  -0.014505  -0.000839   0.000021  -0.000001
    13  C    4.750452   0.001162  -0.000122   0.000015   0.000000   0.000000
    14  C    0.001162   5.196239   0.381047  -0.063244   0.013309  -0.002076
    15  C   -0.000122   0.381047   4.871661   0.368969   0.057319   0.010755
    16  C    0.000015  -0.063244   0.368969   5.336177   0.336243  -0.024168
    17  C    0.000000   0.013309   0.057319   0.336243   4.847511   0.353139
    18  C    0.000000  -0.002076   0.010755  -0.024168   0.353139   5.573405
    19  C    0.000000   0.000072  -0.000016   0.005829   0.078097   0.366753
    20  C    0.000000  -0.000001  -0.000084  -0.002297   0.004018  -0.136632
    21  C   -0.000000  -0.000091   0.003060   0.009154  -0.068568  -0.065292
    22  O   -0.000000   0.001428  -0.006451  -0.041141  -0.046826   0.003151
    23  H    0.000000  -0.000000  -0.000000   0.000000  -0.000000   0.000000
    24  H    0.000003   0.000000   0.000000  -0.000000   0.000000   0.000000
    25  H    0.000003   0.000000   0.000000   0.000000   0.000000   0.000000
    26  H    0.000088   0.000000   0.000000  -0.000000   0.000000   0.000000
    27  H    0.000047   0.000000   0.000000   0.000000   0.000000  -0.000000
    28  H   -0.004840   0.000002   0.000000   0.000000   0.000000   0.000000
    29  H   -0.000434  -0.000000   0.000000   0.000000  -0.000000  -0.000000
    30  H    0.000135  -0.000000  -0.000000   0.000000  -0.000000  -0.000000
    31  H    0.003169   0.000007  -0.000000  -0.000000   0.000000   0.000000
    32  H    0.004251  -0.000000   0.000000  -0.000000  -0.000000  -0.000000
    33  H    0.004082   0.000000  -0.000000  -0.000000   0.000000   0.000000
    34  H   -0.027034   0.002169   0.000355  -0.000067  -0.000000  -0.000000
    35  H    0.000440   0.369260  -0.030891  -0.016094   0.001442  -0.000029
    36  H   -0.000036  -0.073077   0.286648   0.006465  -0.051432   0.002884
    37  H   -0.000001  -0.022911  -0.073836   0.304470   0.001349  -0.038500
    38  H   -0.000000   0.000350  -0.048635  -0.019337   0.267875  -0.052661
    39  H    0.000000   0.000006  -0.000475  -0.010034  -0.007733   0.345077
    40  H    0.000000   0.000001  -0.000045  -0.000430   0.003172   0.021175
    41  H   -0.000000  -0.000000  -0.000001  -0.000053   0.000472  -0.018094
    42  H    0.000000   0.000000   0.000007   0.000040   0.000912   0.023952
              19         20         21         22         23         24
     1  C    0.000000   0.000000   0.000000   0.000000   0.377305   0.377376
     2  C    0.000000   0.000000   0.000000   0.000000  -0.021416  -0.029535
     3  C    0.000000   0.000000  -0.000000  -0.000000   0.002824  -0.002907
     4  C   -0.000000  -0.000000   0.000000  -0.000000   0.000408  -0.001091
     5  C    0.000000   0.000000  -0.000000  -0.000000  -0.000089   0.000256
     6  C   -0.000000  -0.000000   0.000000   0.000000   0.000008   0.000010
     7  C   -0.000000  -0.000000   0.000000   0.000000   0.000000   0.000000
     8  C   -0.000000   0.000000   0.000000  -0.000002  -0.000000  -0.000000
     9  N   -0.000000  -0.000000   0.000000   0.000207   0.000000   0.000000
    10  N    0.000041   0.000000  -0.000108   0.040273  -0.000000   0.000000
    11  C   -0.000002  -0.000000  -0.000020   0.001497  -0.000000  -0.000000
    12  C    0.000000   0.000000   0.000000  -0.000011  -0.000000   0.000000
    13  C    0.000000   0.000000  -0.000000  -0.000000   0.000000   0.000003
    14  C    0.000072  -0.000001  -0.000091   0.001428  -0.000000   0.000000
    15  C   -0.000016  -0.000084   0.003060  -0.006451  -0.000000   0.000000
    16  C    0.005829  -0.002297   0.009154  -0.041141   0.000000  -0.000000
    17  C    0.078097   0.004018  -0.068568  -0.046826  -0.000000   0.000000
    18  C    0.366753  -0.136632  -0.065292   0.003151   0.000000   0.000000
    19  C    4.457811   0.471038   0.448601  -0.005590   0.000000   0.000000
    20  C    0.471038   5.471803  -0.078582   0.000508   0.000000   0.000000
    21  C    0.448601  -0.078582   5.718487   0.108363   0.000000   0.000000
    22  O   -0.005590   0.000508   0.108363   8.335430   0.000000   0.000000
    23  H    0.000000   0.000000   0.000000   0.000000   0.584355  -0.029694
    24  H    0.000000   0.000000   0.000000   0.000000  -0.029694   0.589793
    25  H    0.000000   0.000000   0.000000   0.000000  -0.030166  -0.033224
    26  H    0.000000   0.000000   0.000000  -0.000000  -0.002696  -0.004459
    27  H    0.000000   0.000000   0.000000   0.000000  -0.002458   0.005701
    28  H   -0.000000  -0.000000   0.000000   0.000000  -0.000125   0.005966
    29  H   -0.000000  -0.000000   0.000000   0.000000  -0.000070   0.000133
    30  H   -0.000000  -0.000000   0.000000   0.000000  -0.000026   0.001260
    31  H    0.000000   0.000000  -0.000000   0.000000  -0.000005  -0.000052
    32  H    0.000000   0.000000   0.000000   0.000000  -0.000000   0.000013
    33  H    0.000000   0.000000  -0.000000  -0.000000   0.000000   0.000000
    34  H   -0.000000  -0.000000  -0.000000   0.000000  -0.000000   0.000000
    35  H    0.000001   0.000000  -0.000002  -0.000068   0.000000  -0.000000
    36  H   -0.001216  -0.000021   0.002279   0.036862   0.000000   0.000000
    37  H    0.001076   0.000138  -0.000025  -0.001291  -0.000000  -0.000000
    38  H   -0.064862   0.002698  -0.031285   0.022595   0.000000  -0.000000
    39  H   -0.039385  -0.007705   0.003121  -0.000222   0.000000  -0.000000
    40  H   -0.015024  -0.148360   0.203607  -0.003437   0.000000   0.000000
    41  H   -0.027055   0.311854   0.005046  -0.000011   0.000000   0.000000
    42  H   -0.026050   0.313251  -0.056439  -0.000213   0.000000   0.000000
              25         26         27         28         29         30
     1  C    0.381170  -0.035531  -0.038039  -0.004715  -0.000456  -0.000855
     2  C   -0.028940   0.362519   0.364764  -0.049811  -0.007417  -0.005519
     3  C   -0.006177  -0.026035  -0.024979   0.350377  -0.029347  -0.021503
     4  C   -0.000272   0.005349  -0.008691  -0.040570   0.378164   0.369233
     5  C    0.000116  -0.002403  -0.003845  -0.020162  -0.002437   0.002235
     6  C    0.000008   0.001115   0.002171   0.004312   0.001203  -0.000190
     7  C    0.000000   0.000021   0.000008  -0.000238  -0.000031   0.000005
     8  C   -0.000000  -0.000001  -0.000002  -0.000054  -0.000024   0.000001
     9  N    0.000000   0.000000  -0.000000   0.000000  -0.000000  -0.000000
    10  N    0.000000   0.000000   0.000000  -0.000000   0.000000   0.000000
    11  C   -0.000000  -0.000000  -0.000000   0.000001   0.000001  -0.000000
    12  C    0.000000   0.000005   0.000003   0.000907   0.000165  -0.000053
    13  C    0.000003   0.000088   0.000047  -0.004840  -0.000434   0.000135
    14  C    0.000000   0.000000   0.000000   0.000002  -0.000000  -0.000000
    15  C    0.000000   0.000000   0.000000   0.000000   0.000000  -0.000000
    16  C    0.000000  -0.000000   0.000000   0.000000   0.000000   0.000000
    17  C    0.000000   0.000000   0.000000   0.000000  -0.000000  -0.000000
    18  C    0.000000   0.000000  -0.000000   0.000000  -0.000000  -0.000000
    19  C    0.000000   0.000000   0.000000  -0.000000  -0.000000  -0.000000
    20  C    0.000000   0.000000   0.000000  -0.000000  -0.000000  -0.000000
    21  C    0.000000   0.000000   0.000000   0.000000   0.000000   0.000000
    22  O    0.000000  -0.000000   0.000000   0.000000   0.000000   0.000000
    23  H   -0.030166  -0.002696  -0.002458  -0.000125  -0.000070  -0.000026
    24  H   -0.033224  -0.004459   0.005701   0.005966   0.000133   0.001260
    25  H    0.582531   0.005645  -0.004221   0.000071   0.001157   0.003235
    26  H    0.005645   0.632874  -0.040921  -0.003465   0.000041  -0.000031
    27  H   -0.004221  -0.040921   0.627118   0.006530   0.006174   0.000064
    28  H    0.000071  -0.003465   0.006530   0.652536   0.006208  -0.003791
    29  H    0.001157   0.000041   0.006174   0.006208   0.581981  -0.033232
    30  H    0.003235  -0.000031   0.000064  -0.003791  -0.033232   0.593252
    31  H   -0.000254  -0.000219  -0.000077  -0.003218  -0.028717  -0.027830
    32  H    0.000013   0.003851   0.002584   0.000200   0.000021  -0.000008
    33  H   -0.000000  -0.000000   0.000002   0.000005   0.000001  -0.000000
    34  H    0.000000   0.000000   0.000001   0.000366  -0.000103  -0.000020
    35  H   -0.000000  -0.000000  -0.000000  -0.000000   0.000000   0.000000
    36  H    0.000000   0.000000   0.000000   0.000000   0.000000   0.000000
    37  H   -0.000000   0.000000  -0.000000  -0.000000  -0.000000  -0.000000
    38  H   -0.000000   0.000000  -0.000000  -0.000000  -0.000000  -0.000000
    39  H   -0.000000   0.000000  -0.000000  -0.000000  -0.000000  -0.000000
    40  H    0.000000   0.000000   0.000000   0.000000   0.000000   0.000000
    41  H    0.000000   0.000000   0.000000   0.000000   0.000000   0.000000
    42  H    0.000000   0.000000   0.000000   0.000000   0.000000   0.000000
              31         32         33         34         35         36
     1  C    0.000342  -0.000159   0.000000   0.000001   0.000000   0.000000
     2  C    0.005234   0.005888  -0.000004  -0.000043  -0.000000   0.000000
     3  C   -0.031255  -0.011983  -0.000143   0.004890  -0.000000  -0.000000
     4  C    0.368685   0.000364   0.000001  -0.001271  -0.000005  -0.000000
     5  C   -0.004875  -0.038600   0.009147  -0.008925   0.000002  -0.000000
     6  C   -0.000119   0.375631  -0.054508  -0.001314  -0.000000   0.000000
     7  C    0.000010  -0.038233   0.330013  -0.000245   0.000000   0.000000
     8  C    0.000006   0.000919  -0.021253   0.013213  -0.000015  -0.000051
     9  N    0.000000  -0.000001   0.000144   0.001703  -0.000010   0.004700
    10  N   -0.000000  -0.000000   0.000000  -0.000033   0.003579  -0.066367
    11  C   -0.000001   0.000001  -0.000016  -0.049873  -0.040509  -0.010407
    12  C    0.000186   0.000030  -0.000319   0.277903  -0.004310  -0.001009
    13  C    0.003169   0.004251   0.004082  -0.027034   0.000440  -0.000036
    14  C    0.000007  -0.000000   0.000000   0.002169   0.369260  -0.073077
    15  C   -0.000000   0.000000  -0.000000   0.000355  -0.030891   0.286648
    16  C   -0.000000  -0.000000  -0.000000  -0.000067  -0.016094   0.006465
[...]
     29          1           0        2.387293    2.306054   -0.977121
     30          1           0        1.081536    1.476711   -1.847243
     31          1           0        2.549997    1.965492   -2.702739
     32          1           0        4.943521    0.496470    0.634885
     33          1           0        7.449254    0.710055   -0.289569
     34          1           0        3.897715    0.072461   -4.421003
     35          1           0        4.835804    0.009140   -6.607459
     36          1           0        7.884227    0.457074   -6.853116
     37          1           0        5.687375   -0.180144   -8.912962
     38          1           0        8.762810    0.220299   -9.166162
     39          1           0        6.602257   -0.586250  -11.169605
     40          1           0       10.716607    0.106388  -12.380025
     41          1           0        7.645474   -1.591158  -13.220541
     42          1           0        9.375374   -1.103334  -13.654591
 ---------------------------------------------------------------------
                    Distance matrix (angstroms):
                    1          2          3          4          5
     1  C    0.000000
     2  C    1.531904   0.000000
     3  C    2.582608   1.541594   0.000000
     4  C    3.146651   2.560620   1.545704   0.000000
     5  C    3.905762   2.531741   1.505895   2.504683   0.000000
     6  C    4.554746   3.029205   2.603466   3.502519   1.378915
     7  C    5.938215   4.425106   3.793112   4.583427   2.321539
     8  C    6.231437   4.826199   3.810782   4.511801   2.353919
     9  N    7.519535   6.152746   5.060843   5.661823   3.664182
    10  N    7.911274   6.681629   5.420290   5.912781   4.219850
    11  C    7.151520   6.100498   4.714130   5.121081   3.819400
    12  C    5.727808   4.724534   3.305108   3.773649   2.603970
    13  C    5.135399   3.887029   2.624779   3.329009   1.453031
    14  C    8.011754   7.129913   5.699414   5.970402   5.028113
    15  C    9.414840   8.493781   7.076957   7.333376   6.299221
    16  C   10.334113   9.539717   8.112860   8.304004   7.478768
    17  C   11.727403  10.889369   9.474221   9.678811   8.752764
    18  C   12.698238  11.957797  10.546100  10.721404   9.925838
    19  C   14.097985  13.316267  11.914831  12.111928  11.222973
    20  C   15.020262  14.318019  12.937721  13.151124  12.320945
    21  C   14.727299  13.823001  12.415669  12.600811  11.579639
    22  O   14.272284  13.288009  11.873365  12.022778  10.955747
    23  H    1.094406   2.174830   3.523274   4.144827   4.693041
    24  H    1.096047   2.181769   2.828704   3.510894   4.171207
    25  H    1.094106   2.192874   2.900747   2.886728   4.325016
    26  H    2.156017   1.096155   2.155149   3.490543   2.671473
    27  H    2.159324   1.097823   2.166111   2.774780   2.832185
    28  H    2.739610   2.144131   1.100879   2.145469   2.114335
    29  H    3.525532   2.811469   2.183956   1.095358   2.807660
    30  H    2.841251   2.832969   2.195949   1.094006   3.461440
    31  H    4.138628   3.512672   2.190979   1.093608   2.713738
    32  H    4.346171   2.849978   2.963690   3.818336   2.189634
    33  H    6.774515   5.244157   4.786074   5.548565   3.357052
    34  H    5.383304   4.641597   3.192144   3.510974   3.003735
    35  H    7.702571   7.007948   5.569356   5.750930   5.183552
    36  H    9.857163   8.805971   7.429688   7.738069   6.463377
    37  H   10.104431   9.457611   8.032773   8.163737   7.594463
    38  H   12.106260  11.156281   9.762013  10.009960   8.893849
    39  H   12.512176  11.892800  10.488282  10.625246  10.015970
    40  H   15.810583  14.902713  13.507844  13.713352  12.655562
    41  H   14.837673  14.235190  12.876154  13.091665  12.371424
    42  H   16.053675  15.319691  13.942000  14.164361  13.277474
                    6          7          8          9         10
     6  C    0.000000
     7  C    1.439500   0.000000
     8  C    2.280031   1.382108   0.000000
     9  N    3.614438   2.470749   1.362264   0.000000
    10  N    4.530019   3.604145   2.287229   1.285329   0.000000
    11  C    4.544130   4.031010   2.661352   2.330194   1.401559
    12  C    3.609503   3.544132   2.393859   2.826927   2.491757
    13  C    2.263065   2.294983   1.462218   2.494975   2.815304
    14  C    5.877510   5.414370   4.042914   3.558134   2.375675
    15  C    7.007913   6.335209   4.958497   4.128542   2.843442
    16  C    8.279637   7.671687   6.291594   5.488460   4.203704
    17  C    9.452954   8.710136   7.350383   6.377746   5.127760
    18  C   10.694604  10.006549   8.639293   7.704907   6.446380
    19  C   11.913798  11.128854   9.785391   8.748606   7.534438
    20  C   13.063008  12.325057  10.976209   9.976818   8.753351
    21  C   12.129298  11.205434   9.912160   8.753508   7.624978
    22  O   11.422530  10.436481   9.179075   7.975105   6.906447
    23  H    5.113722   6.515251   6.968140   8.280978   8.762975
    24  H    5.017859   6.302913   6.401165   7.606571   7.850774
    25  H    5.037245   6.425645   6.674989   7.953463   8.297432
    26  H    2.932944   4.225103   4.705938   6.000969   6.594750
    27  H    2.925224   4.362361   5.006480   6.366720   7.041525
    28  H    3.370249   4.377959   4.122809   5.234169   5.374602
    29  H    3.412091   4.513815   4.690694   5.876524   6.298154
    30  H    4.485142   5.632602   5.543609   6.673989   6.833750
    31  H    3.813671   4.609258   4.251327   5.222254   5.296980
    32  H    1.082003   2.231142   3.313398   4.608954   5.587523
    33  H    2.252815   1.081168   2.199996   2.871722   4.134860
    34  H    4.237214   4.448640   3.420353   3.910885   3.458290
    35  H    6.223363   5.994211   4.676289   4.435923   3.354372
    36  H    6.972457   6.102349   4.774409   3.712996   2.498924
    37  H    8.538457   8.100444   6.725272   6.102264   4.832633
    38  H    9.449360   8.564829   7.249950   6.139044   4.967046
    39  H   10.897958  10.340003   8.961593   8.154546   6.874636
    40  H   13.177468  12.220833  10.946114   9.759395   8.660694
    41  H   13.199597  12.562212  11.201538  10.295807   9.047743
    42  H   13.970262  13.173513  11.841129  10.785502   9.591417
                   11         12         13         14         15
    11  C    0.000000
    12  C    1.437835   0.000000
    13  C    2.384824   1.355222   0.000000
    14  C    1.383467   2.446124   3.653527   0.000000
    15  C    2.488477   3.784357   4.872719   1.417329   0.000000
    16  C    3.736711   4.896338   6.089410   2.453215   1.363643
    17  C    4.947142   6.211408   7.330292   3.777646   2.462085
    18  C    6.163786   7.347382   8.529661   4.908460   3.706830
    19  C    7.423879   8.675020   9.803376   6.238530   4.946071
    20  C    8.563625   9.755128  10.924335   7.331272   6.113075
    21  C    7.767357   9.118852  10.131378   6.732816   5.338864
    22  O    7.188618   8.578694   9.505385   6.279600   4.871672
    23  H    8.083610   6.680431   5.992588   8.988300  10.378604
    24  H    6.970706   5.569304   5.194927   7.694750   9.093920
    25  H    7.475656   6.038939   5.521730   8.278371   9.691980
    26  H    6.126897   4.839665   3.937612   7.198662   8.513896
    27  H    6.607838   5.283998   4.279346   7.726797   9.058221
    28  H    4.470148   3.049297   2.770691   5.274285   6.677916
    29  H    5.699317   4.441695   3.769387   6.654707   7.961098
    30  H    5.916154   4.549457   4.279996   6.616537   7.999938
    31  H    4.424858   3.191614   3.042655   5.161301   6.488824
    32  H    5.623713   4.642417   3.314218   6.949852   8.089765
    33  H    4.825580   4.533629   3.345756   6.192616   6.963589
    34  H    2.185313   1.087663   2.156448   2.675792   4.093114
    35  H    2.114735   2.617606   3.961841   1.088808   2.149534
    36  H    2.717059   4.143921   5.010414   2.140767   1.084252
    37  H    4.074161   4.994577   6.289371   2.693766   2.120752
    38  H    5.087358   6.457983   7.444650   4.123532   2.708861
    39  H    6.377089   7.416624   8.676234   5.037262   4.051177
    40  H    8.849430  10.208594  11.205697   7.828993   6.433291
    41  H    8.703768   9.794123  11.018081   7.414771   6.326194
    42  H    9.496693  10.729215  11.865748   8.302735   7.035327
                   16         17         18         19         20
    16  C    0.000000
    17  C    1.431016   0.000000
    18  C    2.459363   1.353911   0.000000
    19  C    3.816554   2.487819   1.455992   0.000000
    20  C    4.901073   3.693764   2.459967   1.347174   0.000000
    21  C    4.470114   3.044773   2.577858   1.499500   2.412828
    22  O    4.250839   2.927904   2.983780   2.416515   3.548246
    23  H   11.317980  12.698049  13.676168  15.063585  15.978641
    24  H    9.916027  11.314560  12.210925  13.618175  14.472343
    25  H   10.576380  11.988340  12.940233  14.360955  15.289269
    26  H    9.582767  10.889773  11.967745  13.288767  14.276397
    27  H   10.170324  11.495057  12.616393  13.955397  15.010247
    28  H    7.602829   8.991127   9.983908  11.375697  12.327944
    29  H    9.002533  10.335356  11.431671  12.790682  13.881754
    30  H    8.859003  10.263433  11.223395  12.644315  13.621092
    31  H    7.422007   8.786103   9.817791  11.204966  12.256015
    32  H    9.358614  10.534244  11.774704  12.993189  14.139896
    33  H    8.319905   9.247578  10.570072  11.607048  12.828521
    34  H    4.983667   6.382516   7.390717   8.786247   9.781472
    35  H    2.685139   4.113597   5.036867   6.454914   7.428300
    36  H    2.115255   2.692916   4.041468   5.062418   6.316958
    37  H    1.089647   2.159441   2.692945   4.147608   5.028487
    38  H    2.169368   1.083820   2.086641   2.687356   3.999190
    39  H    2.694562   2.110449   1.089097   2.170346   2.684584
    40  H    5.557939   4.128187   3.521106   2.187758   2.524440
    41  H    5.035961   4.046891   2.725888   2.131156   1.084378
    42  H    5.878494   4.591229   3.446760   2.118821   1.083849
                   21         22         23         24         25
    21  C    0.000000
    22  O    1.206395   0.000000
    23  H   15.685605  15.229589   0.000000
    24  H   14.337767  13.964887   1.767185   0.000000
    25  H   14.994861  14.523608   1.763189   1.768406   0.000000
    26  H   13.783529  13.268623   2.464944   2.540252   3.081439
    27  H   14.373831  13.764430   2.511760   3.079138   2.515543
    28  H   11.987977  11.540764   3.732508   2.535268   3.145238
    29  H   13.180455  12.524176   4.361567   4.153861   3.173562
    30  H   13.226987  12.711771   3.851043   3.116252   2.290392
    31  H   11.682003  11.098165   5.175426   4.335366   3.885359
    32  H   13.199676  12.481420   4.708080   4.989223   4.840375
    33  H   11.563160  10.738692   7.247414   7.204879   7.281750
    34  H    9.384271   8.945211   6.396277   5.082877   5.613721
    35  H    7.149051   6.830270   8.711525   7.283913   7.910289
    36  H    5.158762   4.510460  10.784468   9.621535  10.172143
    37  H    5.067390   5.026293  11.106372   9.606501  10.301838
    38  H    2.690867   2.254811  13.052934  11.762826  12.400457
    39  H    3.513682   4.021669  13.499608  11.958118  12.721728
    40  H    1.117941   2.025587  16.759979  15.408347  16.093540
    41  H    3.432035   4.505574  15.792437  14.226236  15.098784
    42  H    2.591253   3.794262  17.006059  15.516800  16.333599
                   26         27         28         29         30
    26  H    0.000000
    27  H    1.754920   0.000000
    28  H    2.517019   3.052897   0.000000
    29  H    3.768744   2.577359   3.064101   0.000000
    30  H    3.849234   3.142789   2.474271   1.774803   0.000000
    31  H    4.321869   3.776439   2.512149   1.766412   1.768377
    32  H    2.718641   2.430899   3.858250   3.522422   4.694333
    33  H    4.963353   5.045650   5.415971   5.351952   6.600148
    34  H    4.873921   5.331908   2.664635   4.373859   4.065345
    35  H    7.152826   7.694455   4.994368   6.555282   6.237624
    36  H    8.769644   9.282765   7.153534   8.256048   8.507352
    37  H    9.553791  10.156562   7.419530   8.947028   8.595541
    38  H   11.112525  11.695029   9.370398  10.585744  10.683965
    39  H   11.939826  12.608593   9.845450  11.402547  11.029080
    40  H   14.837967  15.457053  13.072569  14.291334  14.340568
    41  H   14.203367  14.983310  12.193429  13.883013  13.485140
    42  H   15.258462  15.995264  13.352602  14.871969  14.658030
                   31         32         33         34         35
    31  H    0.000000
    32  H    4.361962   0.000000
    33  H    5.603769   2.679354   0.000000
    34  H    2.890042   5.180299   5.485317   0.000000
    35  H    4.929408   7.259520   6.872927   2.380044   0.000000
    36  H    6.924953   8.044841   6.582807   4.685657   3.090934
    37  H    7.281056   9.600652   8.846444   4.841941   2.465025
    38  H    9.133487  10.522536   8.986611   6.797612   4.691793
    39  H    9.727282  11.969531  10.989677   7.300142   4.928288
    40  H   12.798424  14.243194  12.538705  10.480671   8.241105
    41  H   12.216292  14.269953  13.135604   9.707996   7.361253
    42  H   13.264484  15.046256  13.624321  10.800296   8.456203
                   36         37         38         39         40
    36  H    0.000000
    37  H    3.078177   0.000000
    38  H    2.485589   3.111714   0.000000
    39  H    4.622126   2.468677   3.054881   0.000000
    40  H    6.220296   6.115210   3.762873   4.344277   0.000000
    41  H    6.693008   4.937645   4.579061   2.510872   3.608322
    42  H    7.135717   6.077554   4.719453   3.759350   2.210622
                   41         42
    41  H    0.000000
    42  H    1.849034   0.000000
 Stoichiometry    C19H20N2O
 Framework group  C1[X(C19H20N2O)]
 Deg. of freedom   120
 Full point group                 C1      NOp   1
 Largest Abelian subgroup         C1      NOp   1
 Largest concise Abelian subgroup C1      NOp   1
                         Standard orientation:                         
 ---------------------------------------------------------------------
 Center     Atomic      Atomic             Coordinates (Angstroms)
 Number     Number       Type             X           Y           Z
 ---------------------------------------------------------------------
      1          6           0        6.980253   -2.297624   -0.616391
      2          6           0        6.285239   -0.935058   -0.532142
      3          6           0        4.880235   -0.976538    0.100910
      4          6           0        4.925468   -1.393587    1.588601
      5          6           0        4.143475    0.327604   -0.054392
      6          6           0        4.655349    1.598193   -0.212489
      7          6           0        3.597949    2.572089   -0.287275
      8          6           0        2.395649    1.899694   -0.175107
      9          7           0        1.133957    2.412899   -0.197832
     10          7           0        0.126795    1.620426   -0.099428
     11          6           0        0.326204    0.239969    0.038203
     12          6           0        1.633883   -0.357363    0.061471
     13          6           0        2.698256    0.476343   -0.031643
     14          6           0       -0.803350   -0.553248    0.132523
     15          6           0       -2.139848   -0.081486    0.126374
     16          6           0       -3.232224   -0.897676    0.118017
     17          6           0       -4.577171   -0.416606    0.031444
     18          6           0       -5.661269   -1.217553   -0.096190
     19          6           0       -7.026791   -0.739328   -0.259168
     20          6           0       -8.019476   -1.520422   -0.727513
     21          6           0       -7.429732    0.638447    0.174276
     22          8           0       -6.726752    1.442668    0.735023
     23          1           0        7.938961   -2.211410   -1.137132
     24          1           0        6.368177   -3.020506   -1.167865
     25          1           0        7.182950   -2.719540    0.372532
     26          1           0        6.198155   -0.513451   -1.540219
     27          1           0        6.916538   -0.240680    0.037521
     28          1           0        4.302905   -1.746247   -0.434042
     29          1           0        5.531935   -0.686742    2.165121
     30          1           0        5.353143   -2.393085    1.710863
     31          1           0        3.922822   -1.401854    2.025190
     32          1           0        5.706964    1.844093   -0.278584
     33          1           0        3.721896    3.638438   -0.415570
     34          1           0        1.721987   -1.437632    0.152387
     35          1           0       -0.649892   -1.629181    0.198260
     36          1           0       -2.283673    0.992903    0.101774
     37          1           0       -3.089772   -1.977413    0.152749
     38          1           0       -4.744179    0.653966    0.005963
     39          1           0       -5.522151   -2.297420   -0.122009
     40          1           0       -8.500703    0.864266   -0.053364
     41          1           0       -7.849535   -2.547685   -1.030377
     42          1           0       -9.030377   -1.140519   -0.819609
 ---------------------------------------------------------------------
 Rotational constants (GHZ):           0.7869643           0.0744543           0.0694624
 Standard basis: 6-31G(2df,p) (6D, 7F)
 There are   782 symmetry adapted cartesian basis functions of A   symmetry.
 There are   716 symmetry adapted basis functions of A   symmetry.
   716 basis functions,  1108 primitive gaussians,   782 cartesian basis functions
    78 alpha electrons       78 beta electrons
       nuclear repulsion energy      1514.7863411227 Hartrees.
 NAtoms=   42 NActive=   42 NUniq=   42 SFac= 1.00D+00 NAtFMM=   60 NAOKFM=F Big=F
 Integral buffers will be    131072 words long.
 Raffenetti 2 integral format.
 Two-electron integral symmetry is turned on.
 One-electron integrals computed using PRISM.
 PrsmSu:  requested number of processors reduced to:  12 ShMem   1 Linda.
 NBasis=   716 RedAO= T EigKep=  1.00D-04  NBF=   716
 NBsUse=   716 1.00D-06 EigRej= -1.00D+00 NBFU=   716
 Initial guess from the checkpoint file:  "CCCqCrc1ccc2nn3cqcc1-2rCdCCdCCdCCdCO3.chk"
 B after Tr=    -0.000000    0.000000   -0.000000
         Rot=    1.000000    0.000199    0.000047    0.000010 Ang=   0.02 deg.
 ExpMin= 1.61D-01 ExpMax= 5.48D+03 ExpMxC= 8.25D+02 IAcc=2 IRadAn=         4 AccDes= 0.00D+00
 Harris functional with IExCor=  402 and IRadAn=       4 diagonalized for initial guess.
 HarFok:  IExCor=  402 AccDes= 0.00D+00 IRadAn=         4 IDoV= 1 UseB2=F ITyADJ=14
 ICtDFT=  3500011 ScaDFX=  1.000000  1.000000  1.000000  1.000000
 FoFCou: FMM=F IPFlag=           0 FMFlag=      100000 FMFlg1=           0
         NFxFlg=           0 DoJE=T BraDBF=F KetDBF=T FulRan=T
         wScrn=  0.000000 ICntrl=       500 IOpCl=  0 I1Cent=   200000004 NGrid=           0
         NMat0=    1 NMatS0=      1 NMatT0=    0 NMatD0=    1 NMtDS0=    0 NMtDT0=    0
 Petite list used in FoFCou.
 Requested convergence on RMS density matrix=1.00D-08 within 128 cycles.
 Requested convergence on MAX density matrix=1.00D-06.
 Requested convergence on             energy=1.00D-06.
 No special actions if energy rises.
 Integral accuracy reduced to 1.0D-05 until final iterations.
 Initial convergence to 1.0D-05 achieved.  Increase integral accuracy.
 SCF Done:  E(RB3LYP) =  -920.725611625     A.U. after   13 cycles
            NFock= 13  Conv=0.27D-08     -V/T= 2.0081
 PrsmSu:  requested number of processors reduced to:  12 ShMem   1 Linda.
 Calling FoFJK, ICntrl=      2127 FMM=F ISym2X=0 I1Cent= 0 IOpClX= 0 NMat=1 NMatS=1 NMatT=0.
slurmstepd: error: *** JOB 27449191 ON lewis4-r630-hpc4-node303 CANCELLED AT 2023-05-19T03:34:34 DUE TO TIME LIMIT ***
