### Starting Gaussian ###
 Entering Gaussian System, Link 0=g16
 Initial command:
 /cluster/software/gaussian/gaussian-16-A.03/avx2/g16/l1.exe "/local/scratch/yxie/Gau-9000.inp" -scrdir="/local/scratch/yxie/"
 Entering Link 1 = /cluster/software/gaussian/gaussian-16-A.03/avx2/g16/l1.exe PID=      9002.
  
 Copyright (c) 1988,1990,1992,1993,1995,1998,2003,2009,2016,
            Gaussian, Inc.  All Rights Reserved.
  
 This is part of the Gaussian(R) 16 program.  It is based on
 the Gaussian(R) 09 system (copyright 2009, Gaussian, Inc.),
 the Gaussian(R) 03 system (copyright 2003, Gaussian, Inc.),
 the Gaussian(R) 98 system (copyright 1998, Gaussian, Inc.),
 the Gaussian(R) 94 system (copyright 1995, Gaussian, Inc.),
 the Gaussian 92(TM) system (copyright 1992, Gaussian, Inc.),
 the Gaussian 90(TM) system (copyright 1990, Gaussian, Inc.),
 the Gaussian 88(TM) system (copyright 1988, Gaussian, Inc.),
 the Gaussian 86(TM) system (copyright 1986, Carnegie Mellon
 University), and the Gaussian 82(TM) system (copyright 1983,
 Carnegie Mellon University). Gaussian is a federally registered
 trademark of Gaussian, Inc.
  
 This software contains proprietary and confidential information,
 including trade secrets, belonging to Gaussian, Inc.
  
 This software is provided under written license and may be
 used, copied, transmitted, or stored only in accord with that
 written license.
  
 The following legend is applicable only to US Government
 contracts under FAR:
  
                    RESTRICTED RIGHTS LEGEND
  
 Use, reproduction and disclosure by the US Government is
 subject to restrictions as set forth in subparagraphs (a)
 and (c) of the Commercial Computer Software - Restricted
 Rights clause in FAR 52.227-19.
  
 Gaussian, Inc.
 340 Quinnipiac St., Bldg. 40, Wallingford CT 06492
  
  
 ---------------------------------------------------------------
 Warning -- This program may not be used in any manner that
 competes with the business of Gaussian, Inc. or will provide
 assistance to any competitor of Gaussian, Inc.  The licensee
 of this program is prohibited from giving any competitor of
 Gaussian, Inc. access to this program.  By using this program,
 the user acknowledges that Gaussian, Inc. is engaged in the
 business of creating and licensing software in the field of
 computational chemistry and represents and warrants to the
 licensee that it is not a competitor of Gaussian, Inc. and that
 it will not use this program in any manner prohibited above.
 ---------------------------------------------------------------
  

 Cite this work as:
 Gaussian 16, Revision A.03,
 M. J. Frisch, G. W. Trucks, H. B. Schlegel, G. E. Scuseria, 
 M. A. Robb, J. R. Cheeseman, G. Scalmani, V. Barone, 
 G. A. Petersson, H. Nakatsuji, X. Li, M. Caricato, A. V. Marenich, 
 J. Bloino, B. G. Janesko, R. Gomperts, B. Mennucci, H. P. Hratchian, 
 J. V. Ortiz, A. F. Izmaylov, J. L. Sonnenberg, D. Williams-Young, 
 F. Ding, F. Lipparini, F. Egidi, J. Goings, B. Peng, A. Petrone, 
 T. Henderson, D. Ranasinghe, V. G. Zakrzewski, J. Gao, N. Rega, 
 G. Zheng, W. Liang, M. Hada, M. Ehara, K. Toyota, R. Fukuda, 
 J. Hasegawa, M. Ishida, T. Nakajima, Y. Honda, O. Kitao, H. Nakai, 
 T. Vreven, K. Throssell, J. A. Montgomery, Jr., J. E. Peralta, 
 F. Ogliaro, M. J. Bearpark, J. J. Heyd, E. N. Brothers, K. N. Kudin, 
 V. N. Staroverov, T. A. Keith, R. Kobayashi, J. Normand, 
 K. Raghavachari, A. P. Rendell, J. C. Burant, S. S. Iyengar, 
 J. Tomasi, M. Cossi, J. M. Millam, M. Klene, C. Adamo, R. Cammi, 
 J. W. Ochterski, R. L. Martin, K. Morokuma, O. Farkas, 
 J. B. Foresman, and D. J. Fox, Gaussian, Inc., Wallingford CT, 2016.
 
 ******************************************
 Gaussian 16:  ES64L-G16RevA.03 25-Dec-2016
                20-May-2023 
 ******************************************
 %chk=CCdCNC1dC[SH]dCqNrCdCNdN1.chk
 %NProcShared=20
 Will use up to   20 processors via shared memory.
 -----------------------------
 # opt freq b3lyp/6-31g(2df,p)
 -----------------------------
 1/18=20,19=15,26=3,38=1/1,3;
 2/9=110,12=2,17=6,18=5,40=1/2;
 3/5=1,6=6,7=104,11=2,25=1,30=1,71=1,74=-5/1,2,3;
 4//1;
 5/5=2,38=5/2;
 6/7=2,8=2,9=2,10=2,28=1/1;
 7//1,2,3,16;
 1/18=20,19=15,26=3/3(2);
 2/9=110/2;
 99//99;
 2/9=110/2;
 3/5=1,6=6,7=104,11=2,25=1,30=1,71=1,74=-5/1,2,3;
 4/5=5,16=3,69=1/1;
 5/5=2,38=5/2;
 7//1,2,3,16;
 1/18=20,19=15,26=3/3(-5);
 2/9=110/2;
 6/7=2,8=2,9=2,10=2,19=2,28=1/1;
 99/9=1/99;
 -------------------
 Title Card Required
 -------------------
 Symbolic Z-matrix:
 Charge =  0 Multiplicity = 1
 C                     0.95003   0.02283   0.05308 
 C                     2.44027  -0.00191   0.04895 
 C                     3.15373  -1.13378   0.1695 
 N                     4.51287  -1.19716   0.24401 
 C                     5.40222  -2.25795   0.35744 
 C                     5.16113  -3.44907  -0.2389 
 S                     6.48844  -4.62111  -0.50568 
 C                     6.76787  -5.1699    1.16415 
 N                     7.80004  -6.02925   1.35851 
 C                     6.01031  -4.74655   2.34128 
 C                     6.05807  -3.46279   2.72948 
 N                     6.83516  -2.48152   2.15717 
 N                     6.60996  -2.02736   1.00233 
 H                     0.59277   1.05192  -0.05901 
 H                     0.55972  -0.36307   1.00004 
 H                     0.54736  -0.56584  -0.77581 
 H                     2.94847   0.95387  -0.04017 
 H                     2.64745  -2.08963   0.26912 
 H                     5.00203  -0.30721   0.27307 
 H                     4.20588  -3.63473  -0.71545 
 H                     7.50174  -3.78219  -0.56541 
 H                     8.39163  -6.27708   0.5704 
 H                     8.10443  -6.35583   2.26706 
 H                     5.40256  -5.48226   2.85254 
 H                     5.48885  -3.15137   3.60162 
 

 GradGradGradGradGradGradGradGradGradGradGradGradGradGradGradGradGradGrad
 Berny optimization.
 Initialization pass.
                           ----------------------------
                           !    Initial Parameters    !
                           ! (Angstroms and Degrees)  !
 --------------------------                            --------------------------
 ! Name  Definition              Value          Derivative Info.                !
 --------------------------------------------------------------------------------
 ! R1    R(1,2)                  1.4905         estimate D2E/DX2                !
 ! R2    R(1,14)                 1.0951         estimate D2E/DX2                !
 ! R3    R(1,15)                 1.0945         estimate D2E/DX2                !
 ! R4    R(1,16)                 1.0935         estimate D2E/DX2                !
 ! R5    R(2,3)                  1.3434         estimate D2E/DX2                !
 ! R6    R(2,17)                 1.0862         estimate D2E/DX2                !
 ! R7    R(3,4)                  1.3627         estimate D2E/DX2                !
 ! R8    R(3,18)                 1.0862         estimate D2E/DX2                !
 ! R9    R(4,5)                  1.3889         estimate D2E/DX2                !
 ! R10   R(4,19)                 1.0159         estimate D2E/DX2                !
 ! R11   R(5,6)                  1.3537         estimate D2E/DX2                !
 ! R12   R(5,13)                 1.3884         estimate D2E/DX2                !
 ! R13   R(6,7)                  1.7907         estimate D2E/DX2                !
 ! R14   R(6,20)                 1.0835         estimate D2E/DX2                !
 ! R15   R(7,8)                  1.7798         estimate D2E/DX2                !
 ! R16   R(7,21)                 1.3169         estimate D2E/DX2                !
 ! R17   R(8,9)                  1.3571         estimate D2E/DX2                !
 ! R18   R(8,10)                 1.4624         estimate D2E/DX2                !
 ! R19   R(9,22)                 1.0161         estimate D2E/DX2                !
 ! R20   R(9,23)                 1.0123         estimate D2E/DX2                !
 ! R21   R(10,11)                1.342          estimate D2E/DX2                !
 ! R22   R(10,24)                1.0826         estimate D2E/DX2                !
 ! R23   R(11,12)                1.3763         estimate D2E/DX2                !
 ! R24   R(11,25)                1.087          estimate D2E/DX2                !
 ! R25   R(12,13)                1.2612         estimate D2E/DX2                !
 ! A1    A(2,1,14)             109.9687         estimate D2E/DX2                !
 ! A2    A(2,1,15)             110.6768         estimate D2E/DX2                !
 ! A3    A(2,1,16)             110.9254         estimate D2E/DX2                !
 ! A4    A(14,1,15)            107.6705         estimate D2E/DX2                !
 ! A5    A(14,1,16)            107.9489         estimate D2E/DX2                !
 ! A6    A(15,1,16)            109.5544         estimate D2E/DX2                !
 ! A7    A(1,2,3)              123.0077         estimate D2E/DX2                !
 ! A8    A(1,2,17)             116.9649         estimate D2E/DX2                !
 ! A9    A(3,2,17)             120.0191         estimate D2E/DX2                !
 ! A10   A(2,3,4)              125.0168         estimate D2E/DX2                !
 ! A11   A(2,3,18)             120.1399         estimate D2E/DX2                !
 ! A12   A(4,3,18)             114.7679         estimate D2E/DX2                !
 ! A13   A(3,4,5)              132.7388         estimate D2E/DX2                !
 ! A14   A(3,4,19)             116.1717         estimate D2E/DX2                !
 ! A15   A(5,4,19)             111.0019         estimate D2E/DX2                !
 ! A16   A(4,5,6)              121.4672         estimate D2E/DX2                !
 ! A17   A(4,5,13)             117.9099         estimate D2E/DX2                !
 ! A18   A(6,5,13)             120.3759         estimate D2E/DX2                !
 ! A19   A(5,6,7)              120.6323         estimate D2E/DX2                !
 ! A20   A(5,6,20)             120.1007         estimate D2E/DX2                !
 ! A21   A(7,6,20)             118.4108         estimate D2E/DX2                !
 ! A22   A(6,7,8)              100.2775         estimate D2E/DX2                !
 ! A23   A(6,7,21)              99.2156         estimate D2E/DX2                !
 ! A24   A(8,7,21)              96.7872         estimate D2E/DX2                !
 ! A25   A(7,8,9)              116.6826         estimate D2E/DX2                !
 ! A26   A(7,8,10)             125.7742         estimate D2E/DX2                !
 ! A27   A(9,8,10)             117.5177         estimate D2E/DX2                !
 ! A28   A(8,9,22)             119.0897         estimate D2E/DX2                !
 ! A29   A(8,9,23)             124.1617         estimate D2E/DX2                !
 ! A30   A(22,9,23)            116.2545         estimate D2E/DX2                !
 ! A31   A(8,10,11)            119.4266         estimate D2E/DX2                !
 ! A32   A(8,10,24)            118.3069         estimate D2E/DX2                !
 ! A33   A(11,10,24)           122.2388         estimate D2E/DX2                !
 ! A34   A(10,11,12)           125.5785         estimate D2E/DX2                !
 ! A35   A(10,11,25)           119.1763         estimate D2E/DX2                !
 ! A36   A(12,11,25)           115.1522         estimate D2E/DX2                !
 ! A37   A(11,12,13)           122.4575         estimate D2E/DX2                !
 ! A38   A(5,13,12)            121.3877         estimate D2E/DX2                !
 ! D1    D(14,1,2,3)          -179.9364         estimate D2E/DX2                !
 ! D2    D(14,1,2,17)            1.1092         estimate D2E/DX2                !
 ! D3    D(15,1,2,3)            61.2263         estimate D2E/DX2                !
 ! D4    D(15,1,2,17)         -117.7281         estimate D2E/DX2                !
 ! D5    D(16,1,2,3)           -60.5978         estimate D2E/DX2                !
 ! D6    D(16,1,2,17)          120.4477         estimate D2E/DX2                !
 ! D7    D(1,2,3,4)           -176.2303         estimate D2E/DX2                !
 ! D8    D(1,2,3,18)             0.4408         estimate D2E/DX2                !
 ! D9    D(17,2,3,4)             2.6934         estimate D2E/DX2                !
 ! D10   D(17,2,3,18)          179.3645         estimate D2E/DX2                !
 ! D11   D(2,3,4,5)           -179.3911         estimate D2E/DX2                !
 ! D12   D(2,3,4,19)             4.3793         estimate D2E/DX2                !
 ! D13   D(18,3,4,5)             3.7793         estimate D2E/DX2                !
 ! D14   D(18,3,4,19)         -172.4503         estimate D2E/DX2                !
 ! D15   D(3,4,5,6)             34.6942         estimate D2E/DX2                !
 ! D16   D(3,4,5,13)          -150.9964         estimate D2E/DX2                !
 ! D17   D(19,4,5,6)          -148.9302         estimate D2E/DX2                !
 ! D18   D(19,4,5,13)           25.3793         estimate D2E/DX2                !
 ! D19   D(4,5,6,7)            161.5926         estimate D2E/DX2                !
 ! D20   D(4,5,6,20)            -7.6467         estimate D2E/DX2                !
 ! D21   D(13,5,6,7)           -12.5782         estimate D2E/DX2                !
 ! D22   D(13,5,6,20)          178.1826         estimate D2E/DX2                !
 ! D23   D(4,5,13,12)          106.984          estimate D2E/DX2                !
 ! D24   D(6,5,13,12)          -78.6418         estimate D2E/DX2                !
 ! D25   D(5,6,7,8)             72.0542         estimate D2E/DX2                !
 ! D26   D(5,6,7,21)           -26.6363         estimate D2E/DX2                !
 ! D27   D(20,6,7,8)          -118.5282         estimate D2E/DX2                !
 ! D28   D(20,6,7,21)          142.7813         estimate D2E/DX2                !
 ! D29   D(6,7,8,9)           -175.7711         estimate D2E/DX2                !
 ! D30   D(6,7,8,10)             2.3374         estimate D2E/DX2                !
 ! D31   D(21,7,8,9)           -75.0814         estimate D2E/DX2                !
 ! D32   D(21,7,8,10)          103.0271         estimate D2E/DX2                !
 ! D33   D(7,8,9,22)             3.4391         estimate D2E/DX2                !
 ! D34   D(7,8,9,23)           175.0602         estimate D2E/DX2                !
 ! D35   D(10,8,9,22)         -174.8306         estimate D2E/DX2                !
 ! D36   D(10,8,9,23)           -3.2095         estimate D2E/DX2                !
 ! D37   D(7,8,10,11)          -64.4127         estimate D2E/DX2                !
 ! D38   D(7,8,10,24)          113.7144         estimate D2E/DX2                !
 ! D39   D(9,8,10,11)          113.6816         estimate D2E/DX2                !
 ! D40   D(9,8,10,24)          -68.1913         estimate D2E/DX2                !
 ! D41   D(8,10,11,12)          -4.0363         estimate D2E/DX2                !
 ! D42   D(8,10,11,25)         179.65           estimate D2E/DX2                !
 ! D43   D(24,10,11,12)        177.9132         estimate D2E/DX2                !
 ! D44   D(24,10,11,25)          1.5995         estimate D2E/DX2                !
 ! D45   D(10,11,12,13)         69.6188         estimate D2E/DX2                !
 ! D46   D(25,11,12,13)       -113.9368         estimate D2E/DX2                !
 ! D47   D(11,12,13,5)          14.9535         estimate D2E/DX2                !
 --------------------------------------------------------------------------------
 Trust Radius=3.00D-01 FncErr=1.00D-07 GrdErr=1.00D-06 EigMax=2.50D+02 EigMin=1.00D-04
 Number of steps in this run=    120 maximum allowed number of steps=    150.
 GradGradGradGradGradGradGradGradGradGradGradGradGradGradGradGradGradGrad

                          Input orientation:                          
 ---------------------------------------------------------------------
 Center     Atomic      Atomic             Coordinates (Angstroms)
 Number     Number       Type             X           Y           Z
 ---------------------------------------------------------------------
      1          6           0        0.950030    0.022830    0.053080
      2          6           0        2.440270   -0.001910    0.048950
      3          6           0        3.153730   -1.133780    0.169500
      4          7           0        4.512870   -1.197160    0.244010
      5          6           0        5.402220   -2.257950    0.357440
      6          6           0        5.161130   -3.449070   -0.238900
      7         16           0        6.488440   -4.621110   -0.505680
      8          6           0        6.767870   -5.169900    1.164150
      9          7           0        7.800040   -6.029250    1.358510
     10          6           0        6.010310   -4.746550    2.341280
     11          6           0        6.058070   -3.462790    2.729480
     12          7           0        6.835160   -2.481520    2.157170
     13          7           0        6.609960   -2.027360    1.002330
     14          1           0        0.592770    1.051920   -0.059010
     15          1           0        0.559720   -0.363070    1.000040
     16          1           0        0.547360   -0.565840   -0.775810
     17          1           0        2.948470    0.953870   -0.040170
     18          1           0        2.647450   -2.089630    0.269120
     19          1           0        5.002030   -0.307210    0.273070
     20          1           0        4.205880   -3.634730   -0.715450
     21          1           0        7.501740   -3.782190   -0.565410
     22          1           0        8.391630   -6.277080    0.570400
     23          1           0        8.104430   -6.355830    2.267060
     24          1           0        5.402560   -5.482260    2.852540
     25          1           0        5.488850   -3.151370    3.601620
 ---------------------------------------------------------------------
                    Distance matrix (angstroms):
                    1          2          3          4          5
     1  C    0.000000
     2  C    1.490451   0.000000
     3  C    2.491504   1.343386   0.000000
     4  N    3.770764   2.400488   1.362656   0.000000
     5  C    5.011645   3.736045   2.520870   1.388915   0.000000
     6  C    5.465593   4.401005   3.091442   2.392601   1.353703
     7  S    7.249302   6.167034   4.872128   4.023474   2.740324
     8  C    7.876940   6.832270   5.508321   4.659865   3.315906
     9  N    9.233334   8.171347   6.853289   5.949512   4.579780
    10  C    7.320470   6.364870   5.092031   4.386233   3.240143
    11  C    6.738304   5.679032   4.518072   3.701119   2.740137
    12  N    6.733032   5.468831   4.395471   3.271512   2.311348
    13  N    6.094191   4.732620   3.665736   2.379510   1.388413
    14  H    1.095091   2.129664   3.374614   4.529610   5.853160
    15  H    1.094529   2.138101   2.830667   4.110314   5.239591
    16  H    1.093496   2.140410   2.830076   4.142930   5.264709
    17  H    2.206648   1.086151   2.108169   2.674890   4.061375
    18  H    2.718528   2.109496   1.086229   2.068073   2.761320
    19  H    4.071367   2.589605   2.027352   1.015939   1.993152
    20  H    4.956707   4.110848   2.853928   2.637528   2.116092
    21  H    7.601685   6.347159   5.143866   4.033718   2.753715
    22  H    9.763908   8.664200   7.351860   6.399758   5.013515
    23  H    9.837401   8.796307   7.495265   6.603326   5.266992
    24  H    7.613673   6.831509   5.582582   5.094905   4.076972
    25  H    6.577885   5.642198   4.615507   4.005623   3.366067
                    6          7          8          9         10
     6  C    0.000000
     7  S    1.790699   0.000000
     8  C    2.740697   1.779771   0.000000
     9  N    4.021554   2.679246   1.357068   0.000000
    10  C    3.010297   2.889554   1.462449   2.411284   0.000000
    11  C    3.100963   3.463118   2.422457   3.391273   1.342021
    12  N    3.078909   3.433487   2.866706   3.762345   2.417568
    13  N    2.379290   3.002732   3.150663   4.190260   3.089719
    14  H    6.415698   8.194004   8.850934  10.202797   8.290560
    15  H    5.677265   7.453041   7.853259   9.200887   7.121991
    16  H    5.467007   7.198237   7.978443   9.327676   7.552378
    17  H    4.931657   6.620309   7.317019   8.617308   6.894995
    18  H    2.902542   4.664966   5.221782   6.576972   4.760451
    19  H    3.187273   4.628779   5.249568   6.461330   5.000186
    20  H    1.083546   2.495402   3.528943   4.790931   3.719638
    21  H    2.386636   1.316864   2.335740   2.973168   3.406347
    22  H    4.369066   2.742684   2.053042   1.016128   3.339045
    23  H    4.836538   3.648118   2.099817   1.012310   2.642088
    24  H    3.707985   3.632954   2.193696   2.877366   1.082597
    25  H    3.865956   4.475403   3.413446   4.319182   2.098804
                   11         12         13         14         15
    11  C    0.000000
    12  N    1.376335   0.000000
    13  N    2.312594   1.261203   0.000000
    14  H    7.617597   7.507602   6.842148   0.000000
    15  H    6.544546   6.723684   6.274972   1.767732   0.000000
    16  H    7.144739   7.197821   6.484824   1.770032   1.787432
    17  H    6.070211   5.633522   4.835395   2.357815   2.919331
    18  H    4.423943   4.610339   4.030256   3.768118   2.806042
    19  H    4.136043   3.411425   2.464990   4.625915   4.501747
    20  H    3.915062   4.061398   3.363630   5.954004   5.190486
    21  H    3.611440   3.090067   2.516448   8.447421   7.895103
    22  H    4.245864   4.398490   4.628286  10.720663   9.823386
    23  H    3.573668   4.078407   4.750646  10.803259   9.718084
    24  H    2.126757   3.397105   4.100905   8.620134   7.286354
    25  H    1.087024   2.085110   3.045750   7.418858   6.232107
                   16         17         18         19         20
    16  H    0.000000
    17  H    2.935305   0.000000
    18  H    2.797176   3.073950   0.000000
    19  H    4.583789   2.430134   2.953148   0.000000
    20  H    4.775615   4.805448   2.405289   3.561378   0.000000
    21  H    7.665023   6.590782   5.208198   4.362005   3.302567
    22  H    9.796077   9.071242   7.114851   6.871473   5.114287
    23  H    9.994616   9.237908   7.209082   7.084256   5.612347
    24  H    7.804427   7.470883   5.076872   5.796139   4.192370
    25  H    7.089794   6.047244   4.506263   4.405166   4.529541
                   21         22         23         24         25
    21  H    0.000000
    22  H    2.882090   0.000000
    23  H    3.874241   1.722597   0.000000
    24  H    4.356510   3.843754   2.899312   0.000000
    25  H    4.670524   5.233019   4.346363   2.449819   0.000000
 Stoichiometry    C8H12N4S
 Framework group  C1[X(C8H12N4S)]
 Deg. of freedom    69
 Full point group                 C1      NOp   1
 Largest Abelian subgroup         C1      NOp   1
 Largest concise Abelian subgroup C1      NOp   1
                         Standard orientation:                         
 ---------------------------------------------------------------------
 Center     Atomic      Atomic             Coordinates (Angstroms)
 Number     Number       Type             X           Y           Z
 ---------------------------------------------------------------------
      1          6           0       -5.231302   -0.181940    0.902974
      2          6           0       -4.161315    0.012533   -0.116219
      3          6           0       -2.856754   -0.168090    0.148703
      4          7           0       -1.840823    0.067792   -0.728265
      5          6           0       -0.462098   -0.070436   -0.632881
      6          6           0        0.099784   -1.069290    0.087599
      7         16           0        1.807276   -1.538018   -0.179543
      8          6           0        2.637320   -0.139554    0.543579
      9          7           0        3.990139   -0.113178    0.439565
     10          6           0        1.987950    0.994038    1.200880
     11          6           0        1.193813    1.804959    0.484798
     12          7           0        0.978472    1.721186   -0.872003
     13          7           0        0.330286    0.775397   -1.397332
     14          1           0       -6.211765    0.020426    0.459164
     15          1           0       -5.096951    0.509120    1.741055
     16          1           0       -5.235107   -1.210624    1.273823
     17          1           0       -4.475814    0.330991   -1.105865
     18          1           0       -2.539257   -0.476562    1.140636
     19          1           0       -2.105373    0.470500   -1.622677
     20          1           0       -0.519594   -1.708322    0.705726
     21          1           0        1.935043   -1.162597   -1.435276
     22          1           0        4.459964   -0.848106   -0.081646
     23          1           0        4.568801    0.659192    0.745124
     24          1           0        2.144110    1.129608    2.263543
     25          1           0        0.708626    2.642964    0.978726
 ---------------------------------------------------------------------
 Rotational constants (GHZ):           1.6059736           0.3473476           0.3248602
 Standard basis: 6-31G(2df,p) (6D, 7F)
 There are   467 symmetry adapted cartesian basis functions of A   symmetry.
 There are   428 symmetry adapted basis functions of A   symmetry.
   428 basis functions,   680 primitive gaussians,   467 cartesian basis functions
    52 alpha electrons       52 beta electrons
       nuclear repulsion energy       877.1736395591 Hartrees.
 NAtoms=   25 NActive=   25 NUniq=   25 SFac= 1.00D+00 NAtFMM=   60 NAOKFM=F Big=F
 Integral buffers will be    131072 words long.
 Raffenetti 2 integral format.
 Two-electron integral symmetry is turned on.
 One-electron integrals computed using PRISM.
 PrsmSu:  requested number of processors reduced to:  13 ShMem   1 Linda.
 NBasis=   428 RedAO= T EigKep=  1.80D-04  NBF=   428
 NBsUse=   428 1.00D-06 EigRej= -1.00D+00 NBFU=   428
 ExpMin= 1.17D-01 ExpMax= 2.19D+04 ExpMxC= 3.30D+03 IAcc=3 IRadAn=         5 AccDes= 0.00D+00
 Harris functional with IExCor=  402 and IRadAn=       5 diagonalized for initial guess.
 HarFok:  IExCor=  402 AccDes= 0.00D+00 IRadAn=         5 IDoV= 1 UseB2=F ITyADJ=14
 ICtDFT=  3500011 ScaDFX=  1.000000  1.000000  1.000000  1.000000
 FoFCou: FMM=F IPFlag=           0 FMFlag=      100000 FMFlg1=           0
         NFxFlg=           0 DoJE=T BraDBF=F KetDBF=T FulRan=T
         wScrn=  0.000000 ICntrl=       500 IOpCl=  0 I1Cent=   200000004 NGrid=           0
         NMat0=    1 NMatS0=      1 NMatT0=    0 NMatD0=    1 NMtDS0=    0 NMtDT0=    0
 Petite list used in FoFCou.
 Requested convergence on RMS density matrix=1.00D-08 within 128 cycles.
 Requested convergence on MAX density matrix=1.00D-06.
 Requested convergence on             energy=1.00D-06.
 No special actions if energy rises.
 Integral accuracy reduced to 1.0D-05 until final iterations.
 EnCoef did     2 forward-backward iterations
 EnCoef did     3 forward-backward iterations
 EnCoef did    13 forward-backward iterations
 Initial convergence to 1.0D-05 achieved.  Increase integral accuracy.
 SCF Done:  E(RB3LYP) =  -928.990620082     A.U. after   27 cycles
            NFock= 27  Conv=0.29D-08     -V/T= 2.0053

 **********************************************************************

            Population analysis using the SCF density.

 **********************************************************************

 Orbital symmetries:
       Occupied  (A) (A) (A) (A) (A) (A) (A) (A) (A) (A) (A) (A)
                 (A) (A) (A) (A) (A) (A) (A) (A) (A) (A) (A) (A)
                 (A) (A) (A) (A) (A) (A) (A) (A) (A) (A) (A) (A)
                 (A) (A) (A) (A) (A) (A) (A) (A) (A) (A) (A) (A)
                 (A) (A) (A) (A)
       Virtual   (A) (A) (A) (A) (A) (A) (A) (A) (A) (A) (A) (A)
                 (A) (A) (A) (A) (A) (A) (A) (A) (A) (A) (A) (A)
                 (A) (A) (A) (A) (A) (A) (A) (A) (A) (A) (A) (A)
                 (A) (A) (A) (A) (A) (A) (A) (A) (A) (A) (A) (A)
                 (A) (A) (A) (A) (A) (A) (A) (A) (A) (A) (A) (A)
                 (A) (A) (A) (A) (A) (A) (A) (A) (A) (A) (A) (A)
                 (A) (A) (A) (A) (A) (A) (A) (A) (A) (A) (A) (A)
                 (A) (A) (A) (A) (A) (A) (A) (A) (A) (A) (A) (A)
                 (A) (A) (A) (A) (A) (A) (A) (A) (A) (A) (A) (A)
                 (A) (A) (A) (A) (A) (A) (A) (A) (A) (A) (A) (A)
                 (A) (A) (A) (A) (A) (A) (A) (A) (A) (A) (A) (A)
                 (A) (A) (A) (A) (A) (A) (A) (A) (A) (A) (A) (A)
                 (A) (A) (A) (A) (A) (A) (A) (A) (A) (A) (A) (A)
                 (A) (A) (A) (A) (A) (A) (A) (A) (A) (A) (A) (A)
                 (A) (A) (A) (A) (A) (A) (A) (A) (A) (A) (A) (A)
                 (A) (A) (A) (A) (A) (A) (A) (A) (A) (A) (A) (A)
                 (A) (A) (A) (A) (A) (A) (A) (A) (A) (A) (A) (A)
                 (A) (A) (A) (A) (A) (A) (A) (A) (A) (A) (A) (A)
                 (A) (A) (A) (A) (A) (A) (A) (A) (A) (A) (A) (A)
                 (A) (A) (A) (A) (A) (A) (A) (A) (A) (A) (A) (A)
                 (A) (A) (A) (A) (A) (A) (A) (A) (A) (A) (A) (A)
                 (A) (A) (A) (A) (A) (A) (A) (A) (A) (A) (A) (A)
                 (A) (A) (A) (A) (A) (A) (A) (A) (A) (A) (A) (A)
                 (A) (A) (A) (A) (A) (A) (A) (A) (A) (A) (A) (A)
                 (A) (A) (A) (A) (A) (A) (A) (A) (A) (A) (A) (A)
                 (A) (A) (A) (A) (A) (A) (A) (A) (A) (A) (A) (A)
                 (A) (A) (A) (A) (A) (A) (A) (A) (A) (A) (A) (A)
                 (A) (A) (A) (A) (A) (A) (A) (A) (A) (A) (A) (A)
                 (A) (A) (A) (A) (A) (A) (A) (A) (A) (A) (A) (A)
                 (A) (A) (A) (A) (A) (A) (A) (A) (A) (A) (A) (A)
                 (A) (A) (A) (A) (A) (A) (A) (A) (A) (A) (A) (A)
                 (A) (A) (A) (A)
 The electronic state is 1-A.
 Alpha  occ. eigenvalues --  -88.96813 -14.37106 -14.34452 -14.34357 -14.31636
 Alpha  occ. eigenvalues --  -10.26725 -10.22302 -10.20474 -10.18573 -10.18109
 Alpha  occ. eigenvalues --  -10.17723 -10.17138 -10.15887  -8.02261  -5.98574
 Alpha  occ. eigenvalues --   -5.98521  -5.98084  -1.01511  -0.95708  -0.89905
 Alpha  occ. eigenvalues --   -0.84017  -0.80341  -0.77414  -0.73663  -0.69054
 Alpha  occ. eigenvalues --   -0.67608  -0.61812  -0.58751  -0.58394  -0.54592
 Alpha  occ. eigenvalues --   -0.51747  -0.51558  -0.48811  -0.48423  -0.44973
 Alpha  occ. eigenvalues --   -0.44110  -0.42331  -0.42043  -0.41533  -0.41011
 Alpha  occ. eigenvalues --   -0.38939  -0.38751  -0.36285  -0.35702  -0.34825
 Alpha  occ. eigenvalues --   -0.32278  -0.29807  -0.27175  -0.24187  -0.19674
 Alpha  occ. eigenvalues --   -0.19326  -0.08537
 Alpha virt. eigenvalues --   -0.05482  -0.02308   0.01118   0.02573   0.04406
 Alpha virt. eigenvalues --    0.06691   0.07943   0.09345   0.11152   0.11286
 Alpha virt. eigenvalues --    0.13440   0.13787   0.14761   0.15139   0.16070
 Alpha virt. eigenvalues --    0.18917   0.19343   0.20014   0.22214   0.23427
 Alpha virt. eigenvalues --    0.25373   0.26602   0.27366   0.29498   0.30301
 Alpha virt. eigenvalues --    0.31442   0.33148   0.34630   0.35846   0.36467
 Alpha virt. eigenvalues --    0.37100   0.40392   0.41701   0.43605   0.44035
 Alpha virt. eigenvalues --    0.45498   0.46418   0.48086   0.48300   0.49870
 Alpha virt. eigenvalues --    0.50242   0.51188   0.51840   0.53136   0.53530
 Alpha virt. eigenvalues --    0.55509   0.55524   0.57147   0.57644   0.58829
 Alpha virt. eigenvalues --    0.59109   0.60129   0.61593   0.62409   0.64238
 Alpha virt. eigenvalues --    0.64347   0.66121   0.66754   0.68255   0.69069
 Alpha virt. eigenvalues --    0.70371   0.70651   0.71586   0.72475   0.73487
 Alpha virt. eigenvalues --    0.73895   0.74199   0.74661   0.75222   0.75910
 Alpha virt. eigenvalues --    0.77015   0.77809   0.78421   0.78925   0.79913
 Alpha virt. eigenvalues --    0.80765   0.82290   0.83557   0.84080   0.85160
 Alpha virt. eigenvalues --    0.85540   0.86295   0.87140   0.88058   0.89208
 Alpha virt. eigenvalues --    0.90656   0.92218   0.94096   0.94612   0.96661
 Alpha virt. eigenvalues --    0.97866   0.99064   1.02085   1.03019   1.04124
 Alpha virt. eigenvalues --    1.04865   1.08065   1.08344   1.10957   1.10967
 Alpha virt. eigenvalues --    1.15339   1.15888   1.16864   1.20634   1.22304
 Alpha virt. eigenvalues --    1.23650   1.24163   1.26226   1.26565   1.27042
 Alpha virt. eigenvalues --    1.29224   1.33284   1.33684   1.34455   1.36391
 Alpha virt. eigenvalues --    1.38511   1.40796   1.42137   1.43796   1.44816
 Alpha virt. eigenvalues --    1.45992   1.48422   1.49574   1.50443   1.51914
 Alpha virt. eigenvalues --    1.53380   1.54819   1.55907   1.56581   1.58063
 Alpha virt. eigenvalues --    1.59390   1.60986   1.62309   1.65647   1.66724
 Alpha virt. eigenvalues --    1.69330   1.71123   1.73523   1.74036   1.75531
 Alpha virt. eigenvalues --    1.77303   1.78215   1.78882   1.81054   1.81888
 Alpha virt. eigenvalues --    1.82543   1.83034   1.85006   1.85852   1.88307
 Alpha virt. eigenvalues --    1.89412   1.92080   1.94826   1.95143   1.97103
 Alpha virt. eigenvalues --    1.99120   2.00934   2.02217   2.02549   2.05961
 Alpha virt. eigenvalues --    2.08143   2.10282   2.12950   2.15216   2.16313
 Alpha virt. eigenvalues --    2.19641   2.22119   2.24052   2.26899   2.27767
 Alpha virt. eigenvalues --    2.29526   2.32553   2.33422   2.35127   2.36200
 Alpha virt. eigenvalues --    2.38177   2.40159   2.42267   2.42838   2.47188
 Alpha virt. eigenvalues --    2.48330   2.53520   2.56069   2.57247   2.59648
 Alpha virt. eigenvalues --    2.62438   2.65282   2.69248   2.71482   2.72171
 Alpha virt. eigenvalues --    2.72591   2.75344   2.76013   2.81209   2.82188
 Alpha virt. eigenvalues --    2.85210   2.86001   2.87766   2.88387   2.89816
 Alpha virt. eigenvalues --    2.91828   2.92585   2.93280   2.96255   2.97913
 Alpha virt. eigenvalues --    2.99672   3.00145   3.01201   3.02840   3.03818
 Alpha virt. eigenvalues --    3.04374   3.06449   3.07284   3.08137   3.08904
 Alpha virt. eigenvalues --    3.10382   3.14277   3.14513   3.17271   3.18482
 Alpha virt. eigenvalues --    3.19422   3.20801   3.21621   3.23596   3.23814
 Alpha virt. eigenvalues --    3.25150   3.26105   3.27503   3.31564   3.32063
 Alpha virt. eigenvalues --    3.33950   3.35446   3.36883   3.38084   3.39880
 Alpha virt. eigenvalues --    3.41427   3.42805   3.43518   3.44442   3.45248
 Alpha virt. eigenvalues --    3.46543   3.46903   3.51970   3.53868   3.54186
 Alpha virt. eigenvalues --    3.55956   3.58997   3.61366   3.62934   3.64321
 Alpha virt. eigenvalues --    3.66224   3.69252   3.69741   3.72208   3.76213
 Alpha virt. eigenvalues --    3.78163   3.81526   3.83296   3.86491   3.88376
 Alpha virt. eigenvalues --    3.88540   3.89716   3.89948   3.93411   3.94847
 Alpha virt. eigenvalues --    3.98283   4.00130   4.01866   4.03817   4.04592
 Alpha virt. eigenvalues --    4.08106   4.11339   4.13018   4.14101   4.17114
 Alpha virt. eigenvalues --    4.17997   4.19704   4.20958   4.22868   4.24049
 Alpha virt. eigenvalues --    4.25000   4.27453   4.28492   4.29472   4.30434
 Alpha virt. eigenvalues --    4.31714   4.34235   4.35561   4.36809   4.38825
 Alpha virt. eigenvalues --    4.40460   4.41595   4.42180   4.43278   4.44217
 Alpha virt. eigenvalues --    4.45679   4.47338   4.48885   4.50225   4.50855
 Alpha virt. eigenvalues --    4.52181   4.53843   4.55879   4.56897   4.59435
 Alpha virt. eigenvalues --    4.59918   4.60397   4.62000   4.62597   4.64248
 Alpha virt. eigenvalues --    4.65137   4.67807   4.70428   4.71619   4.72586
 Alpha virt. eigenvalues --    4.73094   4.76213   4.76427   4.78212   4.78629
 Alpha virt. eigenvalues --    4.80017   4.80899   4.82640   4.85088   4.86244
 Alpha virt. eigenvalues --    4.90162   4.93179   4.95205   4.96414   4.98630
 Alpha virt. eigenvalues --    5.00166   5.02722   5.04231   5.07216   5.09038
 Alpha virt. eigenvalues --    5.11777   5.15565   5.20288   5.22061   5.26105
 Alpha virt. eigenvalues --    5.31640   5.33830   5.37066   5.40250   5.42552
 Alpha virt. eigenvalues --    5.43782   5.49931   5.51849   5.53195   5.56327
 Alpha virt. eigenvalues --    5.61481   5.66922   5.76321   5.81230   5.85189
 Alpha virt. eigenvalues --    5.91376   5.92432   6.04480   6.09810   6.70183
 Alpha virt. eigenvalues --    9.81929  10.22761  10.33556  10.62457  10.92651
 Alpha virt. eigenvalues --   11.19424  11.33679  11.39621  11.45054  11.48532
 Alpha virt. eigenvalues --   11.76235  11.82799  12.21726  13.02784  17.58114
 Alpha virt. eigenvalues --   22.09692
          Condensed to atoms (all electrons):
               1          2          3          4          5          6
     1  C    4.959607   0.387069  -0.001256   0.001634  -0.000131   0.000003
     2  C    0.387069   4.888635   0.649869  -0.008834   0.004431   0.000568
     3  C   -0.001256   0.649869   4.603856   0.444261  -0.051680  -0.003475
     4  N    0.001634  -0.008834   0.444261   6.310611   0.428325  -0.047871
     5  C   -0.000131   0.004431  -0.051680   0.428325   4.508779   0.479228
     6  C    0.000003   0.000568  -0.003475  -0.047871   0.479228   5.237820
     7  S    0.000000  -0.000014   0.000209   0.001364  -0.000879   0.310506
     8  C    0.000000  -0.000000  -0.000005   0.000053  -0.002684  -0.018268
     9  N   -0.000000   0.000000   0.000000  -0.000000   0.000227   0.000541
    10  C    0.000000  -0.000001   0.000042  -0.000348  -0.000540  -0.018183
    11  C   -0.000000   0.000001   0.000364  -0.000486   0.014810   0.019959
    12  N   -0.000000  -0.000004   0.000044   0.000553  -0.117366  -0.004892
    13  N    0.000002  -0.000228   0.002338  -0.035811   0.391895  -0.041423
    14  H    0.377337  -0.016567   0.001287  -0.000031   0.000001  -0.000000
    15  H    0.377969  -0.029788  -0.008606   0.000112   0.000000   0.000000
    16  H    0.376270  -0.028678  -0.009093   0.000047   0.000011  -0.000005
    17  H   -0.055250   0.361644  -0.029107  -0.013233  -0.000125  -0.000021
    18  H   -0.009348  -0.041413   0.356334  -0.040487  -0.005409   0.002347
    19  H   -0.000211  -0.003286  -0.037738   0.332790  -0.051466   0.007884
    20  H   -0.000001  -0.000028   0.003086  -0.011477  -0.017866   0.357615
    21  H    0.000000   0.000000   0.000006  -0.000282  -0.009228  -0.034664
    22  H   -0.000000   0.000000  -0.000000   0.000000  -0.000035   0.000260
    23  H    0.000000  -0.000000  -0.000000   0.000000  -0.000014  -0.000068
    24  H   -0.000000  -0.000000   0.000000   0.000008  -0.000099  -0.000112
    25  H   -0.000000   0.000000  -0.000042  -0.000124   0.000028  -0.000170
               7          8          9         10         11         12
     1  C    0.000000   0.000000  -0.000000   0.000000  -0.000000  -0.000000
     2  C   -0.000014  -0.000000   0.000000  -0.000001   0.000001  -0.000004
     3  C    0.000209  -0.000005   0.000000   0.000042   0.000364   0.000044
     4  N    0.001364   0.000053  -0.000000  -0.000348  -0.000486   0.000553
     5  C   -0.000879  -0.002684   0.000227  -0.000540   0.014810  -0.117366
     6  C    0.310506  -0.018268   0.000541  -0.018183   0.019959  -0.004892
     7  S   15.332898   0.309551  -0.039033  -0.045098  -0.016222   0.000715
     8  C    0.309551   5.124532   0.311116   0.448092  -0.019564  -0.072687
     9  N   -0.039033   0.311116   6.582874  -0.018820   0.001343   0.003423
    10  C   -0.045098   0.448092  -0.018820   4.984377   0.521796  -0.012374
    11  C   -0.016222  -0.019564   0.001343   0.521796   4.904059   0.443075
    12  N    0.000715  -0.072687   0.003423  -0.012374   0.443075   6.412517
    13  N   -0.022606   0.030128  -0.001412  -0.006470  -0.129745   0.513318
    14  H   -0.000000   0.000000   0.000000  -0.000000   0.000000  -0.000000
    15  H    0.000000  -0.000000  -0.000000   0.000000   0.000000  -0.000000
    16  H   -0.000000  -0.000000   0.000000   0.000000  -0.000000  -0.000000
    17  H    0.000000  -0.000000   0.000000  -0.000000   0.000000   0.000000
    18  H   -0.000087  -0.000004   0.000000  -0.000007   0.000056  -0.000015
    19  H   -0.000228  -0.000029   0.000000  -0.000027  -0.000030   0.001484
    20  H   -0.054873   0.001055  -0.000033  -0.000337   0.000531  -0.000617
    21  H    0.183267  -0.069938   0.010293   0.002451   0.000671   0.011583
    22  H    0.001513  -0.044904   0.347100   0.006377   0.000058  -0.000170
    23  H    0.006289  -0.027802   0.353351  -0.001298   0.000323  -0.000098
    24  H    0.005223  -0.060456   0.000958   0.384462  -0.051911   0.003195
    25  H   -0.000523   0.006647  -0.000106  -0.050684   0.364506  -0.042953
              13         14         15         16         17         18
     1  C    0.000002   0.377337   0.377969   0.376270  -0.055250  -0.009348
     2  C   -0.000228  -0.016567  -0.029788  -0.028678   0.361644  -0.041413
     3  C    0.002338   0.001287  -0.008606  -0.009093  -0.029107   0.356334
     4  N   -0.035811  -0.000031   0.000112   0.000047  -0.013233  -0.040487
     5  C    0.391895   0.000001   0.000000   0.000011  -0.000125  -0.005409
     6  C   -0.041423  -0.000000   0.000000  -0.000005  -0.000021   0.002347
     7  S   -0.022606  -0.000000   0.000000  -0.000000   0.000000  -0.000087
     8  C    0.030128   0.000000  -0.000000  -0.000000  -0.000000  -0.000004
     9  N   -0.001412   0.000000  -0.000000   0.000000   0.000000   0.000000
    10  C   -0.006470  -0.000000   0.000000   0.000000  -0.000000  -0.000007
    11  C   -0.129745   0.000000   0.000000  -0.000000   0.000000   0.000056
    12  N    0.513318  -0.000000  -0.000000  -0.000000   0.000000  -0.000015
    13  N    6.579810  -0.000000  -0.000000   0.000000   0.000003   0.000116
    14  H   -0.000000   0.585729  -0.031292  -0.030674  -0.007428  -0.000127
    15  H   -0.000000  -0.031292   0.589031  -0.032527   0.004217   0.001548
    16  H    0.000000  -0.030674  -0.032527   0.591133   0.004400   0.002600
    17  H    0.000003  -0.007428   0.004217   0.004400   0.642807   0.006996
    18  H    0.000116  -0.000127   0.001548   0.002600   0.006996   0.608669
    19  H    0.012819  -0.000006   0.000026   0.000005   0.006536   0.006016
    20  H    0.004625  -0.000000   0.000002  -0.000006   0.000003   0.002246
    21  H   -0.020609  -0.000000  -0.000000   0.000000  -0.000000   0.000001
    22  H    0.000051   0.000000  -0.000000   0.000000   0.000000   0.000000
    23  H    0.000002  -0.000000   0.000000  -0.000000  -0.000000  -0.000000
    24  H   -0.000103   0.000000   0.000000  -0.000000   0.000000  -0.000001
    25  H    0.004584   0.000000   0.000000   0.000000   0.000000   0.000005
              19         20         21         22         23         24
     1  C   -0.000211  -0.000001   0.000000  -0.000000   0.000000  -0.000000
     2  C   -0.003286  -0.000028   0.000000   0.000000  -0.000000  -0.000000
     3  C   -0.037738   0.003086   0.000006  -0.000000  -0.000000   0.000000
     4  N    0.332790  -0.011477  -0.000282   0.000000   0.000000   0.000008
     5  C   -0.051466  -0.017866  -0.009228  -0.000035  -0.000014  -0.000099
     6  C    0.007884   0.357615  -0.034664   0.000260  -0.000068  -0.000112
     7  S   -0.000228  -0.054873   0.183267   0.001513   0.006289   0.005223
     8  C   -0.000029   0.001055  -0.069938  -0.044904  -0.027802  -0.060456
     9  N    0.000000  -0.000033   0.010293   0.347100   0.353351   0.000958
    10  C   -0.000027  -0.000337   0.002451   0.006377  -0.001298   0.384462
    11  C   -0.000030   0.000531   0.000671   0.000058   0.000323  -0.051911
    12  N    0.001484  -0.000617   0.011583  -0.000170  -0.000098   0.003195
    13  N    0.012819   0.004625  -0.020609   0.000051   0.000002  -0.000103
    14  H   -0.000006  -0.000000  -0.000000   0.000000  -0.000000   0.000000
    15  H    0.000026   0.000002  -0.000000  -0.000000   0.000000   0.000000
    16  H    0.000005  -0.000006   0.000000   0.000000  -0.000000  -0.000000
    17  H    0.006536   0.000003  -0.000000   0.000000  -0.000000   0.000000
    18  H    0.006016   0.002246   0.000001   0.000000  -0.000000  -0.000001
    19  H    0.470066  -0.000577   0.000137  -0.000000   0.000000  -0.000000
    20  H   -0.000577   0.604319  -0.000455   0.000003   0.000001   0.000018
    21  H    0.000137  -0.000455   0.759813  -0.002250  -0.000343  -0.000249
    22  H   -0.000000   0.000003  -0.002250   0.489608  -0.030788  -0.000064
    23  H    0.000000   0.000001  -0.000343  -0.030788   0.439044   0.001472
    24  H   -0.000000   0.000018  -0.000249  -0.000064   0.001472   0.633902
    25  H   -0.000066   0.000063  -0.000018   0.000009  -0.000018  -0.008032
              25
     1  C   -0.000000
     2  C    0.000000
     3  C   -0.000042
     4  N   -0.000124
     5  C    0.000028
     6  C   -0.000170
     7  S   -0.000523
     8  C    0.006647
     9  N   -0.000106
    10  C   -0.050684
    11  C    0.364506
    12  N   -0.042953
    13  N    0.004584
    14  H    0.000000
    15  H    0.000000
    16  H    0.000000
    17  H    0.000000
    18  H    0.000005
    19  H   -0.000066
    20  H    0.000063
    21  H   -0.000018
    22  H    0.000009
    23  H   -0.000018
    24  H   -0.008032
    25  H    0.634418
 Mulliken charges:
               1
     1  C   -0.413694
     2  C   -0.163378
     3  C    0.079305
     4  N   -0.360773
     5  C    0.429787
     6  C   -0.247579
     7  S    0.028029
     8  C    0.085166
     9  N   -0.551821
    10  C   -0.193410
    11  C   -0.053594
    12  N   -0.138731
    13  N   -0.281285
    14  H    0.121771
    15  H    0.129309
    16  H    0.126517
    17  H    0.078557
    18  H    0.109964
    19  H    0.255900
    20  H    0.112703
    21  H    0.169813
    22  H    0.233233
    23  H    0.259946
    24  H    0.091790
    25  H    0.092474
 Sum of Mulliken charges =  -0.00000
 Mulliken charges with hydrogens summed into heavy atoms:
               1
     1  C   -0.036097
     2  C   -0.084821
     3  C    0.189269
     4  N   -0.104873
     5  C    0.429787
     6  C   -0.134876
     7  S    0.197842
     8  C    0.085166
     9  N   -0.058641
    10  C   -0.101621
    11  C    0.038880
    12  N   -0.138731
    13  N   -0.281285
 Electronic spatial extent (au):  <R**2>=           3516.8184
 Charge=             -0.0000 electrons
 Dipole moment (field-independent basis, Debye):
    X=             -0.7096    Y=             -2.5256    Z=              0.6947  Tot=              2.7138
 Quadrupole moment (field-independent basis, Debye-Ang):
   XX=            -69.0047   YY=            -85.9467   ZZ=            -84.3863
   XY=             -4.5173   XZ=              0.3050   YZ=              4.6912
 Traceless Quadrupole moment (field-independent basis, Debye-Ang):
   XX=             10.7746   YY=             -6.1675   ZZ=             -4.6071
   XY=             -4.5173   XZ=              0.3050   YZ=              4.6912
 Octapole moment (field-independent basis, Debye-Ang**2):
  XXX=             48.3254  YYY=             -9.1616  ZZZ=              0.1120  XYY=              3.6184
  XXY=             -1.1219  XXZ=            -11.4364  XZZ=             -6.9497  YZZ=             -3.7050
  YYZ=              7.6480  XYZ=             17.0945
 Hexadecapole moment (field-independent basis, Debye-Ang**3):
 XXXX=          -3272.7696 YYYY=           -636.7629 ZZZZ=           -385.4823 XXXY=            -22.3297
 XXXZ=             15.8088 YYYX=            -19.4203 YYYZ=             13.9779 ZZZX=             15.3047
 ZZZY=             13.4404 XXYY=           -726.3441 XXZZ=           -668.6738 YYZZ=           -169.7704
 XXYZ=             23.0048 YYXZ=              0.4494 ZZXY=             -8.9096
 N-N= 8.771736395591D+02 E-N=-3.934418354897D+03  KE= 9.240528856374D+02
 PrsmSu:  requested number of processors reduced to:  13 ShMem   1 Linda.
 Calling FoFJK, ICntrl=      2127 FMM=F ISym2X=0 I1Cent= 0 IOpClX= 0 NMat=1 NMatS=1 NMatT=0.
 ***** Axes restored to original set *****
 -------------------------------------------------------------------
 Center     Atomic                   Forces (Hartrees/Bohr)
 Number     Number              X              Y              Z
 -------------------------------------------------------------------
      1        6          -0.003754293    0.003874155   -0.000205932
      2        6           0.011941439   -0.005837877   -0.000328945
      3        6          -0.019235484   -0.000422787   -0.001992610
      4        7           0.041355597    0.014005322    0.011868694
      5        6          -0.015376755   -0.028748035   -0.013079741
      6        6           0.001669076   -0.001879701   -0.014719012
      7       16          -0.021731601   -0.011673708    0.056217674
      8        6          -0.064959458    0.001874425    0.015765449
      9        7           0.048090298   -0.040929561   -0.016038843
     10        6           0.014198294   -0.018154699   -0.061214226
     11        6          -0.019444155    0.027032643    0.014613782
     12        7          -0.001444976    0.015824101    0.043750376
     13        7           0.007414947    0.026186158   -0.025803805
     14        1          -0.001741850   -0.002271099   -0.000065854
     15        1          -0.004487472   -0.000928894   -0.001192108
     16        1          -0.004712105   -0.000916375    0.000919152
     17        1           0.003140606   -0.000377904    0.000458102
     18        1           0.000347162   -0.001001805   -0.000456498
     19        1          -0.002140601   -0.001304147    0.006555320
     20        1           0.007294785   -0.006481425   -0.008271760
     21        1           0.017204294    0.029082015   -0.027134931
     22        1          -0.005289512   -0.005099205    0.010199554
     23        1          -0.005364315    0.009049390   -0.007548251
     24        1           0.008349320   -0.002086279    0.011373312
     25        1           0.008676758    0.001185292    0.006331101
 -------------------------------------------------------------------
 Cartesian Forces:  Max     0.064959458 RMS     0.019509649

 GradGradGradGradGradGradGradGradGradGradGradGradGradGradGradGradGradGrad
 Berny optimization.
 FormGI is forming the generalized inverse of G from B-inverse, IUseBI=4.
 Internal  Forces:  Max     0.049973341 RMS     0.012887135
 Search for a local minimum.
 Step number   1 out of a maximum of  120
 All quantities printed in internal units (Hartrees-Bohrs-Radians)
 Mixed Optimization -- RFO/linear search
 Second derivative matrix not updated -- first step.
 ITU=  0
     Eigenvalues ---    0.00892   0.00942   0.01274   0.01680   0.01698
     Eigenvalues ---    0.01838   0.01989   0.02025   0.02121   0.02186
     Eigenvalues ---    0.02260   0.02323   0.02333   0.02533   0.02536
     Eigenvalues ---    0.02610   0.02838   0.03050   0.05808   0.07301
     Eigenvalues ---    0.07499   0.07610   0.10304   0.15713   0.15979
     Eigenvalues ---    0.15988   0.15989   0.15994   0.15998   0.16000
     Eigenvalues ---    0.16000   0.16000   0.16000   0.16000   0.17800
     Eigenvalues ---    0.21274   0.22000   0.22004   0.22006   0.22194
     Eigenvalues ---    0.23376   0.23967   0.24941   0.24993   0.26627
     Eigenvalues ---    0.27152   0.28363   0.33400   0.34231   0.34294
     Eigenvalues ---    0.34412   0.35159   0.35252   0.35261   0.35569
     Eigenvalues ---    0.35682   0.35793   0.44962   0.44992   0.45346
     Eigenvalues ---    0.45588   0.47508   0.48059   0.52253   0.52414
     Eigenvalues ---    0.53545   0.55903   0.56453   0.76324
 RFO step:  Lambda=-6.74305092D-02 EMin= 8.92261607D-03
 Linear search not attempted -- first point.
 Maximum step size (   0.300) exceeded in Quadratic search.
    -- Step size scaled by   0.766
 Iteration  1 RMS(Cart)=  0.10924273 RMS(Int)=  0.00411049
 Iteration  2 RMS(Cart)=  0.00599170 RMS(Int)=  0.00077899
 Iteration  3 RMS(Cart)=  0.00001452 RMS(Int)=  0.00077894
 Iteration  4 RMS(Cart)=  0.00000005 RMS(Int)=  0.00077894
 Variable       Old X    -DE/DX   Delta X   Delta X   Delta X     New X
                                 (Linear)    (Quad)   (Total)
    R1        2.81654   0.01469   0.00000   0.02804   0.02804   2.84459
    R2        2.06942  -0.00156   0.00000  -0.00292  -0.00292   2.06651
    R3        2.06836   0.00090   0.00000   0.00167   0.00167   2.07003
    R4        2.06641   0.00153   0.00000   0.00285   0.00285   2.06926
    R5        2.53863  -0.00561   0.00000  -0.00680  -0.00680   2.53183
    R6        2.05253   0.00110   0.00000   0.00201   0.00201   2.05453
    R7        2.57505   0.01825   0.00000   0.02364   0.02364   2.59868
    R8        2.05267   0.00068   0.00000   0.00124   0.00124   2.05391
    R9        2.62467  -0.01085   0.00000  -0.01533  -0.01533   2.60934
   R10        1.91985  -0.00199   0.00000  -0.00294  -0.00294   1.91691
   R11        2.55813   0.00949   0.00000   0.01242   0.01270   2.57083
   R12        2.62372   0.01191   0.00000   0.02062   0.02124   2.64496
   R13        3.38393  -0.01855   0.00000  -0.04732  -0.04767   3.33626
   R14        2.04761  -0.00168   0.00000  -0.00305  -0.00305   2.04456
   R15        3.36328  -0.01431   0.00000  -0.03557  -0.03573   3.32755
   R16        2.48851   0.03300   0.00000   0.07203   0.07203   2.56054
   R17        2.56449   0.04997   0.00000   0.06352   0.06352   2.62801
   R18        2.76363  -0.01624   0.00000  -0.02760  -0.02743   2.73620
   R19        1.92020  -0.00975   0.00000  -0.01445  -0.01445   1.90576
   R20        1.91299  -0.01131   0.00000  -0.01656  -0.01656   1.89643
   R21        2.53605   0.04950   0.00000   0.05999   0.05982   2.59588
   R22        2.04581   0.00210   0.00000   0.00380   0.00380   2.04961
   R23        2.60090   0.00766   0.00000   0.00969   0.00929   2.61018
   R24        2.05418   0.00088   0.00000   0.00160   0.00160   2.05578
   R25        2.38333   0.03036   0.00000   0.02864   0.02880   2.41213
    A1        1.91932   0.00182   0.00000   0.00661   0.00655   1.92586
    A2        1.93167   0.00473   0.00000   0.01582   0.01574   1.94741
    A3        1.93601   0.00460   0.00000   0.01513   0.01506   1.95107
    A4        1.87920  -0.00288   0.00000  -0.00902  -0.00908   1.87012
    A5        1.88406  -0.00315   0.00000  -0.01041  -0.01046   1.87360
    A6        1.91208  -0.00556   0.00000  -0.01960  -0.01969   1.89239
    A7        2.14689   0.00275   0.00000   0.00734   0.00734   2.15423
    A8        2.04142   0.00168   0.00000   0.00664   0.00664   2.04807
    A9        2.09473  -0.00443   0.00000  -0.01395  -0.01395   2.08078
   A10        2.18195   0.00107   0.00000   0.00293   0.00292   2.18487
   A11        2.09684   0.00024   0.00000   0.00129   0.00128   2.09812
   A12        2.00308  -0.00125   0.00000  -0.00373  -0.00375   1.99933
   A13        2.31673  -0.01678   0.00000  -0.04479  -0.04481   2.27192
   A14        2.02758   0.00774   0.00000   0.02008   0.02007   2.04765
   A15        1.93735   0.00896   0.00000   0.02418   0.02416   1.96151
   A16        2.12000   0.00756   0.00000   0.00888   0.00907   2.12907
   A17        2.05792  -0.03277   0.00000  -0.08759  -0.08749   1.97043
   A18        2.10096   0.02572   0.00000   0.08155   0.08081   2.18176
   A19        2.10543   0.01156   0.00000   0.03376   0.03175   2.13718
   A20        2.09615   0.00687   0.00000   0.02734   0.02775   2.12390
   A21        2.06666  -0.01689   0.00000  -0.05224  -0.05201   2.01465
   A22        1.75017   0.00995   0.00000   0.03920   0.03616   1.78633
   A23        1.73164  -0.00469   0.00000  -0.01810  -0.02206   1.70958
   A24        1.68925   0.02280   0.00000   0.13189   0.13183   1.82108
   A25        2.03650  -0.00855   0.00000  -0.02886  -0.02864   2.00785
   A26        2.19517  -0.01259   0.00000  -0.01444  -0.01514   2.18003
   A27        2.05107   0.02105   0.00000   0.04277   0.04308   2.09415
   A28        2.07851   0.01149   0.00000   0.03906   0.03903   2.11754
   A29        2.16703  -0.01089   0.00000  -0.03635  -0.03637   2.13066
   A30        2.02902  -0.00039   0.00000  -0.00097  -0.00100   2.02803
   A31        2.08439   0.03189   0.00000   0.10762   0.10722   2.19161
   A32        2.06484  -0.01233   0.00000  -0.04104  -0.04106   2.02378
   A33        2.13347  -0.01953   0.00000  -0.06564  -0.06567   2.06779
   A34        2.19176   0.00481   0.00000   0.03055   0.02972   2.22147
   A35        2.08002   0.00164   0.00000  -0.00323  -0.00303   2.07699
   A36        2.00978  -0.00656   0.00000  -0.02912  -0.02887   1.98091
   A37        2.13729  -0.01281   0.00000  -0.01023  -0.01269   2.12460
   A38        2.11861  -0.00667   0.00000   0.00452   0.00376   2.12238
    D1       -3.14048   0.00032   0.00000   0.00259   0.00260  -3.13788
    D2        0.01936   0.00010   0.00000   0.00048   0.00048   0.01984
    D3        1.06860  -0.00021   0.00000  -0.00028  -0.00027   1.06834
    D4       -2.05474  -0.00043   0.00000  -0.00239  -0.00239  -2.05713
    D5       -1.05763   0.00048   0.00000   0.00346   0.00346  -1.05417
    D6        2.10221   0.00026   0.00000   0.00136   0.00134   2.10355
    D7       -3.07580  -0.00132   0.00000  -0.01080  -0.01080  -3.08660
    D8        0.00769  -0.00003   0.00000  -0.00007  -0.00006   0.00763
    D9        0.04701  -0.00103   0.00000  -0.00842  -0.00843   0.03858
   D10        3.13050   0.00026   0.00000   0.00231   0.00231   3.13281
   D11       -3.13096   0.00024   0.00000   0.00190   0.00189  -3.12907
   D12        0.07643   0.00143   0.00000   0.01192   0.01191   0.08835
   D13        0.06596  -0.00103   0.00000  -0.00846  -0.00845   0.05751
   D14       -3.00983   0.00017   0.00000   0.00157   0.00157  -3.00825
   D15        0.60553  -0.00786   0.00000  -0.05668  -0.05593   0.54960
   D16       -2.63538  -0.00061   0.00000  -0.01944  -0.02019  -2.65557
   D17       -2.59932  -0.00899   0.00000  -0.06628  -0.06553  -2.66485
   D18        0.44295  -0.00174   0.00000  -0.02904  -0.02979   0.41316
   D19        2.82032   0.00940   0.00000   0.06354   0.06528   2.88560
   D20       -0.13346   0.00163   0.00000   0.01405   0.01431  -0.11915
   D21       -0.21953   0.00528   0.00000   0.03500   0.03506  -0.18447
   D22        3.10987  -0.00249   0.00000  -0.01450  -0.01591   3.09396
   D23        1.86722   0.00277   0.00000  -0.01959  -0.01887   1.84835
   D24       -1.37256   0.00891   0.00000   0.01305   0.01348  -1.35908
   D25        1.25758  -0.00370   0.00000  -0.04576  -0.04589   1.21169
   D26       -0.46489  -0.02822   0.00000  -0.18592  -0.18488  -0.64977
   D27       -2.06871   0.00639   0.00000   0.01114   0.00992  -2.05879
   D28        2.49200  -0.01813   0.00000  -0.12902  -0.12907   2.36293
   D29       -3.06778  -0.00483   0.00000  -0.03537  -0.03573  -3.10351
   D30        0.04079  -0.00788   0.00000  -0.05438  -0.05444  -0.01365
   D31       -1.31042  -0.00339   0.00000  -0.02059  -0.01875  -1.32917
   D32        1.79816  -0.00643   0.00000  -0.03960  -0.03747   1.76069
   D33        0.06002  -0.00589   0.00000  -0.04486  -0.04506   0.01496
   D34        3.05538  -0.00413   0.00000  -0.02999  -0.03019   3.02519
   D35       -3.05137  -0.00250   0.00000  -0.02649  -0.02629  -3.07766
   D36       -0.05602  -0.00074   0.00000  -0.01161  -0.01141  -0.06743
   D37       -1.12421   0.00946   0.00000   0.07351   0.07493  -1.04929
   D38        1.98469   0.01018   0.00000   0.10388   0.10518   2.08987
   D39        1.98412   0.00588   0.00000   0.05314   0.05408   2.03820
   D40       -1.19016   0.00660   0.00000   0.08350   0.08433  -1.10584
   D41       -0.07045  -0.00438   0.00000  -0.00732  -0.00660  -0.07705
   D42        3.13548  -0.00174   0.00000   0.02935   0.02923  -3.11847
   D43        3.10517  -0.00532   0.00000  -0.03959  -0.03813   3.06704
   D44        0.02792  -0.00269   0.00000  -0.00292  -0.00230   0.02562
   D45        1.21508  -0.02107   0.00000  -0.09878  -0.09944   1.11564
   D46       -1.98857  -0.02337   0.00000  -0.13341  -0.13290  -2.12147
   D47        0.26099  -0.00186   0.00000   0.02154   0.02166   0.28265
         Item               Value     Threshold  Converged?
 Maximum Force            0.049973     0.000450     NO 
 RMS     Force            0.012887     0.000300     NO 
 Maximum Displacement     0.383649     0.001800     NO 
 RMS     Displacement     0.109473     0.001200     NO 
 Predicted change in Energy=-3.944742D-02
 GradGradGradGradGradGradGradGradGradGradGradGradGradGradGradGradGradGrad

                          Input orientation:                          
 ---------------------------------------------------------------------
 Center     Atomic      Atomic             Coordinates (Angstroms)
 Number     Number       Type             X           Y           Z
 ---------------------------------------------------------------------
      1          6           0        0.938639   -0.052193    0.018283
      2          6           0        2.442704   -0.025825    0.072970
      3          6           0        3.197467   -1.129151    0.162605
      4          7           0        4.567814   -1.144656    0.276547
      5          6           0        5.442515   -2.209655    0.361923
      6          6           0        5.191901   -3.398837   -0.249461
      7         16           0        6.437814   -4.629156   -0.475076
      8          6           0        6.722328   -5.183456    1.171872
      9          7           0        7.716451   -6.146743    1.305282
     10          6           0        6.051938   -4.667803    2.347111
     11          6           0        6.087811   -3.364706    2.780288
     12          7           0        6.822235   -2.324824    2.244452
     13          7           0        6.614748   -1.896986    1.059878
     14          1           0        0.543066    0.964523   -0.056933
     15          1           0        0.510427   -0.499365    0.921946
     16          1           0        0.573229   -0.609829   -0.850369
     17          1           0        2.926208    0.947742    0.052405
     18          1           0        2.730641   -2.110215    0.192634
     19          1           0        5.037106   -0.250578    0.373301
     20          1           0        4.247632   -3.598727   -0.738317
     21          1           0        7.476688   -3.798643   -0.733844
     22          1           0        8.234097   -6.480099    0.506561
     23          1           0        8.033316   -6.464848    2.202786
     24          1           0        5.476032   -5.387220    2.919073
     25          1           0        5.560183   -3.097691    3.693402
 ---------------------------------------------------------------------
                    Distance matrix (angstroms):
                    1          2          3          4          5
     1  C    0.000000
     2  C    1.505290   0.000000
     3  C    2.506585   1.339787   0.000000
     4  N    3.798827   2.410253   1.375163   0.000000
     5  C    5.005759   3.721756   2.499491   1.380802   0.000000
     6  C    5.418667   4.363399   3.049433   2.397394   1.360423
     7  S    7.171675   6.119797   4.812123   4.025367   2.746848
     8  C    7.817396   6.791460   5.466320   4.664273   3.337279
     9  N    9.205359   8.172921   6.848588   5.999423   4.643422
    10  C    7.271391   6.304462   5.044020   4.347691   3.217896
    11  C    6.716799   5.636000   4.494893   3.675287   2.756635
    12  N    6.688601   5.401946   4.347720   3.216809   2.336837
    13  N    6.058580   4.677732   3.615589   2.317228   1.399655
    14  H    1.093548   2.146227   3.387848   4.556144   5.852815
    15  H    1.095415   2.163029   2.862414   4.158765   5.250162
    16  H    1.095006   2.165307   2.860496   4.184817   5.266787
    17  H    2.225189   1.087213   2.097429   2.668940   4.049291
    18  H    2.734433   2.107584   1.086883   2.077149   2.718971
    19  H    4.118595   2.621380   2.049526   1.014383   2.000617
    20  H    4.909152   4.084308   2.830779   2.674869   2.137239
    21  H    7.572824   6.342404   5.122650   4.065228   2.804184
    22  H    9.735507   8.682504   7.356534   6.477768   5.103973
    23  H    9.809620   8.789316   7.484481   6.635100   5.311092
    24  H    7.580569   6.785715   5.560677   5.080074   4.078854
    25  H    6.643811   5.680014   4.682319   4.058823   3.449812
                    6          7          8          9         10
     6  C    0.000000
     7  S    1.765471   0.000000
     8  C    2.747228   1.760861   0.000000
     9  N    4.042471   2.666019   1.390683   0.000000
    10  C    3.015315   2.848707   1.447932   2.458307   0.000000
    11  C    3.159620   3.509805   2.509476   3.545115   1.373678
    12  N    3.167190   3.585186   3.054863   4.035929   2.468490
    13  N    2.448350   3.138813   3.290138   4.397091   3.106630
    14  H    6.378687   8.137085   8.802891  10.192310   8.237123
    15  H    5.629860   7.358041   7.784015   9.163330   7.079217
    16  H    5.428793   7.119635   7.925840   9.291387   7.530424
    17  H    4.910930   6.611460   7.297624   8.651464   6.824237
    18  H    2.813147   4.531449   5.131986   6.510748   4.713177
    19  H    3.212994   4.674791   5.273611   6.543106   4.943449
    20  H    1.081933   2.434744   3.504898   4.764598   3.730725
    21  H    2.369540   1.354980   2.473563   3.119149   3.503945
    22  H    4.395532   2.759752   2.099849   1.008483   3.381398
    23  H    4.846399   3.617504   2.103198   1.003547   2.678817
    24  H    3.751534   3.608314   2.155803   2.863682   1.084606
    25  H    3.971459   4.526790   3.472623   4.432756   2.125929
                   11         12         13         14         15
    11  C    0.000000
    12  N    1.381250   0.000000
    13  N    2.321998   1.276445   0.000000
    14  H    7.585265   7.452794   6.804471   0.000000
    15  H    6.539941   6.702256   6.263793   1.761316   0.000000
    16  H    7.154134   7.181170   6.465738   1.763245   1.776864
    17  H    6.002857   5.540197   4.765795   2.385708   2.947239
    18  H    4.420440   4.582265   3.985457   3.781770   2.838324
    19  H    4.073740   3.315175   2.381386   4.675251   4.566588
    20  H    3.977638   4.141052   3.425298   5.917038   5.131200
    21  H    3.803472   3.386841   2.752577   8.439258   7.883886
    22  H    4.413847   4.720161   4.892175  10.718763   9.777361
    23  H    3.705318   4.313729   4.917717  10.789149   9.686145
    24  H    2.117569   3.412571   4.115217   8.575279   7.248233
    25  H    1.087872   2.071124   3.080463   7.465793   6.319201
                   16         17         18         19         20
    16  H    0.000000
    17  H    2.962691   0.000000
    18  H    2.827268   3.067411   0.000000
    19  H    4.642481   2.448435   2.968278   0.000000
    20  H    4.737859   4.800185   2.320258   3.615116   0.000000
    21  H    7.605252   6.622176   5.121924   4.445907   3.235242
    22  H    9.746293   9.140719   7.034377   7.003245   5.073847
    23  H    9.962726   9.254901   7.149958   7.137328   5.585351
    24  H    7.814707   7.406155   5.070444   5.749669   4.252549
    25  H    7.190621   6.046504   4.608340   4.404853   4.649081
                   21         22         23         24         25
    21  H    0.000000
    22  H    3.049996   0.000000
    23  H    4.005281   1.708134   0.000000
    24  H    4.457578   3.823809   2.866017   0.000000
    25  H    4.874918   5.361571   4.435772   2.418390   0.000000
 Stoichiometry    C8H12N4S
 Framework group  C1[X(C8H12N4S)]
 Deg. of freedom    69
 Full point group                 C1      NOp   1
 Largest Abelian subgroup         C1      NOp   1
 Largest concise Abelian subgroup C1      NOp   1
                         Standard orientation:                         
 ---------------------------------------------------------------------
 Center     Atomic      Atomic             Coordinates (Angstroms)
 Number     Number       Type             X           Y           Z
 ---------------------------------------------------------------------
      1          6           0       -5.171427   -0.384272    0.952086
      2          6           0       -4.126223    0.004664   -0.058941
      3          6           0       -2.814945   -0.207197    0.116257
      4          7           0       -1.825403    0.187459   -0.753298
      5          6           0       -0.457306    0.013984   -0.683789
      6          6           0        0.101856   -1.073209   -0.087049
      7         16           0        1.798236   -1.508506   -0.309986
      8          6           0        2.633987   -0.220243    0.551716
      9          7           0        4.022358   -0.283011    0.501862
     10          6           0        1.983222    0.884601    1.224274
     11          6           0        1.167014    1.814391    0.627377
     12          7           0        0.876921    1.932181   -0.717920
     13          7           0        0.253506    1.017032   -1.352875
     14          1           0       -6.168210   -0.116768    0.590545
     15          1           0       -5.023241    0.135314    1.904979
     16          1           0       -5.171567   -1.462642    1.142234
     17          1           0       -4.467902    0.495305   -0.966993
     18          1           0       -2.454906   -0.688922    1.021591
     19          1           0       -2.103889    0.745759   -1.553123
     20          1           0       -0.495761   -1.794861    0.453925
     21          1           0        1.909602   -1.165788   -1.616169
     22          1           0        4.496255   -1.013218   -0.007312
     23          1           0        4.602500    0.447863    0.871140
     24          1           0        2.166918    0.966076    2.290101
     25          1           0        0.749681    2.616038    1.232901
 ---------------------------------------------------------------------
 Rotational constants (GHZ):           1.5114556           0.3509207           0.3252854
 Standard basis: 6-31G(2df,p) (6D, 7F)
 There are   467 symmetry adapted cartesian basis functions of A   symmetry.
 There are   428 symmetry adapted basis functions of A   symmetry.
   428 basis functions,   680 primitive gaussians,   467 cartesian basis functions
    52 alpha electrons       52 beta electrons
       nuclear repulsion energy       872.2899642176 Hartrees.
 NAtoms=   25 NActive=   25 NUniq=   25 SFac= 1.00D+00 NAtFMM=   60 NAOKFM=F Big=F
 Integral buffers will be    131072 words long.
 Raffenetti 2 integral format.
 Two-electron integral symmetry is turned on.
 One-electron integrals computed using PRISM.
 PrsmSu:  requested number of processors reduced to:  13 ShMem   1 Linda.
 NBasis=   428 RedAO= T EigKep=  1.91D-04  NBF=   428
 NBsUse=   428 1.00D-06 EigRej= -1.00D+00 NBFU=   428
 Initial guess from the checkpoint file:  "CCdCNC1dC[SH]dCqNrCdCNdN1.chk"
 B after Tr=     0.000000    0.000000   -0.000000
         Rot=    0.998499   -0.054669   -0.002515   -0.002376 Ang=  -6.28 deg.
 ExpMin= 1.17D-01 ExpMax= 2.19D+04 ExpMxC= 3.30D+03 IAcc=2 IRadAn=         4 AccDes= 0.00D+00
 Harris functional with IExCor=  402 and IRadAn=       4 diagonalized for initial guess.
 HarFok:  IExCor=  402 AccDes= 0.00D+00 IRadAn=         4 IDoV= 1 UseB2=F ITyADJ=14
 ICtDFT=  3500011 ScaDFX=  1.000000  1.000000  1.000000  1.000000
 FoFCou: FMM=F IPFlag=           0 FMFlag=      100000 FMFlg1=           0
         NFxFlg=           0 DoJE=T BraDBF=F KetDBF=T FulRan=T
         wScrn=  0.000000 ICntrl=       500 IOpCl=  0 I1Cent=   200000004 NGrid=           0
         NMat0=    1 NMatS0=      1 NMatT0=    0 NMatD0=    1 NMtDS0=    0 NMtDT0=    0
 Petite list used in FoFCou.
 Requested convergence on RMS density matrix=1.00D-08 within 128 cycles.
 Requested convergence on MAX density matrix=1.00D-06.
 Requested convergence on             energy=1.00D-06.
 No special actions if energy rises.
 Integral accuracy reduced to 1.0D-05 until final iterations.
 Initial convergence to 1.0D-05 achieved.  Increase integral accuracy.
 SCF Done:  E(RB3LYP) =  -929.030738251     A.U. after   15 cycles
            NFock= 15  Conv=0.93D-08     -V/T= 2.0057
 PrsmSu:  requested number of processors reduced to:  13 ShMem   1 Linda.
 Calling FoFJK, ICntrl=      2127 FMM=F ISym2X=0 I1Cent= 0 IOpClX= 0 NMat=1 NMatS=1 NMatT=0.
 ***** Axes restored to original set *****
 -------------------------------------------------------------------
 Center     Atomic                   Forces (Hartrees/Bohr)
 Number     Number              X              Y              Z
 -------------------------------------------------------------------
      1        6           0.000700530    0.002295342    0.000095012
      2        6           0.003717747   -0.002567228   -0.000385951
      3        6          -0.010776277   -0.001924419   -0.003125529
      4        7           0.018718889    0.008909749    0.007213501
      5        6          -0.008243429   -0.021142022   -0.004552476
      6        6           0.000686737    0.000957960   -0.009328381
      7       16          -0.004931900    0.002113282    0.044547777
      8        6          -0.029596132    0.002071086    0.013231866
      9        7           0.012946645   -0.020061470   -0.010302766
     10        6           0.008932969   -0.001792225   -0.040268344
     11        6          -0.010213618    0.008713028    0.001431629
     12        7          -0.013432693    0.005752349    0.018246878
     13        7           0.011793630    0.010855524   -0.015408013
     14        1          -0.000523817   -0.000736999   -0.000218201
     15        1          -0.001752720   -0.000772566   -0.000747258
     16        1          -0.001792542   -0.000806003    0.000490520
     17        1           0.000994053   -0.000013240    0.000252888
     18        1           0.001144013   -0.000267960   -0.000083613
     19        1          -0.001507286   -0.002071521    0.006300932
     20        1           0.004508109   -0.001324115   -0.006065253
     21        1           0.007930931    0.013672479   -0.019578511
     22        1          -0.005245255   -0.002807617    0.003600403
     23        1          -0.001446848    0.005840381   -0.000397080
     24        1           0.009132565   -0.002569010    0.010364031
     25        1           0.008255701   -0.002324786    0.004685941
 -------------------------------------------------------------------
 Cartesian Forces:  Max     0.044547777 RMS     0.010992034

 GradGradGradGradGradGradGradGradGradGradGradGradGradGradGradGradGradGrad
 Berny optimization.
 Using GEDIIS/GDIIS optimizer.
 FormGI is forming the generalized inverse of G from B-inverse, IUseBI=4.
 Internal  Forces:  Max     0.019067200 RMS     0.006494604
 Search for a local minimum.
 Step number   2 out of a maximum of  120
 All quantities printed in internal units (Hartrees-Bohrs-Radians)
 Mixed Optimization -- RFO/linear search
 Update second derivatives using D2CorX and points    1    2
 DE= -4.01D-02 DEPred=-3.94D-02 R= 1.02D+00
 TightC=F SS=  1.41D+00  RLast= 4.73D-01 DXNew= 5.0454D-01 1.4193D+00
 Trust test= 1.02D+00 RLast= 4.73D-01 DXMaxT set to 5.05D-01
 ITU=  1  0
 Use linear search instead of GDIIS.
     Eigenvalues ---    0.00892   0.00917   0.01273   0.01687   0.01687
     Eigenvalues ---    0.01804   0.01910   0.02028   0.02143   0.02186
     Eigenvalues ---    0.02247   0.02311   0.02364   0.02507   0.02534
     Eigenvalues ---    0.02558   0.02838   0.03008   0.05213   0.07143
     Eigenvalues ---    0.07377   0.08081   0.09325   0.15681   0.15927
     Eigenvalues ---    0.15970   0.15984   0.15993   0.15999   0.16000
     Eigenvalues ---    0.16000   0.16000   0.16000   0.16214   0.18637
     Eigenvalues ---    0.20899   0.21727   0.22001   0.22006   0.22290
     Eigenvalues ---    0.22610   0.23988   0.24805   0.25087   0.26400
     Eigenvalues ---    0.27220   0.27993   0.33502   0.34230   0.34294
     Eigenvalues ---    0.34410   0.35163   0.35252   0.35259   0.35555
     Eigenvalues ---    0.35673   0.35727   0.44904   0.44993   0.45276
     Eigenvalues ---    0.45672   0.47468   0.48518   0.51766   0.52428
     Eigenvalues ---    0.53981   0.56433   0.58945   0.76501
 RFO step:  Lambda=-3.10052129D-02 EMin= 8.92261560D-03
 Quartic linear search produced a step of  1.36898.
 Iteration  1 RMS(Cart)=  0.20026967 RMS(Int)=  0.03640917
 Iteration  2 RMS(Cart)=  0.06187793 RMS(Int)=  0.00520883
 Iteration  3 RMS(Cart)=  0.00292962 RMS(Int)=  0.00455195
 Iteration  4 RMS(Cart)=  0.00000979 RMS(Int)=  0.00455194
 Iteration  5 RMS(Cart)=  0.00000026 RMS(Int)=  0.00455194
 Variable       Old X    -DE/DX   Delta X   Delta X   Delta X     New X
                                 (Linear)    (Quad)   (Total)
    R1        2.84459   0.00338   0.03839  -0.02531   0.01308   2.85767
    R2        2.06651  -0.00048  -0.00399   0.00194  -0.00206   2.06445
    R3        2.07003   0.00038   0.00229  -0.00050   0.00180   2.07183
    R4        2.06926   0.00062   0.00391  -0.00106   0.00285   2.07211
    R5        2.53183  -0.00286  -0.00931   0.00039  -0.00892   2.52291
    R6        2.05453   0.00043   0.00275  -0.00085   0.00189   2.05643
    R7        2.59868   0.00852   0.03236  -0.00440   0.02796   2.62664
    R8        2.05391  -0.00025   0.00169  -0.00337  -0.00168   2.05223
    R9        2.60934  -0.00468  -0.02099   0.00445  -0.01653   2.59280
   R10        1.91691  -0.00192  -0.00403  -0.00386  -0.00788   1.90902
   R11        2.57083  -0.00289   0.01738  -0.03026  -0.01063   2.56019
   R12        2.64496   0.00496   0.02908  -0.00880   0.02260   2.66756
   R13        3.33626  -0.01246  -0.06526  -0.01641  -0.08146   3.25480
   R14        2.04456  -0.00095  -0.00417  -0.00034  -0.00452   2.04004
   R15        3.32755  -0.01163  -0.04892  -0.02318  -0.07155   3.25600
   R16        2.56054   0.01820   0.09861   0.00600   0.10461   2.66515
   R17        2.62801   0.01559   0.08696  -0.04085   0.04611   2.67412
   R18        2.73620  -0.01907  -0.03755  -0.05500  -0.09277   2.64342
   R19        1.90576  -0.00462  -0.01978   0.00237  -0.01741   1.88835
   R20        1.89643  -0.00266  -0.02267   0.01447  -0.00820   1.88823
   R21        2.59588   0.01259   0.08190  -0.04827   0.03151   2.62738
   R22        2.04961   0.00232   0.00520   0.00664   0.01184   2.06145
   R23        2.61018  -0.00149   0.01272  -0.02266  -0.01270   2.59749
   R24        2.05578  -0.00064   0.00219  -0.00612  -0.00393   2.05185
   R25        2.41213   0.01095   0.03943  -0.01540   0.02359   2.43572
    A1        1.92586   0.00058   0.00896  -0.00267   0.00613   1.93199
    A2        1.94741   0.00188   0.02154  -0.00647   0.01491   1.96232
    A3        1.95107   0.00161   0.02061  -0.00912   0.01136   1.96243
    A4        1.87012  -0.00087  -0.01244   0.00865  -0.00396   1.86616
    A5        1.87360  -0.00100  -0.01433   0.00790  -0.00654   1.86706
    A6        1.89239  -0.00245  -0.02696   0.00305  -0.02404   1.86836
    A7        2.15423   0.00115   0.01005  -0.00243   0.00762   2.16185
    A8        2.04807   0.00036   0.00909  -0.00597   0.00312   2.05119
    A9        2.08078  -0.00151  -0.01910   0.00841  -0.01069   2.07009
   A10        2.18487  -0.00028   0.00399  -0.00708  -0.00315   2.18172
   A11        2.09812   0.00132   0.00175   0.01232   0.01401   2.11213
   A12        1.99933  -0.00102  -0.00513  -0.00514  -0.01033   1.98900
   A13        2.27192  -0.00874  -0.06135   0.00003  -0.06146   2.21045
   A14        2.04765   0.00460   0.02747   0.00601   0.03332   2.08097
   A15        1.96151   0.00407   0.03308  -0.00682   0.02612   1.98763
   A16        2.12907   0.00444   0.01241   0.00336   0.01795   2.14702
   A17        1.97043  -0.01496  -0.11977   0.01661  -0.10120   1.86922
   A18        2.18176   0.01065   0.11062  -0.02272   0.08308   2.26484
   A19        2.13718   0.00098   0.04347  -0.03588  -0.00106   2.13613
[...]
 299,-0.03293741,-0.13726668,-0.15340129,-0.00466695,-0.00714934,-0.001
 47089,0.00074454,0.00369475,-0.00220169,0.00059553,0.00051207,-0.00087
 694,-0.00011328,0.00039986,0.00027497,0.00002950,-0.00016623,0.0001332
 4,0.00003427,0.00000360,0.00002143,0.00002099,0.00001622,-0.00001151,0
 .00000329,0.00002900,-0.00001293,-0.00000066,-0.00005683,0.00002032,-0
 .00006883,0.00017770,-0.00006871,0.00015976,-0.00033950,0.00025978,0.0
 0057920,0.00020571,0.00029210,-0.00065901,0.00005873,0.00029847,-0.002
 40652,-0.00031761,0.00050598,0.04023488,0.15444016,0.15664150,0.001023
 35,0.00003576,0.00314684,0.00622287,0.01682684,0.01258426,-0.06003185,
 -0.02435673,-0.02659288,-0.00755148,-0.02372902,-0.02452032,0.00206922
 ,-0.00298640,-0.00148325,-0.00045959,0.00051241,0.00037343,-0.00011218
 ,0.00087815,-0.00055759,0.00016275,-0.00001956,-0.00013149,-0.00008124
 ,0.00015816,0.00020771,0.00006779,-0.00005537,0.00022573,-0.00002404,-
 0.00024933,0.00004789,-0.00032335,0.00036515,0.00011208,-0.00015518,0.
 00048863,0.00005467,0.00030755,-0.00020474,0.00000226,-0.00029295,0.00
 006000,-0.00016074,-0.00016805,-0.00056066,-0.00057706,-0.00193243,0.0
 0467917,-0.00124638,0.06691890,-0.00290968,-0.00177090,0.00279387,-0.0
 0338829,-0.01185849,-0.01549583,-0.02893104,-0.20726139,-0.14192475,-0
 .00069528,0.00143762,-0.00067611,0.00071840,-0.00049659,-0.00035543,0.
 00011460,-0.00026734,-0.00011160,0.00030415,-0.00039254,0.00027893,0.0
 0006166,-0.00007768,-0.00010274,-0.00002347,0.00004941,-0.00000609,-0.
 00000233,0.00009971,0.00003753,-0.00000541,-0.00008608,0.00004974,-0.0
 0017277,0.00008728,-0.00019295,-0.00009936,0.00006281,0.00000723,0.000
 62559,-0.00003704,0.00013987,-0.00057547,0.00044106,0.00008194,0.00093
 557,0.00050227,0.00062698,0.00440814,0.00203070,-0.00489358,0.02702151
 ,0.21615094,0.00093033,0.00385421,-0.00297670,-0.00333464,-0.00661912,
 -0.00008710,-0.02945240,-0.13878970,-0.15880318,-0.00642694,-0.0111251
 2,-0.01024860,0.00210169,-0.00161161,-0.00158537,0.00132738,0.00011043
 ,-0.00019036,-0.00013100,0.00042906,-0.00007380,0.00009343,-0.00011781
 ,-0.00006173,-0.00004584,0.00011290,0.00006447,0.00005621,0.00002342,0
 .00011098,0.00004565,-0.00017375,-0.00007340,-0.00016607,0.00028303,0.
 00021932,-0.00039212,0.00031275,-0.00007915,-0.00079527,0.00039964,0.0
 0002515,0.00063017,-0.00034129,0.00006907,0.00048000,-0.00006392,0.000
 35410,-0.00132752,-0.00436048,0.00563515,0.03784660,0.15990735,0.16522
 369,-0.00058207,0.00011173,0.00059507,0.00186650,-0.00181464,0.0000567
 1,-0.00387756,-0.02244175,-0.02461809,-0.07389720,-0.02693273,-0.05852
 749,0.00871399,0.01904147,0.02533717,-0.00345631,0.00260740,-0.0004882
 1,0.00011291,0.00077484,0.00101595,-0.00046313,0.00020821,0.00075931,0
 .00039878,-0.00058208,-0.00048252,-0.00035746,-0.00041047,-0.00058313,
 0.00009980,0.00058286,-0.00090634,0.00089813,-0.00058672,-0.00050825,-
 0.00130160,-0.00125443,0.00134454,0.00011639,0.00002020,0.00006760,-0.
 00013546,-0.00000389,-0.00008110,0.00026431,0.00017381,0.00022699,-0.0
 0018338,0.00146115,0.00065483,-0.00439127,0.00097844,-0.00282085,0.076
 15961,-0.00017338,-0.00081558,0.00011752,0.00128490,0.00067604,0.00165
 359,-0.00337205,0.00088465,0.00144118,-0.02381581,-0.17949124,-0.20001
 126,-0.00311787,-0.01325908,-0.01578400,0.00336024,-0.00036100,-0.0006
 7407,-0.00031710,0.00111480,-0.00130206,0.00045211,-0.00054296,-0.0006
 0132,-0.00051771,0.00075968,0.00046319,0.00036554,0.00004948,0.0007597
 5,-0.00009094,-0.00119358,0.00050336,-0.00123875,0.00056955,0.00048418
 ,-0.00172049,-0.00087623,-0.00061091,0.00038159,0.00009710,0.00033699,
 0.00010463,-0.00001492,-0.00007522,0.00002213,-0.00010897,-0.00003128,
 -0.00018999,-0.00024024,-0.00061717,0.00067510,0.00123194,-0.00136220,
 0.02791933,0.19187130,0.00002211,0.00024640,-0.00020213,0.00173025,0.0
 0068822,0.00074206,-0.00243142,-0.00631721,-0.00819105,-0.05986983,-0.
 20365730,-0.26657138,0.00425152,-0.00926523,-0.00855232,-0.00088624,0.
 00133128,0.00317296,0.00084993,-0.00199647,0.00014900,-0.00051740,0.00
 047275,0.00081585,0.00042759,-0.00048618,-0.00038801,-0.00023363,-0.00
 031233,-0.00067641,0.00003831,0.00125663,-0.00068322,0.00134705,-0.000
 72427,0.00139856,-0.00216430,0.00266547,-0.00064035,-0.00004248,-0.000
 09514,-0.00006503,0.00019905,0.00007675,0.00010214,0.00012270,-0.00002
 227,0.00001625,-0.00063033,0.00048915,-0.00001262,-0.00110372,0.000200
 89,0.00203394,0.05915249,0.21495374,0.27825728,-0.00000190,-0.00000205
 ,0.00003039,0.00008414,-0.00001126,-0.00000344,-0.00126294,0.00050007,
 0.00040191,0.00047881,-0.00146990,-0.00069719,-0.00043178,-0.00075732,
 0.00610415,-0.16700143,-0.00520231,-0.17729603,-0.01269033,-0.00018259
 ,-0.00807269,0.00208277,-0.00063927,0.00424740,0.00005843,0.00051958,0
 .00036059,0.00033252,-0.00118585,0.00039205,0.00005438,-0.00042028,-0.
 00016880,-0.00004815,0.00094240,-0.00008573,0.00220447,0.00070409,-0.0
 0124006,0.00003877,-0.00002615,0.00001659,0.00003136,0.00000228,-0.000
 00380,-0.00002154,0.00000194,-0.00001376,0.00002677,0.00002643,-0.0000
 7571,-0.00154179,0.00161371,0.00130555,0.00011019,-0.00026576,0.000138
 80,0.18184350,-0.00001255,-0.00001892,-0.00008400,0.00025215,-0.000191
 44,0.00014975,-0.00000918,-0.00039630,-0.00038748,0.00064482,-0.000058
 59,0.00083512,-0.01743117,0.00516585,-0.00389446,-0.00409486,-0.038977
 74,-0.03499664,0.01520078,-0.00343839,0.01581098,0.00399468,-0.0013681
 3,-0.00100122,-0.00011118,-0.00015025,0.00222827,0.00014688,-0.0011840
 5,0.00119440,0.00003716,-0.00114299,-0.00080549,-0.00081438,0.00111354
 ,-0.00048080,0.00074093,-0.00084491,-0.00625967,0.00004319,-0.00001811
 ,0.00002117,0.00005060,0.00001552,0.00002075,0.00001662,0.00002772,-0.
 00000484,-0.00000769,-0.00006065,0.00004894,0.00071932,0.00013289,-0.0
 0081735,0.00011914,-0.00013851,0.00008979,0.00249444,0.04296227,0.0000
 3343,-0.00006462,0.00007427,0.00052652,0.00037179,0.00049946,-0.001023
 20,-0.00059524,-0.00066197,0.00027672,0.00106974,-0.00016952,-0.010497
 61,0.00643817,-0.00705991,-0.17127305,-0.03133269,-0.19561926,0.002579
 53,0.00033904,-0.00021429,-0.00191317,0.00000368,-0.00303129,-0.000319
 53,0.00000299,-0.00060399,-0.00028104,0.00135844,0.00001831,-0.0000544
 0,-0.00021885,0.00030879,-0.00090150,-0.00265438,0.00035021,-0.0006829
 5,-0.00092253,-0.00484988,-0.00003802,0.00004352,-0.00002159,-0.000068
 49,-0.00000074,-0.00000790,0.00002453,-0.00002074,0.00002324,-0.000130
 61,0.00024265,-0.00001681,0.00148415,-0.00035930,0.00036146,-0.0000139
 3,0.00018130,-0.00018356,0.17661700,0.02838842,0.20877323,0.00004898,-
 0.00001345,0.00007614,0.00007084,0.00012655,0.00012964,0.00028833,-0.0
 0011593,0.00002954,-0.00021021,0.00071602,0.00030116,0.00029998,-0.003
 13788,-0.00527803,-0.00608070,0.01070778,-0.01054694,-0.19466072,-0.05
 066503,-0.01177935,-0.00372141,-0.00503854,0.00574699,0.00124672,-0.00
 140571,0.00093493,0.00062523,-0.00037988,-0.00008998,0.00034231,-0.000
 69176,0.00117524,-0.00101280,-0.00119645,-0.00062351,0.00309256,0.0013
 0849,0.00126857,-0.00004137,0.00002059,-0.00003535,-0.00008216,-0.0000
 0115,0.00000130,0.00000359,-0.00001393,-0.00001059,-0.00003999,0.00006
 447,-0.00003451,0.00028519,0.00000683,0.00009622,-0.00003607,0.0001235
 9,-0.00019930,-0.00407623,-0.00170712,0.00520645,0.20309515,-0.0000038
 0,0.00001908,-0.00007418,-0.00003675,-0.00011323,-0.00010972,-0.000290
 99,0.00002323,-0.00002474,0.00068201,-0.00179192,-0.00033038,0.0021572
 5,0.00347834,0.00173452,0.01900396,0.00463862,0.00486605,-0.07262821,-
 0.04727386,0.00634893,-0.00630407,-0.00122961,-0.00199023,0.00034434,0
 .00030797,-0.00042517,-0.00008668,0.00076051,0.00089537,0.00041741,-0.
 00161690,0.00014194,-0.00184379,-0.00019361,-0.00199792,0.00143094,0.0
 0041355,-0.00033504,0.00002197,-0.00001220,0.00001590,0.00005712,-0.00
 000003,0.00000468,-0.00001138,0.00000479,0.00000433,0.00004483,-0.0000
 9027,0.00002388,-0.00028854,0.00001793,-0.00008693,0.00020659,-0.00030
 463,0.00025742,0.00362415,-0.00124892,-0.00259531,0.05253117,0.0431860
 4,0.00002696,0.00000365,0.00003424,0.00011920,0.00005026,0.00010485,-0
 .00015185,-0.00016504,-0.00010422,0.00012785,0.00004390,0.00062711,0.0
 0008218,-0.00400847,-0.00514902,-0.00670168,0.00321934,0.00011805,-0.0
 2548894,-0.00318995,-0.01623966,0.02075460,0.00862119,-0.00995265,0.00
 124164,-0.00310877,-0.00108784,-0.00082558,0.00286232,-0.00220186,-0.0
 0022286,0.00038833,0.00168339,0.00167748,-0.00266500,-0.00166381,0.002
 87978,0.00467906,0.00175860,-0.00003249,0.00001276,-0.00002624,-0.0000
 5570,-0.00000228,0.00000162,0.00001045,-0.00000332,-0.00000008,-0.0000
 2947,0.00007001,-0.00000692,0.00023497,0.00003349,0.00010345,-0.000146
 86,0.00015370,-0.00023983,-0.00236429,-0.00039003,0.00239804,0.0121479
 9,-0.00651639,0.03117879,-0.00001718,-0.00000851,-0.00002820,0.0000398
 9,-0.00004045,0.00001231,-0.00024966,0.00002583,-0.00005843,0.00018515
 ,-0.00036390,-0.00007027,-0.00005517,0.00033718,0.00079940,-0.00016903
 ,-0.00039034,0.00071135,0.00382720,0.00013064,0.00016249,-0.00346536,0
 .01291257,-0.00692490,-0.02248607,0.01316587,-0.05224350,-0.00148312,-
 0.00204202,-0.00287537,-0.00166694,0.00110630,0.00019267,0.00109796,-0
 .00101794,0.00055625,-0.00010676,0.00053095,-0.00051566,0.00002113,-0.
 00001372,0.00001822,0.00002812,0.00000868,0.00000237,-0.00000099,0.000
 00541,-0.00000062,0.00000419,-0.00000276,-0.00000845,-0.00001304,0.000
 01385,-0.00001712,0.00000986,0.00005484,-0.00001525,-0.00000227,-0.000
 43694,0.00018080,0.00024126,0.00119411,-0.00083796,0.02887652,0.000004
 54,0.00000069,-0.00000983,-0.00001250,0.00001202,0.00000204,-0.0000390
 9,0.00002303,-0.00000297,0.00001018,-0.00029130,-0.00032201,0.00076688
 ,0.00147464,0.00200467,0.00119755,-0.00144618,0.00058231,0.00232054,-0
 .00299175,-0.00291318,0.00381399,-0.01825818,0.03204601,0.03225831,-0.
 15140144,0.15241301,-0.00062719,0.00220147,0.00276947,-0.00010785,-0.0
 0065295,-0.00116411,0.00016708,0.00111911,0.00040026,-0.00079835,-0.00
 026577,-0.00091925,0.00000238,0.00000075,0.00000280,0.00000975,-0.0000
 0094,0.00000215,-0.00000148,-0.00000172,0.00000093,0.00000095,-0.00001
 217,0.00000135,-0.00003365,0.00000907,-0.00001278,0.00008220,-0.000073
 15,0.00012573,-0.00036860,-0.00062837,0.00032414,-0.00085251,0.0003996
 7,0.00036749,-0.03506733,0.15830027,-0.00000583,-0.00000398,0.00001111
 ,0.00001317,-0.00000728,-0.00000361,0.00003452,0.00000306,-0.00002777,
 0.00009351,0.00021878,0.00022305,-0.00027866,-0.00046545,-0.00122963,-
 0.00001879,0.00059877,0.00074398,-0.00089797,0.00030715,0.00131910,0.0
 0299429,-0.00009079,0.00355524,-0.08018460,0.15423704,-0.33987616,0.00
 028446,-0.00389705,0.00094260,-0.00056254,0.00003334,0.00058882,0.0002
 6227,-0.00041368,-0.00109889,0.00003440,0.00057001,0.00090578,-0.00000
 252,0.00000243,-0.00000375,-0.00000713,0.00000030,-0.00000235,0.000002
 07,0.00000102,0.00000030,-0.00000171,0.00000942,0.00000316,0.00002740,
 -0.00000491,0.00001334,-0.00007820,0.00002157,-0.00005118,0.00010647,0
 .00016114,-0.00007974,0.00057205,-0.00021378,-0.00031051,0.07384295,-0
 .16520211,0.34969720,-0.00000530,-0.00001743,-0.00001184,0.00006919,-0
 .00002792,0.00003390,-0.00020010,0.00002353,-0.00008720,0.00039835,0.0
 0020489,0.00042177,-0.00080370,-0.00034679,-0.00157735,-0.00002167,0.0
 0119656,0.00096052,-0.00030939,-0.00139098,0.00047621,0.00006322,0.011
 90842,0.01394905,-0.11249217,-0.11182890,-0.17118336,0.00202585,0.0016
 6855,-0.00168272,0.00077273,0.00099162,0.00191225,-0.00032884,-0.00095
 145,-0.00145367,0.00024417,0.00088669,0.00146533,0.00002047,-0.0000136
 8,0.00001544,0.00000937,0.00000985,0.00000673,0.00000062,0.00000601,-0
 .00000555,-0.00000332,0.00000114,-0.00002151,0.00004653,-0.00001104,-0
 .00000685,-0.00015600,0.00016667,-0.00013348,-0.00000410,0.00031422,-0
 .00007801,-0.00014451,-0.00080939,-0.00003432,-0.00534282,-0.00328403,
 0.00292434,0.11655740,0.00001270,0.00000971,0.00001001,-0.00000893,0.0
 0001629,0.00001569,0.00011236,-0.00001811,0.00003660,-0.00005491,0.000
 21594,0.00021932,-0.00071020,-0.00023044,-0.00127649,0.00059238,0.0012
 1169,0.00114399,-0.00007683,-0.00306081,-0.00056950,-0.01710990,-0.018
 63873,-0.02570082,-0.09457391,-0.16782435,-0.13650256,-0.00016403,-0.0
 0446242,0.00162820,0.00237761,0.00064524,-0.00017697,-0.00121185,-0.00
 023908,-0.00050310,0.00114638,0.00021521,0.00084240,-0.00001346,0.0000
 0418,-0.00001035,-0.00002085,-0.00000310,0.00000216,0.00000326,-0.0000
 0207,-0.00000086,-0.00000512,0.00001246,-0.00000127,0.00004407,-0.0000
 1089,0.00000860,-0.00010047,0.00004667,-0.00003114,-0.00008415,0.00006
 639,0.00008686,-0.00010753,0.00052359,0.00009410,0.00986695,0.01221108
 ,0.01401593,0.10092737,0.17938583,0.00002183,0.00001848,0.00001767,-0.
 00006507,0.00003153,-0.00002685,0.00018361,0.00001523,0.00011286,-0.00
 043393,-0.00004688,-0.00040525,0.00091212,0.00083387,0.00148075,-0.000
 31000,-0.00134428,-0.00092292,0.00092204,0.00308156,0.00036653,0.00468
 020,-0.00960516,-0.00292513,-0.14352167,-0.12079220,-0.22568638,-0.001
 95241,0.00137651,0.00400830,0.00108834,-0.00218168,-0.00094406,-0.0002
 6789,0.00145594,0.00023095,-0.00023444,-0.00116085,-0.00107942,-0.0000
 1643,0.00000724,-0.00001136,-0.00001214,-0.00000711,-0.00000218,-0.000
 00577,-0.00001086,-0.00000545,0.00000108,-0.00002152,-0.00000341,-0.00
 005283,-0.00000867,-0.00001419,0.00013559,-0.00015253,0.00007630,-0.00
 015059,-0.00015764,0.00009786,0.00010840,0.00056763,0.00003813,-0.0140
 1944,-0.01840399,-0.01490865,0.15423119,0.14684284,0.24019465,0.000005
 61,-0.00000439,0.00001150,-0.00000684,0.00001636,0.00001727,0.00010686
 ,-0.00001321,-0.00000108,0.00016527,0.00018696,0.00008274,-0.00010864,
 -0.00090517,-0.00028175,-0.00038996,-0.00010689,0.00121554,0.00720462,
 0.00104798,-0.00124501,0.00558525,-0.00152326,0.00052416,-0.00681461,0
 .00100533,0.00242840,-0.03285783,-0.00086638,0.00654944,0.00167324,-0.
 00085256,-0.00169937,0.00273812,0.00081346,0.00011916,0.00104426,-0.00
 024887,0.00124310,-0.00000146,-0.00000195,0.00000017,-0.00001363,0.000
 00133,0.00000025,-0.00000095,-0.00000182,-0.00000513,0.00000059,0.0000
 0558,-0.00001251,0.00000597,-0.00000500,0.00000318,-0.00001801,0.00000
 480,-0.00004138,-0.00023458,-0.00020262,0.00025675,0.00036222,0.000282
 46,-0.00254978,0.00068341,0.00061790,0.00083108,-0.00043778,-0.0008389
 3,-0.00123643,0.02244870,-0.00002413,-0.00002927,-0.00003025,0.0001259
 2,-0.00004369,0.00001285,-0.00036615,0.00001300,-0.00017679,0.00072511
 ,-0.00000820,0.00022930,-0.00121581,-0.00032026,-0.00079206,-0.0001443
 6,0.00069460,0.00066928,0.00108966,-0.00103548,-0.00197965,0.00092005,
 0.00319114,-0.00814441,-0.00057601,0.00104927,-0.00415618,-0.00262206,
 -0.16886037,0.12873129,0.00010870,-0.01994486,0.02404536,-0.00083054,-
 0.00509513,-0.00031621,0.00107777,-0.00085145,-0.00204720,0.00003098,-
 0.00000702,0.00002089,0.00003992,0.00000605,0.00000442,0.00000239,0.00
 000718,0.00000908,-0.00000344,-0.00000190,0.00000019,0.00002010,0.0000
 0025,0.00002343,-0.00017229,0.00009623,-0.00004875,0.00004121,0.000089
 61,-0.00001240,-0.00011997,0.00011039,-0.00024662,0.00009039,0.0001422
 9,0.00013463,0.00023045,0.00024716,-0.00031544,0.00162386,0.19025251,0
 .00002692,0.00003107,0.00002396,-0.00008121,0.00003682,0.00001183,0.00
 029115,-0.00001375,0.00015608,-0.00047906,0.00029882,0.00025536,0.0002
 1827,-0.00101803,-0.00034007,-0.00130888,0.00118025,0.00055552,0.00144
 633,-0.00230199,0.00119357,0.00022340,0.01791437,-0.02964961,-0.000969
 31,0.00129592,0.00195895,0.00491930,0.13040679,-0.18909884,-0.00025570
 ,-0.00968161,0.00719275,-0.00014126,-0.00295362,-0.00104479,0.00024384
 ,0.00211240,-0.00091760,-0.00003214,0.00000656,-0.00002145,-0.00004431
 ,-0.00000455,0.00000025,0.00000277,-0.00000461,-0.00000829,-0.00000937
 ,0.00001250,0.00000095,0.00006661,-0.00001903,-0.00000043,-0.00010970,
 0.00009070,-0.00011520,0.00047956,0.00041713,-0.00041754,0.00063571,-0
 .00015688,-0.00113249,0.00118516,-0.00207819,-0.00034197,-0.00018855,-
 0.00010628,0.00031943,-0.00611594,-0.13516695,0.21053264,-0.00000636,-
 0.00000876,0.00002920,-0.00005237,0.00002495,0.00000145,0.00020965,-0.
 00000219,-0.00010771,-0.00027552,0.00049393,0.00021939,0.00225270,0.00
 019544,0.00392128,0.00012527,-0.00100159,-0.00012000,-0.00042253,0.000
 43185,-0.00017549,0.00269698,-0.00078522,-0.00038775,-0.00044050,-0.00
 000721,0.00013080,0.00312677,0.00017930,0.00033797,-0.03971281,0.00011
 412,0.01981182,-0.00909365,0.00105380,0.00059219,0.01350058,-0.0014635
 3,0.00107064,0.00000011,0.00000032,0.00000042,-0.00002306,-0.00000135,
 -0.00000703,0.00000207,0.00000143,0.00000082,0.00000475,0.00001701,-0.
 00000125,-0.00003167,0.00001671,0.00000021,0.00010508,-0.00009562,-0.0
 0001103,-0.00002905,0.00005274,0.00008964,0.00010381,0.00030527,0.0001
 3867,0.00004371,-0.00005966,0.00001496,0.00004180,-0.00000204,-0.00000
 536,-0.00113986,-0.00005176,-0.00000359,0.02901409,-0.00001685,-0.0000
 1885,-0.00002898,0.00007334,-0.00001486,0.00001396,-0.00018647,-0.0000
 6650,-0.00012362,0.00058016,-0.00023580,0.00000703,-0.00299563,-0.0001
 6149,-0.00036911,0.00027506,0.00124222,0.00064025,0.00068286,-0.000939
 04,0.00088462,0.00013935,-0.00424822,-0.00052731,-0.00004118,-0.000452
 36,-0.00129068,0.00184926,-0.00298415,-0.02801537,0.00073558,-0.056096
 41,-0.02898824,-0.00332367,-0.00026386,0.03524713,0.00153325,-0.002853
 11,0.00430779,0.00001890,-0.00000458,0.00001501,0.00003121,0.00000607,
 0.00000308,0.00000262,0.00000446,0.00000485,0.00000089,0.00000134,0.00
 000745,-0.00000038,0.00000507,0.00001725,0.00001210,0.00002264,0.00010
 208,0.00014518,0.00029248,-0.00007392,-0.00015865,-0.00000852,-0.00030
 370,-0.00005963,0.00012983,-0.00001553,0.00014563,-0.00032143,-0.00002
 203,-0.00003499,0.00029794,-0.00029783,0.00059206,0.06666712,0.0000294
 2,0.00004624,0.00003394,-0.00012303,0.00003084,-0.00000473,0.00035409,
 -0.00003698,0.00023089,-0.00101894,0.00029482,0.00024124,0.00341661,0.
 00030538,0.00060615,-0.00015596,-0.00092174,-0.00049113,-0.00045877,0.
 00036787,-0.00021222,0.00021058,-0.00113650,0.00139384,0.00011804,-0.0
 0052931,-0.00045899,0.00056889,0.00229070,-0.00899953,0.02249139,-0.02
 656688,-0.31820965,0.00172636,0.00319206,-0.02119488,-0.00160799,0.004
 41737,0.00032099,-0.00004108,0.00000716,-0.00002761,-0.00005856,-0.000
 00979,-0.00000586,-0.00000076,-0.00000597,-0.00000960,-0.00000344,0.00
 001378,-0.00000034,0.00001167,-0.00000684,-0.00002009,0.00001839,0.000
 06124,-0.00019208,-0.00002838,-0.00008624,0.00003238,0.00016723,-0.000
 00396,0.00006888,-0.00004881,-0.00001393,-0.00006948,0.00006766,-0.000
 06737,-0.00000817,-0.00009436,-0.00044779,0.00088700,-0.02554024,0.018
 80582,0.34608907\\-0.00000569,0.00000043,-0.00000064,0.00000375,0.0000
 0225,0.00000083,0.00000555,0.00000189,-0.00000103,-0.00000051,-0.00000
 848,0.00000834,-0.00002426,0.00000088,-0.00003050,0.00001171,0.0000128
 8,0.00000926,-0.00000136,0.00000146,0.00001123,-0.00000241,0.00000020,
 0.00000559,-0.00000172,-0.00000515,-0.00000850,0.00000736,0.00000558,-
 0.00000702,0.00000250,-0.00000367,-0.00000525,-0.00000950,0.00000832,0
 .00004407,0.00002552,-0.00000628,-0.00002847,0.00000064,-0.00000095,-0
 .00000087,0.00000072,-0.00000033,-0.00000108,-0.00000023,-0.00000061,-
 0.00000037,0.00000022,-0.00000065,-0.00000033,-0.00000051,-0.00000288,
 -0.00000057,0.00000142,0.00000065,0.00000008,-0.00000325,-0.00000546,0
 .00000003,-0.00000803,-0.00000077,-0.00000204,-0.00000017,-0.00000102,
 -0.00000109,0.00000381,-0.00000062,0.00000535,-0.00000323,0.00000198,0
 .00000018,-0.00000237,0.00000036,0.00000280\\\@


  ON THE CHOICE OF THE CORRECT LANGUAGE -
 I SPEAK SPANISH TO GOD, ITALIAN TO WOMEN,
 FRENCH TO MEN, AND GERMAN TO MY HORSE.
          -- CHARLES V
 Job cpu time:       0 days  4 hours 35 minutes 29.2 seconds.
 Elapsed time:       0 days  1 hours  8 minutes 53.2 seconds.
 File lengths (MBytes):  RWF=    360 Int=      0 D2E=      0 Chk=     16 Scr=      1
 Normal termination of Gaussian 16 at Sat May 20 14:23:54 2023.
### All Done ###
