### Starting Gaussian ###
 Entering Gaussian System, Link 0=g16
 Initial command:
 /cluster/software/gaussian/gaussian-16-A.03/avx2/g16/l1.exe "/local/scratch/yxie/Gau-28545.inp" -scrdir="/local/scratch/yxie/"
 Entering Link 1 = /cluster/software/gaussian/gaussian-16-A.03/avx2/g16/l1.exe PID=     28546.
  
 Copyright (c) 1988,1990,1992,1993,1995,1998,2003,2009,2016,
            Gaussian, Inc.  All Rights Reserved.
  
 This is part of the Gaussian(R) 16 program.  It is based on
 the Gaussian(R) 09 system (copyright 2009, Gaussian, Inc.),
 the Gaussian(R) 03 system (copyright 2003, Gaussian, Inc.),
 the Gaussian(R) 98 system (copyright 1998, Gaussian, Inc.),
 the Gaussian(R) 94 system (copyright 1995, Gaussian, Inc.),
 the Gaussian 92(TM) system (copyright 1992, Gaussian, Inc.),
 the Gaussian 90(TM) system (copyright 1990, Gaussian, Inc.),
 the Gaussian 88(TM) system (copyright 1988, Gaussian, Inc.),
 the Gaussian 86(TM) system (copyright 1986, Carnegie Mellon
 University), and the Gaussian 82(TM) system (copyright 1983,
 Carnegie Mellon University). Gaussian is a federally registered
 trademark of Gaussian, Inc.
  
 This software contains proprietary and confidential information,
 including trade secrets, belonging to Gaussian, Inc.
  
 This software is provided under written license and may be
 used, copied, transmitted, or stored only in accord with that
 written license.
  
 The following legend is applicable only to US Government
 contracts under FAR:
  
                    RESTRICTED RIGHTS LEGEND
  
 Use, reproduction and disclosure by the US Government is
 subject to restrictions as set forth in subparagraphs (a)
 and (c) of the Commercial Computer Software - Restricted
 Rights clause in FAR 52.227-19.
  
 Gaussian, Inc.
 340 Quinnipiac St., Bldg. 40, Wallingford CT 06492
  
  
 ---------------------------------------------------------------
 Warning -- This program may not be used in any manner that
 competes with the business of Gaussian, Inc. or will provide
 assistance to any competitor of Gaussian, Inc.  The licensee
 of this program is prohibited from giving any competitor of
 Gaussian, Inc. access to this program.  By using this program,
 the user acknowledges that Gaussian, Inc. is engaged in the
 business of creating and licensing software in the field of
 computational chemistry and represents and warrants to the
 licensee that it is not a competitor of Gaussian, Inc. and that
 it will not use this program in any manner prohibited above.
 ---------------------------------------------------------------
  

 Cite this work as:
 Gaussian 16, Revision A.03,
 M. J. Frisch, G. W. Trucks, H. B. Schlegel, G. E. Scuseria, 
 M. A. Robb, J. R. Cheeseman, G. Scalmani, V. Barone, 
 G. A. Petersson, H. Nakatsuji, X. Li, M. Caricato, A. V. Marenich, 
 J. Bloino, B. G. Janesko, R. Gomperts, B. Mennucci, H. P. Hratchian, 
 J. V. Ortiz, A. F. Izmaylov, J. L. Sonnenberg, D. Williams-Young, 
 F. Ding, F. Lipparini, F. Egidi, J. Goings, B. Peng, A. Petrone, 
 T. Henderson, D. Ranasinghe, V. G. Zakrzewski, J. Gao, N. Rega, 
 G. Zheng, W. Liang, M. Hada, M. Ehara, K. Toyota, R. Fukuda, 
 J. Hasegawa, M. Ishida, T. Nakajima, Y. Honda, O. Kitao, H. Nakai, 
 T. Vreven, K. Throssell, J. A. Montgomery, Jr., J. E. Peralta, 
 F. Ogliaro, M. J. Bearpark, J. J. Heyd, E. N. Brothers, K. N. Kudin, 
 V. N. Staroverov, T. A. Keith, R. Kobayashi, J. Normand, 
 K. Raghavachari, A. P. Rendell, J. C. Burant, S. S. Iyengar, 
 J. Tomasi, M. Cossi, J. M. Millam, M. Klene, C. Adamo, R. Cammi, 
 J. W. Ochterski, R. L. Martin, K. Morokuma, O. Farkas, 
 J. B. Foresman, and D. J. Fox, Gaussian, Inc., Wallingford CT, 2016.
 
 ******************************************
 Gaussian 16:  ES64L-G16RevA.03 25-Dec-2016
                15-May-2023 
 ******************************************
 %chk=CCdC1CdCCdCCdCSC2dC1Cd[SH]CdC2.chk
 %NProcShared=20
 Will use up to   20 processors via shared memory.
 -----------------------------
 # opt freq b3lyp/6-31g(2df,p)
 -----------------------------
 1/18=20,19=15,26=3,38=1/1,3;
 2/9=110,12=2,17=6,18=5,40=1/2;
 3/5=1,6=6,7=104,11=2,25=1,30=1,71=1,74=-5/1,2,3;
 4//1;
 5/5=2,38=5/2;
 6/7=2,8=2,9=2,10=2,28=1/1;
 7//1,2,3,16;
 1/18=20,19=15,26=3/3(2);
 2/9=110/2;
 99//99;
 2/9=110/2;
 3/5=1,6=6,7=104,11=2,25=1,30=1,71=1,74=-5/1,2,3;
 4/5=5,16=3,69=1/1;
 5/5=2,38=5/2;
 7//1,2,3,16;
 1/18=20,19=15,26=3/3(-5);
 2/9=110/2;
 6/7=2,8=2,9=2,10=2,19=2,28=1/1;
 99/9=1/99;
 -------------------
 Title Card Required
 -------------------
 Symbolic Z-matrix:
 Charge =  0 Multiplicity = 1
 C                     2.6027    0.60126   0.81708 
 C                     4.62273   1.41503   1.78628 
 C                     6.26255   1.92365   2.97852 
 C                     5.52578   0.80663   1.58556 
 C                     5.84196   0.09383   2.65914 
 C                     7.22408   0.18359   2.19479 
 C                     7.87846   0.54049   3.2753 
 C                     9.23862   0.75593   3.19164 
 C                     9.93182   0.79376   4.29737 
 S                     11.58697   1.24022   4.18346 
 C                     10.15039   1.89465   5.34196 
 C                     8.30664   2.30698   4.41034 
 C                     9.75994   2.93536   5.83685 
 S                     11.60934   2.77744   7.67227 
 C                     12.80034   1.15868   7.90934 
 C                     11.75975   1.15236   6.41791 
 H                     1.58837   0.04806  -0.41429 
 H                     1.1417    1.06071   0.34993 
 H                     1.29324  -0.39592   0.80692 
 H                     3.97156   0.50943   0.54732 
 H                     5.42963   0.16066   0.30714 
 H                     4.85962   0.74895   3.31942 
 H                     7.51803   0.37481   1.15139 
 H                     7.15035   1.00811   4.25157 
 H                     9.68135   0.75143   2.28205 
 H                     9.04255   0.87256   5.41074 
 H                     10.92125   3.76236   6.58747 
 H                     12.00183   2.77119   9.42477 
 H                     13.3061   0.39049   8.78481 
 H                     12.52181  -0.08677   6.53197 
 
 Add virtual bond connecting atoms H24        and C7         Dist= 2.47D+00.
 Add virtual bond connecting atoms H19        and H17        Dist= 2.52D+00.
 Add virtual bond connecting atoms H18        and H17        Dist= 2.54D+00.
 Add virtual bond connecting atoms H22        and C5         Dist= 2.56D+00.
 Add virtual bond connecting atoms H20        and C1         Dist= 2.64D+00.
 Add virtual bond connecting atoms H26        and C9         Dist= 2.70D+00.
 Add virtual bond connecting atoms H26        and C11        Dist= 2.85D+00.
 Add virtual bond connecting atoms H21        and C4         Dist= 2.71D+00.
 Add virtual bond connecting atoms H30        and C16        Dist= 2.76D+00.
 Add virtual bond connecting atoms C2         and H20        Dist= 3.15D+00.
 Add virtual bond connecting atoms H21        and H20        Dist= 2.87D+00.
 Add virtual bond connecting atoms H17        and C1         Dist= 3.19D+00.
 Add virtual bond connecting atoms H18        and C1         Dist= 3.03D+00.
 Add virtual bond connecting atoms H19        and C1         Dist= 3.11D+00.
 Add virtual bond connecting atoms H27        and C13        Dist= 3.04D+00.
 Add virtual bond connecting atoms H27        and S14        Dist= 3.06D+00.
 Add virtual bond connecting atoms H24        and C12        Dist= 3.30D+00.
 Add virtual bond connecting atoms H26        and C12        Dist= 3.59D+00.
 Add virtual bond connecting atoms H28        and S14        Dist= 3.39D+00.
 Add virtual bond connecting atoms C4         and C3         Dist= 3.65D+00.
 Add virtual bond connecting atoms C5         and C3         Dist= 3.60D+00.
 Add virtual bond connecting atoms H22        and C3         Dist= 3.52D+00.
 Add virtual bond connecting atoms H24        and C3         Dist= 3.41D+00.

 GradGradGradGradGradGradGradGradGradGradGradGradGradGradGradGradGradGrad
 Berny optimization.
 Initialization pass.
                           ----------------------------
                           !    Initial Parameters    !
                           ! (Angstroms and Degrees)  !
 --------------------------                            --------------------------
 ! Name  Definition              Value          Derivative Info.                !
 --------------------------------------------------------------------------------
 ! R1    R(1,17)                 1.6885         estimate D2E/DX2                !
 ! R2    R(1,18)                 1.6012         estimate D2E/DX2                !
 ! R3    R(1,19)                 1.646          estimate D2E/DX2                !
 ! R4    R(1,20)                 1.3982         estimate D2E/DX2                !
 ! R5    R(2,4)                  1.1072         estimate D2E/DX2                !
 ! R6    R(2,20)                 1.6671         estimate D2E/DX2                !
 ! R7    R(3,4)                  1.9316         estimate D2E/DX2                !
 ! R8    R(3,5)                  1.9045         estimate D2E/DX2                !
 ! R9    R(3,22)                 1.8613         estimate D2E/DX2                !
 ! R10   R(3,24)                 1.802          estimate D2E/DX2                !
 ! R11   R(4,5)                  1.3269         estimate D2E/DX2                !
 ! R12   R(4,21)                 1.4356         estimate D2E/DX2                !
 ! R13   R(5,6)                  1.4608         estimate D2E/DX2                !
 ! R14   R(5,22)                 1.3528         estimate D2E/DX2                !
 ! R15   R(6,7)                  1.3127         estimate D2E/DX2                !
 ! R16   R(6,23)                 1.1008         estimate D2E/DX2                !
 ! R17   R(7,8)                  1.3797         estimate D2E/DX2                !
 ! R18   R(7,24)                 1.3046         estimate D2E/DX2                !
 ! R19   R(8,9)                  1.3056         estimate D2E/DX2                !
 ! R20   R(8,25)                 1.0116         estimate D2E/DX2                !
 ! R21   R(9,10)                 1.7181         estimate D2E/DX2                !
 ! R22   R(9,11)                 1.5333         estimate D2E/DX2                !
 ! R23   R(9,26)                 1.4271         estimate D2E/DX2                !
 ! R24   R(10,11)                1.9581         estimate D2E/DX2                !
 ! R25   R(11,13)                1.2167         estimate D2E/DX2                !
 ! R26   R(11,26)                1.5089         estimate D2E/DX2                !
 ! R27   R(12,24)                1.7462         estimate D2E/DX2                !
 ! R28   R(12,26)                1.8973         estimate D2E/DX2                !
 ! R29   R(13,27)                1.6112         estimate D2E/DX2                !
 ! R30   R(14,15)                2.0236         estimate D2E/DX2                !
 ! R31   R(14,16)                2.0584         estimate D2E/DX2                !
 ! R32   R(14,27)                1.6187         estimate D2E/DX2                !
 ! R33   R(14,28)                1.7959         estimate D2E/DX2                !
 ! R34   R(15,16)                1.8186         estimate D2E/DX2                !
 ! R35   R(15,29)                1.2698         estimate D2E/DX2                !
 ! R36   R(16,30)                1.4592         estimate D2E/DX2                !
 ! R37   R(17,18)                1.345          estimate D2E/DX2                !
 ! R38   R(17,19)                1.3325         estimate D2E/DX2                !
 ! R39   R(20,21)                1.5183         estimate D2E/DX2                !
 ! A1    A(17,1,20)            115.2072         estimate D2E/DX2                !
 ! A2    A(18,1,19)             56.3674         estimate D2E/DX2                !
 ! A3    A(18,1,20)            148.8534         estimate D2E/DX2                !
 ! A4    A(19,1,20)            137.5516         estimate D2E/DX2                !
 ! A5    A(4,2,20)              83.4169         estimate D2E/DX2                !
 ! A6    A(4,3,22)              58.6405         estimate D2E/DX2                !
 ! A7    A(4,3,24)             113.8029         estimate D2E/DX2                !
 ! A8    A(5,3,24)              74.8779         estimate D2E/DX2                !
 ! A9    A(22,3,24)             85.4863         estimate D2E/DX2                !
 ! A10   A(2,4,3)               82.1026         estimate D2E/DX2                !
 ! A11   A(2,4,5)              110.0508         estimate D2E/DX2                !
 ! A12   A(2,4,21)             110.7361         estimate D2E/DX2                !
 ! A13   A(3,4,21)             158.1221         estimate D2E/DX2                !
 ! A14   A(5,4,21)             119.6538         estimate D2E/DX2                !
 ! A15   A(3,5,6)               77.6036         estimate D2E/DX2                !
 ! A16   A(4,5,6)               86.2877         estimate D2E/DX2                !
 ! A17   A(4,5,22)              87.8066         estimate D2E/DX2                !
 ! A18   A(6,5,22)             144.3329         estimate D2E/DX2                !
 ! A19   A(5,6,7)              103.1036         estimate D2E/DX2                !
 ! A20   A(5,6,23)             124.3778         estimate D2E/DX2                !
 ! A21   A(7,6,23)             126.8625         estimate D2E/DX2                !
 ! A22   A(6,7,8)              118.9477         estimate D2E/DX2                !
 ! A23   A(6,7,24)             115.7993         estimate D2E/DX2                !
 ! A24   A(8,7,24)             122.6591         estimate D2E/DX2                !
 ! A25   A(7,8,9)              118.4642         estimate D2E/DX2                !
 ! A26   A(7,8,25)             119.0312         estimate D2E/DX2                !
 ! A27   A(9,8,25)             121.9552         estimate D2E/DX2                !
 ! A28   A(8,9,10)             117.5726         estimate D2E/DX2                !
 ! A29   A(8,9,11)             132.3362         estimate D2E/DX2                !
 ! A30   A(8,9,26)             109.3588         estimate D2E/DX2                !
 ! A31   A(10,9,26)            129.6192         estimate D2E/DX2                !
 ! A32   A(9,11,13)            147.7243         estimate D2E/DX2                !
 ! A33   A(10,11,13)           139.6355         estimate D2E/DX2                !
 ! A34   A(10,11,26)           109.8306         estimate D2E/DX2                !
 ! A35   A(13,11,26)           108.98           estimate D2E/DX2                !
 ! A36   A(24,12,26)            75.0743         estimate D2E/DX2                !
 ! A37   A(11,13,27)           113.4042         estimate D2E/DX2                !
 ! A38   A(15,14,27)           144.6271         estimate D2E/DX2                !
 ! A39   A(15,14,28)            75.7752         estimate D2E/DX2                !
 ! A40   A(16,14,27)            95.9145         estimate D2E/DX2                !
 ! A41   A(16,14,28)           125.1655         estimate D2E/DX2                !
 ! A42   A(27,14,28)           138.5005         estimate D2E/DX2                !
 ! A43   A(14,15,29)           143.0471         estimate D2E/DX2                !
 ! A44   A(16,15,29)           142.3015         estimate D2E/DX2                !
 ! A45   A(14,16,30)           131.3736         estimate D2E/DX2                !
 ! A46   A(15,16,30)            68.9005         estimate D2E/DX2                !
 ! A47   A(18,17,19)            69.9139         estimate D2E/DX2                !
 ! A48   A(1,20,2)             101.7325         estimate D2E/DX2                !
 ! A49   A(2,20,21)             82.371          estimate D2E/DX2                !
 ! A50   A(4,21,20)             79.6352         estimate D2E/DX2                !
 ! A51   A(3,24,7)              85.8945         estimate D2E/DX2                !
 ! A52   A(3,24,12)             90.7194         estimate D2E/DX2                !
 ! A53   A(7,24,12)             87.9994         estimate D2E/DX2                !
 ! A54   A(9,26,12)             82.6508         estimate D2E/DX2                !
 ! A55   A(11,26,12)            75.4413         estimate D2E/DX2                !
 ! A56   A(13,27,14)           107.8354         estimate D2E/DX2                !
 ! A57   L(1,20,21,2,-1)       184.1035         estimate D2E/DX2                !
 ! A58   L(1,20,21,2,-2)       171.1063         estimate D2E/DX2                !
 ! D1    D(17,1,20,2)          168.467          estimate D2E/DX2                !
 ! D2    D(18,1,20,2)          118.7167         estimate D2E/DX2                !
 ! D3    D(19,1,20,2)         -138.4311         estimate D2E/DX2                !
 ! D4    D(17,1,21,4)          179.6647         estimate D2E/DX2                !
 ! D5    D(18,1,21,4)          135.0473         estimate D2E/DX2                !
 ! D6    D(19,1,21,4)         -127.4764         estimate D2E/DX2                !
 ! D7    D(20,2,4,3)           177.9386         estimate D2E/DX2                !
 ! D8    D(20,2,4,5)          -118.2624         estimate D2E/DX2                !
 ! D9    D(20,2,4,21)           16.272          estimate D2E/DX2                !
 ! D10   D(4,2,20,1)           156.63           estimate D2E/DX2                !
 ! D11   D(4,2,20,21)          -14.4763         estimate D2E/DX2                !
 ! D12   D(22,3,4,2)            63.8578         estimate D2E/DX2                !
 ! D13   D(22,3,4,21)         -168.2756         estimate D2E/DX2                !
 ! D14   D(24,3,4,2)           132.1695         estimate D2E/DX2                !
 ! D15   D(24,3,4,21)          -99.964          estimate D2E/DX2                !
 ! D16   D(24,3,5,6)           -73.5904         estimate D2E/DX2                !
 ! D17   D(4,3,24,7)            56.3878         estimate D2E/DX2                !
 ! D18   D(4,3,24,12)          144.3302         estimate D2E/DX2                !
 ! D19   D(5,3,24,7)            67.7045         estimate D2E/DX2                !
 ! D20   D(5,3,24,12)          155.6469         estimate D2E/DX2                !
 ! D21   D(22,3,24,7)          109.1316         estimate D2E/DX2                !
 ! D22   D(22,3,24,12)        -162.9259         estimate D2E/DX2                !
 ! D23   D(2,4,5,6)           -150.7298         estimate D2E/DX2                !
 ! D24   D(2,4,5,22)            -5.9235         estimate D2E/DX2                !
 ! D25   D(21,4,5,6)            79.3664         estimate D2E/DX2                !
 ! D26   D(21,4,5,22)         -135.8272         estimate D2E/DX2                !
 ! D27   D(2,4,21,20)          -18.101          estimate D2E/DX2                !
 ! D28   D(3,4,21,20)         -141.3685         estimate D2E/DX2                !
 ! D29   D(5,4,21,20)          111.4965         estimate D2E/DX2                !
 ! D30   D(3,5,6,7)             61.0337         estimate D2E/DX2                !
 ! D31   D(3,5,6,23)           -93.8622         estimate D2E/DX2                !
 ! D32   D(4,5,6,7)            132.2441         estimate D2E/DX2                !
 ! D33   D(4,5,6,23)           -22.6519         estimate D2E/DX2                !
 ! D34   D(22,5,6,7)            51.2294         estimate D2E/DX2                !
 ! D35   D(22,5,6,23)         -103.6665         estimate D2E/DX2                !
 ! D36   D(5,6,7,8)           -178.317          estimate D2E/DX2                !
 ! D37   D(5,6,7,24)           -16.0775         estimate D2E/DX2                !
 ! D38   D(23,6,7,8)           -24.2713         estimate D2E/DX2                !
 ! D39   D(23,6,7,24)          137.9681         estimate D2E/DX2                !
 ! D40   D(6,7,8,9)           -163.8719         estimate D2E/DX2                !
 ! D41   D(6,7,8,25)             7.7975         estimate D2E/DX2                !
 ! D42   D(24,7,8,9)            35.167          estimate D2E/DX2                !
 ! D43   D(24,7,8,25)         -153.1636         estimate D2E/DX2                !
 ! D44   D(6,7,24,3)           -42.8991         estimate D2E/DX2                !
 ! D45   D(6,7,24,12)         -133.7645         estimate D2E/DX2                !
 ! D46   D(8,7,24,3)           118.6159         estimate D2E/DX2                !
 ! D47   D(8,7,24,12)           27.7505         estimate D2E/DX2                !
 ! D48   D(7,8,9,10)          -173.173          estimate D2E/DX2                !
 ! D49   D(7,8,9,11)           -80.2867         estimate D2E/DX2                !
 ! D50   D(7,8,9,26)           -12.0945         estimate D2E/DX2                !
 ! D51   D(25,8,9,10)           15.4137         estimate D2E/DX2                !
 ! D52   D(25,8,9,11)          108.3            estimate D2E/DX2                !
 ! D53   D(25,8,9,26)          176.4922         estimate D2E/DX2                !
 ! D54   D(8,9,11,13)           20.1607         estimate D2E/DX2                !
 ! D55   D(8,9,26,12)          -51.0545         estimate D2E/DX2                !
 ! D56   D(10,9,26,12)         107.035          estimate D2E/DX2                !
 ! D57   D(9,11,13,27)        -157.524          estimate D2E/DX2                !
 ! D58   D(10,11,13,27)        -49.7193         estimate D2E/DX2                !
 ! D59   D(26,11,13,27)        146.8351         estimate D2E/DX2                !
 ! D60   D(10,11,26,12)       -109.9429         estimate D2E/DX2                !
 ! D61   D(13,11,26,12)         58.7444         estimate D2E/DX2                !
 ! D62   D(26,12,24,3)        -169.8103         estimate D2E/DX2                !
 ! D63   D(26,12,24,7)         -83.9438         estimate D2E/DX2                !
 ! D64   D(24,12,26,9)         106.2188         estimate D2E/DX2                !
 ! D65   D(24,12,26,11)        170.0388         estimate D2E/DX2                !
 ! D66   D(11,13,27,14)        -54.6124         estimate D2E/DX2                !
 ! D67   D(27,14,15,29)       -178.2053         estimate D2E/DX2                !
 ! D68   D(28,14,15,29)         13.9347         estimate D2E/DX2                !
 ! D69   D(27,14,16,30)        165.599          estimate D2E/DX2                !
 ! D70   D(28,14,16,30)        -20.6498         estimate D2E/DX2                !
 ! D71   D(15,14,27,13)         70.765          estimate D2E/DX2                !
 ! D72   D(16,14,27,13)         45.1297         estimate D2E/DX2                !
 ! D73   D(28,14,27,13)       -127.1528         estimate D2E/DX2                !
 ! D74   D(29,15,16,30)        -30.648          estimate D2E/DX2                !
 ! D75   D(1,17,18,19)         -71.2634         estimate D2E/DX2                !
 ! D76   D(2,20,21,4)           11.2277         estimate D2E/DX2                !
 --------------------------------------------------------------------------------
 Trust Radius=3.00D-01 FncErr=1.00D-07 GrdErr=1.00D-06 EigMax=2.50D+02 EigMin=1.00D-04
 Number of steps in this run=    180 maximum allowed number of steps=    180.
 GradGradGradGradGradGradGradGradGradGradGradGradGradGradGradGradGradGrad

                          Input orientation:                          
 ---------------------------------------------------------------------
 Center     Atomic      Atomic             Coordinates (Angstroms)
 Number     Number       Type             X           Y           Z
 ---------------------------------------------------------------------
      1          6           0        2.602700    0.601260    0.817080
      2          6           0        4.622730    1.415030    1.786280
      3          6           0        6.262550    1.923650    2.978520
      4          6           0        5.525780    0.806630    1.585560
      5          6           0        5.841960    0.093830    2.659140
      6          6           0        7.224080    0.183590    2.194790
      7          6           0        7.878460    0.540490    3.275300
      8          6           0        9.238620    0.755930    3.191640
      9          6           0        9.931820    0.793760    4.297370
     10         16           0       11.586970    1.240220    4.183460
     11          6           0       10.150390    1.894650    5.341960
     12          6           0        8.306640    2.306980    4.410340
     13          6           0        9.759940    2.935360    5.836850
     14         16           0       11.609340    2.777440    7.672270
     15          6           0       12.800340    1.158680    7.909340
     16          6           0       11.759750    1.152360    6.417910
     17          1           0        1.588370    0.048060   -0.414290
     18          1           0        1.141700    1.060710    0.349930
     19          1           0        1.293240   -0.395920    0.806920
     20          1           0        3.971560    0.509430    0.547320
     21          1           0        5.429630    0.160660    0.307140
     22          1           0        4.859620    0.748950    3.319420
     23          1           0        7.518030    0.374810    1.151390
     24          1           0        7.150350    1.008110    4.251570
     25          1           0        9.681350    0.751430    2.282050
     26          1           0        9.042550    0.872560    5.410740
     27          1           0       10.921250    3.762360    6.587470
     28          1           0       12.001830    2.771190    9.424770
     29          1           0       13.306100    0.390490    8.784810
     30          1           0       12.521810   -0.086770    6.531970
 ---------------------------------------------------------------------
                    Distance matrix (angstroms):
                    1          2          3          4          5
     1  C    0.000000
     2  C    2.383714   0.000000
     3  C    4.451409   2.090249   0.000000
     4  C    3.029379   1.107221   1.931554   0.000000
     5  C    3.760781   1.998493   1.904505   1.326886   0.000000
     6  C    4.840422   2.906948   2.136956   1.908812   1.460799
     7  C    5.820669   3.685346   2.147644   2.908806   2.174049
     8  C    7.049673   4.869896   3.204057   4.045645   3.501319
     9  C    8.115755   5.905759   4.059502   5.173709   4.461015
    10  S    9.615503   7.367338   5.501673   6.608715   6.053338
    11  C    8.894663   6.589986   4.549944   6.056513   5.385448
    12  C    6.953843   4.610039   2.524946   4.238350   3.746916
    13  C    9.048326   6.716357   4.628752   6.366559   5.789879
    14  S   11.526012   9.236545   7.165780   8.828467   8.099130
    15  C   12.433935  10.219143   8.224407   9.645380   8.781660
    16  C   10.748236   8.512229   6.530199   7.895158   7.090069
    17  H    1.688540   3.989794   6.072640   4.480851   5.247961
    18  H    1.601201   3.782356   5.820417   4.561962   5.325387
    19  H    1.645952   3.914612   5.898330   4.468423   4.935730
    20  H    1.398206   1.667080   3.627587   1.892583   2.851474
    21  H    2.906149   2.100568   3.307289   1.435576   2.388804
    22  H    3.373011   1.688282   1.861275   1.858324   1.352828
    23  H    4.931887   3.141322   2.704356   2.084234   2.271887
    24  H    5.713350   3.554167   1.801960   3.128487   2.254690
    25  H    7.230213   5.125992   3.680674   4.213895   3.913509
    26  H    7.914985   5.741585   3.840428   5.196539   4.292027
    27  H   10.606047   8.260311   6.173237   7.928842   7.395206
    28  H   12.928440  10.706858   8.672474  10.356251   9.533415
    29  H   13.345108  11.199554   9.256089  10.608287   9.660498
    30  H   11.468308   9.336618   7.473094   8.614498   7.723459
                    6          7          8          9         10
     6  C    0.000000
     7  C    1.312666   0.000000
     8  C    2.319408   1.379655   0.000000
     9  C    3.482098   2.307609   1.305602   0.000000
    10  S    4.909795   3.881678   2.594801   1.718087   0.000000
    11  C    4.625548   3.356561   2.598439   1.533264   1.958102
    12  C    3.254133   2.142928   2.181644   2.223467   3.456880
    13  C    5.221822   3.979561   3.466818   2.643103   2.990859
    14  S    7.480732   6.185205   5.457368   4.258992   3.812524
    15  C    8.043728   6.788327   5.924926   4.626867   3.919324
    16  C    6.272604   5.031381   4.113645   2.822519   2.242842
    17  H    6.211835   7.308953   8.487057   9.610878  11.069442
    18  H    6.416245   7.362904   8.586520   9.639489  11.127976
    19  H    6.118568   7.094708   8.375125   9.392744  10.956224
    20  H    3.660494   4.765156   5.898738   7.047582   8.470539
    21  H    2.604573   3.866654   4.814882   6.049171   7.355552
    22  H    2.678637   3.026350   4.380869   5.165811   6.800379
    23  H    1.100752   2.160637   2.695979   3.987366   5.147684
    24  H    2.217118   1.304575   2.355402   2.790093   4.443210
    25  H    2.523536   2.069167   1.011624   2.031266   2.735994
    26  H    3.758171   2.454685   2.230796   1.427096   2.848765
    27  H    6.765523   5.532584   4.837512   3.877643   3.547342
    28  H    9.044069   7.732670   7.109748   5.872427   5.476067
    29  H    8.970069   7.735404   6.925423   5.628988   4.984964
    30  H    6.852019   5.706142   4.758916   3.532254   2.854878
                   11         12         13         14         15
    11  C    0.000000
    12  C    2.106501   0.000000
    13  C    1.216735   2.131167   0.000000
    14  S    2.887594   4.665763   2.610361   0.000000
    15  C    3.762357   5.809900   4.086054   2.023627   0.000000
    16  C    2.073331   4.157818   2.741525   2.058380   1.818579
    17  H   10.481054   8.574085  10.685870  13.162895  14.008018
    18  H   10.333069   8.329255  10.387236  12.889349  13.895257
    19  H   10.210896   8.335351  10.396280  12.791605  13.611558
    20  H    7.942628   6.078407   8.207899  10.688520  11.513827
    21  H    7.116299   5.451617   7.551704   9.964010  10.635641
    22  H    5.778888   3.936942   5.927139   8.283767   9.180974
    23  H    5.176882   3.869876   5.791037   8.064324   8.613196
    24  H    3.312875   1.746218   3.610729   5.891885   6.732335
    25  H    3.300000   2.973076   4.172808   6.072589   6.446731
    26  H    1.508876   1.897347   2.225166   3.915546   4.521709
    27  H    2.373576   3.700569   1.611211   1.618742   3.472387
    28  H    4.567876   6.246153   4.233933   1.795924   2.352517
    29  H    4.906549   6.914009   5.267075   3.132774   1.269786
    30  H    3.311462   5.291409   4.152636   3.215056   1.877731
                   16         17         18         19         20
    16  C    0.000000
    17  H   12.302659   0.000000
    18  H   12.229954   1.344993   0.000000
    19  H   11.976152   1.332507   1.534137   0.000000
    20  H    9.774103   2.610967   2.889806   2.839093   0.000000
    21  H    8.854118   3.910041   4.381582   4.203485   1.518320
    22  H    7.574640   5.013274   4.768437   4.510261   2.920712
    23  H    6.806835   6.141579   6.463001   6.281775   3.600066
    24  H    5.095135   7.323085   7.164456   6.938491   4.906613
    25  H    4.646055   8.559282   8.760957   8.593766   5.972399
    26  H    2.911332   9.496082   9.384595   9.102527   7.035599
    27  H    2.746622  12.244318  11.909887  11.975167   9.765406
    28  H    3.423510  14.582959  14.255556  14.105737  12.182361
    29  H    2.928115  14.901204  14.817862  14.442090  12.450061
    30  H    1.459174  12.954104  13.001586  12.607639  10.453624
                   21         22         23         24         25
    21  H    0.000000
    22  H    3.121671   0.000000
    23  H    2.262749   3.450721   0.000000
    24  H    4.386066   2.486667   3.185494   0.000000
    25  H    4.725082   4.932061   2.469856   3.217274   0.000000
    26  H    6.293387   4.678226   4.551261   2.223167   3.195534
    27  H    9.086951   7.516924   7.253163   5.221303   5.398119
    28  H   11.538625   9.611239   9.710608   7.308030   7.777050
    29  H   11.574217  10.066877   9.579723   7.669744   7.453521
    30  H    9.439743   8.350333   7.362168   5.937303   5.180020
                   26         27         28         29         30
    26  H    0.000000
    27  H    3.642136   0.000000
    28  H    5.336157   3.193797   0.000000
    29  H    5.458443   4.678175   2.788979   0.000000
    30  H    3.779249   4.169014   4.099586   2.432730   0.000000
 Stoichiometry    C14H14S2
 Framework group  C1[X(C14H14S2)]
 Deg. of freedom    84
 Full point group                 C1      NOp   1
 Largest Abelian subgroup         C1      NOp   1
 Largest concise Abelian subgroup C1      NOp   1
                         Standard orientation:                         
 ---------------------------------------------------------------------
 Center     Atomic      Atomic             Coordinates (Angstroms)
 Number     Number       Type             X           Y           Z
 ---------------------------------------------------------------------
      1          6           0        7.074999   -0.816346    0.286357
      2          6           0        4.781017   -0.759646   -0.359028
      3          6           0        2.703430   -0.887443   -0.549927
      4          6           0        4.255912    0.195949   -0.166569
      5          6           0        3.474062    0.078804    0.899084
      6          6           0        2.623742    1.085144    0.268077
      7          6           0        1.421957    0.567746    0.373451
      8          6           0        0.350729    1.252722   -0.162018
      9          6           0       -0.853706    0.914405    0.211444
     10         16           0       -2.175144    1.655295   -0.598930
     11          6           0       -1.785727   -0.225262   -0.216803
     12          6           0        0.179180   -0.875928   -0.608107
     13          6           0       -1.901346   -1.319879   -0.735351
     14         16           0       -4.431107   -1.376404   -0.094181
     15          6           0       -5.305216    0.010710    1.091953
     16          6           0       -3.602022    0.384541    0.575609
     17          1           0        8.679778   -0.294954    0.349614
     18          1           0        8.456320   -1.575677    0.004910
     19          1           0        8.265899   -0.988573    1.409412
     20          1           0        6.146645    0.158400   -0.091809
     21          1           0        5.164290    1.303414   -0.262745
     22          1           0        3.789021   -1.236666    0.921087
     23          1           0        2.969290    1.803175   -0.491320
     24          1           0        1.374528   -0.705555    0.653399
     25          1           0        0.525574    2.074571   -0.725381
     26          1           0       -0.799080   -0.322808    0.920615
     27          1           0       -3.381285   -1.605141   -1.304916
     28          1           0       -5.764776   -2.265605    0.715752
     29          1           0       -6.116328    0.153494    2.058425
     30          1           0       -4.111916    1.406574    1.483707
 ---------------------------------------------------------------------
 Rotational constants (GHZ):           1.4353342           0.1542454           0.1452640
 Standard basis: 6-31G(2df,p) (6D, 7F)
 There are   574 symmetry adapted cartesian basis functions of A   symmetry.
 There are   526 symmetry adapted basis functions of A   symmetry.
   526 basis functions,   850 primitive gaussians,   574 cartesian basis functions
    65 alpha electrons       65 beta electrons
       nuclear repulsion energy      1167.3542484334 Hartrees.
 NAtoms=   30 NActive=   30 NUniq=   30 SFac= 1.00D+00 NAtFMM=   60 NAOKFM=F Big=F
 Integral buffers will be    131072 words long.
 Raffenetti 2 integral format.
 Two-electron integral symmetry is turned on.
 One-electron integrals computed using PRISM.
 PrsmSu:  requested number of processors reduced to:  12 ShMem   1 Linda.
 NBasis=   526 RedAO= T EigKep=  2.55D-04  NBF=   526
 NBsUse=   526 1.00D-06 EigRej= -1.00D+00 NBFU=   526
 ExpMin= 1.17D-01 ExpMax= 2.19D+04 ExpMxC= 3.30D+03 IAcc=3 IRadAn=         5 AccDes= 0.00D+00
 Harris functional with IExCor=  402 and IRadAn=       5 diagonalized for initial guess.
 HarFok:  IExCor=  402 AccDes= 0.00D+00 IRadAn=         5 IDoV= 1 UseB2=F ITyADJ=14
 ICtDFT=  3500011 ScaDFX=  1.000000  1.000000  1.000000  1.000000
 FoFCou: FMM=F IPFlag=           0 FMFlag=      100000 FMFlg1=           0
         NFxFlg=           0 DoJE=T BraDBF=F KetDBF=T FulRan=T
         wScrn=  0.000000 ICntrl=       500 IOpCl=  0 I1Cent=   200000004 NGrid=           0
         NMat0=    1 NMatS0=      1 NMatT0=    0 NMatD0=    1 NMtDS0=    0 NMtDT0=    0
 Petite list used in FoFCou.
 Requested convergence on RMS density matrix=1.00D-08 within 128 cycles.
 Requested convergence on MAX density matrix=1.00D-06.
 Requested convergence on             energy=1.00D-06.
 No special actions if energy rises.
 Integral accuracy reduced to 1.0D-05 until final iterations.
 Rare condition: small coef for last iteration:  0.000D+00
 EnCoef did   100 forward-backward iterations
 EnCoef did   100 forward-backward iterations
 EnCoef did   100 forward-backward iterations
 EnCoef did     3 forward-backward iterations
 EnCoef did     5 forward-backward iterations
 EnCoef did     4 forward-backward iterations
 EnCoef did     6 forward-backward iterations
 EnCoef did     4 forward-backward iterations
 Initial convergence to 1.7D-05 achieved.  Increase integral accuracy.
 SCF Done:  E(RB3LYP) =  -1335.91746843     A.U. after   40 cycles
            NFock= 40  Conv=0.90D-08     -V/T= 2.0036

 **********************************************************************

            Population analysis using the SCF density.

 **********************************************************************

 Orbital symmetries:
       Occupied  (A) (A) (A) (A) (A) (A) (A) (A) (A) (A) (A) (A)
                 (A) (A) (A) (A) (A) (A) (A) (A) (A) (A) (A) (A)
                 (A) (A) (A) (A) (A) (A) (A) (A) (A) (A) (A) (A)
                 (A) (A) (A) (A) (A) (A) (A) (A) (A) (A) (A) (A)
                 (A) (A) (A) (A) (A) (A) (A) (A) (A) (A) (A) (A)
                 (A) (A) (A) (A) (A)
       Virtual   (A) (A) (A) (A) (A) (A) (A) (A) (A) (A) (A) (A)
                 (A) (A) (A) (A) (A) (A) (A) (A) (A) (A) (A) (A)
                 (A) (A) (A) (A) (A) (A) (A) (A) (A) (A) (A) (A)
                 (A) (A) (A) (A) (A) (A) (A) (A) (A) (A) (A) (A)
                 (A) (A) (A) (A) (A) (A) (A) (A) (A) (A) (A) (A)
                 (A) (A) (A) (A) (A) (A) (A) (A) (A) (A) (A) (A)
                 (A) (A) (A) (A) (A) (A) (A) (A) (A) (A) (A) (A)
                 (A) (A) (A) (A) (A) (A) (A) (A) (A) (A) (A) (A)
                 (A) (A) (A) (A) (A) (A) (A) (A) (A) (A) (A) (A)
                 (A) (A) (A) (A) (A) (A) (A) (A) (A) (A) (A) (A)
                 (A) (A) (A) (A) (A) (A) (A) (A) (A) (A) (A) (A)
                 (A) (A) (A) (A) (A) (A) (A) (A) (A) (A) (A) (A)
                 (A) (A) (A) (A) (A) (A) (A) (A) (A) (A) (A) (A)
                 (A) (A) (A) (A) (A) (A) (A) (A) (A) (A) (A) (A)
                 (A) (A) (A) (A) (A) (A) (A) (A) (A) (A) (A) (A)
                 (A) (A) (A) (A) (A) (A) (A) (A) (A) (A) (A) (A)
                 (A) (A) (A) (A) (A) (A) (A) (A) (A) (A) (A) (A)
                 (A) (A) (A) (A) (A) (A) (A) (A) (A) (A) (A) (A)
                 (A) (A) (A) (A) (A) (A) (A) (A) (A) (A) (A) (A)
                 (A) (A) (A) (A) (A) (A) (A) (A) (A) (A) (A) (A)
                 (A) (A) (A) (A) (A) (A) (A) (A) (A) (A) (A) (A)
                 (A) (A) (A) (A) (A) (A) (A) (A) (A) (A) (A) (A)
                 (A) (A) (A) (A) (A) (A) (A) (A) (A) (A) (A) (A)
                 (A) (A) (A) (A) (A) (A) (A) (A) (A) (A) (A) (A)
                 (A) (A) (A) (A) (A) (A) (A) (A) (A) (A) (A) (A)
                 (A) (A) (A) (A) (A) (A) (A) (A) (A) (A) (A) (A)
                 (A) (A) (A) (A) (A) (A) (A) (A) (A) (A) (A) (A)
                 (A) (A) (A) (A) (A) (A) (A) (A) (A) (A) (A) (A)
                 (A) (A) (A) (A) (A) (A) (A) (A) (A) (A) (A) (A)
                 (A) (A) (A) (A) (A) (A) (A) (A) (A) (A) (A) (A)
                 (A) (A) (A) (A) (A) (A) (A) (A) (A) (A) (A) (A)
                 (A) (A) (A) (A) (A) (A) (A) (A) (A) (A) (A) (A)
                 (A) (A) (A) (A) (A) (A) (A) (A) (A) (A) (A) (A)
                 (A) (A) (A) (A) (A) (A) (A) (A) (A) (A) (A) (A)
                 (A) (A) (A) (A) (A) (A) (A) (A) (A) (A) (A) (A)
                 (A) (A) (A) (A) (A) (A) (A) (A) (A) (A) (A) (A)
                 (A) (A) (A) (A) (A) (A) (A) (A) (A) (A) (A) (A)
                 (A) (A) (A) (A) (A) (A) (A) (A) (A) (A) (A) (A)
                 (A) (A) (A) (A) (A)
 The electronic state is 1-A.
 Alpha  occ. eigenvalues --  -88.96099 -88.92228 -10.31890 -10.31258 -10.30741
 Alpha  occ. eigenvalues --  -10.29140 -10.26939 -10.26908 -10.26579 -10.24695
 Alpha  occ. eigenvalues --  -10.24288 -10.23484 -10.22839 -10.22776 -10.22136
 Alpha  occ. eigenvalues --  -10.20713  -8.01483  -7.98514  -5.97949  -5.97788
 Alpha  occ. eigenvalues --   -5.96988  -5.94895  -5.94552  -5.94216  -0.99696
 Alpha  occ. eigenvalues --   -0.94787  -0.88030  -0.82173  -0.79447  -0.78118
 Alpha  occ. eigenvalues --   -0.70869  -0.67686  -0.66089  -0.64841  -0.60154
 Alpha  occ. eigenvalues --   -0.59337  -0.58122  -0.57505  -0.55713  -0.51980
 Alpha  occ. eigenvalues --   -0.50883  -0.48085  -0.46977  -0.46588  -0.43828
 Alpha  occ. eigenvalues --   -0.43388  -0.41688  -0.40503  -0.39964  -0.39134
 Alpha  occ. eigenvalues --   -0.35766  -0.34876  -0.33371  -0.31959  -0.30108
 Alpha  occ. eigenvalues --   -0.28331  -0.28005  -0.25690  -0.24298  -0.24129
 Alpha  occ. eigenvalues --   -0.23159  -0.22183  -0.21417  -0.19182  -0.17552
 Alpha virt. eigenvalues --   -0.14853  -0.13765  -0.12954  -0.11119  -0.10703
 Alpha virt. eigenvalues --   -0.08402  -0.07771  -0.06698  -0.05439  -0.04956
 Alpha virt. eigenvalues --   -0.02372  -0.01638  -0.00421   0.01168   0.01355
 Alpha virt. eigenvalues --    0.02132   0.02546   0.03640   0.04573   0.05664
 Alpha virt. eigenvalues --    0.07211   0.08198   0.08755   0.11695   0.12337
 Alpha virt. eigenvalues --    0.13261   0.14311   0.14875   0.18211   0.18433
 Alpha virt. eigenvalues --    0.21266   0.23883   0.25318   0.25873   0.26582
 Alpha virt. eigenvalues --    0.28581   0.29653   0.30607   0.32033   0.32215
 Alpha virt. eigenvalues --    0.34187   0.34923   0.35898   0.37230   0.37530
 Alpha virt. eigenvalues --    0.38434   0.39676   0.40474   0.41312   0.42919
 Alpha virt. eigenvalues --    0.44399   0.44659   0.45528   0.46767   0.47231
 Alpha virt. eigenvalues --    0.47923   0.48972   0.50152   0.50452   0.50570
 Alpha virt. eigenvalues --    0.50749   0.51369   0.52738   0.53401   0.54225
 Alpha virt. eigenvalues --    0.54872   0.55260   0.57018   0.57521   0.57954
 Alpha virt. eigenvalues --    0.58395   0.59059   0.59456   0.60283   0.61010
 Alpha virt. eigenvalues --    0.62009   0.62902   0.64106   0.64497   0.64919
 Alpha virt. eigenvalues --    0.65531   0.66813   0.67179   0.67839   0.68744
 Alpha virt. eigenvalues --    0.69112   0.69425   0.69942   0.70957   0.71172
 Alpha virt. eigenvalues --    0.71608   0.72699   0.73021   0.73608   0.73928
 Alpha virt. eigenvalues --    0.74898   0.75543   0.76372   0.77375   0.78034
 Alpha virt. eigenvalues --    0.79157   0.79559   0.80252   0.81680   0.83236
 Alpha virt. eigenvalues --    0.84839   0.85325   0.86240   0.86674   0.86937
 Alpha virt. eigenvalues --    0.87552   0.88247   0.88673   0.88751   0.89319
 Alpha virt. eigenvalues --    0.90585   0.91094   0.91664   0.93008   0.93417
 Alpha virt. eigenvalues --    0.93705   0.94655   0.96162   0.97378   0.97600
 Alpha virt. eigenvalues --    0.98619   0.99953   1.01855   1.03012   1.05450
 Alpha virt. eigenvalues --    1.05590   1.07764   1.09132   1.09839   1.10407
 Alpha virt. eigenvalues --    1.11266   1.13277   1.13921   1.15563   1.16177
 Alpha virt. eigenvalues --    1.18818   1.19146   1.19616   1.20170   1.24105
 Alpha virt. eigenvalues --    1.26623   1.26916   1.28230   1.29698   1.30268
 Alpha virt. eigenvalues --    1.32607   1.32987   1.33284   1.34644   1.36164
 Alpha virt. eigenvalues --    1.36757   1.38156   1.38834   1.40442   1.42128
 Alpha virt. eigenvalues --    1.43351   1.45429   1.46473   1.48321   1.48704
 Alpha virt. eigenvalues --    1.50574   1.51789   1.53949   1.56213   1.56438
 Alpha virt. eigenvalues --    1.56578   1.58358   1.59351   1.59744   1.60656
 Alpha virt. eigenvalues --    1.62323   1.62934   1.63745   1.64241   1.65518
 Alpha virt. eigenvalues --    1.66044   1.66802   1.68058   1.68863   1.71813
 Alpha virt. eigenvalues --    1.72562   1.73202   1.73678   1.75011   1.75870
 Alpha virt. eigenvalues --    1.76598   1.77501   1.78341   1.80478   1.81814
 Alpha virt. eigenvalues --    1.83532   1.84102   1.85255   1.86924   1.87832
 Alpha virt. eigenvalues --    1.88031   1.89849   1.91156   1.93258   1.95408
 Alpha virt. eigenvalues --    1.96061   1.96891   1.98575   1.99330   2.02784
 Alpha virt. eigenvalues --    2.03898   2.04457   2.06396   2.07751   2.08126
 Alpha virt. eigenvalues --    2.09722   2.10664   2.11703   2.15259   2.16483
 Alpha virt. eigenvalues --    2.17908   2.19132   2.20198   2.20876   2.22482
 Alpha virt. eigenvalues --    2.23419   2.24039   2.26051   2.26525   2.27984
 Alpha virt. eigenvalues --    2.29058   2.29787   2.30248   2.32420   2.33441
 Alpha virt. eigenvalues --    2.34444   2.36149   2.37025   2.39008   2.39662
 Alpha virt. eigenvalues --    2.40221   2.41115   2.41783   2.43131   2.44662
 Alpha virt. eigenvalues --    2.45750   2.47187   2.48208   2.49333   2.51502
 Alpha virt. eigenvalues --    2.52861   2.53901   2.56769   2.57767   2.59119
 Alpha virt. eigenvalues --    2.61145   2.63341   2.64468   2.65260   2.66327
 Alpha virt. eigenvalues --    2.66682   2.68465   2.69515   2.70671   2.71098
 Alpha virt. eigenvalues --    2.74032   2.74547   2.76076   2.76912   2.77707
 Alpha virt. eigenvalues --    2.77905   2.79825   2.81258   2.82659   2.84014
 Alpha virt. eigenvalues --    2.86181   2.87659   2.88225   2.89423   2.90196
 Alpha virt. eigenvalues --    2.90973   2.92278   2.93254   2.93769   2.95394
 Alpha virt. eigenvalues --    2.95627   2.97578   2.97840   3.00596   3.00950
 Alpha virt. eigenvalues --    3.02009   3.02536   3.04256   3.05681   3.07126
 Alpha virt. eigenvalues --    3.07864   3.08434   3.09721   3.11326   3.11778
 Alpha virt. eigenvalues --    3.13111   3.14381   3.15301   3.17109   3.17419
 Alpha virt. eigenvalues --    3.18207   3.19311   3.20444   3.22200   3.23816
 Alpha virt. eigenvalues --    3.25325   3.26077   3.27109   3.27698   3.29328
 Alpha virt. eigenvalues --    3.29937   3.29982   3.31166   3.33252   3.35397
 Alpha virt. eigenvalues --    3.36219   3.37414   3.40256   3.42013   3.42126
 Alpha virt. eigenvalues --    3.43140   3.44196   3.46054   3.47476   3.47797
 Alpha virt. eigenvalues --    3.49247   3.51265   3.52395   3.54704   3.56089
 Alpha virt. eigenvalues --    3.56533   3.60240   3.60860   3.61716   3.63376
 Alpha virt. eigenvalues --    3.65061   3.65999   3.69127   3.69758   3.70063
 Alpha virt. eigenvalues --    3.72700   3.75357   3.78141   3.79023   3.80970
 Alpha virt. eigenvalues --    3.83461   3.85733   3.86201   3.90006   3.91205
 Alpha virt. eigenvalues --    3.92089   3.96499   3.98207   3.99654   4.03218
 Alpha virt. eigenvalues --    4.03635   4.05533   4.07307   4.10855   4.11833
 Alpha virt. eigenvalues --    4.13964   4.20687   4.23644   4.25201   4.25348
 Alpha virt. eigenvalues --    4.26163   4.29518   4.31398   4.32988   4.34325
 Alpha virt. eigenvalues --    4.35682   4.36226   4.37503   4.39385   4.41328
 Alpha virt. eigenvalues --    4.43021   4.44104   4.46167   4.47586   4.50013
 Alpha virt. eigenvalues --    4.51728   4.52093   4.54144   4.54973   4.56417
 Alpha virt. eigenvalues --    4.57559   4.59110   4.60620   4.62109   4.62482
 Alpha virt. eigenvalues --    4.63712   4.65489   4.66507   4.68106   4.69103
 Alpha virt. eigenvalues --    4.70000   4.71071   4.72214   4.75291   4.75664
 Alpha virt. eigenvalues --    4.76798   4.78060   4.80719   4.81896   4.83133
 Alpha virt. eigenvalues --    4.84011   4.88103   4.90700   4.92955   4.94236
 Alpha virt. eigenvalues --    4.96005   4.96195   4.99291   5.00376   5.02660
 Alpha virt. eigenvalues --    5.05636   5.06984   5.13354   5.13900   5.16690
 Alpha virt. eigenvalues --    5.18081   5.22356   5.25452   5.29677   5.30199
 Alpha virt. eigenvalues --    5.32769   5.35828   5.38840   5.42830   5.47483
 Alpha virt. eigenvalues --    5.49054   5.56555   5.57485   5.63815   5.74552
 Alpha virt. eigenvalues --    5.79928   5.84096   5.96939   6.02464   6.13412
 Alpha virt. eigenvalues --    6.30672   6.59674  10.10829  10.21333  10.25142
 Alpha virt. eigenvalues --   10.40099  10.59159  10.79834  10.88783  11.11791
 Alpha virt. eigenvalues --   11.40770  11.48411  12.00291  12.07721  12.18227
 Alpha virt. eigenvalues --   12.33885
          Condensed to atoms (all electrons):
               1          2          3          4          5          6
     1  C    5.936190  -0.007241   0.000079  -0.014218   0.001108   0.000086
     2  C   -0.007241   5.621683   0.049524   0.651276  -0.081697  -0.017164
     3  C    0.000079   0.049524   6.064795   0.072286   0.036373   0.017667
     4  C   -0.014218   0.651276   0.072286   4.716049   0.306616  -0.047635
     5  C    0.001108  -0.081697   0.036373   0.306616   5.491735   0.400546
     6  C    0.000086  -0.017164   0.017667  -0.047635   0.400546   5.143469
     7  C   -0.000000   0.003403  -0.097179  -0.004713  -0.045736   0.407749
     8  C    0.000000   0.000084   0.004407  -0.000441   0.001473  -0.041138
     9  C   -0.000000  -0.000008   0.001230  -0.000021  -0.000346  -0.000948
    10  S   -0.000000   0.000001  -0.000256  -0.000004   0.000018  -0.000474
    11  C    0.000000  -0.000000   0.000937   0.000003  -0.000014  -0.000008
    12  C    0.000000   0.000043  -0.000613   0.000355   0.001195   0.000007
    13  C   -0.000000   0.000000   0.000091  -0.000001  -0.000008  -0.000018
    14  S   -0.000000   0.000000   0.000000  -0.000000  -0.000000  -0.000000
    15  C    0.000000  -0.000000   0.000000   0.000000  -0.000000   0.000000
    16  C   -0.000000   0.000000  -0.000000   0.000000   0.000000  -0.000001
    17  H   -0.111165  -0.000021  -0.000001  -0.000271   0.000013  -0.000000
    18  H    0.195548   0.003411  -0.000003   0.000241   0.000003  -0.000000
    19  H    0.155508   0.001422  -0.000001   0.000396  -0.000052   0.000003
    20  H    0.175560   0.001759   0.001194  -0.046087  -0.000686  -0.001201
    21  H   -0.003822  -0.108960  -0.002486   0.305524  -0.029326  -0.010946
    22  H    0.000714   0.025700   0.006013  -0.020806   0.246090  -0.003521
    23  H    0.000016   0.003001   0.004342   0.013280  -0.040455   0.351910
    24  H    0.000001   0.000715  -0.013928   0.003675  -0.018262  -0.027099
    25  H    0.000000   0.000024  -0.000197   0.000198   0.000150  -0.003831
    26  H   -0.000000   0.000005  -0.001808  -0.000022  -0.000269   0.001571
    27  H    0.000000  -0.000000   0.000000   0.000000   0.000000   0.000000
    28  H    0.000000  -0.000000  -0.000000  -0.000000   0.000000   0.000000
    29  H    0.000000   0.000000  -0.000000  -0.000000  -0.000000  -0.000000
    30  H   -0.000000   0.000000  -0.000000  -0.000000   0.000000  -0.000000
               7          8          9         10         11         12
     1  C   -0.000000   0.000000  -0.000000  -0.000000   0.000000   0.000000
     2  C    0.003403   0.000084  -0.000008   0.000001  -0.000000   0.000043
     3  C   -0.097179   0.004407   0.001230  -0.000256   0.000937  -0.000613
     4  C   -0.004713  -0.000441  -0.000021  -0.000004   0.000003   0.000355
     5  C   -0.045736   0.001473  -0.000346   0.000018  -0.000014   0.001195
     6  C    0.407749  -0.041138  -0.000948  -0.000474  -0.000008   0.000007
     7  C    4.994634   0.526228   0.006100   0.002119  -0.001398  -0.097021
     8  C    0.526228   5.047481   0.322986  -0.059500   0.001926  -0.023954
     9  C    0.006100   0.322986   5.216165   0.253540   0.260345  -0.003176
    10  S    0.002119  -0.059500   0.253540  15.973384   0.008073  -0.006905
    11  C   -0.001398   0.001926   0.260345   0.008073   4.788002   0.000771
    12  C   -0.097021  -0.023954  -0.003176  -0.006905   0.000771   6.174429
    13  C    0.002163  -0.020756  -0.064934  -0.031244   0.698684   0.067099
    14  S   -0.000003  -0.000089  -0.000490   0.011242  -0.047879   0.000089
    15  C    0.000000  -0.000016   0.000041   0.002964   0.002111   0.000002
    16  C   -0.000082   0.004025  -0.018106  -0.023475   0.069337   0.000454
    17  H   -0.000000  -0.000000  -0.000000  -0.000000   0.000000  -0.000000
    18  H    0.000000  -0.000000   0.000000  -0.000000   0.000000  -0.000000
    19  H   -0.000000   0.000000  -0.000000  -0.000000   0.000000  -0.000000
    20  H   -0.000119  -0.000001  -0.000000   0.000000  -0.000000  -0.000000
    21  H    0.003544  -0.000140  -0.000002   0.000000  -0.000000   0.000010
    22  H    0.002547  -0.000026   0.000014   0.000001  -0.000004   0.000182
    23  H   -0.029850  -0.002004   0.000217  -0.000053   0.000043  -0.000324
    24  H    0.308378  -0.034665  -0.005155   0.000228  -0.001807   0.019798
    25  H   -0.040914   0.387788  -0.049500  -0.002918   0.003341  -0.000967
    26  H   -0.024103  -0.047003   0.184703   0.012863  -0.095929   0.082633
    27  H   -0.000010  -0.000127   0.002469  -0.010235   0.006679   0.000138
    28  H    0.000000  -0.000000   0.000000  -0.000369   0.000104   0.000001
    29  H   -0.000000  -0.000000   0.000005  -0.000401  -0.000173   0.000000
    30  H   -0.000011   0.000062   0.003485  -0.005703  -0.002255  -0.000065
              13         14         15         16         17         18
     1  C   -0.000000  -0.000000   0.000000  -0.000000  -0.111165   0.195548
     2  C    0.000000   0.000000  -0.000000   0.000000  -0.000021   0.003411
     3  C    0.000091   0.000000   0.000000  -0.000000  -0.000001  -0.000003
     4  C   -0.000001  -0.000000   0.000000   0.000000  -0.000271   0.000241
     5  C   -0.000008  -0.000000  -0.000000   0.000000   0.000013   0.000003
     6  C   -0.000018  -0.000000   0.000000  -0.000001  -0.000000  -0.000000
     7  C    0.002163  -0.000003   0.000000  -0.000082  -0.000000   0.000000
     8  C   -0.020756  -0.000089  -0.000016   0.004025  -0.000000  -0.000000
     9  C   -0.064934  -0.000490   0.000041  -0.018106  -0.000000   0.000000
    10  S   -0.031244   0.011242   0.002964  -0.023475  -0.000000  -0.000000
    11  C    0.698684  -0.047879   0.002111   0.069337   0.000000   0.000000
    12  C    0.067099   0.000089   0.000002   0.000454  -0.000000  -0.000000
    13  C    5.717024  -0.036054   0.001877  -0.042882   0.000000  -0.000000
    14  S   -0.036054  15.843037   0.107776  -0.059418  -0.000000  -0.000000
    15  C    0.001877   0.107776   5.751046   0.108154   0.000000   0.000000
    16  C   -0.042882  -0.059418   0.108154   6.002253   0.000000  -0.000000
    17  H    0.000000  -0.000000   0.000000   0.000000   0.969398   0.073483
    18  H   -0.000000  -0.000000   0.000000  -0.000000   0.073483   0.762424
    19  H    0.000000  -0.000000   0.000000  -0.000000   0.081678  -0.134969
    20  H   -0.000000  -0.000000   0.000000  -0.000000   0.032631  -0.008800
    21  H   -0.000000   0.000000  -0.000000   0.000000   0.000103  -0.000021
    22  H   -0.000000   0.000000  -0.000000  -0.000000  -0.000010   0.000007
    23  H    0.000001   0.000000  -0.000000   0.000000  -0.000000  -0.000000
    24  H    0.000638  -0.000002   0.000000  -0.000012  -0.000000   0.000000
    25  H   -0.000140  -0.000001  -0.000000   0.000052   0.000000  -0.000000
    26  H   -0.000071  -0.001253  -0.000102  -0.001441  -0.000000  -0.000000
    27  H    0.142529   0.006117   0.007024  -0.002715   0.000000   0.000000
    28  H    0.000330   0.083191  -0.016769   0.017341   0.000000   0.000000
    29  H   -0.000053   0.000241   0.219697  -0.005311   0.000000   0.000000
    30  H    0.000469   0.013084   0.026453   0.107049  -0.000000  -0.000000
              19         20         21         22         23         24
     1  C    0.155508   0.175560  -0.003822   0.000714   0.000016   0.000001
     2  C    0.001422   0.001759  -0.108960   0.025700   0.003001   0.000715
     3  C   -0.000001   0.001194  -0.002486   0.006013   0.004342  -0.013928
     4  C    0.000396  -0.046087   0.305524  -0.020806   0.013280   0.003675
     5  C   -0.000052  -0.000686  -0.029326   0.246090  -0.040455  -0.018262
     6  C    0.000003  -0.001201  -0.010946  -0.003521   0.351910  -0.027099
     7  C   -0.000000  -0.000119   0.003544   0.002547  -0.029850   0.308378
     8  C    0.000000  -0.000001  -0.000140  -0.000026  -0.002004  -0.034665
     9  C   -0.000000  -0.000000  -0.000002   0.000014   0.000217  -0.005155
    10  S   -0.000000   0.000000   0.000000   0.000001  -0.000053   0.000228
    11  C    0.000000  -0.000000  -0.000000  -0.000004   0.000043  -0.001807
    12  C   -0.000000  -0.000000   0.000010   0.000182  -0.000324   0.019798
    13  C    0.000000  -0.000000  -0.000000  -0.000000   0.000001   0.000638
    14  S   -0.000000  -0.000000   0.000000   0.000000   0.000000  -0.000002
    15  C    0.000000   0.000000  -0.000000  -0.000000  -0.000000   0.000000
    16  C   -0.000000  -0.000000   0.000000  -0.000000   0.000000  -0.000012
    17  H    0.081678   0.032631   0.000103  -0.000010  -0.000000  -0.000000
    18  H   -0.134969  -0.008800  -0.000021   0.000007  -0.000000   0.000000
    19  H    0.874738  -0.006724  -0.000023   0.000048   0.000000  -0.000000
    20  H   -0.006724   0.693568   0.022312  -0.002300  -0.000154  -0.000011
    21  H   -0.000023   0.022312   0.734461   0.006515  -0.004659  -0.000002
    22  H    0.000048  -0.002300   0.006515   0.463861   0.001193  -0.000328
    23  H    0.000000  -0.000154  -0.004659   0.001193   0.514452   0.002753
    24  H   -0.000000  -0.000011  -0.000002  -0.000328   0.002753   0.504592
    25  H   -0.000000   0.000000   0.000002  -0.000005   0.003418   0.002708
    26  H   -0.000000   0.000000   0.000000   0.000025  -0.000097   0.011773
    27  H    0.000000   0.000000  -0.000000  -0.000000  -0.000000   0.000005
    28  H    0.000000   0.000000  -0.000000  -0.000000  -0.000000   0.000000
    29  H    0.000000  -0.000000   0.000000   0.000000  -0.000000   0.000000
    30  H   -0.000000  -0.000000   0.000000   0.000000  -0.000000  -0.000000
              25         26         27         28         29         30
     1  C    0.000000  -0.000000   0.000000   0.000000   0.000000  -0.000000
     2  C    0.000024   0.000005  -0.000000  -0.000000   0.000000   0.000000
     3  C   -0.000197  -0.001808   0.000000  -0.000000  -0.000000  -0.000000
     4  C    0.000198  -0.000022   0.000000  -0.000000  -0.000000  -0.000000
     5  C    0.000150  -0.000269   0.000000   0.000000  -0.000000   0.000000
     6  C   -0.003831   0.001571   0.000000   0.000000  -0.000000  -0.000000
     7  C   -0.040914  -0.024103  -0.000010   0.000000  -0.000000  -0.000011
     8  C    0.387788  -0.047003  -0.000127  -0.000000  -0.000000   0.000062
     9  C   -0.049500   0.184703   0.002469   0.000000   0.000005   0.003485
    10  S   -0.002918   0.012863  -0.010235  -0.000369  -0.000401  -0.005703
    11  C    0.003341  -0.095929   0.006679   0.000104  -0.000173  -0.002255
    12  C   -0.000967   0.082633   0.000138   0.000001   0.000000  -0.000065
    13  C   -0.000140  -0.000071   0.142529   0.000330  -0.000053   0.000469
    14  S   -0.000001  -0.001253   0.006117   0.083191   0.000241   0.013084
    15  C   -0.000000  -0.000102   0.007024  -0.016769   0.219697   0.026453
    16  C    0.000052  -0.001441  -0.002715   0.017341  -0.005311   0.107049
    17  H    0.000000  -0.000000   0.000000   0.000000   0.000000  -0.000000
    18  H   -0.000000  -0.000000   0.000000   0.000000   0.000000  -0.000000
    19  H   -0.000000  -0.000000   0.000000   0.000000   0.000000  -0.000000
    20  H    0.000000   0.000000   0.000000   0.000000  -0.000000  -0.000000
    21  H    0.000002   0.000000  -0.000000  -0.000000   0.000000   0.000000
    22  H   -0.000005   0.000025  -0.000000  -0.000000   0.000000   0.000000
    23  H    0.003418  -0.000097  -0.000000  -0.000000  -0.000000  -0.000000
    24  H    0.002708   0.011773   0.000005   0.000000   0.000000  -0.000000
    25  H    0.577552   0.001958   0.000002   0.000000   0.000000  -0.000001
    26  H    0.001958   0.626373   0.000265   0.000016   0.000010   0.000379
    27  H    0.000002   0.000265   0.721127   0.005805  -0.000145  -0.000513
    28  H    0.000000   0.000016   0.005805   0.941943   0.000733  -0.001358
    29  H    0.000000   0.000010  -0.000145   0.000733   0.625556   0.000766
    30  H   -0.000001   0.000379  -0.000513  -0.001358   0.000766   0.669821
 Mulliken charges:
               1
     1  C   -0.328365
     2  C   -0.146958
     3  C   -0.142467
     4  C    0.064320
     5  C   -0.268469
     6  C   -0.169022
     7  C    0.084273
     8  C   -0.066599
     9  C   -0.108614
    10  S   -0.122896
    11  C    0.309109
    12  C   -0.214183
    13  C   -0.434744
    14  S    0.080410
    15  C   -0.210258
    16  C   -0.155221
    17  H   -0.045838
    18  H    0.108676
    19  H    0.027976
    20  H    0.139058
    21  H    0.087915
    22  H    0.274090
    23  H    0.182970
    24  H    0.246007
    25  H    0.121283
    26  H    0.249523
    27  H    0.121582
    28  H   -0.030968
    29  H    0.159075
    30  H    0.188337
 Sum of Mulliken charges =  -0.00000
 Mulliken charges with hydrogens summed into heavy atoms:
               1
     1  C   -0.098493
     2  C   -0.146958
     3  C   -0.142467
     4  C    0.152235
     5  C    0.005621
     6  C    0.013947
     7  C    0.330280
     8  C    0.054684
     9  C    0.140908
    10  S   -0.122896
    11  C    0.309109
    12  C   -0.214183
    13  C   -0.313162
    14  S    0.049442
    15  C   -0.051183
    16  C    0.033116
 Electronic spatial extent (au):  <R**2>=           7405.2815
 Charge=             -0.0000 electrons
 Dipole moment (field-independent basis, Debye):
    X=             -4.2073    Y=              5.0615    Z=              1.5411  Tot=              6.7598
 Quadrupole moment (field-independent basis, Debye-Ang):
   XX=           -126.5030   YY=           -116.5546   ZZ=           -118.6158
   XY=              6.1360   XZ=            -10.9000   YZ=             -2.4725
 Traceless Quadrupole moment (field-independent basis, Debye-Ang):
   XX=             -5.9452   YY=              4.0032   ZZ=              1.9420
   XY=              6.1360   XZ=            -10.9000   YZ=             -2.4725
 Octapole moment (field-independent basis, Debye-Ang**2):
  XXX=           -292.7419  YYY=             36.5797  ZZZ=              0.2895  XYY=             -6.4692
  XXY=             67.3904  XXZ=             26.9205  XZZ=            -51.0360  YZZ=              9.6698
  YYZ=             -1.8253  XYZ=            -22.8367
 Hexadecapole moment (field-independent basis, Debye-Ang**3):
 XXXX=         -10679.8426 YYYY=           -918.6922 ZZZZ=           -382.4481 XXXY=             14.0326
 XXXZ=           -307.4243 YYYX=             37.5147 YYYZ=            -12.1895 ZZZX=            -58.7995
 ZZZY=             -4.1509 XXYY=          -1871.0490 XXZZ=          -1755.6006 YYZZ=           -213.4617
 XXYZ=             -2.1196 YYXZ=             16.5857 ZZXY=              5.1535
 N-N= 1.167354248433D+03 E-N=-5.475679761159D+03  KE= 1.331188725234D+03
 PrsmSu:  requested number of processors reduced to:  13 ShMem   1 Linda.
 Calling FoFJK, ICntrl=      2127 FMM=F ISym2X=0 I1Cent= 0 IOpClX= 0 NMat=1 NMatS=1 NMatT=0.
 ***** Axes restored to original set *****
 -------------------------------------------------------------------
 Center     Atomic                   Forces (Hartrees/Bohr)
 Number     Number              X              Y              Z
 -------------------------------------------------------------------
      1        6          -0.091830450   -0.019642906   -0.004443680
      2        6          -0.372306612    0.319434315    0.107118612
      3        6          -0.048578058   -0.014403812   -0.046714145
      4        6           0.275426562   -0.217075819   -0.308889267
      5        6          -0.025184459   -0.049711719    0.093718296
      6        6          -0.037344968   -0.006481403    0.002272053
      7        6           0.059737126    0.012696569    0.067267948
      8        6          -0.102641471    0.002995393   -0.013136785
      9        6           0.044327832   -0.004994117    0.134344454
     10       16           0.061170690   -0.009859701   -0.015607797
     11        6           0.033504414   -0.087807543   -0.058083077
     12        6           0.032757121    0.028353799    0.041851502
     13        6          -0.036336507    0.158148331    0.057878647
     14       16           0.046447314   -0.064023093    0.080490153
     15        6          -0.006795656   -0.008975713   -0.019141028
     16        6           0.060598256   -0.037749993    0.032317643
     17        1          -0.003053942    0.004738457    0.021539479
     18        1           0.081400966    0.014749531   -0.011026129
     19        1           0.070619404   -0.003555460   -0.002559798
     20        1          -0.085999494   -0.003873812   -0.018157823
     21        1           0.026352480    0.031121737    0.051827554
     22        1           0.049234284   -0.044052134    0.010158288
     23        1          -0.000488538   -0.018350784    0.008384861
     24        1           0.057848915   -0.050009719   -0.031134018
     25        1           0.028419911   -0.000064165   -0.055823137
     26        1           0.006744298   -0.017855802   -0.032720420
     27        1          -0.039620496   -0.010292207   -0.031843684
     28        1          -0.017546766    0.018323138   -0.027308171
     29        1          -0.021783334    0.036306148   -0.043501247
     30        1          -0.045078821    0.041912486    0.010920716
 -------------------------------------------------------------------
 Cartesian Forces:  Max     0.372306612 RMS     0.085550228

 GradGradGradGradGradGradGradGradGradGradGradGradGradGradGradGradGradGrad
 Berny optimization.
 FormGI is forming the generalized inverse of G from B-inverse, IUseBI=4.
 Internal  Forces:  Max     0.431771615 RMS     0.048834503
 Search for a local minimum.
 Step number   1 out of a maximum of  180
 All quantities printed in internal units (Hartrees-Bohrs-Radians)
 Mixed Optimization -- RFO/linear search
 Second derivative matrix not updated -- first step.
 ITU=  0
     Eigenvalues ---    0.00230   0.00230   0.00230   0.00230   0.00236
     Eigenvalues ---    0.00404   0.00572   0.01192   0.01626   0.01946
     Eigenvalues ---    0.02176   0.02313   0.02763   0.02791   0.02975
     Eigenvalues ---    0.03094   0.03510   0.03673   0.03841   0.04488
     Eigenvalues ---    0.04513   0.04855   0.05124   0.05653   0.05730
     Eigenvalues ---    0.05814   0.06176   0.06357   0.06930   0.07011
     Eigenvalues ---    0.07270   0.07592   0.07974   0.08067   0.08487
     Eigenvalues ---    0.08846   0.08881   0.08967   0.09090   0.09213
     Eigenvalues ---    0.09916   0.10425   0.10442   0.10742   0.11117
     Eigenvalues ---    0.11763   0.12396   0.12459   0.12559   0.13156
     Eigenvalues ---    0.13254   0.13772   0.13892   0.14253   0.14363
     Eigenvalues ---    0.14441   0.14630   0.14899   0.15307   0.15768
     Eigenvalues ---    0.15771   0.15833   0.15991   0.16000   0.16000
     Eigenvalues ---    0.16172   0.17731   0.18212   0.18385   0.19525
     Eigenvalues ---    0.20200   0.20265   0.23898   0.25000   0.30657
     Eigenvalues ---    0.33501   0.33599   0.45702   0.45735   0.51965
     Eigenvalues ---    0.57125   0.60954   0.96845   1.45170
 RFO step:  Lambda=-3.96538416D-01 EMin= 2.30000000D-03
 Linear search not attempted -- first point.
 Maximum step size (   0.300) exceeded in Quadratic search.
    -- Step size scaled by   0.467
 Iteration  1 RMS(Cart)=  0.11980429 RMS(Int)=  0.00410840
 Iteration  2 RMS(Cart)=  0.00724360 RMS(Int)=  0.00046519
 Iteration  3 RMS(Cart)=  0.00003203 RMS(Int)=  0.00046507
 Iteration  4 RMS(Cart)=  0.00000001 RMS(Int)=  0.00046507
 Variable       Old X    -DE/DX   Delta X   Delta X   Delta X     New X
                                 (Linear)    (Quad)   (Total)
    R1        3.19088  -0.01062   0.00000  -0.00767  -0.00799   3.18289
    R2        3.02583  -0.07592   0.00000  -0.07094  -0.07097   2.95486
    R3        3.11040  -0.04762   0.00000  -0.04790  -0.04730   3.06309
    R4        2.64223  -0.05436   0.00000  -0.04781  -0.04780   2.59442
    R5        2.09234   0.43177   0.00000   0.10921   0.10914   2.20149
    R6        3.15032   0.04348   0.00000   0.02073   0.02089   3.17122
    R7        3.65011   0.01146   0.00000  -0.00311  -0.00297   3.64713
    R8        3.59899  -0.00449   0.00000  -0.00581  -0.00623   3.59276
    R9        3.51730  -0.00160   0.00000  -0.00203  -0.00195   3.51535
   R10        3.40521   0.07040   0.00000   0.06277   0.06309   3.46830
   R11        2.50745   0.19224   0.00000   0.09688   0.09664   2.60409
   R12        2.71285  -0.09395   0.00000  -0.05598  -0.05613   2.65671
   R13        2.76051   0.02479   0.00000   0.02035   0.02046   2.78097
   R14        2.55647  -0.04578   0.00000  -0.03894  -0.03891   2.51756
   R15        2.48058   0.08953   0.00000   0.04625   0.04621   2.52679
   R16        2.08012  -0.01127   0.00000  -0.00719  -0.00719   2.07293
   R17        2.60717   0.01538   0.00000   0.01099   0.01093   2.61810
   R18        2.46529  -0.04136   0.00000  -0.03475  -0.03475   2.43054
   R19        2.46723   0.12650   0.00000   0.06041   0.06035   2.52758
   R20        1.91169   0.06263   0.00000   0.03430   0.03430   1.94599
   R21        3.24671   0.03745   0.00000   0.02585   0.02580   3.27251
   R22        2.89745  -0.00156   0.00000  -0.00001  -0.00014   2.89731
   R23        2.69682  -0.03321   0.00000  -0.02614  -0.02615   2.67067
   R24        3.70028   0.03411   0.00000   0.02610   0.02624   3.72651
   R25        2.29930   0.15793   0.00000   0.05408   0.05408   2.35338
   R26        2.85136   0.01518   0.00000   0.01117   0.01119   2.86256
   R27        3.29987   0.04474   0.00000   0.04011   0.04022   3.34009
   R28        3.58547  -0.00502   0.00000  -0.01157  -0.01160   3.57386
   R29        3.04475  -0.02881   0.00000  -0.02775  -0.02775   3.01700
   R30        3.82410  -0.02024   0.00000  -0.01742  -0.01687   3.80723
   R31        3.88977  -0.01581   0.00000  -0.01648  -0.01781   3.87196
   R32        3.05898   0.03802   0.00000   0.03403   0.03403   3.09301
   R33        3.39380  -0.03055   0.00000  -0.02966  -0.02966   3.36415
   R34        3.43662  -0.04305   0.00000  -0.03536  -0.03447   3.40214
   R35        2.39955  -0.06063   0.00000  -0.04735  -0.04735   2.35220
   R36        2.75744  -0.05828   0.00000  -0.05228  -0.05228   2.70516
   R37        2.54167  -0.00128   0.00000  -0.00314  -0.00305   2.53861
   R38        2.51807  -0.00177   0.00000  -0.00391  -0.00427   2.51380
   R39        2.86921   0.07127   0.00000   0.02678   0.02679   2.89600
    A1        2.01074  -0.02226   0.00000  -0.02022  -0.02002   1.99072
    A2        0.98380   0.05554   0.00000   0.04645   0.04665   1.03045
    A3        2.59798  -0.04553   0.00000  -0.03588  -0.03620   2.56179
    A4        2.40073  -0.02791   0.00000  -0.02767  -0.02781   2.37291
    A5        1.45590  -0.08048   0.00000  -0.02394  -0.02371   1.43219
    A6        1.02347   0.01478   0.00000   0.00411   0.00440   1.02787
    A7        1.98624   0.07093   0.00000   0.04004   0.04009   2.02632
    A8        1.30687   0.01509   0.00000   0.01031   0.01022   1.31709
    A9        1.49202   0.01232   0.00000   0.00731   0.00727   1.49929
   A10        1.43296   0.02634   0.00000   0.00186   0.00220   1.43516
   A11        1.92075   0.00659   0.00000   0.00198   0.00190   1.92264
   A12        1.93271  -0.03121   0.00000  -0.00050  -0.00077   1.93194
   A13        2.75975   0.00492   0.00000  -0.00617  -0.00629   2.75346
   A14        2.08835   0.03045   0.00000   0.01573   0.01593   2.10428
   A15        1.35444  -0.00299   0.00000  -0.00343  -0.00328   1.35116
   A16        1.50600   0.03877   0.00000   0.03670   0.03641   1.54241
   A17        1.53251  -0.02659   0.00000  -0.01586  -0.01572   1.51679
   A18        2.51908  -0.00032   0.00000  -0.00218  -0.00253   2.51656
   A19        1.79950   0.02825   0.00000   0.02916   0.02911   1.82861
   A20        2.17080  -0.01230   0.00000  -0.01317  -0.01306   2.15775
   A21        2.21417  -0.01748   0.00000  -0.01618  -0.01622   2.19795
   A22        2.07603   0.04214   0.00000   0.03339   0.03350   2.10953
   A23        2.02108  -0.03302   0.00000  -0.02374  -0.02389   1.99719
   A24        2.14080  -0.01276   0.00000  -0.01248  -0.01244   2.12836
   A25        2.06759   0.01410   0.00000   0.01523   0.01513   2.08272
   A26        2.07749  -0.00686   0.00000  -0.00745  -0.00741   2.07007
   A27        2.12852  -0.00594   0.00000  -0.00669  -0.00666   2.12186
   A28        2.05203   0.01297   0.00000   0.01008   0.01023   2.06226
   A29        2.30970  -0.03871   0.00000  -0.02918  -0.02925   2.28046
   A30        1.90867  -0.02117   0.00000  -0.01308  -0.01305   1.89562
   A31        2.26228   0.00618   0.00000   0.00286   0.00268   2.26496
   A32        2.57828  -0.01359   0.00000  -0.01264  -0.01251   2.56577
   A33        2.43710   0.00559   0.00000   0.00523   0.00526   2.44236
   A34        1.91691  -0.01533   0.00000  -0.01457  -0.01463   1.90227
   A35        1.90206   0.00940   0.00000   0.00891   0.00890   1.91096
   A36        1.31029   0.02276   0.00000   0.01144   0.01149   1.32178
   A37        1.97928   0.01032   0.00000   0.00867   0.00867   1.98794
   A38        2.52422  -0.02884   0.00000  -0.02610  -0.02669   2.49753
   A39        1.32253   0.04494   0.00000   0.04017   0.04120   1.36373
   A40        1.67402   0.00655   0.00000   0.00799   0.00915   1.68317
   A41        2.18455   0.00725   0.00000   0.00337   0.00178   2.18633
   A42        2.41729  -0.01962   0.00000  -0.01750  -0.01804   2.39925
   A43        2.49664  -0.02531   0.00000  -0.02462  -0.02678   2.46986
   A44        2.48363  -0.03328   0.00000  -0.03251  -0.03316   2.45047
   A45        2.29290  -0.00932   0.00000  -0.00814  -0.00999   2.28292
   A46        1.20254  -0.00663   0.00000  -0.00521  -0.00310   1.19944
   A47        1.22023   0.04542   0.00000   0.03569   0.03490   1.25513
   A48        1.77557  -0.02138   0.00000   0.01236   0.01229   1.78786
   A49        1.43765   0.05948   0.00000   0.00160   0.00181   1.43945
   A50        1.38990   0.05011   0.00000   0.01983   0.01963   1.40952
   A51        1.49914   0.02643   0.00000   0.02066   0.02093   1.52007
   A52        1.58335   0.03441   0.00000   0.02320   0.02294   1.60629
   A53        1.53588   0.01155   0.00000   0.01070   0.01065   1.54653
   A54        1.44253   0.00392   0.00000   0.00339   0.00342   1.44595
   A55        1.31670  -0.02627   0.00000  -0.02596  -0.02590   1.29080
   A56        1.88208   0.05213   0.00000   0.03769   0.03769   1.91977
   A57        3.21321   0.03810   0.00000   0.01396   0.01410   3.22731
   A58        2.98637  -0.00282   0.00000  -0.00051  -0.00053   2.98584
    D1        2.94030  -0.01404   0.00000   0.00066   0.00041   2.94072
    D2        2.07200  -0.03277   0.00000  -0.01046  -0.01039   2.06160
    D3       -2.41608  -0.01948   0.00000  -0.00449  -0.00447  -2.42055
    D4        3.13574   0.02896   0.00000   0.01214   0.01196  -3.13549
    D5        2.35702   0.02780   0.00000   0.00300   0.00306   2.36008
    D6       -2.22488   0.01141   0.00000   0.00243   0.00273  -2.22215
    D7        3.10561   0.00486   0.00000   0.00007   0.00004   3.10566
    D8       -2.06407  -0.02073   0.00000  -0.01629  -0.01640  -2.08047
    D9        0.28400  -0.00021   0.00000   0.00685   0.00689   0.29089
   D10        2.73371   0.01172   0.00000   0.00117   0.00124   2.73495
   D11       -0.25266   0.01454   0.00000   0.00168   0.00176  -0.25090
   D12        1.11453   0.03169   0.00000   0.02266   0.02267   1.13720
   D13       -2.93696   0.02043   0.00000   0.01585   0.01595  -2.92102
   D14        2.30679   0.00024   0.00000   0.00236   0.00217   2.30896
   D15       -1.74470  -0.01102   0.00000  -0.00446  -0.00455  -1.74925
   D16       -1.28439   0.03337   0.00000   0.03449   0.03428  -1.25011
   D17        0.98415   0.00693   0.00000   0.00632   0.00606   0.99021
   D18        2.51904   0.01642   0.00000   0.01568   0.01586   2.53490
   D19        1.18167   0.01595   0.00000   0.01006   0.00961   1.19128
   D20        2.71655   0.02545   0.00000   0.01943   0.01941   2.73596
   D21        1.90471   0.00104   0.00000  -0.00177  -0.00212   1.90258
   D22       -2.84359   0.01054   0.00000   0.00760   0.00768  -2.83592
   D23       -2.63073   0.00499   0.00000   0.02258   0.02288  -2.60786
   D24       -0.10338   0.00296   0.00000   0.01719   0.01731  -0.08607
   D25        1.38521   0.01571   0.00000   0.00628   0.00650   1.39170
   D26       -2.37063   0.01369   0.00000   0.00090   0.00093  -2.36970
   D27       -0.31592   0.00987   0.00000  -0.00468  -0.00468  -0.32060
   D28       -2.46735   0.01078   0.00000   0.00350   0.00332  -2.46403
   D29        1.94598   0.01622   0.00000   0.01290   0.01303   1.95901
   D30        1.06524   0.00765   0.00000   0.00899   0.00882   1.07406
   D31       -1.63820   0.01377   0.00000   0.01187   0.01178  -1.62642
   D32        2.30809  -0.02465   0.00000  -0.01362  -0.01396   2.29414
   D33       -0.39535  -0.01853   0.00000  -0.01073  -0.01100  -0.40635
   D34        0.89412  -0.03360   0.00000  -0.03882  -0.03876   0.85537
   D35       -1.80932  -0.02748   0.00000  -0.03594  -0.03580  -1.84512
   D36       -3.11222   0.01354   0.00000   0.01127   0.01127  -3.10095
   D37       -0.28061  -0.00130   0.00000  -0.00075  -0.00086  -0.28147
   D38       -0.42361   0.00946   0.00000   0.00980   0.00974  -0.41388
   D39        2.40800  -0.00537   0.00000  -0.00222  -0.00239   2.40561
   D40       -2.86010  -0.02744   0.00000  -0.02431  -0.02437  -2.88447
   D41        0.13609  -0.01809   0.00000  -0.01668  -0.01670   0.11939
   D42        0.61378  -0.00877   0.00000  -0.01016  -0.01010   0.60368
   D43       -2.67321   0.00058   0.00000  -0.00253  -0.00243  -2.67564
   D44       -0.74873   0.02459   0.00000   0.02049   0.02012  -0.72861
   D45       -2.33463  -0.00815   0.00000  -0.00127  -0.00156  -2.33619
   D46        2.07024   0.01963   0.00000   0.01679   0.01677   2.08701
   D47        0.48434  -0.01311   0.00000  -0.00496  -0.00491   0.47943
   D48       -3.02244   0.00634   0.00000   0.00195   0.00212  -3.02032
   D49       -1.40127   0.00267   0.00000   0.00026   0.00018  -1.40109
   D50       -0.21109   0.00191   0.00000   0.00187   0.00197  -0.20912
   D51        0.26902  -0.00328   0.00000  -0.00593  -0.00580   0.26322
   D52        1.89019  -0.00696   0.00000  -0.00761  -0.00774   1.88246
   D53        3.08037  -0.00772   0.00000  -0.00601  -0.00594   3.07443
   D54        0.35187  -0.00707   0.00000  -0.00733  -0.00738   0.34449
   D55       -0.89107   0.00356   0.00000  -0.00324  -0.00314  -0.89421
   D56        1.86811  -0.00098   0.00000  -0.00217  -0.00204   1.86608
   D57       -2.74931  -0.00880   0.00000  -0.00577  -0.00584  -2.75515
   D58       -0.86777  -0.00694   0.00000  -0.00918  -0.00925  -0.87701
   D59        2.56276  -0.00285   0.00000  -0.00472  -0.00459   2.55817
   D60       -1.91887  -0.03444   0.00000  -0.03305  -0.03293  -1.95179
   D61        1.02528  -0.03477   0.00000  -0.03376  -0.03377   0.99152
   D62       -2.96375  -0.04179   0.00000  -0.03009  -0.03035  -2.99410
[...]
    D6       -1.02468   0.00028   0.00002   0.03031   0.03036  -0.99432
    D7        2.87997  -0.00222   0.00001  -0.01382  -0.01472   2.86525
    D8       -2.82443  -0.00182   0.00075  -0.04940  -0.04861  -2.87303
    D9        0.76893  -0.00208  -0.00037   0.02234   0.02148   0.79041
   D10        2.71482  -0.00098   0.00038  -0.01441  -0.01427   2.70055
   D11       -0.34993  -0.00097   0.00024  -0.01693  -0.01681  -0.36675
   D12        2.02029   0.00028  -0.00080   0.04367   0.04231   2.06261
   D13       -2.39603   0.00244   0.00008   0.02783   0.02723  -2.36881
   D14        2.41560  -0.00199  -0.00098   0.03111   0.03025   2.44585
   D15       -2.00072   0.00018  -0.00009   0.01527   0.01516  -1.98556
   D16       -0.91051   0.00011   0.00013  -0.00575  -0.00445  -0.91496
   D17        1.34112   0.00620  -0.00018   0.05600   0.05539   1.39652
   D18        3.07666  -0.00050   0.00019   0.02333   0.02252   3.09917
   D19        1.28688   0.00589  -0.00020   0.05262   0.05302   1.33990
   D20        3.02241  -0.00081   0.00017   0.01994   0.02014   3.04255
   D21        1.74321   0.00349  -0.00039   0.04517   0.04511   1.78832
   D22       -2.80444  -0.00321  -0.00002   0.01250   0.01223  -2.79221
   D23       -1.31832   0.00055  -0.00042   0.03256   0.03278  -1.28554
   D24        1.21762   0.00182  -0.00084   0.06866   0.06835   1.28597
   D25        1.36615  -0.00108   0.00082  -0.04681  -0.04546   1.32069
   D26       -2.38110   0.00019   0.00040  -0.01071  -0.00989  -2.39099
   D27       -0.86546   0.00159   0.00043  -0.02874  -0.02789  -0.89335
   D28       -2.11220  -0.00675  -0.00066  -0.00822  -0.00904  -2.12124
   D29        2.81655   0.00089  -0.00089   0.05333   0.05133   2.86789
   D30        1.84952   0.00500   0.00013   0.04641   0.04662   1.89615
   D31       -1.84078   0.00225   0.00048   0.01237   0.01327  -1.82752
   D32        2.62613   0.00726   0.00005   0.05898   0.05872   2.68485
   D33       -1.06418   0.00450   0.00039   0.02494   0.02536  -1.03882
   D34        0.11573   0.00280   0.00002   0.02075   0.02046   0.13620
   D35        2.70861   0.00005   0.00037  -0.01329  -0.01289   2.69572
   D36        2.48541  -0.00141   0.00042  -0.04165  -0.04027   2.44514
   D37       -0.76742  -0.00363  -0.00073   0.01010   0.00975  -0.75767
   D38       -0.11104   0.00189   0.00017  -0.00857  -0.00790  -0.11894
   D39        2.91931  -0.00033  -0.00097   0.04317   0.04213   2.96144
   D40        3.06688   0.00427  -0.00106   0.06122   0.05981   3.12668
   D41       -0.01860   0.00404  -0.00072   0.03402   0.03307   0.01447
   D42        0.03892   0.00613   0.00008   0.00887   0.00894   0.04787
   D43       -3.04655   0.00590   0.00042  -0.01832  -0.01780  -3.06435
   D44       -0.22410   0.00024   0.00018   0.00256   0.00352  -0.22058
   D45       -2.31533   0.00260   0.00080  -0.02087  -0.02033  -2.33567
   D46        2.81290  -0.00174  -0.00089   0.04910   0.04943   2.86233
   D47        0.72166   0.00061  -0.00026   0.02567   0.02558   0.74724
   D48        2.96423   0.00163   0.00072  -0.05217  -0.05154   2.91269
   D49       -1.16040   0.00920  -0.00094   0.03876   0.03779  -1.12261
   D50        0.70542   0.00060  -0.00018   0.01500   0.01511   0.72053
   D51       -0.23029   0.00189   0.00042  -0.02656  -0.02633  -0.25662
   D52        1.92827   0.00947  -0.00125   0.06438   0.06299   1.99126
   D53       -2.48910   0.00086  -0.00049   0.04062   0.04032  -2.44878
   D54       -2.12606  -0.00170  -0.00073  -0.08674  -0.08504  -2.21110
   D55       -1.68033  -0.00315  -0.00008   0.01002   0.01023  -1.67010
   D56        2.34397  -0.00600  -0.00123   0.07364   0.07390   2.41787
   D57        0.12194  -0.00052  -0.00086   0.17938   0.17593   0.29786
   D58        0.18141   0.00122  -0.00150   0.11357   0.11471   0.29611
   D59        1.90895   0.00031   0.00122  -0.06808  -0.06690   1.84204
   D60        3.05057  -0.00641  -0.00094  -0.02805  -0.02879   3.02178
   D61        1.02559  -0.00716  -0.00360   0.13675   0.13181   1.15740
   D62       -2.66426   0.00406   0.00030   0.04468   0.04516  -2.61910
   D63       -1.31315  -0.00738   0.00009   0.00684   0.00719  -1.30596
   D64        1.65434   0.00143  -0.00004   0.01060   0.01292   1.66726
   D65        2.07058  -0.00255  -0.00038  -0.04247  -0.04352   2.02706
   D66       -1.58433   0.00186  -0.00047   0.10136   0.10089  -1.48344
   D67        1.92567  -0.00122   0.00161  -0.10653  -0.10637   1.81931
   D68       -0.79083  -0.00342   0.00163  -0.12680  -0.12635  -0.91719
   D69       -2.09541   0.00135  -0.00124   0.09627   0.09648  -1.99892
   D70        1.08404   0.00310  -0.00134   0.11122   0.11055   1.19459
   D71        1.33514  -0.00321   0.00003   0.01289   0.01333   1.34847
   D72        0.56774   0.00368   0.00013   0.04625   0.04612   0.61386
   D73       -2.64053   0.00050   0.00032   0.01692   0.01709  -2.62344
   D74       -0.04819   0.00035   0.00006  -0.00070  -0.00082  -0.04900
   D75       -0.61984  -0.00128   0.00010   0.00179   0.00204  -0.61780
   D76        0.45101   0.00114  -0.00041   0.02323   0.02306   0.47407
         Item               Value     Threshold  Converged?
 Maximum Force            0.021228     0.000450     NO 
 RMS     Force            0.004934     0.000300     NO 
 Maximum Displacement     1.044995     0.001800     NO 
 RMS     Displacement     0.209123     0.001200     NO 
 Predicted change in Energy=-1.178382D-02
 GradGradGradGradGradGradGradGradGradGradGradGradGradGradGradGradGradGrad

                          Input orientation:                          
 ---------------------------------------------------------------------
 Center     Atomic      Atomic             Coordinates (Angstroms)
 Number     Number       Type             X           Y           Z
 ---------------------------------------------------------------------
      1          6           0        1.444425    1.294346   -0.086932
      2          6           0        4.083477    0.609968    2.344460
      3          6           0        5.520160    0.598704    2.406361
      4          6           0        4.760133    0.527632    1.028673
      5          6           0        6.042513   -0.225253    1.277953
      6          6           0        6.965393    0.763552    2.018660
      7          6           0        8.026709    0.271729    2.910525
      8          6           0        9.241413    0.815865    2.977702
      9          6           0       10.321715    0.297394    3.927661
     10         16           0       11.952719    0.941915    3.567753
     11          6           0        9.788002    0.544503    5.272006
     12          6           0        8.725236    0.050449    6.152550
     13          6           0        9.718220    0.974119    6.515323
     14         16           0       11.655902    2.558372    9.129428
     15          6           0       13.176945    3.092139    8.198333
     16          6           0       13.346431    1.971996    8.800586
     17          1           0        1.547178    1.908696   -0.973432
     18          1           0        0.731205    1.736123    0.613749
     19          1           0        1.082959    0.296926   -0.352119
     20          1           0        2.405955    1.187785    0.418958
     21          1           0        4.637421    1.295025    0.262065
     22          1           0        6.033620   -1.287819    1.454264
     23          1           0        7.198466    1.689480    1.487303
     24          1           0        7.762227   -0.557167    3.591756
     25          1           0        9.517032    1.678430    2.374916
     26          1           0       10.277538   -0.807162    3.905225
     27          1           0       10.120212    1.647330    7.261556
     28          1           0       11.796207    3.353473   10.241450
     29          1           0       13.616184    4.017695    7.873552
     30          1           0       14.033862    1.309686    9.298737
 ---------------------------------------------------------------------
                    Distance matrix (angstroms):
                    1          2          3          4          5
     1  C    0.000000
     2  C    3.653032   0.000000
     3  C    4.828255   1.438060   0.000000
     4  C    3.581389   1.481870   1.575029   0.000000
     5  C    5.031352   2.381775   1.491664   1.507804   0.000000
     6  C    5.932651   2.904336   1.505385   2.428766   1.542106
     7  C    7.304585   3.997989   2.577573   3.778541   2.617121
     8  C    8.391303   5.200740   3.771116   4.895270   3.769090
     9  C    9.793730   6.443589   5.045797   6.276013   5.060206
    10  S   11.131270   7.970671   6.545566   7.638838   6.444843
    11  C    9.944634   6.412208   5.140946   6.579181   5.529346
    12  C    9.668952   6.029970   4.960547   6.496450   5.570881
    13  C   10.589996   7.019902   5.886274   7.408462   6.509944
    14  S   13.813520  10.352473   9.310600  10.830410  10.045117
    15  C   14.475142  11.095953   9.919200  11.350042  10.478401
    16  C   14.869598  11.372730  10.199145  11.671047  10.712849
    17  H    1.083451   4.373548   5.378073   4.029745   5.461731
    18  H    1.093070   3.937171   5.238442   4.226686   5.700715
    19  H    1.093539   4.046312   5.233453   3.934644   5.246616
    20  H    1.091705   2.618303   3.740997   2.519863   3.994884
    21  H    3.212012   2.261089   2.421176   1.091621   2.305982
    22  H    5.486672   2.863058   2.174649   2.258043   1.077131
    23  H    5.978573   3.406350   2.202537   2.739654   2.246388
    24  H    7.541583   4.056002   2.787125   4.093746   2.901943
    25  H    8.448385   5.537694   4.140264   5.075904   4.110915
    26  H    9.918545   6.542983   5.182248   6.363803   5.017631
    27  H   11.375156   7.854688   6.770009   8.296566   7.479152
    28  H   14.767359  11.374334  10.409906  11.931763  11.236394
    29  H   14.796542  11.534988  10.350135  11.724442  10.902524
    30  H   15.703024  12.159841  10.976952  12.450206  11.425878
                    6          7          8          9         10
     6  C    0.000000
     7  C    1.470954   0.000000
     8  C    2.470378   1.332705   0.000000
     9  C    3.889278   2.510433   1.529145   0.000000
    10  S    5.225411   4.036663   2.777630   1.790284   0.000000
    11  C    4.312698   2.958572   2.374074   1.467370   2.783597
    12  C    4.549133   3.323798   3.306351   2.749519   4.229956
    13  C    5.276588   4.043406   3.573115   2.741926   3.698945
    14  S    8.705474   7.554769   6.834458   5.826702   5.799419
    15  C    9.066094   7.901934   6.922776   5.848212   5.250188
    16  C    9.390021   8.116844   7.217602   5.974830   5.512353
    17  H    6.294524   7.729755   8.718200  10.178876  11.394399
    18  H    6.464114   7.787427   8.880248  10.248407  11.630962
    19  H    6.359352   7.672102   8.827082  10.181902  11.572946
    20  H    4.850515   6.216104   7.308145   8.704197  10.055648
    21  H    2.964379   4.421397   5.366659   6.836890   8.035288
    22  H    2.322685   2.919810   4.127504   5.197918   6.668904
    23  H    1.092706   2.172916   2.675468   4.200944   5.243095
    24  H    2.203151   1.105032   2.109566   2.719206   4.450623
    25  H    2.734005   2.118194   1.087812   2.228405   2.810317
    26  H    4.122690   2.686943   2.137304   1.105667   2.445279
    27  H    6.182387   5.020608   4.451408   3.602470   4.183285
    28  H    9.882243   8.800495   8.107309   7.167822   7.097770
    29  H    9.439398   8.360988   7.304771   6.345410   5.546841
    30  H   10.161744   8.830203   7.947761   6.607059   6.108240
                   11         12         13         14         15
    11  C    0.000000
    12  C    1.465919   0.000000
    13  C    1.317299   1.403847   0.000000
    14  S    4.735444   4.872400   3.619118   0.000000
    15  C    5.151581   5.766700   4.391049   1.861563   0.000000
    16  C    5.210665   5.662144   4.402510   1.819302   1.283025
    17  H   10.429655  10.283833  11.122986  14.306508  14.858443
    18  H   10.254018   9.870378  10.778482  13.875947  14.637662
    19  H   10.366766  10.038718  11.053872  14.380577  15.072755
    20  H    8.857793   8.608189   9.522633  12.779371  13.422350
    21  H    7.224352   7.277157   8.063544  11.379159  11.795654
    22  H    5.659323   5.577602   6.656347  10.262134  10.756096
    23  H    4.726588   5.175130   5.669381   8.889645   9.096570
    24  H    2.853187   2.802543   3.836403   7.452053   7.991067
    25  H    3.122874   4.189007   4.204700   7.139502   7.021804
    26  H    1.983617   2.862797   3.209114   6.365454   6.483972
    27  H    2.298891   2.392881   1.082439   2.584045   3.508368
    28  H    6.051328   6.087687   4.885016   1.374214   2.479729
    29  H    5.786716   6.528573   5.128574   2.747645   1.074741
    30  H    5.901474   6.298069   5.146335   2.691203   2.263258
                   16         17         18         19         20
    16  C    0.000000
    17  H   15.321809   0.000000
    18  H   15.040740   1.792969   0.000000
    19  H   15.393850   1.788667   1.768592   0.000000
    20  H   13.804372   1.787725   1.772965   1.771583   0.000000
    21  H   12.215215   3.384176   3.946742   3.742675   2.239543
    22  H   10.866096   6.019932   6.161680   5.503043   4.512253
    23  H    9.558315   6.167685   6.526158   6.536215   4.935709
    24  H    8.044371   8.096189   7.972640   7.803605   6.465382
    25  H    7.485967   8.647719   8.960793   8.971001   7.391477
    26  H    6.411426  10.363222  10.413193  10.192363   8.837177
    27  H    3.589221  11.890344  11.504551  11.893846  10.321923
    28  H    2.527402  15.261179  14.756108  15.373349  13.760392
    29  H    2.262088  15.112178  14.964391  15.446278  13.756765
    30  H    1.076741  16.180036  15.892500  16.183034  14.631253
                   21         22         23         24         25
    21  H    0.000000
    22  H    3.168879   0.000000
    23  H    2.866314   3.197228   0.000000
    24  H    4.927664   2.844435   3.129532   0.000000
    25  H    5.331205   4.666947   2.482686   3.091590   0.000000
    26  H    7.035817   4.924335   4.643302   2.547066   3.016352
    27  H    8.898202   7.683747   6.471505   4.887466   4.923824
    28  H   12.452853  11.487543  10.027122   8.705431   8.359591
    29  H   12.081633  11.262815   9.348361   8.575077   7.246392
    30  H   13.036670  11.501594  10.386789   8.682636   8.275084
                   26         27         28         29         30
    26  H    0.000000
    27  H    4.161039   0.000000
    28  H    7.730782   3.820949   0.000000
    29  H    7.083320   4.267903   3.059485   0.000000
    30  H    6.905142   4.425016   3.173779   3.088515   0.000000
 Stoichiometry    C14H14S2
 Framework group  C1[X(C14H14S2)]
 Deg. of freedom    84
 Full point group                 C1      NOp   1
 Largest Abelian subgroup         C1      NOp   1
 Largest concise Abelian subgroup C1      NOp   1
                         Standard orientation:                         
 ---------------------------------------------------------------------
 Center     Atomic      Atomic             Coordinates (Angstroms)
 Number     Number       Type             X           Y           Z
 ---------------------------------------------------------------------
      1          6           0        8.425135   -1.669960   -0.862068
      2          6           0        4.961945   -1.466525    0.282298
      3          6           0        3.837693   -0.576488    0.173182
      4          6           0        5.304890   -0.079927   -0.112256
      5          6           0        4.275317    0.797996    0.553103
      6          6           0        2.971910    0.582762   -0.242444
      7          6           0        1.662926    0.789010    0.396092
      8          6           0        0.629580    1.367316   -0.215349
      9          6           0       -0.727473    1.552937    0.464532
     10         16           0       -1.814999    2.671042   -0.414243
     11          6           0       -1.218594    0.190085    0.698217
     12          6           0       -0.914328   -0.970294    1.540750
     13          6           0       -2.019811   -0.855430    0.683137
     14         16           0       -5.370226   -1.905558   -0.194341
     15          6           0       -5.993774   -0.424712   -1.134394
     16          6           0       -6.359739   -0.406594    0.095198
     17          1           0        8.834484   -1.162546   -1.727418
     18          1           0        8.456603   -2.754548   -0.994292
     19          1           0        9.000421   -1.422670    0.034436
     20          1           0        7.388041   -1.371204   -0.697746
     21          1           0        5.787559    0.152028   -1.063500
     22          1           0        4.309650    0.982748    1.613716
     23          1           0        3.013817    0.832943   -1.305298
     24          1           0        1.535833    0.384524    1.416550
     25          1           0        0.693505    1.713956   -1.244469
     26          1           0       -0.533489    1.866855    1.506801
     27          1           0       -2.891223   -1.318432    0.238227
     28          1           0       -6.294460   -2.830959   -0.616109
     29          1           0       -6.240106   -0.186026   -2.152931
     30          1           0       -7.111105   -0.115460    0.809384
 ---------------------------------------------------------------------
 Rotational constants (GHZ):           0.7932924           0.1088358           0.0995999
 Standard basis: 6-31G(2df,p) (6D, 7F)
 There are   574 symmetry adapted cartesian basis functions of A   symmetry.
 There are   526 symmetry adapted basis functions of A   symmetry.
   526 basis functions,   850 primitive gaussians,   574 cartesian basis functions
    65 alpha electrons       65 beta electrons
       nuclear repulsion energy      1031.7634894682 Hartrees.
 NAtoms=   30 NActive=   30 NUniq=   30 SFac= 1.00D+00 NAtFMM=   60 NAOKFM=F Big=F
 Integral buffers will be    131072 words long.
 Raffenetti 2 integral format.
 Two-electron integral symmetry is turned on.
 One-electron integrals computed using PRISM.
 PrsmSu:  requested number of processors reduced to:  12 ShMem   1 Linda.
 NBasis=   526 RedAO= T EigKep=  3.78D-04  NBF=   526
 NBsUse=   526 1.00D-06 EigRej= -1.00D+00 NBFU=   526
 Initial guess from the checkpoint file:  "CCdC1CdCCdCCdCSC2dC1Cd[SH]CdC2.chk"
 B after Tr=    -0.000000   -0.000000    0.000000
         Rot=    0.999987   -0.004987    0.000910   -0.000644 Ang=  -0.59 deg.
 ExpMin= 1.17D-01 ExpMax= 2.19D+04 ExpMxC= 3.30D+03 IAcc=2 IRadAn=         4 AccDes= 0.00D+00
 Harris functional with IExCor=  402 and IRadAn=       4 diagonalized for initial guess.
 HarFok:  IExCor=  402 AccDes= 0.00D+00 IRadAn=         4 IDoV= 1 UseB2=F ITyADJ=14
 ICtDFT=  3500011 ScaDFX=  1.000000  1.000000  1.000000  1.000000
 FoFCou: FMM=F IPFlag=           0 FMFlag=      100000 FMFlg1=           0
         NFxFlg=           0 DoJE=T BraDBF=F KetDBF=T FulRan=T
         wScrn=  0.000000 ICntrl=       500 IOpCl=  0 I1Cent=   200000004 NGrid=           0
         NMat0=    1 NMatS0=      1 NMatT0=    0 NMatD0=    1 NMtDS0=    0 NMtDT0=    0
 Petite list used in FoFCou.
 Requested convergence on RMS density matrix=1.00D-08 within 128 cycles.
 Requested convergence on MAX density matrix=1.00D-06.
 Requested convergence on             energy=1.00D-06.
 No special actions if energy rises.
 Integral accuracy reduced to 1.0D-05 until final iterations.
 Problem detected with inexpensive integrals.
 Switching to full accuracy and repeating last cycle.
 Restarting incremental Fock formation.
 Restarting incremental Fock formation.
 Restarting incremental Fock formation.
slurmstepd: error: *** JOB 27446857 ON lewis4-r630-hpc4-node538 CANCELLED AT 2023-05-16T04:02:33 DUE TO TIME LIMIT ***
