### Starting Gaussian ###
 Entering Gaussian System, Link 0=g16
 Initial command:
 /cluster/software/gaussian/gaussian-16-A.03/avx2/g16/l1.exe "/local/scratch/cz9n3/Gau-7332.inp" -scrdir="/local/scratch/cz9n3/"
 Entering Link 1 = /cluster/software/gaussian/gaussian-16-A.03/avx2/g16/l1.exe PID=      7333.
  
 Copyright (c) 1988,1990,1992,1993,1995,1998,2003,2009,2016,
            Gaussian, Inc.  All Rights Reserved.
  
 This is part of the Gaussian(R) 16 program.  It is based on
 the Gaussian(R) 09 system (copyright 2009, Gaussian, Inc.),
 the Gaussian(R) 03 system (copyright 2003, Gaussian, Inc.),
 the Gaussian(R) 98 system (copyright 1998, Gaussian, Inc.),
 the Gaussian(R) 94 system (copyright 1995, Gaussian, Inc.),
 the Gaussian 92(TM) system (copyright 1992, Gaussian, Inc.),
 the Gaussian 90(TM) system (copyright 1990, Gaussian, Inc.),
 the Gaussian 88(TM) system (copyright 1988, Gaussian, Inc.),
 the Gaussian 86(TM) system (copyright 1986, Carnegie Mellon
 University), and the Gaussian 82(TM) system (copyright 1983,
 Carnegie Mellon University). Gaussian is a federally registered
 trademark of Gaussian, Inc.
  
 This software contains proprietary and confidential information,
 including trade secrets, belonging to Gaussian, Inc.
  
 This software is provided under written license and may be
 used, copied, transmitted, or stored only in accord with that
 written license.
  
 The following legend is applicable only to US Government
 contracts under FAR:
  
                    RESTRICTED RIGHTS LEGEND
  
 Use, reproduction and disclosure by the US Government is
 subject to restrictions as set forth in subparagraphs (a)
 and (c) of the Commercial Computer Software - Restricted
 Rights clause in FAR 52.227-19.
  
 Gaussian, Inc.
 340 Quinnipiac St., Bldg. 40, Wallingford CT 06492
  
  
 ---------------------------------------------------------------
 Warning -- This program may not be used in any manner that
 competes with the business of Gaussian, Inc. or will provide
 assistance to any competitor of Gaussian, Inc.  The licensee
 of this program is prohibited from giving any competitor of
 Gaussian, Inc. access to this program.  By using this program,
 the user acknowledges that Gaussian, Inc. is engaged in the
 business of creating and licensing software in the field of
 computational chemistry and represents and warrants to the
 licensee that it is not a competitor of Gaussian, Inc. and that
 it will not use this program in any manner prohibited above.
 ---------------------------------------------------------------
  

 Cite this work as:
 Gaussian 16, Revision A.03,
 M. J. Frisch, G. W. Trucks, H. B. Schlegel, G. E. Scuseria, 
 M. A. Robb, J. R. Cheeseman, G. Scalmani, V. Barone, 
 G. A. Petersson, H. Nakatsuji, X. Li, M. Caricato, A. V. Marenich, 
 J. Bloino, B. G. Janesko, R. Gomperts, B. Mennucci, H. P. Hratchian, 
 J. V. Ortiz, A. F. Izmaylov, J. L. Sonnenberg, D. Williams-Young, 
 F. Ding, F. Lipparini, F. Egidi, J. Goings, B. Peng, A. Petrone, 
 T. Henderson, D. Ranasinghe, V. G. Zakrzewski, J. Gao, N. Rega, 
 G. Zheng, W. Liang, M. Hada, M. Ehara, K. Toyota, R. Fukuda, 
 J. Hasegawa, M. Ishida, T. Nakajima, Y. Honda, O. Kitao, H. Nakai, 
 T. Vreven, K. Throssell, J. A. Montgomery, Jr., J. E. Peralta, 
 F. Ogliaro, M. J. Bearpark, J. J. Heyd, E. N. Brothers, K. N. Kudin, 
 V. N. Staroverov, T. A. Keith, R. Kobayashi, J. Normand, 
 K. Raghavachari, A. P. Rendell, J. C. Burant, S. S. Iyengar, 
 J. Tomasi, M. Cossi, J. M. Millam, M. Klene, C. Adamo, R. Cammi, 
 J. W. Ochterski, R. L. Martin, K. Morokuma, O. Farkas, 
 J. B. Foresman, and D. J. Fox, Gaussian, Inc., Wallingford CT, 2016.
 
 ******************************************
 Gaussian 16:  ES64L-G16RevA.03 25-Dec-2016
                16-May-2023 
 ******************************************
 %chk=CCdCqOrC1dCCdCCqdSrSS1.chk
 %NProcShared=20
 Will use up to   20 processors via shared memory.
 -----------------------------
 # opt freq b3lyp/6-31g(2df,p)
 -----------------------------
 1/18=20,19=15,26=3,38=1/1,3;
 2/9=110,12=2,17=6,18=5,40=1/2;
 3/5=1,6=6,7=104,11=2,25=1,30=1,71=1,74=-5/1,2,3;
 4//1;
 5/5=2,38=5/2;
 6/7=2,8=2,9=2,10=2,28=1/1;
 7//1,2,3,16;
 1/18=20,19=15,26=3/3(2);
 2/9=110/2;
 99//99;
 2/9=110/2;
 3/5=1,6=6,7=104,11=2,25=1,30=1,71=1,74=-5/1,2,3;
 4/5=5,16=3,69=1/1;
 5/5=2,38=5/2;
 7//1,2,3,16;
 1/18=20,19=15,26=3/3(-5);
 2/9=110/2;
 6/7=2,8=2,9=2,10=2,19=2,28=1/1;
 99/9=1/99;
 -------------------
 Title Card Required
 -------------------
 Symbolic Z-matrix:
 Charge =  0 Multiplicity = 1
 C                     1.02961   0.04022   0.02774 
 C                     2.51423   0.04578  -0.0491 
 C                     3.25017  -0.70605  -0.88635 
 O                     2.68272  -1.58459  -1.7872 
 C                     4.71046  -0.75104  -0.83929 
 C                     5.31536  -0.82782   0.36322 
 C                     6.65642  -1.22864   0.68117 
 C                     7.82687  -1.02128   0.06084 
 C                     8.20052  -0.20578  -1.13178 
 S                     9.82179   0.02837  -1.53825 
 S                     6.9433    0.61797  -2.04221 
 S                     5.57139  -0.87899  -2.35027 
 H                     0.69642   0.72584   0.812 
 H                     0.66045  -0.95981   0.27703 
 H                     0.60343   0.36923  -0.92278 
 H                     3.01469   0.70095   0.66184 
 H                     1.71675  -1.535    -1.72077 
 H                     4.69581  -0.75083   1.25692 
 H                     6.69317  -1.81475   1.60044 
 H                     8.67828  -1.52738   0.51336 
 

 GradGradGradGradGradGradGradGradGradGradGradGradGradGradGradGradGradGrad
 Berny optimization.
 Initialization pass.
                           ----------------------------
                           !    Initial Parameters    !
                           ! (Angstroms and Degrees)  !
 --------------------------                            --------------------------
 ! Name  Definition              Value          Derivative Info.                !
 --------------------------------------------------------------------------------
 ! R1    R(1,2)                  1.4866         estimate D2E/DX2                !
 ! R2    R(1,13)                 1.0937         estimate D2E/DX2                !
 ! R3    R(1,14)                 1.0948         estimate D2E/DX2                !
 ! R4    R(1,15)                 1.0924         estimate D2E/DX2                !
 ! R5    R(2,3)                  1.3446         estimate D2E/DX2                !
 ! R6    R(2,16)                 1.0886         estimate D2E/DX2                !
 ! R7    R(3,4)                  1.3803         estimate D2E/DX2                !
 ! R8    R(3,5)                  1.4617         estimate D2E/DX2                !
 ! R9    R(4,17)                 0.9695         estimate D2E/DX2                !
 ! R10   R(5,6)                  1.3483         estimate D2E/DX2                !
 ! R11   R(5,12)                 1.7437         estimate D2E/DX2                !
 ! R12   R(6,7)                  1.4353         estimate D2E/DX2                !
 ! R13   R(6,18)                 1.0902         estimate D2E/DX2                !
 ! R14   R(7,8)                  1.3408         estimate D2E/DX2                !
 ! R15   R(7,19)                 1.0908         estimate D2E/DX2                !
 ! R16   R(8,9)                  1.4923         estimate D2E/DX2                !
 ! R17   R(8,20)                 1.0889         estimate D2E/DX2                !
 ! R18   R(9,10)                 1.6878         estimate D2E/DX2                !
 ! R19   R(9,11)                 1.7573         estimate D2E/DX2                !
 ! R20   R(11,12)                2.0538         estimate D2E/DX2                !
 ! A1    A(2,1,13)             109.8134         estimate D2E/DX2                !
 ! A2    A(2,1,14)             110.6061         estimate D2E/DX2                !
 ! A3    A(2,1,15)             110.0904         estimate D2E/DX2                !
 ! A4    A(13,1,14)            107.8562         estimate D2E/DX2                !
 ! A5    A(13,1,15)            108.4382         estimate D2E/DX2                !
 ! A6    A(14,1,15)            109.9805         estimate D2E/DX2                !
 ! A7    A(1,2,3)              125.2191         estimate D2E/DX2                !
 ! A8    A(1,2,16)             115.3146         estimate D2E/DX2                !
 ! A9    A(3,2,16)             119.4424         estimate D2E/DX2                !
 ! A10   A(2,3,4)              122.4975         estimate D2E/DX2                !
 ! A11   A(2,3,5)              122.954          estimate D2E/DX2                !
 ! A12   A(4,3,5)              114.3372         estimate D2E/DX2                !
 ! A13   A(3,4,17)             109.4093         estimate D2E/DX2                !
 ! A14   A(3,5,6)              118.5986         estimate D2E/DX2                !
 ! A15   A(3,5,12)             117.8784         estimate D2E/DX2                !
 ! A16   A(6,5,12)             123.1717         estimate D2E/DX2                !
 ! A17   A(5,6,7)              129.246          estimate D2E/DX2                !
 ! A18   A(5,6,18)             118.1748         estimate D2E/DX2                !
 ! A19   A(7,6,18)             111.6604         estimate D2E/DX2                !
 ! A20   A(6,7,8)              132.0621         estimate D2E/DX2                !
 ! A21   A(6,7,19)             111.6043         estimate D2E/DX2                !
 ! A22   A(8,7,19)             116.3321         estimate D2E/DX2                !
 ! A23   A(7,8,9)              132.2856         estimate D2E/DX2                !
 ! A24   A(7,8,20)             114.7329         estimate D2E/DX2                !
 ! A25   A(9,8,20)             112.974          estimate D2E/DX2                !
 ! A26   A(8,9,10)             120.5839         estimate D2E/DX2                !
 ! A27   A(8,9,11)             119.4113         estimate D2E/DX2                !
 ! A28   A(10,9,11)            119.8307         estimate D2E/DX2                !
 ! A29   A(9,11,12)            102.3537         estimate D2E/DX2                !
 ! A30   A(5,12,11)             98.4154         estimate D2E/DX2                !
 ! D1    D(13,1,2,3)           178.4881         estimate D2E/DX2                !
 ! D2    D(13,1,2,16)            0.284          estimate D2E/DX2                !
 ! D3    D(14,1,2,3)            59.5629         estimate D2E/DX2                !
 ! D4    D(14,1,2,16)         -118.6412         estimate D2E/DX2                !
 ! D5    D(15,1,2,3)           -62.1883         estimate D2E/DX2                !
 ! D6    D(15,1,2,16)          119.6076         estimate D2E/DX2                !
 ! D7    D(1,2,3,4)              0.0687         estimate D2E/DX2                !
 ! D8    D(1,2,3,5)           -174.3481         estimate D2E/DX2                !
 ! D9    D(16,2,3,4)           178.2044         estimate D2E/DX2                !
 ! D10   D(16,2,3,5)             3.7877         estimate D2E/DX2                !
 ! D11   D(2,3,4,17)             1.6588         estimate D2E/DX2                !
 ! D12   D(5,3,4,17)           176.5181         estimate D2E/DX2                !
 ! D13   D(2,3,5,6)             43.0529         estimate D2E/DX2                !
 ! D14   D(2,3,5,12)          -143.5322         estimate D2E/DX2                !
 ! D15   D(4,3,5,6)           -131.78           estimate D2E/DX2                !
 ! D16   D(4,3,5,12)            41.6349         estimate D2E/DX2                !
 ! D17   D(3,5,6,7)            161.8948         estimate D2E/DX2                !
 ! D18   D(3,5,6,18)            -6.1312         estimate D2E/DX2                !
 ! D19   D(12,5,6,7)           -11.1492         estimate D2E/DX2                !
 ! D20   D(12,5,6,18)         -179.1753         estimate D2E/DX2                !
 ! D21   D(3,5,12,11)          131.6654         estimate D2E/DX2                !
 ! D22   D(6,5,12,11)          -55.2435         estimate D2E/DX2                !
 ! D23   D(5,6,7,8)             37.9089         estimate D2E/DX2                !
 ! D24   D(5,6,7,19)          -141.6131         estimate D2E/DX2                !
 ! D25   D(18,6,7,8)          -153.4398         estimate D2E/DX2                !
 ! D26   D(18,6,7,19)           27.0382         estimate D2E/DX2                !
 ! D27   D(6,7,8,9)              5.7857         estimate D2E/DX2                !
 ! D28   D(6,7,8,20)          -175.3049         estimate D2E/DX2                !
 ! D29   D(19,7,8,9)          -174.7101         estimate D2E/DX2                !
 ! D30   D(19,7,8,20)            4.1993         estimate D2E/DX2                !
 ! D31   D(7,8,9,10)           171.0307         estimate D2E/DX2                !
 ! D32   D(7,8,9,11)            -4.166          estimate D2E/DX2                !
 ! D33   D(20,8,9,10)           -7.8934         estimate D2E/DX2                !
 ! D34   D(20,8,9,11)          176.9099         estimate D2E/DX2                !
 ! D35   D(8,9,11,12)          -49.667          estimate D2E/DX2                !
 ! D36   D(10,9,11,12)         135.0996         estimate D2E/DX2                !
 ! D37   D(9,11,12,5)           84.4999         estimate D2E/DX2                !
 --------------------------------------------------------------------------------
 Trust Radius=3.00D-01 FncErr=1.00D-07 GrdErr=1.00D-06 EigMax=2.50D+02 EigMin=1.00D-04
 Number of steps in this run=     97 maximum allowed number of steps=    120.
 GradGradGradGradGradGradGradGradGradGradGradGradGradGradGradGradGradGrad

                          Input orientation:                          
 ---------------------------------------------------------------------
 Center     Atomic      Atomic             Coordinates (Angstroms)
 Number     Number       Type             X           Y           Z
 ---------------------------------------------------------------------
      1          6           0        1.029610    0.040220    0.027740
      2          6           0        2.514230    0.045780   -0.049100
      3          6           0        3.250170   -0.706050   -0.886350
      4          8           0        2.682720   -1.584590   -1.787200
      5          6           0        4.710460   -0.751040   -0.839290
      6          6           0        5.315360   -0.827820    0.363220
      7          6           0        6.656420   -1.228640    0.681170
      8          6           0        7.826870   -1.021280    0.060840
      9          6           0        8.200520   -0.205780   -1.131780
     10         16           0        9.821790    0.028370   -1.538250
     11         16           0        6.943300    0.617970   -2.042210
     12         16           0        5.571390   -0.878990   -2.350270
     13          1           0        0.696420    0.725840    0.812000
     14          1           0        0.660450   -0.959810    0.277030
     15          1           0        0.603430    0.369230   -0.922780
     16          1           0        3.014690    0.700950    0.661840
     17          1           0        1.716750   -1.535000   -1.720770
     18          1           0        4.695810   -0.750830    1.256920
     19          1           0        6.693170   -1.814750    1.600440
     20          1           0        8.678280   -1.527380    0.513360
 ---------------------------------------------------------------------
                    Distance matrix (angstroms):
                    1          2          3          4          5
     1  C    0.000000
     2  C    1.486618   0.000000
     3  C    2.514630   1.344561   0.000000
     4  O    2.943941   2.389035   1.380349   0.000000
     5  C    3.863482   2.466323   1.461741   2.388529   0.000000
     6  C    4.385623   2.963024   2.416870   3.482499   1.348269
     7  C    5.804995   4.394904   3.785863   4.691465   2.515285
     8  C    6.879725   5.419857   4.684306   5.494984   3.255038
     9  C    7.268215   5.793908   4.981613   5.725103   3.544486
    10  S    8.930560   7.457768   6.644587   7.323246   5.217444
    11  S    6.292076   4.890455   4.090018   4.803003   2.882148
    12  S    5.208421   3.936599   2.749733   3.026439   1.743741
    13  H    1.093688   2.123301   3.384722   4.004911   4.584806
    14  H    1.094753   2.134027   2.850350   2.956513   4.206226
    15  H    1.092413   2.125816   2.857059   2.981289   4.257895
    16  H    2.186136   1.088643   2.105230   3.366258   2.690223
    17  H    2.451686   2.435020   1.932561   0.969521   3.217748
    18  H    3.946855   2.664501   2.585631   3.743575   2.096261
    19  H    6.163620   4.862725   4.389486   5.254787   3.318870
    20  H    7.822746   6.386447   5.665523   6.422039   4.263327
                    6          7          8          9         10
     6  C    0.000000
     7  C    1.435336   0.000000
     8  C    2.537034   1.340806   0.000000
     9  C    3.308490   2.591771   1.492313   0.000000
    10  S    4.965537   4.065153   2.763794   1.687768   0.000000
    11  S    3.244471   3.302888   2.809031   1.757285   2.981159
    12  S    2.726022   3.238699   3.304677   2.974938   4.421377
    13  H    4.893860   6.273652   7.379701   7.807542   9.448943
    14  H    4.657578   6.015584   7.169944   7.707526   9.391586
    15  H    5.028818   6.462548   7.421530   7.621686   9.245169
    16  H    2.778380   4.121394   5.146295   5.561660   7.185358
    17  H    4.218188   5.501228   6.385265   6.644773   8.256459
    18  H    1.090169   2.098519   3.362631   4.276209   5.890314
    19  H    2.098358   1.090840   2.070082   3.510828   4.799659
    20  H    3.438191   2.050689   1.088949   2.163647   2.817282
                   11         12         13         14         15
    11  S    0.000000
    12  S    2.053759   0.000000
    13  H    6.868891   6.028330   0.000000
    14  H    6.880586   5.570150   1.768870   0.000000
    15  H    6.442744   5.317557   1.773494   1.791408   0.000000
    16  H    4.769984   4.255083   2.323261   2.906656   2.904347
    17  H    5.661751   3.960413   3.545052   2.331913   2.345711
    18  H    4.220081   3.714147   4.286447   4.157883   4.770032
    19  H    4.387436   4.212143   6.560278   6.235066   6.944159
    20  H    3.760800   4.274758   8.299173   8.041367   8.418006
                   16         17         18         19         20
    16  H    0.000000
    17  H    3.515814   0.000000
    18  H    2.299554   4.284432   0.000000
    19  H    4.554221   5.989445   2.288969   0.000000
    20  H    6.088001   7.311244   4.125043   2.281444   0.000000
 Stoichiometry    C8H8OS3
 Framework group  C1[X(C8H8OS3)]
 Deg. of freedom    54
 Full point group                 C1      NOp   1
 Largest Abelian subgroup         C1      NOp   1
 Largest concise Abelian subgroup C1      NOp   1
                         Standard orientation:                         
 ---------------------------------------------------------------------
 Center     Atomic      Atomic             Coordinates (Angstroms)
 Number     Number       Type             X           Y           Z
 ---------------------------------------------------------------------
      1          6           0        4.761878    0.381031    0.855431
      2          6           0        3.281155    0.492311    0.783963
      3          6           0        2.501248   -0.112729   -0.129007
      4          8           0        3.013660   -0.924049   -1.121256
      5          6           0        1.062381    0.124917   -0.228367
      6          6           0        0.608848    1.390628   -0.127802
      7          6           0       -0.657498    1.935874   -0.526882
      8          6           0       -1.903428    1.442943   -0.477483
      9          6           0       -2.465401    0.191018    0.108917
     10         16           0       -4.134729   -0.040027    0.201230
     11         16           0       -1.378490   -0.991895    0.821231
     12         16           0        0.039976   -1.224600   -0.645646
     13          1           0        5.140617    0.995745    1.676916
     14          1           0        5.220426    0.740071   -0.071559
     15          1           0        5.051855   -0.656258    1.037942
     16          1           0        2.827022    1.145407    1.527181
     17          1           0        3.975648   -0.988969   -1.019592
     18          1           0        1.322837    2.174690    0.125055
     19          1           0       -0.548882    2.934981   -0.951051
     20          1           0       -2.662031    2.075114   -0.936495
 ---------------------------------------------------------------------
 Rotational constants (GHZ):           1.6730747           0.3221857           0.2984293
 Standard basis: 6-31G(2df,p) (6D, 7F)
 There are   424 symmetry adapted cartesian basis functions of A   symmetry.
 There are   388 symmetry adapted basis functions of A   symmetry.
   388 basis functions,   656 primitive gaussians,   424 cartesian basis functions
    56 alpha electrons       56 beta electrons
       nuclear repulsion energy       955.5620968728 Hartrees.
 NAtoms=   20 NActive=   20 NUniq=   20 SFac= 1.00D+00 NAtFMM=   60 NAOKFM=F Big=F
 Integral buffers will be    131072 words long.
 Raffenetti 2 integral format.
 Two-electron integral symmetry is turned on.
 One-electron integrals computed using PRISM.
 PrsmSu:  requested number of processors reduced to:  13 ShMem   1 Linda.
 NBasis=   388 RedAO= T EigKep=  4.35D-04  NBF=   388
 NBsUse=   388 1.00D-06 EigRej= -1.00D+00 NBFU=   388
 ExpMin= 1.17D-01 ExpMax= 2.19D+04 ExpMxC= 3.30D+03 IAcc=3 IRadAn=         5 AccDes= 0.00D+00
 Harris functional with IExCor=  402 and IRadAn=       5 diagonalized for initial guess.
 HarFok:  IExCor=  402 AccDes= 0.00D+00 IRadAn=         5 IDoV= 1 UseB2=F ITyADJ=14
 ICtDFT=  3500011 ScaDFX=  1.000000  1.000000  1.000000  1.000000
 FoFCou: FMM=F IPFlag=           0 FMFlag=      100000 FMFlg1=           0
         NFxFlg=           0 DoJE=T BraDBF=F KetDBF=T FulRan=T
         wScrn=  0.000000 ICntrl=       500 IOpCl=  0 I1Cent=   200000004 NGrid=           0
         NMat0=    1 NMatS0=      1 NMatT0=    0 NMatD0=    1 NMtDS0=    0 NMtDT0=    0
 Petite list used in FoFCou.
 Requested convergence on RMS density matrix=1.00D-08 within 128 cycles.
 Requested convergence on MAX density matrix=1.00D-06.
 Requested convergence on             energy=1.00D-06.
 No special actions if energy rises.
 Integral accuracy reduced to 1.0D-05 until final iterations.
 Initial convergence to 1.0D-05 achieved.  Increase integral accuracy.
 SCF Done:  E(RB3LYP) =  -1579.42966492     A.U. after   16 cycles
            NFock= 16  Conv=0.94D-08     -V/T= 2.0041

 **********************************************************************

            Population analysis using the SCF density.

 **********************************************************************

 Orbital symmetries:
       Occupied  (A) (A) (A) (A) (A) (A) (A) (A) (A) (A) (A) (A)
                 (A) (A) (A) (A) (A) (A) (A) (A) (A) (A) (A) (A)
                 (A) (A) (A) (A) (A) (A) (A) (A) (A) (A) (A) (A)
                 (A) (A) (A) (A) (A) (A) (A) (A) (A) (A) (A) (A)
                 (A) (A) (A) (A) (A) (A) (A) (A)
       Virtual   (A) (A) (A) (A) (A) (A) (A) (A) (A) (A) (A) (A)
                 (A) (A) (A) (A) (A) (A) (A) (A) (A) (A) (A) (A)
                 (A) (A) (A) (A) (A) (A) (A) (A) (A) (A) (A) (A)
                 (A) (A) (A) (A) (A) (A) (A) (A) (A) (A) (A) (A)
                 (A) (A) (A) (A) (A) (A) (A) (A) (A) (A) (A) (A)
                 (A) (A) (A) (A) (A) (A) (A) (A) (A) (A) (A) (A)
                 (A) (A) (A) (A) (A) (A) (A) (A) (A) (A) (A) (A)
                 (A) (A) (A) (A) (A) (A) (A) (A) (A) (A) (A) (A)
                 (A) (A) (A) (A) (A) (A) (A) (A) (A) (A) (A) (A)
                 (A) (A) (A) (A) (A) (A) (A) (A) (A) (A) (A) (A)
                 (A) (A) (A) (A) (A) (A) (A) (A) (A) (A) (A) (A)
                 (A) (A) (A) (A) (A) (A) (A) (A) (A) (A) (A) (A)
                 (A) (A) (A) (A) (A) (A) (A) (A) (A) (A) (A) (A)
                 (A) (A) (A) (A) (A) (A) (A) (A) (A) (A) (A) (A)
                 (A) (A) (A) (A) (A) (A) (A) (A) (A) (A) (A) (A)
                 (A) (A) (A) (A) (A) (A) (A) (A) (A) (A) (A) (A)
                 (A) (A) (A) (A) (A) (A) (A) (A) (A) (A) (A) (A)
                 (A) (A) (A) (A) (A) (A) (A) (A) (A) (A) (A) (A)
                 (A) (A) (A) (A) (A) (A) (A) (A) (A) (A) (A) (A)
                 (A) (A) (A) (A) (A) (A) (A) (A) (A) (A) (A) (A)
                 (A) (A) (A) (A) (A) (A) (A) (A) (A) (A) (A) (A)
                 (A) (A) (A) (A) (A) (A) (A) (A) (A) (A) (A) (A)
                 (A) (A) (A) (A) (A) (A) (A) (A) (A) (A) (A) (A)
                 (A) (A) (A) (A) (A) (A) (A) (A) (A) (A) (A) (A)
                 (A) (A) (A) (A) (A) (A) (A) (A) (A) (A) (A) (A)
                 (A) (A) (A) (A) (A) (A) (A) (A) (A) (A) (A) (A)
                 (A) (A) (A) (A) (A) (A) (A) (A) (A) (A) (A) (A)
                 (A) (A) (A) (A) (A) (A) (A) (A)
 The electronic state is 1-A.
 Alpha  occ. eigenvalues --  -88.91740 -88.91700 -88.85800 -19.18478 -10.28164
 Alpha  occ. eigenvalues --  -10.25791 -10.24432 -10.22140 -10.21628 -10.21624
 Alpha  occ. eigenvalues --  -10.20069 -10.19013  -7.97952  -7.97923  -7.92195
 Alpha  occ. eigenvalues --   -5.94452  -5.94433  -5.94061  -5.93998  -5.93493
 Alpha  occ. eigenvalues --   -5.93475  -5.88550  -5.88445  -5.87713  -1.06757
 Alpha  occ. eigenvalues --   -0.88152  -0.83287  -0.80846  -0.79296  -0.74202
 Alpha  occ. eigenvalues --   -0.70216  -0.68671  -0.63246  -0.60948  -0.55264
 Alpha  occ. eigenvalues --   -0.52490  -0.51736  -0.50610  -0.46473  -0.45070
 Alpha  occ. eigenvalues --   -0.43754  -0.42544  -0.41008  -0.39950  -0.39524
 Alpha  occ. eigenvalues --   -0.38622  -0.38110  -0.37099  -0.36185  -0.34156
 Alpha  occ. eigenvalues --   -0.30623  -0.28546  -0.26069  -0.24966  -0.22317
 Alpha  occ. eigenvalues --   -0.21892
 Alpha virt. eigenvalues --   -0.11360  -0.04050  -0.02995   0.02171   0.03707
 Alpha virt. eigenvalues --    0.05114   0.05644   0.07091   0.07734   0.11079
 Alpha virt. eigenvalues --    0.11207   0.13721   0.15039   0.16382   0.17699
 Alpha virt. eigenvalues --    0.18329   0.19227   0.19994   0.20988   0.22204
 Alpha virt. eigenvalues --    0.24384   0.26158   0.27113   0.27406   0.28713
 Alpha virt. eigenvalues --    0.29314   0.30541   0.31360   0.32624   0.34027
 Alpha virt. eigenvalues --    0.35413   0.35859   0.37051   0.37644   0.38609
 Alpha virt. eigenvalues --    0.39541   0.39872   0.40991   0.42240   0.43538
 Alpha virt. eigenvalues --    0.44878   0.45219   0.46366   0.47662   0.48184
 Alpha virt. eigenvalues --    0.49047   0.50468   0.51285   0.52832   0.54097
 Alpha virt. eigenvalues --    0.55071   0.55915   0.57629   0.58531   0.59232
 Alpha virt. eigenvalues --    0.60203   0.60258   0.61993   0.64267   0.64657
 Alpha virt. eigenvalues --    0.65676   0.67281   0.67903   0.69895   0.71382
 Alpha virt. eigenvalues --    0.71523   0.72342   0.72631   0.73515   0.74070
 Alpha virt. eigenvalues --    0.75240   0.75859   0.77277   0.78781   0.79756
 Alpha virt. eigenvalues --    0.80642   0.81369   0.83219   0.83504   0.84452
 Alpha virt. eigenvalues --    0.86224   0.87191   0.88128   0.89105   0.89908
 Alpha virt. eigenvalues --    0.91347   0.92699   0.93719   0.95811   0.96690
 Alpha virt. eigenvalues --    0.99221   1.00334   1.02055   1.03854   1.06755
 Alpha virt. eigenvalues --    1.07419   1.09635   1.11986   1.12627   1.15908
 Alpha virt. eigenvalues --    1.17885   1.18578   1.21202   1.21761   1.24148
 Alpha virt. eigenvalues --    1.26347   1.26902   1.30531   1.31128   1.31975
 Alpha virt. eigenvalues --    1.34312   1.34521   1.34865   1.38705   1.41312
 Alpha virt. eigenvalues --    1.41931   1.42799   1.43891   1.45362   1.47390
 Alpha virt. eigenvalues --    1.48977   1.50232   1.51263   1.53864   1.55759
 Alpha virt. eigenvalues --    1.58537   1.59527   1.61155   1.61835   1.64856
 Alpha virt. eigenvalues --    1.65417   1.66995   1.68030   1.68936   1.69571
 Alpha virt. eigenvalues --    1.71847   1.73361   1.74618   1.75630   1.76987
 Alpha virt. eigenvalues --    1.79259   1.81048   1.82470   1.83347   1.84773
 Alpha virt. eigenvalues --    1.88356   1.88986   1.90432   1.90684   1.92833
 Alpha virt. eigenvalues --    1.93939   1.96147   1.96787   1.98181   1.99811
 Alpha virt. eigenvalues --    2.02372   2.02716   2.04086   2.05285   2.06630
 Alpha virt. eigenvalues --    2.09704   2.15231   2.15621   2.15972   2.17073
 Alpha virt. eigenvalues --    2.18149   2.19302   2.21533   2.24154   2.25283
 Alpha virt. eigenvalues --    2.27058   2.29325   2.30660   2.32591   2.33353
 Alpha virt. eigenvalues --    2.34874   2.37285   2.37821   2.38159   2.41283
 Alpha virt. eigenvalues --    2.41870   2.43276   2.44156   2.47739   2.50580
 Alpha virt. eigenvalues --    2.50723   2.53421   2.59859   2.60421   2.62047
 Alpha virt. eigenvalues --    2.65737   2.67621   2.71587   2.73226   2.74915
 Alpha virt. eigenvalues --    2.76840   2.79836   2.80974   2.82526   2.86628
 Alpha virt. eigenvalues --    2.87643   2.89129   2.92234   2.92823   2.95411
 Alpha virt. eigenvalues --    2.96781   2.98999   2.99845   3.00580   3.01801
 Alpha virt. eigenvalues --    3.03782   3.05305   3.08761   3.09939   3.11688
 Alpha virt. eigenvalues --    3.13855   3.15645   3.17655   3.20892   3.22284
 Alpha virt. eigenvalues --    3.22845   3.23663   3.25164   3.29737   3.30322
 Alpha virt. eigenvalues --    3.30888   3.34613   3.35842   3.36488   3.38090
 Alpha virt. eigenvalues --    3.39867   3.42419   3.44465   3.46055   3.47196
 Alpha virt. eigenvalues --    3.50126   3.53626   3.55689   3.56379   3.60295
 Alpha virt. eigenvalues --    3.62437   3.64740   3.67924   3.70512   3.72149
 Alpha virt. eigenvalues --    3.76707   3.77701   3.80639   3.82127   3.83037
 Alpha virt. eigenvalues --    3.86269   3.92145   3.93708   3.96395   3.97905
 Alpha virt. eigenvalues --    3.99874   4.04611   4.09710   4.10717   4.13043
 Alpha virt. eigenvalues --    4.19450   4.21177   4.23354   4.25602   4.29224
 Alpha virt. eigenvalues --    4.30950   4.31252   4.33434   4.37776   4.38325
 Alpha virt. eigenvalues --    4.41404   4.42178   4.43015   4.48228   4.50423
 Alpha virt. eigenvalues --    4.52534   4.52971   4.54398   4.57954   4.60173
 Alpha virt. eigenvalues --    4.61120   4.61847   4.64165   4.65086   4.65934
 Alpha virt. eigenvalues --    4.66996   4.67978   4.73752   4.73991   4.77135
 Alpha virt. eigenvalues --    4.79167   4.79642   4.83277   4.86630   4.87544
 Alpha virt. eigenvalues --    4.91115   4.94652   4.98779   5.04814   5.09566
 Alpha virt. eigenvalues --    5.15265   5.17146   5.17756   5.22804   5.27594
 Alpha virt. eigenvalues --    5.28388   5.30940   5.32817   5.41898   5.46953
 Alpha virt. eigenvalues --    5.50723   5.56228   5.58768   5.67984   5.70384
 Alpha virt. eigenvalues --    5.72834   5.83609   5.86532   5.91672   6.09258
 Alpha virt. eigenvalues --    6.28383   6.44744   7.10049  10.05982  10.28507
 Alpha virt. eigenvalues --   10.65637  11.27534  11.53016  11.77893  12.00937
 Alpha virt. eigenvalues --   12.12538  13.34354
          Condensed to atoms (all electrons):
               1          2          3          4          5          6
     1  C    5.068953   0.341552   0.009161  -0.010936   0.004881   0.000212
     2  C    0.341552   5.044063   0.584166  -0.041114  -0.048501  -0.016534
     3  C    0.009161   0.584166   4.477716   0.399573   0.396234  -0.020317
     4  O   -0.010936  -0.041114   0.399573   7.796630  -0.040048  -0.001421
     5  C    0.004881  -0.048501   0.396234  -0.040048   4.769819   0.590150
     6  C    0.000212  -0.016534  -0.020317  -0.001421   0.590150   4.936313
     7  C   -0.000016   0.000918   0.005627  -0.000046  -0.001340   0.420771
     8  C    0.000000  -0.000025   0.000113  -0.000001  -0.017889  -0.002590
     9  C   -0.000000   0.000001  -0.000031  -0.000000   0.001574  -0.018424
    10  S    0.000000  -0.000000   0.000001   0.000000  -0.000075   0.000372
    11  S    0.000008   0.000068   0.003061   0.000120  -0.022264   0.004435
    12  S   -0.000387   0.006359  -0.052562   0.012249   0.294130  -0.055347
    13  H    0.374251  -0.012315   0.000848   0.000314  -0.000128  -0.000006
    14  H    0.369789  -0.031839  -0.009243   0.002322   0.000265  -0.000016
    15  H    0.366726  -0.025303  -0.008652   0.001834  -0.000317   0.000038
    16  H   -0.057511   0.367118  -0.014313   0.002935  -0.011465   0.003850
    17  H    0.009635  -0.014862  -0.050074   0.315276   0.006448  -0.000009
    18  H   -0.000289   0.006008  -0.015289   0.000014  -0.037049   0.352883
    19  H    0.000000   0.000032  -0.000218   0.000001   0.003556  -0.057331
    20  H    0.000000   0.000000   0.000003  -0.000000   0.000124   0.006040
               7          8          9         10         11         12
     1  C   -0.000016   0.000000  -0.000000   0.000000   0.000008  -0.000387
     2  C    0.000918  -0.000025   0.000001  -0.000000   0.000068   0.006359
     3  C    0.005627   0.000113  -0.000031   0.000001   0.003061  -0.052562
     4  O   -0.000046  -0.000001  -0.000000   0.000000   0.000120   0.012249
     5  C   -0.001340  -0.017889   0.001574  -0.000075  -0.022264   0.294130
     6  C    0.420771  -0.002590  -0.018424   0.000372   0.004435  -0.055347
     7  C    4.758364   0.591304  -0.009832   0.005840  -0.014686  -0.010545
     8  C    0.591304   4.801634   0.471515  -0.043025  -0.036341   0.010027
     9  C   -0.009832   0.471515   4.724894   0.442794   0.297667  -0.016273
    10  S    0.005840  -0.043025   0.442794  15.959116  -0.076315   0.003423
    11  S   -0.014686  -0.036341   0.297667  -0.076315  15.717467   0.135980
    12  S   -0.010545   0.010027  -0.016273   0.003423   0.135980  15.722519
    13  H   -0.000000  -0.000000   0.000000  -0.000000  -0.000000   0.000004
    14  H   -0.000001   0.000000  -0.000000  -0.000000   0.000000  -0.000004
    15  H    0.000001  -0.000000   0.000000   0.000000  -0.000000   0.000033
    16  H    0.000270   0.000000   0.000000  -0.000000  -0.000078  -0.000049
    17  H    0.000002   0.000000  -0.000000   0.000000  -0.000004  -0.000943
    18  H   -0.039303   0.004424   0.000145   0.000008  -0.000778   0.008404
    19  H    0.375017  -0.035878   0.005285  -0.000330  -0.000328   0.000364
    20  H   -0.038767   0.363440  -0.048280  -0.000493   0.007026  -0.000653
              13         14         15         16         17         18
     1  C    0.374251   0.369789   0.366726  -0.057511   0.009635  -0.000289
     2  C   -0.012315  -0.031839  -0.025303   0.367118  -0.014862   0.006008
     3  C    0.000848  -0.009243  -0.008652  -0.014313  -0.050074  -0.015289
     4  O    0.000314   0.002322   0.001834   0.002935   0.315276   0.000014
     5  C   -0.000128   0.000265  -0.000317  -0.011465   0.006448  -0.037049
     6  C   -0.000006  -0.000016   0.000038   0.003850  -0.000009   0.352883
     7  C   -0.000000  -0.000001   0.000001   0.000270   0.000002  -0.039303
     8  C   -0.000000   0.000000  -0.000000   0.000000   0.000000   0.004424
     9  C    0.000000  -0.000000   0.000000   0.000000  -0.000000   0.000145
    10  S   -0.000000  -0.000000   0.000000  -0.000000   0.000000   0.000008
    11  S   -0.000000   0.000000  -0.000000  -0.000078  -0.000004  -0.000778
    12  S    0.000004  -0.000004   0.000033  -0.000049  -0.000943   0.008404
    13  H    0.563783  -0.028465  -0.027096  -0.006750  -0.000341   0.000001
    14  H   -0.028465   0.597691  -0.038301   0.004314   0.003173  -0.000025
    15  H   -0.027096  -0.038301   0.589333   0.004101   0.003074   0.000013
    16  H   -0.006750   0.004314   0.004101   0.600791   0.000186   0.003065
    17  H   -0.000341   0.003173   0.003074   0.000186   0.420764  -0.000018
    18  H    0.000001  -0.000025   0.000013   0.003065  -0.000018   0.611515
    19  H   -0.000000  -0.000000   0.000000   0.000003  -0.000000  -0.007496
    20  H   -0.000000  -0.000000   0.000000  -0.000000   0.000000  -0.000220
              19         20
     1  C    0.000000   0.000000
     2  C    0.000032   0.000000
     3  C   -0.000218   0.000003
     4  O    0.000001  -0.000000
     5  C    0.003556   0.000124
     6  C   -0.057331   0.006040
     7  C    0.375017  -0.038767
     8  C   -0.035878   0.363440
     9  C    0.005285  -0.048280
    10  S   -0.000330  -0.000493
    11  S   -0.000328   0.007026
    12  S    0.000364  -0.000653
    13  H   -0.000000  -0.000000
    14  H   -0.000000  -0.000000
    15  H    0.000000   0.000000
    16  H    0.000003  -0.000000
    17  H   -0.000000   0.000000
    18  H   -0.007496  -0.000220
    19  H    0.609964  -0.013125
    20  H   -0.013125   0.596470
 Mulliken charges:
               1
     1  C   -0.476028
     2  C   -0.159791
     3  C    0.294196
     4  O   -0.437701
     5  C    0.111898
     6  C   -0.143067
     7  C   -0.043576
     8  C   -0.106708
     9  C    0.148964
    10  S   -0.291316
    11  S   -0.015037
    12  S   -0.056730
    13  H    0.135900
    14  H    0.130340
    15  H    0.134518
    16  H    0.103534
    17  H    0.307696
    18  H    0.113988
    19  H    0.120485
    20  H    0.128434
 Sum of Mulliken charges =  -0.00000
 Mulliken charges with hydrogens summed into heavy atoms:
               1
     1  C   -0.075270
     2  C   -0.056256
     3  C    0.294196
     4  O   -0.130005
     5  C    0.111898
     6  C   -0.029079
     7  C    0.076909
     8  C    0.021725
     9  C    0.148964
    10  S   -0.291316
    11  S   -0.015037
    12  S   -0.056730
 Electronic spatial extent (au):  <R**2>=           3640.5579
 Charge=             -0.0000 electrons
 Dipole moment (field-independent basis, Debye):
    X=              5.6765    Y=              2.3727    Z=             -0.0797  Tot=              6.1529
 Quadrupole moment (field-independent basis, Debye-Ang):
   XX=            -89.4636   YY=            -87.5277   ZZ=            -91.9792
   XY=             -1.6771   XZ=              2.6872   YZ=             -0.5908
 Traceless Quadrupole moment (field-independent basis, Debye-Ang):
   XX=              0.1933   YY=              2.1291   ZZ=             -2.3224
   XY=             -1.6771   XZ=              2.6872   YZ=             -0.5908
 Octapole moment (field-independent basis, Debye-Ang**2):
  XXX=            147.0801  YYY=              8.2895  ZZZ=             -1.0762  XYY=              9.7065
  XXY=             -5.3336  XXZ=             -8.0272  XZZ=              7.1316  YZZ=              0.4843
  YYZ=             -5.7228  XYZ=              4.3266
 Hexadecapole moment (field-independent basis, Debye-Ang**3):
 XXXX=          -3823.5523 YYYY=           -630.9787 ZZZZ=           -330.3364 XXXY=            -50.4765
 XXXZ=            -20.2940 YYYX=            -18.6812 YYYZ=             -7.9490 ZZZX=             -9.5239
 ZZZY=              7.2268 XXYY=           -764.2088 XXZZ=           -693.4453 YYZZ=           -159.5304
 XXYZ=             24.4331 YYXZ=             10.3421 ZZXY=              0.8334
 N-N= 9.555620968728D+02 E-N=-5.644650694026D+03  KE= 1.572999798770D+03
 PrsmSu:  requested number of processors reduced to:  13 ShMem   1 Linda.
 Calling FoFJK, ICntrl=      2127 FMM=F ISym2X=0 I1Cent= 0 IOpClX= 0 NMat=1 NMatS=1 NMatT=0.
 ***** Axes restored to original set *****
 -------------------------------------------------------------------
 Center     Atomic                   Forces (Hartrees/Bohr)
 Number     Number              X              Y              Z
 -------------------------------------------------------------------
      1        6          -0.000876812    0.000478150    0.000739006
      2        6           0.012676705    0.004256345    0.004641092
      3        6          -0.021601031    0.000623972    0.005749707
      4        8           0.005150446    0.005928967    0.001803661
      5        6          -0.014785084   -0.005856187    0.005395597
      6        6           0.005352052   -0.005013818    0.014469905
      7        6          -0.012567419    0.007079101    0.000966123
      8        6           0.025810564    0.001831799   -0.025657320
      9        6           0.020656442   -0.014794369    0.020231175
     10       16          -0.026021391    0.000131133    0.006405733
     11       16           0.009072494    0.007751740   -0.007149796
     12       16           0.000658142   -0.003964262   -0.007126394
     13        1          -0.002439797   -0.001223642   -0.002344968
     14        1          -0.005543329   -0.001184764   -0.001274259
     15        1          -0.007251224   -0.000496518   -0.001378912
     16        1           0.003371120   -0.002336078   -0.005871128
     17        1           0.006742880    0.001825757   -0.000808776
     18        1          -0.003734007   -0.002741912   -0.006024473
     19        1           0.002988528    0.003073027    0.000198435
     20        1           0.002340721    0.004631560   -0.002964407
 -------------------------------------------------------------------
 Cartesian Forces:  Max     0.026021391 RMS     0.009306290

 GradGradGradGradGradGradGradGradGradGradGradGradGradGradGradGradGradGrad
 Berny optimization.
 FormGI is forming the generalized inverse of G from B-inverse, IUseBI=4.
 Internal  Forces:  Max     0.026520670 RMS     0.007367681
 Search for a local minimum.
 Step number   1 out of a maximum of   97
 All quantities printed in internal units (Hartrees-Bohrs-Radians)
 Mixed Optimization -- RFO/linear search
 Second derivative matrix not updated -- first step.
 ITU=  0
     Eigenvalues ---    0.00905   0.00943   0.01272   0.01336   0.01730
     Eigenvalues ---    0.01804   0.01882   0.01952   0.02097   0.02176
     Eigenvalues ---    0.02226   0.02414   0.02619   0.02822   0.05921
     Eigenvalues ---    0.07417   0.07579   0.15776   0.15995   0.15998
     Eigenvalues ---    0.16000   0.16000   0.16000   0.16000   0.16000
     Eigenvalues ---    0.19213   0.21105   0.22001   0.22666   0.22824
     Eigenvalues ---    0.24924   0.24936   0.24958   0.24960   0.28158
     Eigenvalues ---    0.29364   0.30508   0.32697   0.33823   0.34269
     Eigenvalues ---    0.34390   0.34535   0.34716   0.34793   0.34934
     Eigenvalues ---    0.34970   0.36747   0.37404   0.39436   0.49039
     Eigenvalues ---    0.53475   0.53857   0.55688   0.56195
 RFO step:  Lambda=-1.92773841D-02 EMin= 9.05240292D-03
 Linear search not attempted -- first point.
 Iteration  1 RMS(Cart)=  0.12249292 RMS(Int)=  0.00395833
 Iteration  2 RMS(Cart)=  0.00747557 RMS(Int)=  0.00070144
 Iteration  3 RMS(Cart)=  0.00000881 RMS(Int)=  0.00070140
 Iteration  4 RMS(Cart)=  0.00000001 RMS(Int)=  0.00070140
 Variable       Old X    -DE/DX   Delta X   Delta X   Delta X     New X
                                 (Linear)    (Quad)   (Total)
    R1        2.80930   0.01588   0.00000   0.04442   0.04442   2.85372
    R2        2.06677  -0.00171   0.00000  -0.00470  -0.00470   2.06207
    R3        2.06878   0.00266   0.00000   0.00735   0.00735   2.07614
    R4        2.06436   0.00388   0.00000   0.01064   0.01064   2.07500
    R5        2.54085  -0.00367   0.00000  -0.00631  -0.00631   2.53454
    R6        2.05724  -0.00369   0.00000  -0.01000  -0.01000   2.04723
    R7        2.60848  -0.01047   0.00000  -0.02055  -0.02055   2.58793
    R8        2.76229   0.00996   0.00000   0.02576   0.02576   2.78805
    R9        1.83213  -0.00668   0.00000  -0.01206  -0.01206   1.82007
   R10        2.54786   0.01003   0.00000   0.01730   0.01712   2.56498
   R11        3.29519   0.01388   0.00000   0.04113   0.04089   3.33608
   R12        2.71239   0.00966   0.00000   0.02350   0.02355   2.73594
   R13        2.06012  -0.00301   0.00000  -0.00820  -0.00820   2.05192
   R14        2.53376   0.02156   0.00000   0.03672   0.03684   2.57060
   R15        2.06139  -0.00138   0.00000  -0.00377  -0.00377   2.05762
   R16        2.82006  -0.02598   0.00000  -0.07446  -0.07437   2.74569
   R17        2.05782  -0.00155   0.00000  -0.00422  -0.00422   2.05360
   R18        3.18942  -0.02652   0.00000  -0.06743  -0.06743   3.12199
   R19        3.32079   0.00361   0.00000   0.01046   0.01047   3.33126
   R20        3.88104   0.00923   0.00000   0.03128   0.03142   3.91246
    A1        1.91661   0.00238   0.00000   0.01420   0.01392   1.93052
    A2        1.93044   0.00487   0.00000   0.02707   0.02672   1.95716
    A3        1.92144   0.00694   0.00000   0.03783   0.03746   1.95890
    A4        1.88245  -0.00324   0.00000  -0.01637  -0.01661   1.86584
    A5        1.89260  -0.00464   0.00000  -0.02571  -0.02600   1.86660
    A6        1.91952  -0.00671   0.00000  -0.03920  -0.03959   1.87993
    A7        2.18549  -0.00405   0.00000  -0.01676  -0.01692   2.16856
    A8        2.01262   0.00797   0.00000   0.04187   0.04171   2.05433
    A9        2.08466  -0.00389   0.00000  -0.02421  -0.02437   2.06029
   A10        2.13798   0.00429   0.00000   0.01873   0.01684   2.15483
   A11        2.14595   0.01108   0.00000   0.04377   0.04188   2.18783
   A12        1.99556  -0.01500   0.00000  -0.05337  -0.05522   1.94034
   A13        1.90955  -0.00230   0.00000  -0.01285  -0.01285   1.89671
   A14        2.06994   0.01833   0.00000   0.06592   0.06583   2.13576
   A15        2.05737  -0.00628   0.00000  -0.02507  -0.02523   2.03214
   A16        2.14975  -0.01175   0.00000  -0.03559  -0.03647   2.11328
   A17        2.25577  -0.00153   0.00000   0.00195   0.00177   2.25753
   A18        2.06254  -0.00515   0.00000  -0.03241  -0.03258   2.02996
   A19        1.94884   0.00703   0.00000   0.03636   0.03621   1.98505
   A20        2.30492   0.00883   0.00000   0.04726   0.04718   2.35210
   A21        1.94786  -0.00166   0.00000  -0.00820  -0.00826   1.93960
   A22        2.03038  -0.00717   0.00000  -0.03892  -0.03897   1.99141
   A23        2.30882  -0.00143   0.00000   0.00106   0.00038   2.30920
   A24        2.00247   0.00613   0.00000   0.02917   0.02836   2.03083
   A25        1.97177  -0.00473   0.00000  -0.03130  -0.03195   1.93982
   A26        2.10459   0.00186   0.00000   0.00179   0.00082   2.10540
   A27        2.08412   0.00401   0.00000   0.01852   0.01745   2.10157
   A28        2.09144  -0.00595   0.00000  -0.02635  -0.02715   2.06429
   A29        1.78641   0.00069   0.00000   0.01561   0.01478   1.80119
   A30        1.71767   0.01017   0.00000   0.05663   0.05605   1.77372
    D1        3.11520   0.00073   0.00000   0.01817   0.01839   3.13359
    D2        0.00496  -0.00044   0.00000  -0.01546  -0.01571  -0.01076
    D3        1.03957   0.00022   0.00000   0.01270   0.01299   1.05256
    D4       -2.07068  -0.00095   0.00000  -0.02094  -0.02111  -2.09179
    D5       -1.08539   0.00078   0.00000   0.01875   0.01894  -1.06645
    D6        2.08755  -0.00039   0.00000  -0.01489  -0.01516   2.07239
    D7        0.00120   0.00170   0.00000   0.04707   0.04876   0.04996
    D8       -3.04295  -0.00250   0.00000  -0.07038  -0.07136  -3.11431
    D9        3.11025   0.00311   0.00000   0.08307   0.08406  -3.08887
   D10        0.06611  -0.00110   0.00000  -0.03437  -0.03606   0.03005
   D11        0.02895  -0.00101   0.00000  -0.01626  -0.01464   0.01431
   D12        3.08082   0.00412   0.00000   0.09655   0.09492  -3.10744
   D13        0.75142   0.00098   0.00000   0.01986   0.01864   0.77005
   D14       -2.50511   0.00296   0.00000   0.06651   0.06629  -2.43882
   D15       -2.29999  -0.00377   0.00000  -0.09205  -0.09183  -2.39183
   D16        0.72667  -0.00179   0.00000  -0.04539  -0.04418   0.68249
   D17        2.82560   0.00596   0.00000   0.10948   0.10943   2.93503
   D18       -0.10701   0.00297   0.00000   0.06778   0.06808  -0.03893
   D19       -0.19459   0.00333   0.00000   0.05895   0.05838  -0.13621
   D20       -3.12720   0.00035   0.00000   0.01725   0.01702  -3.11018
   D21        2.29799  -0.00040   0.00000  -0.04960  -0.04832   2.24967
   D22       -0.96418   0.00382   0.00000   0.00655   0.00591  -0.95827
   D23        0.66163  -0.00335   0.00000  -0.06410  -0.06478   0.59685
   D24       -2.47162  -0.00388   0.00000  -0.08619  -0.08717  -2.55878
   D25       -2.67803  -0.00164   0.00000  -0.03102  -0.03083  -2.70886
   D26        0.47191  -0.00216   0.00000  -0.05312  -0.05322   0.41869
   D27        0.10098   0.00037   0.00000   0.02505   0.02501   0.12599
   D28       -3.05965  -0.00164   0.00000  -0.05190  -0.05281  -3.11246
   D29       -3.04927   0.00094   0.00000   0.04810   0.04802  -3.00125
   D30        0.07329  -0.00107   0.00000  -0.02884  -0.02981   0.04348
   D31        2.98505  -0.00175   0.00000  -0.10914  -0.10897   2.87608
   D32       -0.07271  -0.00037   0.00000  -0.02475  -0.02464  -0.09735
   D33       -0.13777   0.00014   0.00000  -0.03373  -0.03471  -0.17247
   D34        3.08766   0.00152   0.00000   0.05066   0.04963   3.13729
   D35       -0.86685   0.00562   0.00000   0.06194   0.06230  -0.80456
   D36        2.35793   0.00662   0.00000   0.14434   0.14338   2.50131
   D37        1.47480   0.00025   0.00000  -0.03972  -0.03979   1.43501
         Item               Value     Threshold  Converged?
 Maximum Force            0.026521     0.000450     NO 
 RMS     Force            0.007368     0.000300     NO 
 Maximum Displacement     0.355264     0.001800     NO 
 RMS     Displacement     0.120659     0.001200     NO 
 Predicted change in Energy=-1.136410D-02
 GradGradGradGradGradGradGradGradGradGradGradGradGradGradGradGradGradGrad

                          Input orientation:                          
 ---------------------------------------------------------------------
 Center     Atomic      Atomic             Coordinates (Angstroms)
 Number     Number       Type             X           Y           Z
 ---------------------------------------------------------------------
      1          6           0        0.947315    0.092623   -0.038138
      2          6           0        2.455603    0.037928    0.012287
      3          6           0        3.209287   -0.744378   -0.774370
      4          8           0        2.694248   -1.546245   -1.757834
      5          6           0        4.680603   -0.841327   -0.723800
      6          6           0        5.363251   -0.930099    0.446011
      7          6           0        6.754623   -1.258941    0.674189
      8          6           0        7.915276   -1.031969    0.002039
      9          6           0        8.225306   -0.235463   -1.172928
     10         16           0        9.789712    0.145881   -1.542522
     11         16           0        6.936711    0.550502   -2.083605
     12         16           0        5.515314   -0.942508   -2.276083
     13          1           0        0.563475    0.796063    0.702511
     14          1           0        0.490164   -0.882248    0.180171
     15          1           0        0.576010    0.424032   -1.016913
     16          1           0        2.958983    0.674782    0.729693
     17          1           0        1.738126   -1.432230   -1.779480
     18          1           0        4.769396   -0.888445    1.354103
     19          1           0        6.881168   -1.803294    1.608665
     20          1           0        8.817269   -1.448265    0.442565
 ---------------------------------------------------------------------
                    Distance matrix (angstroms):
                    1          2          3          4          5
     1  C    0.000000
     2  C    1.510121   0.000000
     3  C    2.521731   1.341220   0.000000
     4  O    2.948732   2.387444   1.369474   0.000000
     5  C    3.908943   2.503105   1.475373   2.347710   0.000000
     6  C    4.558602   3.095094   2.482616   3.515700   1.357330
     7  C    6.004911   4.538893   3.864259   4.741721   2.535810
     8  C    7.058243   5.563525   4.778268   5.533603   3.320587
     9  C    7.373231   5.896520   5.057498   5.714269   3.624045
    10  S    8.969615   7.497882   6.684654   7.297620   5.267625
    11  S    6.345585   4.973512   4.157463   4.743518   2.979308
    12  S    5.191002   3.944581   2.759013   2.931124   1.765379
    13  H    1.091203   2.152052   3.399185   4.009976   4.654692
    14  H    1.098644   2.176663   2.885098   3.009111   4.287029
    15  H    1.098043   2.177429   2.891048   2.986284   4.305198
    16  H    2.230534   1.083350   2.082996   3.345272   2.715733
    17  H    2.445983   2.426225   1.909896   0.963140   3.181478
    18  H    4.184392   2.830596   2.642932   3.797775   2.080333
    19  H    6.443374   5.052142   4.503650   5.378632   3.347873
    20  H    8.033777   6.547114   5.781509   6.507130   4.340597
                    6          7          8          9         10
     6  C    0.000000
     7  C    1.447798   0.000000
     8  C    2.592358   1.360301   0.000000
     9  C    3.360780   2.573374   1.452958   0.000000
    10  S    4.970468   4.012368   2.699353   1.652086   0.000000
    11  S    3.326697   3.303432   2.794944   1.762825   2.931911
    12  S    2.726366   3.215606   3.310236   3.010137   4.471374
    13  H    5.107179   6.523355   7.607979   7.955186   9.517687
    14  H    4.880567   6.295188   7.428758   7.879190   9.513481
    15  H    5.185700   6.623253   7.551359   7.679258   9.232872
    16  H    2.904586   4.260193   5.292194   5.672977   7.218141
    17  H    4.283279   5.587107   6.441367   6.624475   8.208204
    18  H    1.085831   2.130886   3.427132   4.330772   5.887600
    19  H    2.101976   1.088843   2.060478   3.464399   4.710509
    20  H    3.492670   2.084227   1.086718   2.105024   2.725347
                   11         12         13         14         15
    11  S    0.000000
    12  S    2.070386   0.000000
    13  H    6.959948   6.034514   0.000000
    14  H    6.981076   5.593652   1.759244   0.000000
    15  H    6.450763   5.277278   1.759256   1.773907   0.000000
    16  H    4.873644   4.264404   2.398731   2.970082   2.965142
    17  H    5.572163   3.841040   3.536295   2.387493   2.318994
    18  H    4.311108   3.706422   4.577327   4.437340   4.992875
    19  H    4.379075   4.206872   6.891373   6.613157   7.183985
    20  H    3.730027   4.306941   8.557435   8.350443   8.576358
                   16         17         18         19         20
    16  H    0.000000
    17  H    3.496562   0.000000
    18  H    2.472077   4.393592   0.000000
    19  H    4.721968   6.169934   2.315454   0.000000
    20  H    6.237730   7.419704   4.186833   2.287864   0.000000
 Stoichiometry    C8H8OS3
 Framework group  C1[X(C8H8OS3)]
 Deg. of freedom    54
 Full point group                 C1      NOp   1
 Largest Abelian subgroup         C1      NOp   1
 Largest concise Abelian subgroup C1      NOp   1
                         Standard orientation:                         
 ---------------------------------------------------------------------
 Center     Atomic      Atomic             Coordinates (Angstroms)
 Number     Number       Type             X           Y           Z
 ---------------------------------------------------------------------
      1          6           0        4.818380    0.255010    0.925310
      2          6           0        3.333214    0.507008    0.819267
      3          6           0        2.545464   -0.013151   -0.133496
      4          8           0        2.993205   -0.883036   -1.091769
      5          6           0        1.099720    0.242334   -0.279364
      6          6           0        0.566032    1.484956   -0.163550
      7          6           0       -0.764509    1.947359   -0.498159
      8          6           0       -2.008236    1.397963   -0.456635
      9          6           0       -2.505203    0.141933    0.078622
     10         16           0       -4.123716   -0.090926    0.314380
     11         16           0       -1.386361   -1.058865    0.721917
     12         16           0        0.097423   -1.142653   -0.719563
     13          1           0        5.239407    0.792640    1.776435
     14          1           0        5.360803    0.595203    0.032524
     15          1           0        5.050019   -0.808253    1.071981
     16          1           0        2.876680    1.147947    1.563862
     17          1           0        3.930682   -1.047880   -0.944798
     18          1           0        1.258120    2.285057    0.081160
     19          1           0       -0.744842    2.976913   -0.852012
     20          1           0       -2.823230    2.021280   -0.814708
 ---------------------------------------------------------------------
 Rotational constants (GHZ):           1.6717076           0.3174500           0.2946772
 Standard basis: 6-31G(2df,p) (6D, 7F)
 There are   424 symmetry adapted cartesian basis functions of A   symmetry.
 There are   388 symmetry adapted basis functions of A   symmetry.
   388 basis functions,   656 primitive gaussians,   424 cartesian basis functions
    56 alpha electrons       56 beta electrons
       nuclear repulsion energy       952.5289427600 Hartrees.
 NAtoms=   20 NActive=   20 NUniq=   20 SFac= 1.00D+00 NAtFMM=   60 NAOKFM=F Big=F
 Integral buffers will be    131072 words long.
 Raffenetti 2 integral format.
 Two-electron integral symmetry is turned on.
 One-electron integrals computed using PRISM.
 PrsmSu:  requested number of processors reduced to:  13 ShMem   1 Linda.
 NBasis=   388 RedAO= T EigKep=  4.31D-04  NBF=   388
 NBsUse=   388 1.00D-06 EigRej= -1.00D+00 NBFU=   388
 Initial guess from the checkpoint file:  "CCdCqOrC1dCCdCCqdSrSS1.chk"
 B after Tr=    -0.000000   -0.000000    0.000000
         Rot=    0.999756   -0.021636   -0.001406   -0.004183 Ang=  -2.53 deg.
 ExpMin= 1.17D-01 ExpMax= 2.19D+04 ExpMxC= 3.30D+03 IAcc=2 IRadAn=         4 AccDes= 0.00D+00
 Harris functional with IExCor=  402 and IRadAn=       4 diagonalized for initial guess.
 HarFok:  IExCor=  402 AccDes= 0.00D+00 IRadAn=         4 IDoV= 1 UseB2=F ITyADJ=14
 ICtDFT=  3500011 ScaDFX=  1.000000  1.000000  1.000000  1.000000
 FoFCou: FMM=F IPFlag=           0 FMFlag=      100000 FMFlg1=           0
         NFxFlg=           0 DoJE=T BraDBF=F KetDBF=T FulRan=T
         wScrn=  0.000000 ICntrl=       500 IOpCl=  0 I1Cent=   200000004 NGrid=           0
         NMat0=    1 NMatS0=      1 NMatT0=    0 NMatD0=    1 NMtDS0=    0 NMtDT0=    0
 Petite list used in FoFCou.
 Requested convergence on RMS density matrix=1.00D-08 within 128 cycles.
 Requested convergence on MAX density matrix=1.00D-06.
 Requested convergence on             energy=1.00D-06.
 No special actions if energy rises.
 Integral accuracy reduced to 1.0D-05 until final iterations.
 Initial convergence to 1.0D-05 achieved.  Increase integral accuracy.
 SCF Done:  E(RB3LYP) =  -1579.44043432     A.U. after   14 cycles
            NFock= 14  Conv=0.45D-08     -V/T= 2.0041
 PrsmSu:  requested number of processors reduced to:  13 ShMem   1 Linda.
 Calling FoFJK, ICntrl=      2127 FMM=F ISym2X=0 I1Cent= 0 IOpClX= 0 NMat=1 NMatS=1 NMatT=0.
 ***** Axes restored to original set *****
 -------------------------------------------------------------------
 Center     Atomic                   Forces (Hartrees/Bohr)
 Number     Number              X              Y              Z
 -------------------------------------------------------------------
      1        6           0.003204245   -0.000776888   -0.000197819
      2        6           0.000073451    0.000443227    0.003288379
      3        6          -0.000987011    0.000406414   -0.002304824
      4        8           0.000955720    0.000085376    0.002373466
      5        6          -0.003273658    0.002185469    0.006563288
      6        6           0.004152682   -0.002930827   -0.000821362
      7        6          -0.004906757    0.004569303   -0.000467497
      8        6           0.000667723   -0.004500610   -0.006462357
      9        6           0.002993374    0.000628493    0.009140364
     10       16          -0.002450108    0.001635142   -0.001881317
     11       16           0.002678451    0.000619751   -0.003099208
     12       16          -0.001675003   -0.002280946   -0.004806806
     13        1          -0.000210580    0.000439921   -0.000077244
     14        1          -0.000166432    0.000022351   -0.000672116
     15        1          -0.000649805   -0.000049800   -0.000499637
     16        1           0.000822366   -0.000636184   -0.000408458
     17        1          -0.000264171    0.000261621   -0.001905963
     18        1          -0.001649775   -0.001948464    0.000008265
     19        1           0.001494878    0.001861137    0.001256020
     20        1          -0.000809588   -0.000034483    0.000974825
 -------------------------------------------------------------------
 Cartesian Forces:  Max     0.009140364 RMS     0.002591201

 GradGradGradGradGradGradGradGradGradGradGradGradGradGradGradGradGradGrad
 Berny optimization.
 Using GEDIIS/GDIIS optimizer.
 FormGI is forming the generalized inverse of G from B-inverse, IUseBI=4.
 Internal  Forces:  Max     0.005048895 RMS     0.001578163
 Search for a local minimum.
 Step number   2 out of a maximum of   97
 All quantities printed in internal units (Hartrees-Bohrs-Radians)
 Mixed Optimization -- RFO/linear search
 Update second derivatives using D2CorX and points    1    2
 DE= -1.08D-02 DEPred=-1.14D-02 R= 9.48D-01
 TightC=F SS=  1.41D+00  RLast= 4.23D-01 DXNew= 5.0454D-01 1.2697D+00
 Trust test= 9.48D-01 RLast= 4.23D-01 DXMaxT set to 5.05D-01
 ITU=  1  0
 Use linear search instead of GDIIS.
     Eigenvalues ---    0.00943   0.00985   0.01266   0.01304   0.01702
     Eigenvalues ---    0.01795   0.01897   0.01945   0.02151   0.02196
     Eigenvalues ---    0.02250   0.02362   0.02633   0.02835   0.05292
     Eigenvalues ---    0.07084   0.07326   0.15480   0.15895   0.15976
     Eigenvalues ---    0.16000   0.16000   0.16000   0.16000   0.16318
     Eigenvalues ---    0.19336   0.21536   0.21867   0.22712   0.22843
     Eigenvalues ---    0.23574   0.24950   0.24986   0.26043   0.27976
     Eigenvalues ---    0.29372   0.29950   0.32707   0.34228   0.34312
     Eigenvalues ---    0.34421   0.34518   0.34722   0.34856   0.34931
     Eigenvalues ---    0.34972   0.36841   0.37571   0.40465   0.48975
     Eigenvalues ---    0.53501   0.54174   0.55459   0.56201
 RFO step:  Lambda=-2.70169320D-03 EMin= 9.42966793D-03
 Quartic linear search produced a step of  0.14185.
 Iteration  1 RMS(Cart)=  0.07385117 RMS(Int)=  0.00246972
 Iteration  2 RMS(Cart)=  0.00377087 RMS(Int)=  0.00059602
 Iteration  3 RMS(Cart)=  0.00000383 RMS(Int)=  0.00059602
 Iteration  4 RMS(Cart)=  0.00000000 RMS(Int)=  0.00059602
 Variable       Old X    -DE/DX   Delta X   Delta X   Delta X     New X
                                 (Linear)    (Quad)   (Total)
    R1        2.85372  -0.00214   0.00630  -0.00954  -0.00324   2.85047
    R2        2.06207   0.00031  -0.00067   0.00126   0.00059   2.06266
    R3        2.07614  -0.00008   0.00104  -0.00068   0.00036   2.07650
    R4        2.07500   0.00065   0.00151   0.00154   0.00305   2.07805
    R5        2.53454  -0.00121  -0.00090  -0.00210  -0.00299   2.53154
    R6        2.04723  -0.00026  -0.00142  -0.00030  -0.00172   2.04552
    R7        2.58793  -0.00080  -0.00291  -0.00076  -0.00367   2.58426
    R8        2.78805  -0.00274   0.00365  -0.00979  -0.00614   2.78191
    R9        1.82007   0.00034  -0.00171   0.00134  -0.00037   1.81970
   R10        2.56498  -0.00129   0.00243  -0.00472  -0.00206   2.56293
   R11        3.33608   0.00448   0.00580   0.01502   0.02093   3.35701
   R12        2.73594  -0.00350   0.00334  -0.01361  -0.01012   2.72582
   R13        2.05192   0.00083  -0.00116   0.00314   0.00198   2.05390
   R14        2.57060   0.00091   0.00523  -0.00142   0.00383   2.57442
   R15        2.05762   0.00032  -0.00054   0.00125   0.00071   2.05833
   R16        2.74569  -0.00208  -0.01055  -0.00291  -0.01356   2.73213
   R17        2.05360  -0.00026  -0.00060  -0.00062  -0.00122   2.05238
   R18        3.12199  -0.00152  -0.00956  -0.00093  -0.01050   3.11149
   R19        3.33126   0.00121   0.00149   0.00697   0.00827   3.33952
   R20        3.91246   0.00241   0.00446   0.00948   0.01380   3.92626
    A1        1.93052   0.00017   0.00197   0.00140   0.00332   1.93385
    A2        1.95716   0.00022   0.00379  -0.00001   0.00373   1.96089
    A3        1.95890   0.00039   0.00531  -0.00074   0.00452   1.96343
    A4        1.86584   0.00016  -0.00236   0.00443   0.00203   1.86786
    A5        1.86660  -0.00034  -0.00369  -0.00102  -0.00475   1.86185
    A6        1.87993  -0.00065  -0.00562  -0.00398  -0.00965   1.87028
    A7        2.16856  -0.00185  -0.00240  -0.00844  -0.01091   2.15765
    A8        2.05433   0.00203   0.00592   0.00983   0.01567   2.07000
    A9        2.06029  -0.00018  -0.00346  -0.00142  -0.00494   2.05535
   A10        2.15483   0.00314   0.00239   0.01321   0.01528   2.17011
   A11        2.18783  -0.00282   0.00594  -0.01495  -0.00933   2.17850
   A12        1.94034  -0.00033  -0.00783   0.00168  -0.00646   1.93388
   A13        1.89671   0.00232  -0.00182   0.01694   0.01512   1.91183
   A14        2.13576   0.00082   0.00934  -0.00162   0.00795   2.14371
   A15        2.03214  -0.00124  -0.00358  -0.00551  -0.00890   2.02324
   A16        2.11328   0.00044  -0.00517   0.00725   0.00146   2.11474
   A17        2.25753   0.00126   0.00025   0.00322   0.00291   2.26044
   A18        2.02996  -0.00168  -0.00462  -0.00617  -0.01065   2.01931
   A19        1.98505   0.00054   0.00514   0.00533   0.01061   1.99566
   A20        2.35210   0.00119   0.00669   0.00241   0.00807   2.36017
   A21        1.93960   0.00062  -0.00117   0.00623   0.00540   1.94501
   A22        1.99141  -0.00182  -0.00553  -0.00890  -0.01406   1.97735
   A23        2.30920  -0.00054   0.00005   0.00082  -0.00123   2.30797
   A24        2.03083  -0.00101   0.00402  -0.01340  -0.00985   2.02098
   A25        1.93982   0.00143  -0.00453   0.00726   0.00224   1.94207
   A26        2.10540   0.00475   0.00012   0.01990   0.01948   2.12489
   A27        2.10157   0.00053   0.00248   0.01788   0.01737   2.11894
   A28        2.06429  -0.00505  -0.00385  -0.02282  -0.02732   2.03697
   A29        1.80119   0.00176   0.00210   0.02977   0.02952   1.83071
   A30        1.77372  -0.00127   0.00795   0.00270   0.00903   1.78275
    D1        3.13359   0.00032   0.00261   0.00755   0.01024  -3.13936
    D2       -0.01076  -0.00001  -0.00223  -0.00618  -0.00848  -0.01924
    D3        1.05256  -0.00014   0.00184   0.00100   0.00292   1.05548
    D4       -2.09179  -0.00048  -0.00299  -0.01273  -0.01580  -2.10759
    D5       -1.06645   0.00026   0.00269   0.00673   0.00949  -1.05696
    D6        2.07239  -0.00007  -0.00215  -0.00701  -0.00923   2.06316
    D7        0.04996  -0.00053   0.00692  -0.02716  -0.01991   0.03005
    D8       -3.11431  -0.00097  -0.01012  -0.03066  -0.04089   3.12798
    D9       -3.08887  -0.00019   0.01192  -0.01340  -0.00137  -3.09023
   D10        0.03005  -0.00063  -0.00512  -0.01689  -0.02235   0.00770
   D11        0.01431   0.00102  -0.00208   0.05524   0.05332   0.06764
   D12       -3.10744   0.00144   0.01346   0.05852   0.07182  -3.03562
   D13        0.77005  -0.00071   0.00264  -0.04644  -0.04413   0.72592
   D14       -2.43882  -0.00028   0.00940  -0.04425  -0.03488  -2.47369
   D15       -2.39183  -0.00106  -0.01303  -0.04940  -0.06241  -2.45423
   D16        0.68249  -0.00063  -0.00627  -0.04722  -0.05315   0.62934
   D17        2.93503   0.00246   0.01552   0.06687   0.08259   3.01763
   D18       -0.03893   0.00148   0.00966   0.04790   0.05771   0.01878
   D19       -0.13621   0.00207   0.00828   0.06509   0.07323  -0.06298
   D20       -3.11018   0.00109   0.00241   0.04612   0.04835  -3.06183
   D21        2.24967  -0.00003  -0.00685  -0.04030  -0.04645   2.20322
   D22       -0.95827   0.00041   0.00084  -0.03850  -0.03708  -0.99535
   D23        0.59685  -0.00107  -0.00919  -0.03500  -0.04464   0.55221
   D24       -2.55878  -0.00190  -0.01236  -0.06053  -0.07342  -2.63221
   D25       -2.70886  -0.00029  -0.00437  -0.01733  -0.02169  -2.73055
   D26        0.41869  -0.00112  -0.00755  -0.04286  -0.05047   0.36822
   D27        0.12599   0.00069   0.00355   0.05526   0.05851   0.18450
   D28       -3.11246  -0.00082  -0.00749  -0.02176  -0.02910  -3.14156
   D29       -3.00125   0.00153   0.00681   0.08126   0.08756  -2.91369
   D30        0.04348   0.00001  -0.00423   0.00423  -0.00006   0.04343
   D31        2.87608  -0.00101  -0.01546  -0.02632  -0.04098   2.83510
   D32       -0.09735  -0.00212  -0.00349  -0.12879  -0.13254  -0.22989
   D33       -0.17247   0.00054  -0.00492   0.04853   0.04415  -0.12833
   D34        3.13729  -0.00057   0.00704  -0.05394  -0.04742   3.08987
   D35       -0.80456   0.00222   0.00884   0.12197   0.13100  -0.67355
   D36        2.50131   0.00022   0.02034   0.01793   0.03965   2.54096
   D37        1.43501  -0.00318  -0.00564  -0.06049  -0.06658   1.36843
         Item               Value     Threshold  Converged?
 Maximum Force            0.005049     0.000450     NO 
 RMS     Force            0.001578     0.000300     NO 
 Maximum Displacement     0.233579     0.001800     NO 
 RMS     Displacement     0.075043     0.001200     NO 
 Predicted change in Energy=-1.659628D-03
 GradGradGradGradGradGradGradGradGradGradGradGradGradGradGradGradGradGrad

                          Input orientation:                          
 ---------------------------------------------------------------------
 Center     Atomic      Atomic             Coordinates (Angstroms)
 Number     Number       Type             X           Y           Z
 ---------------------------------------------------------------------
      1          6           0        0.975234    0.131654   -0.041505
      2          6           0        2.475544    0.002870    0.046650
      3          6           0        3.201049   -0.784767   -0.758270
      4          8           0        2.680583   -1.538247   -1.773911
      5          6           0        4.666213   -0.917961   -0.706287
      6          6           0        5.356449   -0.996399    0.458537
      7          6           0        6.756486   -1.264200    0.679478
      8          6           0        7.908455   -1.014606   -0.003607
      9          6           0        8.195115   -0.193031   -1.158218
     10         16           0        9.730313    0.269485   -1.532793
     11         16           0        6.900411    0.457226   -2.170095
     12         16           0        5.488872   -1.063810   -2.274009
     13          1           0        0.601203    0.829007    0.710296
     14          1           0        0.463106   -0.826152    0.125154
     15          1           0        0.642242    0.511970   -1.018089
     16          1           0        3.003555    0.590978    0.786253
     17          1           0        1.736623   -1.364933   -1.852407
     18          1           0        4.756374   -0.973072    1.364447
     19          1           0        6.921797   -1.753201    1.638618
     20          1           0        8.822216   -1.366413    0.466318
 ---------------------------------------------------------------------
                    Distance matrix (angstroms):
                    1          2          3          4          5
     1  C    0.000000
     2  C    1.508406   0.000000
     3  C    2.511540   1.339636   0.000000
     4  O    2.949241   2.394060   1.367532   0.000000
     5  C    3.894477   2.492764   1.472124   2.338226   0.000000
     6  C    4.551658   3.076979   2.484181   3.526709   1.356242
     7  C    5.990919   4.509147   3.864985   4.765208   2.531693
     8  C    7.027440   5.527595   4.773051   5.544260   3.318921
     9  C    7.312944   5.848382   5.044879   5.709531   3.630828
    10  S    8.882250   7.429495   6.659027   7.281808   5.266712
    11  S    6.304333   4.969893   4.149829   4.684636   3.004249
    12  S    5.175533   3.950115   2.758526   2.891656   1.776455
    13  H    1.091515   2.153157   3.394135   4.012356   4.645741
    14  H    1.098837   2.177922   2.877235   3.005118   4.285537
    15  H    1.099654   2.180332   2.880368   2.988225   4.281852
    16  H    2.238358   1.082441   2.077795   3.345497   2.696109
    17  H    2.469586   2.454242   1.917882   0.962944   3.177400
    18  H    4.182599   2.809134   2.638261   3.804947   2.073428
    19  H    6.460426   5.038582   4.530662   5.447885   3.359147
    20  H    8.004825   6.506251   5.782340   6.539710   4.341484
                    6          7          8          9         10
     6  C    0.000000
     7  C    1.442442   0.000000
     8  C    2.593578   1.362327   0.000000
     9  C    3.364122   2.567913   1.445782   0.000000
    10  S    4.969764   4.011232   2.703048   1.646531   0.000000
    11  S    3.377358   3.332280   2.806442   1.767198   2.906845
    12  S    2.736583   3.220262   3.318363   3.054013   4.507428
    13  H    5.099789   6.501537   7.569974   7.886914   9.417281
    14  H    4.907640   6.332913   7.448846   7.863322   9.477887
    15  H    5.165205   6.589423   7.493828   7.586998   9.105864
    16  H    2.857145   4.187790   5.221095   5.598923   7.122543
    17  H    4.310385   5.623132   6.452310   6.600558   8.165327
    18  H    1.086879   2.134101   3.436410   4.335578   5.888805
    19  H    2.101346   1.089220   2.053271   3.446413   4.694345
    20  H    3.485472   2.079213   1.086074   2.099809   2.738111
                   11         12         13         14         15
    11  S    0.000000
    12  S    2.077689   0.000000
    13  H    6.936490   6.031430   0.000000
    14  H    6.953712   5.574118   1.760970   0.000000
    15  H    6.363551   5.248832   1.757701   1.769086   0.000000
    16  H    4.893196   4.275550   2.415310   2.983150   2.972825
    17  H    5.485061   3.787848   3.559495   2.413064   2.327342
    18  H    4.374429   3.712566   4.576117   4.470970   4.980753
    19  H    4.403719   4.223410   6.890536   6.698110   7.184838
    20  H    3.737603   4.325754   8.512606   8.383495   8.523131
                   16         17         18         19         20
    16  H    0.000000
    17  H    3.520402   0.000000
    18  H    2.419284   4.429514   0.000000
    19  H    4.644817   6.262910   2.317936   0.000000
    20  H    6.147403   7.455342   4.182395   2.266162   0.000000
 Stoichiometry    C8H8OS3
 Framework group  C1[X(C8H8OS3)]
 Deg. of freedom    54
 Full point group                 C1      NOp   1
 Largest Abelian subgroup         C1      NOp   1
 Largest concise Abelian subgroup C1      NOp   1
                         Standard orientation:                         
 ---------------------------------------------------------------------
 Center     Atomic      Atomic             Coordinates (Angstroms)
 Number     Number       Type             X           Y           Z
 ---------------------------------------------------------------------
      1          6           0        4.760437    0.274694    1.017618
      2          6           0        3.295140    0.574355    0.821668
      3          6           0        2.541461    0.002762   -0.126948
      4          8           0        2.993953   -0.940965   -1.007160
      5          6           0        1.107026    0.263166   -0.331236
      6          6           0        0.567112    1.504979   -0.255179
      7          6           0       -0.772688    1.943508   -0.560576
      8          6           0       -2.012839    1.383881   -0.491467
      9          6           0       -2.495275    0.161610    0.111521
     10         16           0       -4.094572   -0.079867    0.419741
     11         16           0       -1.382151   -1.097715    0.657458
     12         16           0        0.118435   -1.143295   -0.778841
     13          1           0        5.166690    0.853652    1.848985
     14          1           0        5.359772    0.521783    0.130382
     15          1           0        4.945989   -0.784006    1.249919
     16          1           0        2.815116    1.274610    1.493159
     17          1           0        3.906170   -1.166495   -0.796785
     18          1           0        1.266457    2.311181   -0.049602
     19          1           0       -0.786040    2.980536   -0.893433
     20          1           0       -2.835405    2.016755   -0.811489
 ---------------------------------------------------------------------
 Rotational constants (GHZ):           1.6159469           0.3206179           0.2970274
 Standard basis: 6-31G(2df,p) (6D, 7F)
 There are   424 symmetry adapted cartesian basis functions of A   symmetry.
 There are   388 symmetry adapted basis functions of A   symmetry.
   388 basis functions,   656 primitive gaussians,   424 cartesian basis functions
    56 alpha electrons       56 beta electrons
       nuclear repulsion energy       952.6110896700 Hartrees.
 NAtoms=   20 NActive=   20 NUniq=   20 SFac= 1.00D+00 NAtFMM=   60 NAOKFM=F Big=F
 Integral buffers will be    131072 words long.
 Raffenetti 2 integral format.
 Two-electron integral symmetry is turned on.
 One-electron integrals computed using PRISM.
 PrsmSu:  requested number of processors reduced to:  13 ShMem   1 Linda.
 NBasis=   388 RedAO= T EigKep=  4.18D-04  NBF=   388
 NBsUse=   388 1.00D-06 EigRej= -1.00D+00 NBFU=   388
 Initial guess from the checkpoint file:  "CCdCqOrC1dCCdCCqdSrSS1.chk"
 B after Tr=    -0.000000    0.000000   -0.000000
         Rot=    0.999982    0.005870    0.000951   -0.001056 Ang=   0.69 deg.
 ExpMin= 1.17D-01 ExpMax= 2.19D+04 ExpMxC= 3.30D+03 IAcc=2 IRadAn=         4 AccDes= 0.00D+00
 Harris functional with IExCor=  402 and IRadAn=       4 diagonalized for initial guess.
 HarFok:  IExCor=  402 AccDes= 0.00D+00 IRadAn=         4 IDoV= 1 UseB2=F ITyADJ=14
 ICtDFT=  3500011 ScaDFX=  1.000000  1.000000  1.000000  1.000000
 FoFCou: FMM=F IPFlag=           0 FMFlag=      100000 FMFlg1=           0
         NFxFlg=           0 DoJE=T BraDBF=F KetDBF=T FulRan=T
         wScrn=  0.000000 ICntrl=       500 IOpCl=  0 I1Cent=   200000004 NGrid=           0
         NMat0=    1 NMatS0=      1 NMatT0=    0 NMatD0=    1 NMtDS0=    0 NMtDT0=    0
 Petite list used in FoFCou.
 Requested convergence on RMS density matrix=1.00D-08 within 128 cycles.
 Requested convergence on MAX density matrix=1.00D-06.
 Requested convergence on             energy=1.00D-06.
 No special actions if energy rises.
 Integral accuracy reduced to 1.0D-05 until final iterations.
 Initial convergence to 1.0D-05 achieved.  Increase integral accuracy.
 SCF Done:  E(RB3LYP) =  -1579.44201845     A.U. after   14 cycles
            NFock= 14  Conv=0.35D-08     -V/T= 2.0041
 PrsmSu:  requested number of processors reduced to:  13 ShMem   1 Linda.
 Calling FoFJK, ICntrl=      2127 FMM=F ISym2X=0 I1Cent= 0 IOpClX= 0 NMat=1 NMatS=1 NMatT=0.
 ***** Axes restored to original set *****
 -------------------------------------------------------------------
 Center     Atomic                   Forces (Hartrees/Bohr)
 Number     Number              X              Y              Z
 -------------------------------------------------------------------
      1        6           0.001068363   -0.000275057    0.000510160
      2        6          -0.002701601    0.000279491    0.001272228
      3        6           0.002916305   -0.001673514   -0.004115940
      4        8          -0.001180803    0.000004957    0.001964978
      5        6          -0.000705132    0.002521084    0.002132463
      6        6           0.002256906   -0.001333759   -0.001256151
      7        6          -0.002410213    0.002470661    0.001746201
      8        6          -0.000534496    0.000508166    0.000374268
      9        6          -0.002122740   -0.005201866   -0.002572125
[...]
 ,-0.00087959,-0.00051885,0.00725740,-0.00285086,0.01528391,-0.04226096
 ,-0.00175956,0.00147048,-0.33041607,-0.04708162,0.15776182,0.72431697,
 -0.00006776,-0.00001602,0.00010712,0.00076046,-0.00035499,-0.00046728,
 -0.00107568,-0.00013219,0.00085327,-0.00009323,-0.00030054,-0.00033134
 ,0.00244888,-0.00170496,0.00159365,-0.00082092,0.00535502,-0.00604063,
 -0.03478801,-0.06887983,0.05065016,0.00427815,0.23085205,0.00019862,0.
 00016042,-0.00083684,-0.00154783,0.00112600,0.00207536,0.00354557,-0.0
 0467509,-0.00187108,0.00019659,0.00126936,0.00087852,-0.00763522,0.003
 29831,-0.01995601,0.02407296,-0.00280452,0.02901697,0.10092031,0.04653
 338,-0.18072071,-0.05540084,-0.19936206,0.49203803,-0.00005379,-0.0002
 7970,0.00013839,-0.00044569,0.00042148,0.00023834,0.00004576,0.0001757
 7,-0.00125194,0.00045816,0.00040694,0.00041709,-0.00434490,0.00236213,
 -0.00243953,0.00684533,-0.00089279,0.00140758,-0.00897379,-0.01498939,
 0.02643341,-0.07748937,-0.00834667,0.01287855,0.39467480,0.00008431,0.
 00022983,-0.00061755,-0.00073446,0.00067104,0.00133962,0.00034613,-0.0
 0280675,-0.00131762,-0.00006951,0.00115030,0.00147893,-0.00042649,0.00
 192752,-0.01053141,0.00926418,-0.00341788,0.00650381,-0.02281767,-0.00
 560265,0.00959229,0.00339725,-0.10719901,0.07535815,0.07785204,0.24212
 628,-0.00016599,-0.00051737,0.00134335,0.00109230,-0.00106472,-0.00224
 834,-0.00143052,0.00607821,0.00056313,-0.00001715,-0.00150849,-0.00164
 792,0.00421077,-0.00395888,0.01392469,-0.01175861,-0.00414551,-0.01197
 757,0.03484804,0.01398678,-0.01650163,-0.00375657,0.07173948,-0.179980
 07,-0.01251476,-0.15189813,0.34599231,0.00003690,0.00029255,0.00010813
 ,0.00039312,-0.00047709,-0.00047720,-0.00070435,0.00021290,0.00101245,
 -0.00090392,-0.00021751,0.00005359,0.00251305,-0.00215440,0.00154588,-
 0.00664790,0.00046966,-0.00294659,0.01301360,0.00051370,-0.00336652,-0
 .02497677,-0.01818558,0.02103597,-0.23169879,-0.09300813,0.04610178,0.
 28895182,-0.00000677,0.00005394,0.00016988,0.00025846,-0.00033105,-0.0
 0049524,-0.00017149,0.00078279,0.00069202,-0.00018939,-0.00038931,-0.0
 0041444,-0.00018464,-0.00132071,0.00232338,-0.00230413,-0.00012909,-0.
 00232480,0.00562397,0.00129404,0.00159790,-0.02705090,-0.00370848,0.01
 624083,-0.08125235,-0.07747581,0.02515754,0.11815593,0.07134496,0.0000
 3028,0.00016730,-0.00037076,-0.00031301,0.00023025,0.00049358,-0.00013
 886,-0.00153830,-0.00007077,0.00008335,0.00053748,0.00066616,-0.000920
 20,0.00027775,-0.00472659,0.00292642,0.00068180,0.00301240,-0.00566932
 ,0.00157957,-0.00024675,0.02787950,0.02064436,-0.00915410,0.03510207,0
 .01725392,-0.04227964,-0.05186584,-0.03529780,0.04385733,0.00011423,0.
 00010347,-0.00015608,-0.00077930,0.00068060,0.00027417,0.00181433,-0.0
 0152739,0.00140906,-0.00035948,0.00005071,-0.00001841,-0.01485682,-0.0
 0578726,0.00930248,0.00001275,-0.00098845,-0.00255733,-0.00171749,-0.0
 0149114,0.00153815,-0.00150605,0.00278113,-0.01108676,-0.06104452,0.04
 343039,-0.06181202,-0.03625824,-0.01357314,-0.00519349,0.15571037,-0.0
 0000028,-0.00034738,0.00014630,-0.00040145,0.00056780,-0.00006399,0.00
 243943,0.00087645,0.00051881,0.00081325,-0.00039363,-0.00156870,-0.008
 36544,0.00298923,0.01388507,-0.00456236,0.00207659,-0.00464824,0.00600
 045,-0.00105969,-0.00131023,0.01040550,-0.00205413,0.01671476,0.024416
 58,-0.05563837,0.02940641,-0.00716062,0.00739416,-0.00058922,0.0280494
 4,0.13458135,-0.00002326,0.00023753,-0.00016453,0.00021013,-0.00010647
 ,0.00056320,-0.00097787,-0.00088973,-0.00133814,-0.00103058,0.00041593
 ,0.00125276,0.01047374,0.01283878,-0.00206844,-0.00335113,0.00066182,-
 0.00204768,0.00160501,0.00001566,0.00011815,-0.02295106,0.01183511,-0.
 01305527,-0.03701174,0.04962670,-0.09220228,-0.01069704,-0.00814351,0.
 00625651,0.06735838,-0.06144757,0.12519696,0.00004113,0.00191961,-0.00
 117501,-0.00168237,-0.00324664,-0.00162010,-0.01540050,0.00675080,0.02
 787507,-0.00206538,-0.00129648,0.00249821,-0.05292107,0.00706013,0.037
 02240,0.00801850,-0.00017057,0.00655654,-0.00498132,-0.00011137,-0.003
 03810,0.00331931,-0.00014762,-0.00118742,-0.01791455,-0.01615411,0.000
 97588,-0.00421847,0.00262461,-0.00463187,-0.04133542,-0.05020432,-0.00
 454746,0.12923855,0.00025642,-0.00082120,0.00080930,-0.00111516,0.0018
 3779,0.00005254,0.00578504,0.00134343,-0.00658325,-0.00220621,0.000780
 42,0.00242133,0.00436064,-0.04078596,-0.02873935,0.00743067,0.00284440
 ,0.00067226,-0.00503661,-0.00356493,0.00140271,0.00102272,0.00227468,-
 0.00178991,-0.01235648,-0.00160137,0.00102341,0.00122422,0.00426253,-0
 .00202123,-0.05227433,-0.08903982,-0.00636089,0.05172380,0.11531149,0.
 00004414,-0.00111833,0.00080395,-0.00133504,0.00258810,0.00066895,0.01
 374314,-0.00213992,-0.00884470,-0.00030458,-0.00033553,-0.00012541,0.0
 3307523,-0.02828734,-0.11375645,0.00974234,-0.00563441,-0.04226335,0.0
 0861482,-0.00075273,-0.00195175,-0.00015697,0.00129102,0.00269496,-0.0
 0243869,-0.01153543,0.00192088,-0.00168232,0.00211888,0.00150553,0.000
 79567,0.00714688,-0.02113274,-0.05731520,0.03902802,0.18494216,-0.0732
 9753,0.00304965,0.08405301,-0.01596384,0.00535273,0.03208133,-0.005006
 00,-0.00223692,-0.00160098,0.00134747,0.00001058,0.00067148,0.00059712
 ,0.00162266,-0.00081436,-0.00089825,0.00004778,-0.00023221,0.00050607,
 -0.00041729,0.00001693,-0.00029866,-0.00006911,0.00039797,0.00008624,0
 .00029931,-0.00057204,-0.00019214,-0.00013473,0.00016575,0.00002855,0.
 00001750,0.00001603,0.00012374,-0.00014720,-0.00013003,0.08477776,0.00
 246955,-0.04427003,-0.01475173,0.00417456,-0.00154751,-0.00469099,-0.0
 0097992,-0.00025743,-0.00082528,0.00213239,0.00028775,0.00029203,0.000
 80428,-0.00027970,0.00009648,-0.00026676,0.00000135,-0.00025933,0.0001
 8659,-0.00005338,-0.00000537,-0.00008956,-0.00004974,0.00011593,0.0000
 4715,0.00009059,-0.00012074,-0.00004277,-0.00004125,0.00003769,0.00001
 774,-0.00000805,0.00001700,-0.00012826,0.00011699,0.00008733,-0.006613
 86,0.04574125,0.08283851,-0.01453747,-0.27518406,0.00073029,-0.0013375
 9,0.00367907,-0.00142986,0.00135230,0.00015324,0.00055198,0.00013167,0
 .00007663,0.00046643,0.00020227,0.00003568,-0.00013532,-0.00005829,-0.
 00015967,0.00010544,-0.00001786,-0.00002786,-0.00004217,-0.00002595,0.
 00005172,-0.00004862,0.00002997,-0.00006181,0.00004678,0.00000800,0.00
 001224,0.00000250,-0.00004269,0.00004997,0.00002014,-0.00001338,-0.000
 03628,-0.09188345,0.01521006,0.29839753,-0.10531510,-0.09173305,-0.054
 12365,-0.01503656,-0.02518989,-0.01651172,-0.00020033,-0.00313469,-0.0
 0331868,0.00331786,0.00208161,0.00169344,0.00050038,0.00023901,-0.0002
 1980,-0.00037583,0.00022611,-0.00017019,0.00035279,-0.00006757,0.00008
 075,-0.00016320,-0.00006450,0.00021603,0.00007276,0.00019172,-0.000283
 92,-0.00006168,-0.00007061,0.00009789,0.00000192,-0.00007697,0.0000760
 3,-0.00010137,0.00005355,0.00000558,0.00485977,0.00877193,0.00407125,0
 .11617547,-0.09268808,-0.19498753,-0.08886243,0.00183555,0.00564983,0.
 00386257,-0.00085831,-0.00082437,-0.00207443,0.00210396,0.00000623,0.0
 0071529,0.00018550,-0.00011381,0.00030614,-0.00015780,0.00005383,-0.00
 005277,0.00014196,-0.00002395,0.00001104,-0.00006038,-0.00002689,0.000
 10326,0.00005390,0.00008076,-0.00011855,-0.00006130,-0.00003862,0.0000
 4480,-0.00000822,0.00000137,0.00000199,-0.00012525,0.00005261,0.000079
 22,-0.00017545,-0.00177497,-0.00006260,0.10107509,0.21074581,-0.053002
 48,-0.08706499,-0.09760990,-0.00199150,0.00174379,-0.00086278,0.000031
 18,-0.00083597,-0.00104999,0.00165689,0.00019725,-0.00033796,-0.000099
 91,-0.00002725,0.00019252,0.00003834,-0.00000263,0.00000125,-0.0000194
 4,0.00000128,0.00003144,0.00000144,0.00001246,-0.00000170,0.00003163,0
 .00000953,-0.00001566,-0.00002632,-0.00000908,0.00001197,0.00000187,-0
 .00000154,-0.00001047,-0.00001856,0.00002274,0.00002870,-0.01486392,-0
 .02408820,-0.01284822,0.05943202,0.09958869,0.10447725,-0.05832017,0.0
 5457644,-0.03197825,-0.01376157,0.03079053,-0.01175576,-0.00304288,-0.
 00329122,-0.00455422,0.00170816,0.00219549,0.00097146,0.00033221,-0.00
 146366,0.00190262,-0.00008743,0.00005379,-0.00008922,0.00005942,-0.000
 04625,0.00003236,-0.00004547,-0.00002601,0.00009430,0.00018219,0.00002
 671,-0.00004652,-0.00024872,-0.00009650,0.00001884,-0.00005334,0.00013
 451,-0.00010246,-0.00055909,0.00026949,0.00039697,0.00255196,-0.009295
 04,0.00444974,0.00331407,-0.01250494,0.00796138,0.06817941,0.04995678,
 -0.23006562,0.10026183,0.00619229,-0.00136153,-0.00160635,-0.00097938,
 0.00147090,0.00141558,0.00023793,0.00005874,-0.00018535,0.00052161,-0.
 00025846,-0.00001290,-0.00011688,-0.00005438,-0.00015621,0.00008167,-0
 .00000139,-0.00003713,-0.00002238,-0.00001926,0.00004476,-0.00001302,0
 .00002350,-0.00003604,0.00002791,0.00000327,0.00001168,0.00004032,-0.0
 0000523,-0.00000931,0.00000899,0.00009251,0.00010543,-0.00103043,0.001
 16373,-0.00089180,0.00549565,-0.02034389,0.01151771,-0.06082017,0.2498
 7798,-0.03027689,0.10090025,-0.09871131,-0.00006990,-0.00287545,0.0018
 1055,0.00052109,-0.00079057,-0.00062883,0.00040671,0.00088815,0.000295
 40,0.00029588,0.00001427,-0.00013625,-0.00015435,-0.00001425,-0.000126
 39,0.00012302,-0.00007715,0.00000891,-0.00007248,-0.00002170,0.0001028
 5,0.00005846,0.00007513,-0.00013238,-0.00008127,-0.00004169,0.00004266
 ,0.00003637,0.00001042,-0.00002690,0.00010805,0.00001952,-0.00002530,-
 0.00703101,0.02736131,-0.01527916,0.00443326,-0.01397436,0.00696552,0.
 03225572,-0.11125874,0.10519548,-0.01384020,-0.01845854,-0.01707354,-0
 .13191994,-0.09245354,-0.09434298,0.00926470,0.00948519,0.00986541,-0.
 00057201,0.00413641,0.00256125,-0.00003761,0.00022368,0.00092366,-0.00
 078802,0.00075884,-0.00006009,-0.00004369,0.00001153,0.00006922,-0.000
 00098,0.00000206,0.00000432,-0.00004206,0.00000885,-0.00001694,0.00001
 182,0.00000233,0.00002244,0.00004371,0.00001427,-0.00009945,0.00006778
 ,0.00021305,0.00007569,0.00141703,-0.00021014,0.00047723,-0.00532422,0
 .00160112,-0.00022036,0.00021000,0.00044436,-0.00033839,0.14277091,0.0
 0330723,0.00520541,0.00332406,-0.08621967,-0.14674787,-0.11564769,-0.0
 1528173,-0.01125168,-0.01136879,0.00347385,0.00377093,-0.00662764,-0.0
 0033268,-0.00185146,0.00250463,0.00122291,-0.00012859,-0.00054669,-0.0
 0048009,0.00033226,0.00039726,0.00011256,0.00008325,-0.00033348,0.0000
 9741,-0.00017957,0.00039489,-0.00000978,0.00002187,-0.00011518,-0.0000
 1750,-0.00001949,0.00006643,-0.00065553,0.00038747,0.00031266,-0.00001
 251,0.00031605,-0.00025423,0.00134872,0.00054220,-0.00031789,-0.000842
 42,-0.00012140,0.00004582,0.09365899,0.15076913,0.00170007,0.00004686,
 0.00171280,-0.09044418,-0.11396021,-0.14214710,-0.01007182,-0.01041230
 ,-0.01179058,0.00167973,-0.00739472,0.00435448,-0.00129605,0.00275369,
 -0.00333087,-0.00156958,0.00090109,0.00074824,0.00120521,0.00004471,0.
 00000884,-0.00042212,-0.00017758,0.00062248,0.00009079,0.00047563,-0.0
 0074450,-0.00010014,-0.00012336,0.00025776,-0.00000089,-0.00018468,0.0
 0009017,0.00054644,-0.00036385,-0.00046233,-0.00079447,0.00042171,0.00
 079406,0.00109877,0.00031159,0.00128308,0.00015097,0.00003162,0.000113
 64,0.09803105,0.12703758,0.14790793,0.00292762,0.00257663,-0.00007686,
 0.00271755,0.00310821,0.00462041,-0.02238184,0.00182050,-0.00608242,-0
 .43333924,0.13082553,-0.11306324,-0.00046725,-0.00145872,-0.00394660,-
 0.00074081,-0.00036777,0.00087765,-0.00002219,0.00033897,-0.00033622,0
 .00010880,0.00001211,-0.00004812,-0.00012567,-0.00002187,-0.00001194,0
 .00013498,0.00003405,0.00000294,0.00002693,-0.00007451,0.00005870,0.00
 037454,0.00001330,-0.00021774,-0.00057316,-0.00098902,-0.00022420,-0.0
 0201467,-0.00034912,0.00110700,-0.00039809,0.00001684,-0.00019869,-0.0
 0075720,0.00019516,0.00059814,0.45460721,-0.00031121,-0.00112927,0.000
 86876,-0.00092224,-0.00046840,-0.00052256,-0.03200359,0.00494609,-0.00
 975046,0.17039375,-0.07903068,0.02593798,-0.00173578,-0.00152509,-0.00
 475269,-0.00147015,0.00033241,0.00009844,0.00013086,0.00028114,-0.0003
 9499,-0.00000354,-0.00001123,0.00000629,-0.00007073,-0.00002046,0.0000
 1759,0.00007229,0.00002196,-0.00000949,-0.00007650,-0.00004065,-0.0000
 0247,0.00025802,-0.00034732,-0.00000818,0.00015861,0.00051509,0.000295
 17,0.00096185,0.00100251,-0.00072116,0.00025474,-0.00048580,-0.0003243
 8,0.00004417,-0.00045446,0.00070243,-0.13560716,0.07647897,-0.00116038
 ,-0.00194841,-0.00111961,-0.00115481,0.00010411,0.00001782,-0.03009335
 ,0.00893741,-0.00815164,-0.08621258,0.00469327,-0.04357181,-0.00179738
 ,-0.00246122,-0.00205949,0.00043105,-0.00039856,0.00101990,-0.00059383
 ,0.00040914,-0.00005744,0.00024037,0.00006426,-0.00035740,-0.00007877,
 0.00001342,0.00021058,0.00027983,0.00004721,-0.00003253,0.00000105,-0.
 00023792,0.00030486,-0.00093024,0.00000238,-0.00026287,0.00053016,0.00
 109217,0.00038735,0.00333909,0.00012060,-0.00028258,0.00020039,0.00085
 547,0.00053656,0.00010094,0.00035254,0.00067132,0.11700961,-0.01136278
 ,0.05277403,-0.00012648,0.00002345,0.00005274,-0.00029118,0.00014019,-
 0.00051888,-0.00089697,-0.00052138,-0.00150437,0.00009151,0.00014594,0
 .00013000,0.00886371,-0.00039787,-0.01228490,-0.13626271,0.01229820,0.
 12804231,-0.01934468,0.00192203,0.02600805,-0.00288080,0.00211734,-0.0
 0214738,-0.00022512,0.00067067,-0.00110823,0.00001782,-0.00026396,0.00
 052341,-0.00003518,-0.00028752,0.00008499,0.00012731,0.00044955,-0.003
 10558,-0.00004090,-0.00000009,-0.00001366,-0.00000479,-0.00000182,-0.0
 0000313,0.00002986,-0.00004691,-0.00000975,-0.00047093,0.00046821,-0.0
 0039979,0.00003162,0.00005390,-0.00007834,0.15185767,0.00000953,-0.000
 32215,-0.00070881,0.00032847,0.00132389,0.00259933,0.00365948,-0.00774
 569,-0.00038681,-0.00122390,0.00028870,-0.00042230,-0.00368101,0.00805
 599,-0.00226390,0.01485892,-0.03928866,-0.00660609,-0.00330371,0.00309
 816,-0.00213176,0.00233821,0.00329263,-0.00159834,-0.00075786,-0.00118
 182,0.00172192,0.00082782,0.00039231,-0.00064330,0.00055856,0.00041766
 ,-0.00092654,0.00095811,0.00626464,-0.00153073,0.00028788,0.00005898,0
 .00001624,-0.00007171,0.00002075,-0.00001466,0.00009674,0.00003632,0.0
 0007022,0.00052927,-0.00067438,-0.00000939,-0.00008731,-0.00004618,-0.
 00034094,-0.01524677,0.02694237,-0.00019594,0.00004912,0.00036925,-0.0
 0020629,-0.00003963,0.00079377,0.00150723,-0.00139626,-0.00018028,0.00
 001723,0.00043866,0.00062890,0.01522278,-0.00249636,-0.02459340,0.1266
 9402,-0.01174680,-0.24195578,-0.00554788,0.00096011,0.00515588,-0.0014
 9001,-0.00086394,0.00090565,-0.00035006,0.00058373,-0.00074754,0.00019
 295,-0.00012644,0.00023565,-0.00016091,-0.00057785,0.00083237,-0.00191
 395,-0.00014903,-0.00368658,-0.00001066,0.00000924,-0.00004685,0.00009
 087,0.00000727,0.00003326,0.00011120,-0.00004735,-0.00000276,0.0000166
 5,0.00077775,-0.00004838,-0.00007751,-0.00004317,-0.00004534,-0.133508
 12,0.01460261,0.26113614,0.00000850,0.00004740,-0.00000902,-0.00004753
 ,0.00003764,0.00009079,0.00060776,-0.00124171,-0.00098928,-0.00076078,
 0.00000575,-0.00017919,-0.00489846,0.00160912,-0.00001555,-0.00884159,
 0.01182209,-0.02991143,-0.05912014,0.02171933,-0.04217043,0.00076500,-
 0.01155544,0.02681431,-0.00303423,0.00012814,0.00248511,-0.00002578,-0
 .00052145,0.00016188,-0.00014390,-0.00026435,0.00007137,-0.00013000,0.
 00022835,0.00046534,-0.00001950,0.00001226,0.00001224,0.00000733,-0.00
 000393,-0.00001195,-0.00003544,0.00000112,-0.00000286,0.00001073,0.000
 00490,-0.00001136,-0.00010473,-0.00012038,-0.00003604,0.00050655,-0.00
 017110,-0.00025425,0.07492691,-0.00003301,0.00000970,0.00005500,0.0003
 0032,-0.00017827,-0.00033339,-0.00099790,0.00068816,0.00049153,0.00007
 842,-0.00029426,0.00000747,0.00262621,0.00188532,0.00274656,-0.0041625
 0,0.00326802,0.00290621,0.02709969,-0.07991146,0.09441292,-0.00405700,
 0.00264964,0.01105513,0.00065951,0.01033063,0.00351825,-0.00053792,-0.
 00123333,-0.00080162,0.00056454,-0.00113467,-0.00039641,-0.00000366,0.
 00037570,-0.00093745,-0.00002072,-0.00001183,-0.00000768,-0.00001968,-
 0.00001483,-0.00000495,-0.00000522,-0.00001392,-0.00000722,0.00000030,
 0.00003001,-0.00003175,0.00004592,-0.00000537,0.00009025,-0.00049901,-
 0.00097635,0.00017293,-0.02069764,0.07016620,-0.00000086,0.00002552,0.
 00004928,0.00009347,-0.00010935,-0.00016209,-0.00015922,0.00010399,-0.
 00013305,-0.00023121,-0.00012015,-0.00004142,0.00010752,0.00176293,0.0
 0294509,-0.00309904,0.00334878,-0.00660729,-0.03748583,0.09654794,-0.2
 7812486,-0.00387940,0.00949494,-0.01497009,0.00265349,0.00258702,0.001
 71772,0.00006201,0.00000967,-0.00050654,0.00023294,-0.00049818,0.00011
 730,-0.00006852,0.00026631,-0.00038543,-0.00003993,-0.00000489,0.00000
 444,-0.00001495,-0.00001169,-0.00000722,-0.00002794,-0.00000316,-0.000
 01021,0.00000937,0.00001348,-0.00003991,0.00000930,-0.00003806,0.00004
 787,-0.00029580,-0.00137752,0.00128247,0.04209172,-0.10962880,0.294542
 92,0.00001308,0.00000996,-0.00001099,0.00000734,-0.00000827,-0.0000567
 4,-0.00001651,0.00002800,-0.00009921,-0.00009595,-0.00002717,-0.000055
 53,0.00010101,0.00001246,0.00031059,-0.00033778,-0.00041700,0.00320696
 ,-0.02329283,0.00595050,-0.01130465,-0.25322603,0.06284039,-0.11132192
 ,0.00302723,-0.00246746,0.00378133,0.00086362,-0.00087929,0.00171782,0
 .00033695,-0.00089312,0.00083766,-0.00000135,0.00010520,-0.00027278,-0
 .00000574,-0.00000104,0.00000475,-0.00000460,-0.00000246,-0.00000419,-
 0.00001508,0.00000373,-0.00000297,0.00000016,-0.00003803,0.00000924,-0
 .00000441,-0.00000688,0.00000323,-0.00094631,0.00009039,-0.00013733,0.
 00032928,-0.00034064,0.00004289,0.27326793,0.00001169,-0.00003273,-0.0
 0004074,0.00001977,0.00015757,0.00017975,0.00056438,-0.00101497,0.0000
 6521,-0.00025185,-0.00000923,-0.00013586,0.00024038,0.00008606,0.00155
 704,-0.00175986,0.00832987,0.00376188,-0.00479514,0.00555990,-0.002558
 82,0.05911909,-0.06005003,0.03853685,0.01246611,-0.00150679,0.01032396
 ,0.00005813,-0.00090417,-0.00045045,-0.00053299,0.00083649,0.00256595,
 0.00093972,0.00021593,-0.00047748,0.00001155,0.00000209,0.00000385,-0.
 00001657,-0.00000703,-0.00000513,-0.00000698,0.00000393,0.00000043,-0.
 00001219,-0.00002969,-0.00006910,-0.00003174,-0.00001326,-0.00003240,-
 0.00102414,0.00004281,-0.00011460,-0.00104011,-0.00562911,-0.00236877,
 -0.06395926,0.05396233,0.00000319,0.00000938,-0.00008952,-0.00000023,0
 .00011916,0.00022249,0.00028209,-0.00081767,0.00012682,-0.00004426,0.0
 0006349,0.00006914,0.00038803,-0.00002400,-0.00022983,0.00170813,0.004
 31023,0.00150525,0.01843915,-0.00179175,0.00591835,-0.11407917,0.03900
 464,-0.10748327,-0.02331569,0.01097230,-0.01713333,0.00080388,-0.00138
 895,0.00103586,0.00003325,0.00334216,-0.00273579,0.00084368,0.00030038
 ,0.00036806,0.00004041,0.00000559,0.00000197,0.00000794,0.00000439,0.0
 0000149,0.00000841,0.00000025,0.00000792,-0.00000548,-0.00001553,-0.00
 000112,-0.00000020,0.00000372,-0.00002958,0.00013642,-0.00004922,-0.00
 006644,0.00139859,-0.00330700,0.00028101,0.11335187,-0.05074155,0.1182
 3052\\0.00000142,-0.00000114,0.00000713,0.00001683,0.00001192,-0.00000
 563,-0.00003436,0.00002481,0.00001082,0.00001318,0.00000462,-0.0000081
 9,0.00001364,-0.00002551,-0.00001855,-0.00000339,0.00000638,0.00000996
 ,0.00000749,-0.00000353,-0.00001136,0.00001010,0.00000106,0.00001975,-
 0.00003589,-0.00000252,-0.00003378,0.00000366,0.00000077,0.00000825,0.
 00003704,0.00000562,0.00001446,-0.00001563,-0.00000355,0.00001257,-0.0
 0000391,-0.00000068,0.00000240,-0.00000680,0.00000569,-0.00000434,-0.0
 0000322,-0.00000671,-0.00000184,0.00000229,-0.00000890,0.00000027,-0.0
 0000160,-0.00000472,0.00000757,-0.00000184,-0.00000265,-0.00000287,0.0
 0000117,-0.00000350,-0.00000043,-0.00000019,0.00000253,-0.00000621\\\@


 A successful marriage requires falling in love
 many times, always with the same person.
                           -- Mignon McLaughlin
 Job cpu time:       0 days  3 hours  1 minutes 28.3 seconds.
 Elapsed time:       0 days  0 hours 45 minutes 23.3 seconds.
 File lengths (MBytes):  RWF=    272 Int=      0 D2E=      0 Chk=     13 Scr=      1
 Normal termination of Gaussian 16 at Wed May 17 01:12:41 2023.
### All Done ###
