### Starting Gaussian ###
 Entering Gaussian System, Link 0=g16
 Initial command:
 /cluster/software/gaussian/gaussian-16-A.03/avx2/g16/l1.exe "/local/scratch/cz9n3/Gau-22794.inp" -scrdir="/local/scratch/cz9n3/"
 Entering Link 1 = /cluster/software/gaussian/gaussian-16-A.03/avx2/g16/l1.exe PID=     22795.
  
 Copyright (c) 1988,1990,1992,1993,1995,1998,2003,2009,2016,
            Gaussian, Inc.  All Rights Reserved.
  
 This is part of the Gaussian(R) 16 program.  It is based on
 the Gaussian(R) 09 system (copyright 2009, Gaussian, Inc.),
 the Gaussian(R) 03 system (copyright 2003, Gaussian, Inc.),
 the Gaussian(R) 98 system (copyright 1998, Gaussian, Inc.),
 the Gaussian(R) 94 system (copyright 1995, Gaussian, Inc.),
 the Gaussian 92(TM) system (copyright 1992, Gaussian, Inc.),
 the Gaussian 90(TM) system (copyright 1990, Gaussian, Inc.),
 the Gaussian 88(TM) system (copyright 1988, Gaussian, Inc.),
 the Gaussian 86(TM) system (copyright 1986, Carnegie Mellon
 University), and the Gaussian 82(TM) system (copyright 1983,
 Carnegie Mellon University). Gaussian is a federally registered
 trademark of Gaussian, Inc.
  
 This software contains proprietary and confidential information,
 including trade secrets, belonging to Gaussian, Inc.
  
 This software is provided under written license and may be
 used, copied, transmitted, or stored only in accord with that
 written license.
  
 The following legend is applicable only to US Government
 contracts under FAR:
  
                    RESTRICTED RIGHTS LEGEND
  
 Use, reproduction and disclosure by the US Government is
 subject to restrictions as set forth in subparagraphs (a)
 and (c) of the Commercial Computer Software - Restricted
 Rights clause in FAR 52.227-19.
  
 Gaussian, Inc.
 340 Quinnipiac St., Bldg. 40, Wallingford CT 06492
  
  
 ---------------------------------------------------------------
 Warning -- This program may not be used in any manner that
 competes with the business of Gaussian, Inc. or will provide
 assistance to any competitor of Gaussian, Inc.  The licensee
 of this program is prohibited from giving any competitor of
 Gaussian, Inc. access to this program.  By using this program,
 the user acknowledges that Gaussian, Inc. is engaged in the
 business of creating and licensing software in the field of
 computational chemistry and represents and warrants to the
 licensee that it is not a competitor of Gaussian, Inc. and that
 it will not use this program in any manner prohibited above.
 ---------------------------------------------------------------
  

 Cite this work as:
 Gaussian 16, Revision A.03,
 M. J. Frisch, G. W. Trucks, H. B. Schlegel, G. E. Scuseria, 
 M. A. Robb, J. R. Cheeseman, G. Scalmani, V. Barone, 
 G. A. Petersson, H. Nakatsuji, X. Li, M. Caricato, A. V. Marenich, 
 J. Bloino, B. G. Janesko, R. Gomperts, B. Mennucci, H. P. Hratchian, 
 J. V. Ortiz, A. F. Izmaylov, J. L. Sonnenberg, D. Williams-Young, 
 F. Ding, F. Lipparini, F. Egidi, J. Goings, B. Peng, A. Petrone, 
 T. Henderson, D. Ranasinghe, V. G. Zakrzewski, J. Gao, N. Rega, 
 G. Zheng, W. Liang, M. Hada, M. Ehara, K. Toyota, R. Fukuda, 
 J. Hasegawa, M. Ishida, T. Nakajima, Y. Honda, O. Kitao, H. Nakai, 
 T. Vreven, K. Throssell, J. A. Montgomery, Jr., J. E. Peralta, 
 F. Ogliaro, M. J. Bearpark, J. J. Heyd, E. N. Brothers, K. N. Kudin, 
 V. N. Staroverov, T. A. Keith, R. Kobayashi, J. Normand, 
 K. Raghavachari, A. P. Rendell, J. C. Burant, S. S. Iyengar, 
 J. Tomasi, M. Cossi, J. M. Millam, M. Klene, C. Adamo, R. Cammi, 
 J. W. Ochterski, R. L. Martin, K. Morokuma, O. Farkas, 
 J. B. Foresman, and D. J. Fox, Gaussian, Inc., Wallingford CT, 2016.
 
 ******************************************
 Gaussian 16:  ES64L-G16RevA.03 25-Dec-2016
                20-May-2023 
 ******************************************
 %chk=CCdCC1dCCqdCCdCCCOrCdCCdC1N.chk
 %NProcShared=20
 Will use up to   20 processors via shared memory.
 -----------------------------
 # opt freq b3lyp/6-31g(2df,p)
 -----------------------------
 1/18=20,19=15,26=3,38=1/1,3;
 2/9=110,12=2,17=6,18=5,40=1/2;
 3/5=1,6=6,7=104,11=2,25=1,30=1,71=1,74=-5/1,2,3;
 4//1;
 5/5=2,38=5/2;
 6/7=2,8=2,9=2,10=2,28=1/1;
 7//1,2,3,16;
 1/18=20,19=15,26=3/3(2);
 2/9=110/2;
 99//99;
 2/9=110/2;
 3/5=1,6=6,7=104,11=2,25=1,30=1,71=1,74=-5/1,2,3;
 4/5=5,16=3,69=1/1;
 5/5=2,38=5/2;
 7//1,2,3,16;
 1/18=20,19=15,26=3/3(-5);
 2/9=110/2;
 6/7=2,8=2,9=2,10=2,19=2,28=1/1;
 99/9=1/99;
 -------------------
 Title Card Required
 -------------------
 Symbolic Z-matrix:
 Charge =  0 Multiplicity = 1
 C                     1.04958  -0.05437  -0.05345 
 C                     2.53915  -0.07146  -0.05379 
 C                     3.26174  -0.42733   1.0225 
 C                     4.74029  -0.5169    1.0577 
 C                     5.36173   0.5778    0.58212 
 C                     6.75656   0.95054   0.39805 
 C                     7.06259   2.15228  -0.15972 
 C                     6.12477   3.15496  -0.61873 
 C                     6.45982   4.33026  -1.16007 
 C                     5.38172   5.28256  -1.58694 
 C                     5.9718    6.55266  -2.1758 
 O                     4.93826   7.44382  -2.56895 
 C                     7.88926   0.11626   0.76348 
 C                     7.85994  -1.10341   1.31402 
 C                     6.73528  -1.90713   1.70617 
 C                     5.40369  -1.70006   1.63972 
 N                     4.57132  -2.66225   2.18552 
 H                     0.68093   0.30372  -1.01964 
 H                     0.66367   0.6103    0.7247 
 H                     0.66102  -1.06528   0.10148 
 H                     3.03187   0.20287  -0.98477 
 H                     2.75201  -0.69919   1.94389 
 H                     4.66953   1.3486    0.27478 
 H                     8.10931   2.42598  -0.2957 
 H                     5.06037   2.97421  -0.53061 
 H                     7.50123   4.60756  -1.2889 
 H                     4.73953   5.53814  -0.73318 
 H                     4.72765   4.80361  -2.32846 
 H                     6.5907    6.32409  -3.04971 
 H                     6.59761   7.05903  -1.43409 
 H                     4.40415   6.99118  -3.24387 
 H                     8.87907   0.52697   0.56741 
 H                     8.82418  -1.56605   1.52182 
 H                     7.05999  -2.84494   2.15494 
 H                     4.96028  -3.55866   2.4445 
 H                     3.58652  -2.63881   1.95132 
 

 GradGradGradGradGradGradGradGradGradGradGradGradGradGradGradGradGradGrad
 Berny optimization.
 Initialization pass.
                           ----------------------------
                           !    Initial Parameters    !
                           ! (Angstroms and Degrees)  !
 --------------------------                            --------------------------
 ! Name  Definition              Value          Derivative Info.                !
 --------------------------------------------------------------------------------
 ! R1    R(1,2)                  1.4897         estimate D2E/DX2                !
 ! R2    R(1,18)                 1.0944         estimate D2E/DX2                !
 ! R3    R(1,19)                 1.0937         estimate D2E/DX2                !
 ! R4    R(1,20)                 1.094          estimate D2E/DX2                !
 ! R5    R(2,3)                  1.3443         estimate D2E/DX2                !
 ! R6    R(2,21)                 1.0885         estimate D2E/DX2                !
 ! R7    R(3,4)                  1.4817         estimate D2E/DX2                !
 ! R8    R(3,22)                 1.0875         estimate D2E/DX2                !
 ! R9    R(4,5)                  1.3456         estimate D2E/DX2                !
 ! R10   R(4,16)                 1.476          estimate D2E/DX2                !
 ! R11   R(5,6)                  1.4555         estimate D2E/DX2                !
 ! R12   R(5,23)                 1.0806         estimate D2E/DX2                !
 ! R13   R(6,7)                  1.3598         estimate D2E/DX2                !
 ! R14   R(6,13)                 1.4535         estimate D2E/DX2                !
 ! R15   R(7,8)                  1.4476         estimate D2E/DX2                !
 ! R16   R(7,24)                 1.0904         estimate D2E/DX2                !
 ! R17   R(8,9)                  1.3367         estimate D2E/DX2                !
 ! R18   R(8,25)                 1.0832         estimate D2E/DX2                !
 ! R19   R(9,10)                 1.5005         estimate D2E/DX2                !
 ! R20   R(9,26)                 1.0854         estimate D2E/DX2                !
 ! R21   R(10,11)                1.5192         estimate D2E/DX2                !
 ! R22   R(10,27)                1.0985         estimate D2E/DX2                !
 ! R23   R(10,28)                1.0987         estimate D2E/DX2                !
 ! R24   R(11,12)                1.4202         estimate D2E/DX2                !
 ! R25   R(11,29)                1.095          estimate D2E/DX2                !
 ! R26   R(11,30)                1.0946         estimate D2E/DX2                !
 ! R27   R(12,31)                0.9725         estimate D2E/DX2                !
 ! R28   R(13,14)                1.3385         estimate D2E/DX2                !
 ! R29   R(13,32)                1.0894         estimate D2E/DX2                !
 ! R30   R(14,15)                1.4369         estimate D2E/DX2                !
 ! R31   R(14,33)                1.0895         estimate D2E/DX2                !
 ! R32   R(15,16)                1.3492         estimate D2E/DX2                !
 ! R33   R(15,34)                1.0892         estimate D2E/DX2                !
 ! R34   R(16,17)                1.3844         estimate D2E/DX2                !
 ! R35   R(17,35)                1.0109         estimate D2E/DX2                !
 ! R36   R(17,36)                1.0125         estimate D2E/DX2                !
 ! A1    A(2,1,18)             109.9006         estimate D2E/DX2                !
 ! A2    A(2,1,19)             111.0972         estimate D2E/DX2                !
 ! A3    A(2,1,20)             110.1555         estimate D2E/DX2                !
 ! A4    A(18,1,19)            108.085          estimate D2E/DX2                !
 ! A5    A(18,1,20)            107.9227         estimate D2E/DX2                !
 ! A6    A(19,1,20)            109.601          estimate D2E/DX2                !
 ! A7    A(1,2,3)              122.7064         estimate D2E/DX2                !
 ! A8    A(1,2,21)             116.7404         estimate D2E/DX2                !
 ! A9    A(3,2,21)             120.543          estimate D2E/DX2                !
 ! A10   A(2,3,4)              124.8482         estimate D2E/DX2                !
 ! A11   A(2,3,22)             119.5089         estimate D2E/DX2                !
 ! A12   A(4,3,22)             115.6251         estimate D2E/DX2                !
 ! A13   A(3,4,5)              113.7827         estimate D2E/DX2                !
 ! A14   A(3,4,16)             120.4189         estimate D2E/DX2                !
 ! A15   A(5,4,16)             125.7248         estimate D2E/DX2                !
 ! A16   A(4,5,6)              134.0765         estimate D2E/DX2                !
 ! A17   A(4,5,23)             112.6422         estimate D2E/DX2                !
 ! A18   A(6,5,23)             113.2805         estimate D2E/DX2                !
 ! A19   A(5,6,7)              119.5972         estimate D2E/DX2                !
 ! A20   A(5,6,13)             124.6143         estimate D2E/DX2                !
 ! A21   A(7,6,13)             115.787          estimate D2E/DX2                !
 ! A22   A(6,7,8)              126.6136         estimate D2E/DX2                !
 ! A23   A(6,7,24)             119.2768         estimate D2E/DX2                !
 ! A24   A(8,7,24)             114.1093         estimate D2E/DX2                !
 ! A25   A(7,8,9)              125.104          estimate D2E/DX2                !
 ! A26   A(7,8,25)             119.6836         estimate D2E/DX2                !
 ! A27   A(9,8,25)             115.2123         estimate D2E/DX2                !
 ! A28   A(8,9,10)             119.5492         estimate D2E/DX2                !
 ! A29   A(8,9,26)             120.8793         estimate D2E/DX2                !
 ! A30   A(10,9,26)            119.5702         estimate D2E/DX2                !
 ! A31   A(9,10,11)            111.2099         estimate D2E/DX2                !
 ! A32   A(9,10,27)            110.2802         estimate D2E/DX2                !
 ! A33   A(9,10,28)            110.0652         estimate D2E/DX2                !
 ! A34   A(11,10,27)           109.5002         estimate D2E/DX2                !
 ! A35   A(11,10,28)           109.5163         estimate D2E/DX2                !
 ! A36   A(27,10,28)           106.1384         estimate D2E/DX2                !
 ! A37   A(10,11,12)           110.4402         estimate D2E/DX2                !
 ! A38   A(10,11,29)           110.7545         estimate D2E/DX2                !
 ! A39   A(10,11,30)           110.2524         estimate D2E/DX2                !
 ! A40   A(12,11,29)           108.7463         estimate D2E/DX2                !
 ! A41   A(12,11,30)           108.2622         estimate D2E/DX2                !
 ! A42   A(29,11,30)           108.3134         estimate D2E/DX2                !
 ! A43   A(11,12,31)           107.4433         estimate D2E/DX2                !
 ! A44   A(6,13,14)            127.5447         estimate D2E/DX2                !
 ! A45   A(6,13,32)            116.5133         estimate D2E/DX2                !
 ! A46   A(14,13,32)           115.9419         estimate D2E/DX2                !
 ! A47   A(13,14,15)           129.7248         estimate D2E/DX2                !
 ! A48   A(13,14,33)           116.488          estimate D2E/DX2                !
 ! A49   A(15,14,33)           113.7756         estimate D2E/DX2                !
 ! A50   A(14,15,16)           132.3139         estimate D2E/DX2                !
 ! A51   A(14,15,34)           111.1444         estimate D2E/DX2                !
 ! A52   A(16,15,34)           116.5296         estimate D2E/DX2                !
 ! A53   A(4,16,15)            125.8741         estimate D2E/DX2                !
 ! A54   A(4,16,17)            116.2535         estimate D2E/DX2                !
 ! A55   A(15,16,17)           117.8596         estimate D2E/DX2                !
 ! A56   A(16,17,35)           119.0763         estimate D2E/DX2                !
 ! A57   A(16,17,36)           118.5224         estimate D2E/DX2                !
 ! A58   A(35,17,36)           117.0014         estimate D2E/DX2                !
 ! D1    D(18,1,2,3)           177.7817         estimate D2E/DX2                !
 ! D2    D(18,1,2,21)           -3.3731         estimate D2E/DX2                !
 ! D3    D(19,1,2,3)            58.209          estimate D2E/DX2                !
 ! D4    D(19,1,2,21)         -122.9458         estimate D2E/DX2                !
 ! D5    D(20,1,2,3)           -63.4348         estimate D2E/DX2                !
 ! D6    D(20,1,2,21)          115.4104         estimate D2E/DX2                !
 ! D7    D(1,2,3,4)            177.258          estimate D2E/DX2                !
 ! D8    D(1,2,3,22)            -1.1386         estimate D2E/DX2                !
 ! D9    D(21,2,3,4)            -1.5446         estimate D2E/DX2                !
 ! D10   D(21,2,3,22)         -179.9412         estimate D2E/DX2                !
 ! D11   D(2,3,4,5)             50.2196         estimate D2E/DX2                !
 ! D12   D(2,3,4,16)          -132.7248         estimate D2E/DX2                !
 ! D13   D(22,3,4,5)          -131.328          estimate D2E/DX2                !
 ! D14   D(22,3,4,16)           45.7276         estimate D2E/DX2                !
 ! D15   D(3,4,5,6)           -179.0312         estimate D2E/DX2                !
 ! D16   D(3,4,5,23)             1.3066         estimate D2E/DX2                !
 ! D17   D(16,4,5,6)             4.0965         estimate D2E/DX2                !
 ! D18   D(16,4,5,23)         -175.5656         estimate D2E/DX2                !
 ! D19   D(3,4,16,15)          178.6911         estimate D2E/DX2                !
 ! D20   D(3,4,16,17)           -2.6461         estimate D2E/DX2                !
 ! D21   D(5,4,16,15)           -4.6282         estimate D2E/DX2                !
 ! D22   D(5,4,16,17)          174.0347         estimate D2E/DX2                !
 ! D23   D(4,5,6,7)            178.0936         estimate D2E/DX2                !
 ! D24   D(4,5,6,13)            -1.457          estimate D2E/DX2                !
 ! D25   D(23,5,6,7)            -2.2459         estimate D2E/DX2                !
 ! D26   D(23,5,6,13)          178.2035         estimate D2E/DX2                !
 ! D27   D(5,6,7,8)             -0.1697         estimate D2E/DX2                !
 ! D28   D(5,6,7,24)          -179.9657         estimate D2E/DX2                !
 ! D29   D(13,6,7,8)           179.4196         estimate D2E/DX2                !
 ! D30   D(13,6,7,24)           -0.3765         estimate D2E/DX2                !
 ! D31   D(5,6,13,14)            0.1053         estimate D2E/DX2                !
 ! D32   D(5,6,13,32)         -179.9591         estimate D2E/DX2                !
 ! D33   D(7,6,13,14)         -179.4607         estimate D2E/DX2                !
 ! D34   D(7,6,13,32)            0.4748         estimate D2E/DX2                !
 ! D35   D(6,7,8,9)            179.7932         estimate D2E/DX2                !
 ! D36   D(6,7,8,25)            -0.0668         estimate D2E/DX2                !
 ! D37   D(24,7,8,9)            -0.4017         estimate D2E/DX2                !
 ! D38   D(24,7,8,25)          179.7383         estimate D2E/DX2                !
 ! D39   D(7,8,9,10)          -179.6553         estimate D2E/DX2                !
 ! D40   D(7,8,9,26)            -0.0622         estimate D2E/DX2                !
 ! D41   D(25,8,9,10)            0.2103         estimate D2E/DX2                !
 ! D42   D(25,8,9,26)          179.8034         estimate D2E/DX2                !
 ! D43   D(8,9,10,11)         -179.9313         estimate D2E/DX2                !
 ! D44   D(8,9,10,27)           58.3918         estimate D2E/DX2                !
 ! D45   D(8,9,10,28)          -58.3805         estimate D2E/DX2                !
 ! D46   D(26,9,10,11)           0.4703         estimate D2E/DX2                !
 ! D47   D(26,9,10,27)        -121.2066         estimate D2E/DX2                !
 ! D48   D(26,9,10,28)         122.021          estimate D2E/DX2                !
 ! D49   D(9,10,11,12)        -179.7623         estimate D2E/DX2                !
 ! D50   D(9,10,11,29)          59.7065         estimate D2E/DX2                !
 ! D51   D(9,10,11,30)         -60.1603         estimate D2E/DX2                !
 ! D52   D(27,10,11,12)        -57.632          estimate D2E/DX2                !
 ! D53   D(27,10,11,29)       -178.1633         estimate D2E/DX2                !
 ! D54   D(27,10,11,30)         61.9699         estimate D2E/DX2                !
 ! D55   D(28,10,11,12)         58.3674         estimate D2E/DX2                !
 ! D56   D(28,10,11,29)        -62.1639         estimate D2E/DX2                !
 ! D57   D(28,10,11,30)        177.9693         estimate D2E/DX2                !
 ! D58   D(10,11,12,31)        -60.6523         estimate D2E/DX2                !
 ! D59   D(29,11,12,31)         61.073          estimate D2E/DX2                !
 ! D60   D(30,11,12,31)        178.551          estimate D2E/DX2                !
 ! D61   D(6,13,14,15)          -0.8824         estimate D2E/DX2                !
 ! D62   D(6,13,14,33)        -179.5498         estimate D2E/DX2                !
 ! D63   D(32,13,14,15)        179.1818         estimate D2E/DX2                !
 ! D64   D(32,13,14,33)          0.5143         estimate D2E/DX2                !
 ! D65   D(13,14,15,16)          0.4442         estimate D2E/DX2                !
 ! D66   D(13,14,15,34)       -178.2169         estimate D2E/DX2                !
 ! D67   D(33,14,15,16)        179.1409         estimate D2E/DX2                !
 ! D68   D(33,14,15,34)          0.4798         estimate D2E/DX2                !
 ! D69   D(14,15,16,4)           2.3607         estimate D2E/DX2                !
 ! D70   D(14,15,16,17)       -176.2829         estimate D2E/DX2                !
 ! D71   D(34,15,16,4)        -179.035          estimate D2E/DX2                !
 ! D72   D(34,15,16,17)          2.3215         estimate D2E/DX2                !
 ! D73   D(4,16,17,35)         169.1375         estimate D2E/DX2                !
 ! D74   D(4,16,17,36)          15.83           estimate D2E/DX2                !
 ! D75   D(15,16,17,35)        -12.088          estimate D2E/DX2                !
 ! D76   D(15,16,17,36)       -165.3955         estimate D2E/DX2                !
 --------------------------------------------------------------------------------
 Trust Radius=3.00D-01 FncErr=1.00D-07 GrdErr=1.00D-06 EigMax=2.50D+02 EigMin=1.00D-04
 Number of steps in this run=    180 maximum allowed number of steps=    216.
 GradGradGradGradGradGradGradGradGradGradGradGradGradGradGradGradGradGrad

                          Input orientation:                          
 ---------------------------------------------------------------------
 Center     Atomic      Atomic             Coordinates (Angstroms)
 Number     Number       Type             X           Y           Z
 ---------------------------------------------------------------------
      1          6           0        1.049580   -0.054370   -0.053450
      2          6           0        2.539150   -0.071460   -0.053790
      3          6           0        3.261740   -0.427330    1.022500
      4          6           0        4.740290   -0.516900    1.057700
      5          6           0        5.361730    0.577800    0.582120
      6          6           0        6.756560    0.950540    0.398050
      7          6           0        7.062590    2.152280   -0.159720
      8          6           0        6.124770    3.154960   -0.618730
      9          6           0        6.459820    4.330260   -1.160070
     10          6           0        5.381720    5.282560   -1.586940
     11          6           0        5.971800    6.552660   -2.175800
     12          8           0        4.938260    7.443820   -2.568950
     13          6           0        7.889260    0.116260    0.763480
     14          6           0        7.859940   -1.103410    1.314020
     15          6           0        6.735280   -1.907130    1.706170
     16          6           0        5.403690   -1.700060    1.639720
     17          7           0        4.571320   -2.662250    2.185520
     18          1           0        0.680930    0.303720   -1.019640
     19          1           0        0.663670    0.610300    0.724700
     20          1           0        0.661020   -1.065280    0.101480
     21          1           0        3.031870    0.202870   -0.984770
     22          1           0        2.752010   -0.699190    1.943890
     23          1           0        4.669530    1.348600    0.274780
     24          1           0        8.109310    2.425980   -0.295700
     25          1           0        5.060370    2.974210   -0.530610
     26          1           0        7.501230    4.607560   -1.288900
     27          1           0        4.739530    5.538140   -0.733180
     28          1           0        4.727650    4.803610   -2.328460
     29          1           0        6.590700    6.324090   -3.049710
     30          1           0        6.597610    7.059030   -1.434090
     31          1           0        4.404150    6.991180   -3.243870
     32          1           0        8.879070    0.526970    0.567410
     33          1           0        8.824180   -1.566050    1.521820
     34          1           0        7.059990   -2.844940    2.154940
     35          1           0        4.960280   -3.558660    2.444500
     36          1           0        3.586520   -2.638810    1.951320
 ---------------------------------------------------------------------
                    Distance matrix (angstroms):
                    1          2          3          4          5
     1  C    0.000000
     2  C    1.489668   0.000000
     3  C    2.488055   1.344314   0.000000
     4  C    3.882001   2.505762   1.481679   0.000000
     5  C    4.404342   2.965279   2.369426   1.345634   0.000000
     6  C    5.812342   4.362934   3.808179   2.579508   1.455461
     7  C    6.406004   5.041602   4.743258   3.741619   2.433565
     8  C    6.031326   4.856502   4.870665   4.267289   2.943811
     9  C    7.051261   5.997553   6.134003   5.600915   4.280419
    10  C    7.042858   6.252702   6.626186   6.406191   5.180732
    11  C    8.507965   7.756609   8.142101   7.870884   6.608877
    12  O    8.813196   8.280169   8.812731   8.750134   7.566426
    13  C    6.890407   5.415427   4.666532   3.225441   2.575717
    14  C    7.025060   5.589869   4.656770   3.184637   3.098903
    15  C    6.233471   4.906593   3.837016   2.516593   3.053687
    16  C    4.953120   3.704849   2.566856   1.476047   2.511757
    17  N    4.921044   3.982012   2.839451   2.429620   3.700482
    18  H    1.094374   2.127583   3.371253   4.633267   4.954861
    19  H    1.093723   2.142024   2.813419   4.242676   4.700335
    20  H    1.094039   2.130530   2.831784   4.225579   5.002739
    21  H    2.205222   1.088464   2.116394   2.758342   2.832660
    22  H    2.702485   2.104775   1.087516   2.184450   3.208701
    23  H    3.896164   2.581288   2.386396   2.024367   1.080616
    24  H    7.486695   6.109207   5.777367   4.673599   3.425716
    25  H    5.048407   3.982463   4.149421   3.848770   2.659279
    26  H    8.055043   6.931159   6.976099   6.276098   4.931241
    27  H    6.734533   6.063898   6.391644   6.314330   5.169344
    28  H    6.504140   5.807750   6.382833   6.306668   5.170203
    29  H    8.964727   8.142091   8.558419   8.191091   6.907996
    30  H    9.126186   8.319869   8.556194   8.188612   6.899192
    31  H    8.430403   7.970930   8.633731   8.659547   7.529051
    32  H    7.875553   6.398327   5.715959   4.296458   3.517738
    33  H    8.075336   6.649658   5.699714   4.241967   4.179436
    34  H    6.984933   5.745318   4.642624   3.464782   4.131949
    35  H    5.814927   4.925839   3.835668   3.350211   4.554111
    36  H    4.139384   3.421803   2.420503   2.575314   3.920798
                    6          7          8          9         10
     6  C    0.000000
     7  C    1.359758   0.000000
     8  C    2.508479   1.447606   0.000000
     9  C    3.733403   2.471362   1.336652   0.000000
    10  C    4.959513   3.828960   2.452802   1.500464   0.000000
    11  C    6.214845   4.961627   3.740619   2.491773   1.519245
    12  O    7.366952   6.190118   4.858548   3.740901   2.414963
    13  C    1.453469   2.383497   3.775927   4.847797   6.205069
    14  C    2.505027   3.661584   4.987991   6.132392   7.438935
    15  C    3.142914   4.479675   5.603806   6.869952   8.022988
    16  C    3.224544   4.564040   5.402941   6.731938   7.692126
    17  N    4.585038   5.906461   6.642060   7.978383   8.832226
    18  H    6.272280   6.699419   6.158384   7.044737   6.870815
    19  H    6.111119   6.641241   6.172820   7.140435   7.030910
    20  H    6.427059   7.169450   6.941303   8.020564   8.088933
    21  H    4.042835   4.552759   4.291253   5.368139   5.629179
    22  H    4.598658   5.580068   5.726867   6.976947   7.427211
    23  H    2.128225   2.561528   2.485763   3.762211   4.410131
    24  H    2.118524   1.090424   2.138728   2.663501   4.155370
    25  H    2.799055   2.195908   1.083228   2.047816   2.558824
    26  H    4.095623   2.737855   2.110407   1.085370   2.244276
    27  H    5.137525   4.146024   2.758901   2.144903   1.098470
    28  H    5.137751   4.145471   2.755570   2.142337   1.098659
    29  H    6.386673   5.096933   4.021211   2.750132   2.164743
    30  H    6.379314   5.090817   4.016236   2.745953   2.158147
    31  H    7.435506   6.324100   4.956660   3.955818   2.573022
    32  H    2.170977   2.543610   3.987409   4.827212   6.283973
    33  H    3.445452   4.444857   5.844374   6.895593   8.271540
    34  H    4.193376   5.507256   6.675828   7.926726   9.103544
    35  H    5.267586   6.619404   7.470750   8.802080   9.726114
    36  H    5.034405   6.284433   6.827565   8.155031   8.859466
                   11         12         13         14         15
    11  C    0.000000
    12  O    1.420189   0.000000
    13  C    7.330980   8.573601   0.000000
    14  C    8.623185   9.832030   1.338488   0.000000
    15  C    9.339199  10.437730   2.512855   1.436874   0.000000
    16  C    9.109793  10.076709   3.200761   2.548575   1.349231
    17  N   10.290628  11.174627   4.555331   3.742261   2.341518
    18  H    8.269175   8.456137   7.427966   7.678813   6.998075
    19  H    8.479433   8.707310   7.242564   7.420943   6.645689
    20  H    9.561558   9.890943   7.354028   7.300422   6.338799
    21  H    7.097998   7.653451   5.163150   5.504640   5.040685
    22  H    8.940258   9.563160   5.333823   5.162468   4.169181
    23  H    5.897753   6.731324   3.481975   4.155850   4.112904
    24  H    5.013304   6.356252   2.550508   3.887155   4.967020
    25  H    4.042605   4.913975   4.224354   5.278943   5.624588
    26  H    2.628528   4.031341   4.953242   6.286417   7.210985
    27  H    2.151486   2.653519   6.446516   7.618279   8.084893
    28  H    2.151834   2.659493   6.444154   7.613921   8.083492
    29  H    1.094989   2.053164   7.400259   8.707518   9.507486
    30  H    1.094615   2.046806   7.395927   8.704655   9.501169
    31  H    1.946946   0.972457   8.687311   9.911571  10.445908
    32  H    7.230931   8.556258   1.089426   2.062569   3.437652
    33  H    9.365998  10.630735   2.068652   1.089484   2.124576
    34  H   10.404535  11.518483   3.375286   2.092843   1.089183
    35  H   11.162846  12.090895   4.990971   3.964122   2.534424
    36  H   10.354023  11.131912   5.245469   4.585381   3.241935
                   16         17         18         19         20
    16  C    0.000000
    17  N    1.384394   0.000000
    18  H    5.778563   5.848518   0.000000
    19  H    5.351898   5.302198   1.771161   0.000000
    20  H    5.026136   4.709987   1.769595   1.787730   0.000000
    21  H    4.016792   4.541977   2.353360   2.949010   2.899840
    22  H    2.850556   2.687355   3.752028   2.749973   2.810825
    23  H    3.419997   4.443815   4.321600   4.098101   4.682414
    24  H    5.300041   6.675621   7.759440   7.731459   8.235513
    25  H    5.164978   6.275844   5.152685   5.147314   6.005939
    26  H    7.263784   8.573570   8.069203   8.172203   8.994595
    27  H    7.646130   8.705946   6.629740   6.559090   7.806155
    28  H    7.648608   8.725796   6.191766   6.589504   7.542278
    29  H    9.369457  10.594330   8.677063   9.056669   9.984683
    30  H    9.359242  10.569329   8.989610   9.025416  10.178678
    31  H   10.019291  11.076774   7.970677   8.393829   9.492573
    32  H    4.264713   5.598760   8.353327   8.217328   8.383835
    33  H    3.425144   4.441731   8.733131   8.483267   8.300923
    34  H    2.078348   2.495554   7.790021   7.409263   6.952029
    35  H    2.073325   1.010896   6.725406   6.228868   5.494572
    36  H    2.068926   1.012536   5.091909   4.539203   3.802165
                   21         22         23         24         25
    21  H    0.000000
    22  H    3.077188   0.000000
    23  H    2.362434   3.264392   0.000000
    24  H    5.585466   6.594173   3.649422   0.000000
    25  H    3.464304   4.994551   1.855806   3.106730   0.000000
    26  H    6.282433   7.820973   4.591780   2.472953   3.033255
    27  H    5.607540   7.072568   4.309655   4.607857   2.591855
    28  H    5.084091   7.241335   4.326353   4.606611   2.586440
    29  H    7.375539   9.433877   6.284793   5.008594   4.462003
    30  H    7.741015   9.294588   6.264722   5.004630   4.457032
    31  H    7.284768   9.422537   6.655076   6.577307   4.891672
    32  H    6.058387   6.398361   4.298946   2.223450   4.666594
    33  H    6.554611   6.148239   5.226032   4.444178   6.244413
    34  H    5.947493   4.817414   5.180259   5.906717   6.713655
    35  H    5.443139   3.647415   5.373399   7.296643   7.179115
    36  H    4.123519   2.111537   4.459051   7.152400   6.311751
                   26         27         28         29         30
    26  H    0.000000
    27  H    2.966781   0.000000
    28  H    2.968479   1.756301   0.000000
    29  H    2.622211   3.067712   2.510581   0.000000
    30  H    2.616737   2.501368   3.063261   1.774940   0.000000
    31  H    4.369835   2.920166   2.393343   2.294277   2.844499
    32  H    4.689941   6.628661   6.626462   7.206025   7.202699
    33  H    6.911136   8.499347   8.495810   9.388377   9.385469
    34  H    8.221586   9.165250   9.167388  10.553659  10.544361
    35  H    9.331766   9.638369   9.631346  11.424244  11.421893
    36  H    8.850642   8.683230   8.660734  10.694343  10.704007
                   31         32         33         34         35
    31  H    0.000000
    32  H    8.737092   0.000000
    33  H   10.745913   2.301009   0.000000
    34  H   11.530390   4.147177   2.269089   0.000000
    35  H   11.998581   5.964290   4.444272   2.236520   0.000000
    36  H   10.972476   6.320479   5.363615   3.485534   1.725273
                   36
    36  H    0.000000
 Stoichiometry    C15H19NO
 Framework group  C1[X(C15H19NO)]
 Deg. of freedom   102
 Full point group                 C1      NOp   1
 Largest Abelian subgroup         C1      NOp   1
 Largest concise Abelian subgroup C1      NOp   1
                         Standard orientation:                         
 ---------------------------------------------------------------------
 Center     Atomic      Atomic             Coordinates (Angstroms)
 Number     Number       Type             X           Y           Z
 ---------------------------------------------------------------------
      1          6           0        1.630443    4.215588    0.247909
      2          6           0        1.529212    2.739167    0.418330
      3          6           0        2.235873    1.871790   -0.326966
      4          6           0        2.215936    0.399710   -0.159766
      5          6           0        0.977488   -0.124805   -0.116594
      6          6           0        0.454113   -1.472947    0.047594
      7          6           0       -0.890552   -1.671284    0.086049
      8          6           0       -1.916456   -0.655304   -0.018198
      9          6           0       -3.232638   -0.885254    0.019569
     10          6           0       -4.188614    0.264177   -0.108148
     11          6           0       -5.630387   -0.209743   -0.038899
     12          8           0       -6.520477    0.889490   -0.166818
     13          6           0        1.273389   -2.665299    0.187791
     14          6           0        2.609741   -2.740667    0.193591
     15          6           0        3.588892   -1.698923    0.049923
     16          6           0        3.477702   -0.365284   -0.121740
     17          7           0        4.640839    0.362419   -0.306418
     18          1           0        0.939018    4.717767    0.931578
     19          1           0        1.374030    4.512545   -0.773022
     20          1           0        2.643488    4.553856    0.485052
     21          1           0        0.860896    2.380982    1.199234
     22          1           0        2.899358    2.248160   -1.102095
     23          1           0        0.205177    0.621732   -0.234701
     24          1           0       -1.276959   -2.683409    0.209814
     25          1           0       -1.632743    0.383078   -0.139252
     26          1           0       -3.618983   -1.892967    0.134801
     27          1           0       -4.022044    0.794456   -1.055615
     28          1           0       -4.004705    0.997737    0.688796
     29          1           0       -5.827927   -0.713580    0.913007
     30          1           0       -5.836941   -0.914612   -0.850489
     31          1           0       -6.342686    1.496073    0.572182
     32          1           0        0.742295   -3.609533    0.302731
     33          1           0        3.039848   -3.735610    0.303465
     34          1           0        4.599626   -2.104331    0.069394
     35          1           0        5.531374   -0.080519   -0.125684
     36          1           0        4.600975    1.369793   -0.212399
 ---------------------------------------------------------------------
 Rotational constants (GHZ):           0.6401719           0.1926838           0.1495057
 Standard basis: 6-31G(2df,p) (6D, 7F)
 There are   622 symmetry adapted cartesian basis functions of A   symmetry.
 There are   571 symmetry adapted basis functions of A   symmetry.
   571 basis functions,   881 primitive gaussians,   622 cartesian basis functions
    62 alpha electrons       62 beta electrons
       nuclear repulsion energy      1078.1770475069 Hartrees.
 NAtoms=   36 NActive=   36 NUniq=   36 SFac= 1.00D+00 NAtFMM=   60 NAOKFM=F Big=F
 Integral buffers will be    131072 words long.
 Raffenetti 2 integral format.
 Two-electron integral symmetry is turned on.
 One-electron integrals computed using PRISM.
 PrsmSu:  requested number of processors reduced to:  12 ShMem   1 Linda.
 NBasis=   571 RedAO= T EigKep=  1.66D-04  NBF=   571
 NBsUse=   571 1.00D-06 EigRej= -1.00D+00 NBFU=   571
 ExpMin= 1.61D-01 ExpMax= 5.48D+03 ExpMxC= 8.25D+02 IAcc=3 IRadAn=         5 AccDes= 0.00D+00
 Harris functional with IExCor=  402 and IRadAn=       5 diagonalized for initial guess.
 HarFok:  IExCor=  402 AccDes= 0.00D+00 IRadAn=         5 IDoV= 1 UseB2=F ITyADJ=14
 ICtDFT=  3500011 ScaDFX=  1.000000  1.000000  1.000000  1.000000
 FoFCou: FMM=F IPFlag=           0 FMFlag=      100000 FMFlg1=           0
         NFxFlg=           0 DoJE=T BraDBF=F KetDBF=T FulRan=T
         wScrn=  0.000000 ICntrl=       500 IOpCl=  0 I1Cent=   200000004 NGrid=           0
         NMat0=    1 NMatS0=      1 NMatT0=    0 NMatD0=    1 NMtDS0=    0 NMtDT0=    0
 Petite list used in FoFCou.
 Requested convergence on RMS density matrix=1.00D-08 within 128 cycles.
 Requested convergence on MAX density matrix=1.00D-06.
 Requested convergence on             energy=1.00D-06.
 No special actions if energy rises.
 Integral accuracy reduced to 1.0D-05 until final iterations.
 Initial convergence to 1.0D-05 achieved.  Increase integral accuracy.
 SCF Done:  E(RB3LYP) =  -712.959775506     A.U. after   14 cycles
            NFock= 14  Conv=0.97D-08     -V/T= 2.0078

 **********************************************************************

            Population analysis using the SCF density.

 **********************************************************************

 Orbital symmetries:
       Occupied  (A) (A) (A) (A) (A) (A) (A) (A) (A) (A) (A) (A)
                 (A) (A) (A) (A) (A) (A) (A) (A) (A) (A) (A) (A)
                 (A) (A) (A) (A) (A) (A) (A) (A) (A) (A) (A) (A)
                 (A) (A) (A) (A) (A) (A) (A) (A) (A) (A) (A) (A)
                 (A) (A) (A) (A) (A) (A) (A) (A) (A) (A) (A) (A)
                 (A) (A)
       Virtual   (A) (A) (A) (A) (A) (A) (A) (A) (A) (A) (A) (A)
                 (A) (A) (A) (A) (A) (A) (A) (A) (A) (A) (A) (A)
                 (A) (A) (A) (A) (A) (A) (A) (A) (A) (A) (A) (A)
                 (A) (A) (A) (A) (A) (A) (A) (A) (A) (A) (A) (A)
                 (A) (A) (A) (A) (A) (A) (A) (A) (A) (A) (A) (A)
                 (A) (A) (A) (A) (A) (A) (A) (A) (A) (A) (A) (A)
                 (A) (A) (A) (A) (A) (A) (A) (A) (A) (A) (A) (A)
                 (A) (A) (A) (A) (A) (A) (A) (A) (A) (A) (A) (A)
                 (A) (A) (A) (A) (A) (A) (A) (A) (A) (A) (A) (A)
                 (A) (A) (A) (A) (A) (A) (A) (A) (A) (A) (A) (A)
                 (A) (A) (A) (A) (A) (A) (A) (A) (A) (A) (A) (A)
                 (A) (A) (A) (A) (A) (A) (A) (A) (A) (A) (A) (A)
                 (A) (A) (A) (A) (A) (A) (A) (A) (A) (A) (A) (A)
                 (A) (A) (A) (A) (A) (A) (A) (A) (A) (A) (A) (A)
                 (A) (A) (A) (A) (A) (A) (A) (A) (A) (A) (A) (A)
                 (A) (A) (A) (A) (A) (A) (A) (A) (A) (A) (A) (A)
                 (A) (A) (A) (A) (A) (A) (A) (A) (A) (A) (A) (A)
                 (A) (A) (A) (A) (A) (A) (A) (A) (A) (A) (A) (A)
                 (A) (A) (A) (A) (A) (A) (A) (A) (A) (A) (A) (A)
                 (A) (A) (A) (A) (A) (A) (A) (A) (A) (A) (A) (A)
                 (A) (A) (A) (A) (A) (A) (A) (A) (A) (A) (A) (A)
                 (A) (A) (A) (A) (A) (A) (A) (A) (A) (A) (A) (A)
                 (A) (A) (A) (A) (A) (A) (A) (A) (A) (A) (A) (A)
                 (A) (A) (A) (A) (A) (A) (A) (A) (A) (A) (A) (A)
                 (A) (A) (A) (A) (A) (A) (A) (A) (A) (A) (A) (A)
                 (A) (A) (A) (A) (A) (A) (A) (A) (A) (A) (A) (A)
                 (A) (A) (A) (A) (A) (A) (A) (A) (A) (A) (A) (A)
                 (A) (A) (A) (A) (A) (A) (A) (A) (A) (A) (A) (A)
                 (A) (A) (A) (A) (A) (A) (A) (A) (A) (A) (A) (A)
                 (A) (A) (A) (A) (A) (A) (A) (A) (A) (A) (A) (A)
                 (A) (A) (A) (A) (A) (A) (A) (A) (A) (A) (A) (A)
                 (A) (A) (A) (A) (A) (A) (A) (A) (A) (A) (A) (A)
                 (A) (A) (A) (A) (A) (A) (A) (A) (A) (A) (A) (A)
                 (A) (A) (A) (A) (A) (A) (A) (A) (A) (A) (A) (A)
                 (A) (A) (A) (A) (A) (A) (A) (A) (A) (A) (A) (A)
                 (A) (A) (A) (A) (A) (A) (A) (A) (A) (A) (A) (A)
                 (A) (A) (A) (A) (A) (A) (A) (A) (A) (A) (A) (A)
                 (A) (A) (A) (A) (A) (A) (A) (A) (A) (A) (A) (A)
                 (A) (A) (A) (A) (A) (A) (A) (A) (A) (A) (A) (A)
                 (A) (A) (A) (A) (A) (A) (A) (A) (A) (A) (A) (A)
                 (A) (A) (A) (A) (A) (A) (A) (A) (A) (A) (A) (A)
                 (A) (A) (A) (A) (A) (A) (A) (A) (A) (A) (A) (A)
                 (A) (A) (A) (A) (A)
 The electronic state is 1-A.
 Alpha  occ. eigenvalues --  -19.12382 -14.34308 -10.23170 -10.21728 -10.20017
 Alpha  occ. eigenvalues --  -10.19383 -10.18963 -10.18756 -10.18636 -10.18451
 Alpha  occ. eigenvalues --  -10.17598 -10.17433 -10.16913 -10.16731 -10.16644
 Alpha  occ. eigenvalues --  -10.16607 -10.16295  -1.00414  -0.92379  -0.83857
 Alpha  occ. eigenvalues --   -0.81050  -0.79512  -0.76831  -0.76389  -0.72266
 Alpha  occ. eigenvalues --   -0.69745  -0.66812  -0.64280  -0.62242  -0.58932
 Alpha  occ. eigenvalues --   -0.56068  -0.55240  -0.54373  -0.52345  -0.50058
 Alpha  occ. eigenvalues --   -0.48963  -0.47902  -0.45948  -0.45458  -0.44290
 Alpha  occ. eigenvalues --   -0.43852  -0.42832  -0.42171  -0.40713  -0.39736
 Alpha  occ. eigenvalues --   -0.38746  -0.38002  -0.37801  -0.37087  -0.36496
 Alpha  occ. eigenvalues --   -0.35711  -0.34542  -0.33819  -0.33409  -0.32117
 Alpha  occ. eigenvalues --   -0.31015  -0.28954  -0.27882  -0.25604  -0.24538
 Alpha  occ. eigenvalues --   -0.22354  -0.15363
 Alpha virt. eigenvalues --   -0.04528  -0.02910   0.00785   0.06477   0.07978
 Alpha virt. eigenvalues --    0.08089   0.09715   0.10522   0.11046   0.11975
 Alpha virt. eigenvalues --    0.13181   0.13251   0.13924   0.14866   0.14963
 Alpha virt. eigenvalues --    0.15546   0.16163   0.16755   0.17476   0.18116
 Alpha virt. eigenvalues --    0.18799   0.19926   0.20202   0.22319   0.22883
 Alpha virt. eigenvalues --    0.23453   0.24815   0.25587   0.26036   0.28005
 Alpha virt. eigenvalues --    0.29609   0.31312   0.31976   0.32586   0.35343
 Alpha virt. eigenvalues --    0.36972   0.38065   0.39494   0.40370   0.42272
 Alpha virt. eigenvalues --    0.43012   0.43771   0.45822   0.46733   0.47009
 Alpha virt. eigenvalues --    0.48188   0.48769   0.49594   0.49704   0.49828
 Alpha virt. eigenvalues --    0.51180   0.51324   0.51872   0.52002   0.52717
 Alpha virt. eigenvalues --    0.53662   0.53744   0.54241   0.55156   0.56120
 Alpha virt. eigenvalues --    0.56391   0.57296   0.57791   0.58443   0.59686
 Alpha virt. eigenvalues --    0.60884   0.61351   0.62147   0.62804   0.63997
 Alpha virt. eigenvalues --    0.64942   0.66061   0.66349   0.67716   0.67954
 Alpha virt. eigenvalues --    0.68362   0.69882   0.70903   0.71655   0.72858
 Alpha virt. eigenvalues --    0.73264   0.73675   0.74498   0.74692   0.75505
 Alpha virt. eigenvalues --    0.75778   0.76210   0.76340   0.77184   0.77871
 Alpha virt. eigenvalues --    0.78019   0.78797   0.78976   0.79712   0.80375
 Alpha virt. eigenvalues --    0.81181   0.82030   0.82293   0.82770   0.83301
 Alpha virt. eigenvalues --    0.83346   0.85013   0.85252   0.85932   0.86528
 Alpha virt. eigenvalues --    0.87450   0.87691   0.88146   0.89592   0.89860
 Alpha virt. eigenvalues --    0.90460   0.92085   0.92583   0.93848   0.94739
 Alpha virt. eigenvalues --    0.96287   0.97153   0.97337   0.98229   0.98582
 Alpha virt. eigenvalues --    0.99863   1.00463   1.01318   1.03585   1.04738
 Alpha virt. eigenvalues --    1.05704   1.05790   1.07735   1.10111   1.11035
 Alpha virt. eigenvalues --    1.14607   1.15303   1.17478   1.18731   1.18956
 Alpha virt. eigenvalues --    1.20769   1.22032   1.22255   1.23065   1.24151
 Alpha virt. eigenvalues --    1.25528   1.27915   1.28626   1.29712   1.31046
 Alpha virt. eigenvalues --    1.31320   1.32362   1.34234   1.35530   1.37142
 Alpha virt. eigenvalues --    1.37449   1.38928   1.39140   1.40377   1.41233
 Alpha virt. eigenvalues --    1.42167   1.44430   1.44904   1.46406   1.46989
 Alpha virt. eigenvalues --    1.48115   1.48390   1.50127   1.51126   1.52480
 Alpha virt. eigenvalues --    1.53148   1.54428   1.55178   1.56289   1.57637
 Alpha virt. eigenvalues --    1.58754   1.59369   1.60085   1.60265   1.62397
 Alpha virt. eigenvalues --    1.62996   1.64206   1.64501   1.65814   1.67383
 Alpha virt. eigenvalues --    1.69955   1.71292   1.72045   1.73762   1.74529
 Alpha virt. eigenvalues --    1.76807   1.78740   1.80596   1.81682   1.84400
 Alpha virt. eigenvalues --    1.86417   1.87824   1.88683   1.91769   1.92547
 Alpha virt. eigenvalues --    1.93549   1.94422   1.94634   1.96892   1.98001
 Alpha virt. eigenvalues --    1.98758   1.99870   2.00769   2.03128   2.03935
 Alpha virt. eigenvalues --    2.05922   2.07205   2.09161   2.12225   2.13320
 Alpha virt. eigenvalues --    2.14821   2.14971   2.15256   2.17489   2.18882
 Alpha virt. eigenvalues --    2.19209   2.20519   2.20710   2.23323   2.25198
 Alpha virt. eigenvalues --    2.27152   2.28126   2.29836   2.32395   2.34259
 Alpha virt. eigenvalues --    2.35332   2.36133   2.37293   2.38261   2.38532
 Alpha virt. eigenvalues --    2.41249   2.44122   2.44534   2.45063   2.46773
 Alpha virt. eigenvalues --    2.47207   2.50210   2.53039   2.55163   2.56504
 Alpha virt. eigenvalues --    2.57780   2.60067   2.65398   2.68356   2.69931
 Alpha virt. eigenvalues --    2.71124   2.72011   2.73878   2.75266   2.76873
 Alpha virt. eigenvalues --    2.77270   2.78045   2.79056   2.79900   2.81092
 Alpha virt. eigenvalues --    2.82075   2.82212   2.83282   2.83577   2.84613
 Alpha virt. eigenvalues --    2.85800   2.86651   2.88807   2.88981   2.89926
 Alpha virt. eigenvalues --    2.90645   2.91237   2.91647   2.92825   2.93597
 Alpha virt. eigenvalues --    2.94657   2.95814   2.96263   2.98428   2.99832
 Alpha virt. eigenvalues --    3.00243   3.00940   3.02075   3.03074   3.03880
 Alpha virt. eigenvalues --    3.04601   3.06398   3.07589   3.08168   3.08984
 Alpha virt. eigenvalues --    3.10409   3.11007   3.11410   3.12626   3.13175
 Alpha virt. eigenvalues --    3.14444   3.14917   3.15611   3.18106   3.19329
 Alpha virt. eigenvalues --    3.20499   3.21163   3.22054   3.23561   3.24718
 Alpha virt. eigenvalues --    3.25722   3.26123   3.27811   3.28626   3.29636
 Alpha virt. eigenvalues --    3.30823   3.32021   3.33618   3.35090   3.36237
 Alpha virt. eigenvalues --    3.37417   3.38509   3.39487   3.40820   3.41360
 Alpha virt. eigenvalues --    3.42072   3.43222   3.43495   3.44715   3.45669
 Alpha virt. eigenvalues --    3.46016   3.46225   3.46993   3.47668   3.47959
 Alpha virt. eigenvalues --    3.49581   3.50915   3.51723   3.52724   3.54374
 Alpha virt. eigenvalues --    3.55267   3.56604   3.57520   3.58928   3.60599
 Alpha virt. eigenvalues --    3.63026   3.64489   3.65805   3.67420   3.68931
 Alpha virt. eigenvalues --    3.69161   3.70950   3.71842   3.72949   3.74699
 Alpha virt. eigenvalues --    3.75560   3.76203   3.77034   3.79773   3.81108
 Alpha virt. eigenvalues --    3.81750   3.84434   3.84637   3.86131   3.87365
 Alpha virt. eigenvalues --    3.90088   3.91696   3.94962   3.96009   3.97306
 Alpha virt. eigenvalues --    3.99725   4.01195   4.06506   4.08597   4.10633
 Alpha virt. eigenvalues --    4.12437   4.13234   4.14568   4.15427   4.17732
 Alpha virt. eigenvalues --    4.18031   4.18964   4.21324   4.23756   4.25661
 Alpha virt. eigenvalues --    4.26531   4.27974   4.29019   4.29905   4.30312
 Alpha virt. eigenvalues --    4.33128   4.33203   4.34231   4.34748   4.34948
 Alpha virt. eigenvalues --    4.38988   4.40172   4.40933   4.41562   4.42109
 Alpha virt. eigenvalues --    4.42582   4.43448   4.45638   4.47058   4.47555
 Alpha virt. eigenvalues --    4.48073   4.49196   4.50953   4.52449   4.53539
 Alpha virt. eigenvalues --    4.53892   4.55037   4.56605   4.56674   4.57738
 Alpha virt. eigenvalues --    4.58591   4.58657   4.59466   4.59643   4.60707
 Alpha virt. eigenvalues --    4.61004   4.62387   4.64204   4.64624   4.65515
 Alpha virt. eigenvalues --    4.66235   4.68043   4.68676   4.69150   4.70186
 Alpha virt. eigenvalues --    4.71249   4.71748   4.72642   4.74184   4.74756
 Alpha virt. eigenvalues --    4.75651   4.76607   4.77784   4.78740   4.80279
 Alpha virt. eigenvalues --    4.80332   4.82848   4.83724   4.85540   4.86314
 Alpha virt. eigenvalues --    4.89714   4.90959   4.91500   4.91617   4.92526
 Alpha virt. eigenvalues --    4.93959   4.95149   4.97405   4.98676   5.01886
 Alpha virt. eigenvalues --    5.03048   5.05030   5.05217   5.09982   5.10293
 Alpha virt. eigenvalues --    5.14914   5.17874   5.19986   5.20143   5.24527
 Alpha virt. eigenvalues --    5.28230   5.29602   5.31284   5.32700   5.33112
 Alpha virt. eigenvalues --    5.35054   5.38385   5.40920   5.42396   5.46370
 Alpha virt. eigenvalues --    5.49897   5.50682   5.52472   5.54766   5.56386
 Alpha virt. eigenvalues --    5.61781   5.65409   5.67322   5.70216   5.72505
 Alpha virt. eigenvalues --    5.74401   5.80760   5.82806   5.90859   5.95124
 Alpha virt. eigenvalues --    5.96392   5.99909   6.05323   6.06033   6.11575
 Alpha virt. eigenvalues --    6.17234   6.28883   6.41759   6.90156   7.00464
 Alpha virt. eigenvalues --    7.02887   9.61642  10.04673  10.21474  10.43913
 Alpha virt. eigenvalues --   10.60303  10.99273  11.21333  11.36096  11.40378
 Alpha virt. eigenvalues --   11.49510  11.65044  11.88005  12.00897  12.21675
 Alpha virt. eigenvalues --   12.29518  12.42151  13.16977  13.85735
          Condensed to atoms (all electrons):
               1          2          3          4          5          6
     1  C    5.008780   0.371829  -0.014733   0.002992   0.000221  -0.000012
     2  C    0.371829   4.776251   0.674163  -0.011379  -0.015003   0.000749
     3  C   -0.014733   0.674163   4.980096   0.353276  -0.041932   0.008369
     4  C    0.002992  -0.011379   0.353276   4.847020   0.430012   0.029673
     5  C    0.000221  -0.015003  -0.041932   0.430012   5.131914   0.353076
     6  C   -0.000012   0.000749   0.008369   0.029673   0.353076   4.632393
     7  C   -0.000001   0.000015  -0.000161   0.010995  -0.042982   0.531242
     8  C    0.000000  -0.000106  -0.000046   0.001177  -0.013139   0.003928
     9  C    0.000000  -0.000001  -0.000001  -0.000066  -0.000154   0.004448
    10  C    0.000000   0.000000  -0.000000   0.000001   0.000047  -0.000354
    11  C    0.000000  -0.000000  -0.000000  -0.000000  -0.000000   0.000002
    12  O    0.000000   0.000000   0.000000  -0.000000  -0.000000   0.000000
    13  C    0.000000  -0.000006   0.000016  -0.027497   0.020536   0.398045
    14  C   -0.000000   0.000006  -0.000144  -0.013875  -0.017379   0.034014
    15  C    0.000003  -0.000033   0.009467   0.018006  -0.050008  -0.014829
    16  C   -0.000094   0.003703  -0.059552   0.346819   0.047866  -0.025679
    17  N   -0.000015  -0.000442  -0.022264  -0.046520   0.005860   0.000007
    18  H    0.374466  -0.017391   0.001837  -0.000076  -0.000005  -0.000000
    19  H    0.373174  -0.023826  -0.007041   0.000100   0.000000  -0.000000
    20  H    0.374816  -0.024543  -0.009190   0.000069   0.000035   0.000000
    21  H   -0.057236   0.364066  -0.028927  -0.012151   0.003712   0.000226
    22  H   -0.009376  -0.043994   0.342803  -0.040448   0.000596  -0.000117
    23  H   -0.000431   0.007284  -0.023017  -0.054009   0.351534  -0.034970
    24  H    0.000000   0.000000   0.000003  -0.000124   0.005212  -0.037646
    25  H    0.000001   0.000133   0.000050   0.001510   0.001454  -0.017267
    26  H    0.000000  -0.000000   0.000000   0.000001   0.000011   0.000441
    27  H    0.000000   0.000001  -0.000000  -0.000000  -0.000009   0.000032
    28  H   -0.000000  -0.000001   0.000000  -0.000000  -0.000004   0.000022
    29  H    0.000000   0.000000   0.000000  -0.000000  -0.000000   0.000000
    30  H   -0.000000  -0.000000   0.000000  -0.000000   0.000000  -0.000000
    31  H   -0.000000  -0.000000   0.000000  -0.000000  -0.000000  -0.000000
    32  H    0.000000   0.000000   0.000004  -0.000319   0.006447  -0.051395
    33  H    0.000000   0.000000  -0.000001  -0.000189   0.000148   0.004759
    34  H   -0.000000   0.000000  -0.000140   0.006896  -0.000321   0.000270
    35  H   -0.000000  -0.000015  -0.000265   0.004225  -0.000045  -0.000021
    36  H    0.000030   0.000960   0.016375  -0.012812  -0.000651   0.000016
               7          8          9         10         11         12
     1  C   -0.000001   0.000000   0.000000   0.000000   0.000000   0.000000
     2  C    0.000015  -0.000106  -0.000001   0.000000  -0.000000   0.000000
     3  C   -0.000161  -0.000046  -0.000001  -0.000000  -0.000000   0.000000
     4  C    0.010995   0.001177  -0.000066   0.000001  -0.000000  -0.000000
     5  C   -0.042982  -0.013139  -0.000154   0.000047  -0.000000  -0.000000
     6  C    0.531242   0.003928   0.004448  -0.000354   0.000002   0.000000
     7  C    5.049017   0.451345  -0.000054   0.002307  -0.000039   0.000000
     8  C    0.451345   4.718316   0.605409   0.024377  -0.001482  -0.000162
     9  C   -0.000054   0.605409   4.991883   0.265523  -0.025723   0.004045
    10  C    0.002307   0.024377   0.265523   5.057179   0.406969  -0.048648
    11  C   -0.000039  -0.001482  -0.025723   0.406969   4.733856   0.364280
    12  O    0.000000  -0.000162   0.004045  -0.048648   0.364280   7.839327
    13  C   -0.083059   0.003756   0.000004   0.000002  -0.000000   0.000000
    14  C    0.006659  -0.000257   0.000004  -0.000000   0.000000   0.000000
    15  C    0.000537  -0.000007  -0.000000   0.000000  -0.000000  -0.000000
    16  C   -0.000216   0.000004   0.000000  -0.000000   0.000000   0.000000
    17  N   -0.000001   0.000000   0.000000  -0.000000   0.000000   0.000000
    18  H    0.000000   0.000000  -0.000000   0.000000  -0.000000   0.000000
    19  H   -0.000000   0.000000   0.000000  -0.000000  -0.000000  -0.000000
    20  H   -0.000000  -0.000000  -0.000000   0.000000  -0.000000   0.000000
    21  H   -0.000087   0.000006   0.000001  -0.000000  -0.000000  -0.000000
    22  H    0.000003  -0.000001  -0.000000  -0.000000  -0.000000   0.000000
    23  H   -0.029418   0.006359   0.000455   0.000001   0.000000  -0.000000
    24  H    0.350136  -0.043834  -0.011147   0.000030   0.000001  -0.000000
    25  H   -0.038029   0.344033  -0.050625  -0.016632   0.000143  -0.000001
    26  H   -0.015338  -0.031070   0.367675  -0.073663  -0.003833   0.000105
    27  H   -0.000048  -0.010302  -0.016254   0.350243  -0.027373   0.003252
    28  H    0.000070  -0.011140  -0.019313   0.350168  -0.035114  -0.000617
    29  H    0.000013  -0.000245   0.007746  -0.053272   0.363846  -0.029767
    30  H    0.000008  -0.000140  -0.002030  -0.027598   0.359219  -0.013873
    31  H    0.000000  -0.000026  -0.000202  -0.002008  -0.067535   0.308815
    32  H   -0.014681   0.000241  -0.000019  -0.000000   0.000000   0.000000
    33  H   -0.000273   0.000003  -0.000000   0.000000  -0.000000   0.000000
    34  H   -0.000002   0.000000   0.000000  -0.000000   0.000000   0.000000
    35  H   -0.000000  -0.000000   0.000000  -0.000000  -0.000000   0.000000
    36  H    0.000000   0.000000   0.000000  -0.000000   0.000000   0.000000
              13         14         15         16         17         18
     1  C    0.000000  -0.000000   0.000003  -0.000094  -0.000015   0.374466
     2  C   -0.000006   0.000006  -0.000033   0.003703  -0.000442  -0.017391
     3  C    0.000016  -0.000144   0.009467  -0.059552  -0.022264   0.001837
     4  C   -0.027497  -0.013875   0.018006   0.346819  -0.046520  -0.000076
     5  C    0.020536  -0.017379  -0.050008   0.047866   0.005860  -0.000005
     6  C    0.398045   0.034014  -0.014829  -0.025679   0.000007  -0.000000
     7  C   -0.083059   0.006659   0.000537  -0.000216  -0.000001   0.000000
     8  C    0.003756  -0.000257  -0.000007   0.000004   0.000000   0.000000
     9  C    0.000004   0.000004  -0.000000   0.000000   0.000000  -0.000000
    10  C    0.000002  -0.000000   0.000000  -0.000000  -0.000000   0.000000
    11  C   -0.000000   0.000000  -0.000000   0.000000   0.000000  -0.000000
    12  O    0.000000   0.000000  -0.000000   0.000000   0.000000   0.000000
    13  C    4.969776   0.548809   0.017956  -0.023382   0.000050  -0.000000
    14  C    0.548809   4.819698   0.417748   0.032702   0.004535   0.000000
    15  C    0.017956   0.417748   5.075309   0.430741  -0.061123  -0.000000
    16  C   -0.023382   0.032702   0.430741   4.716418   0.404917   0.000001
    17  N    0.000050   0.004535  -0.061123   0.404917   6.622368   0.000000
    18  H   -0.000000   0.000000  -0.000000   0.000001   0.000000   0.586537
    19  H   -0.000000   0.000000   0.000000   0.000009  -0.000003  -0.029759
    20  H    0.000000  -0.000000  -0.000001  -0.000023   0.000020  -0.031450
    21  H    0.000005  -0.000001   0.000010   0.000321  -0.000041  -0.006385
    22  H   -0.000006   0.000013  -0.000196  -0.004582   0.003332  -0.000037
    23  H    0.007774  -0.000389  -0.000341   0.007925  -0.000072   0.000017
    24  H   -0.014502   0.000357   0.000024  -0.000011  -0.000000  -0.000000
    25  H   -0.000287  -0.000003   0.000002  -0.000007  -0.000000  -0.000001
    26  H   -0.000040  -0.000000   0.000000  -0.000000   0.000000  -0.000000
    27  H   -0.000000  -0.000000   0.000000   0.000000   0.000000  -0.000000
    28  H   -0.000000   0.000000  -0.000000  -0.000000  -0.000000   0.000000
    29  H    0.000000   0.000000  -0.000000   0.000000   0.000000  -0.000000
    30  H    0.000000   0.000000  -0.000000  -0.000000  -0.000000   0.000000
    31  H    0.000000   0.000000  -0.000000   0.000000   0.000000   0.000000
    32  H    0.365302  -0.046543   0.006851   0.000276   0.000001  -0.000000
    33  H   -0.043925   0.362807  -0.047360   0.007298  -0.000074   0.000000
    34  H    0.006488  -0.043351   0.359514  -0.055416  -0.016502   0.000000
    35  H    0.000028  -0.000211  -0.004241  -0.035343   0.352502   0.000000
    36  H   -0.000019  -0.000043   0.005663  -0.034840   0.343045  -0.000001
              19         20         21         22         23         24
     1  C    0.373174   0.374816  -0.057236  -0.009376  -0.000431   0.000000
     2  C   -0.023826  -0.024543   0.364066  -0.043994   0.007284   0.000000
     3  C   -0.007041  -0.009190  -0.028927   0.342803  -0.023017   0.000003
     4  C    0.000100   0.000069  -0.012151  -0.040448  -0.054009  -0.000124
     5  C    0.000000   0.000035   0.003712   0.000596   0.351534   0.005212
     6  C   -0.000000   0.000000   0.000226  -0.000117  -0.034970  -0.037646
     7  C   -0.000000  -0.000000  -0.000087   0.000003  -0.029418   0.350136
     8  C    0.000000  -0.000000   0.000006  -0.000001   0.006359  -0.043834
     9  C    0.000000  -0.000000   0.000001  -0.000000   0.000455  -0.011147
    10  C   -0.000000   0.000000  -0.000000  -0.000000   0.000001   0.000030
    11  C   -0.000000  -0.000000  -0.000000  -0.000000   0.000000   0.000001
    12  O   -0.000000   0.000000  -0.000000   0.000000  -0.000000  -0.000000
    13  C   -0.000000   0.000000   0.000005  -0.000006   0.007774  -0.014502
    14  C    0.000000  -0.000000  -0.000001   0.000013  -0.000389   0.000357
    15  C    0.000000  -0.000001   0.000010  -0.000196  -0.000341   0.000024
    16  C    0.000009  -0.000023   0.000321  -0.004582   0.007925  -0.000011
    17  N   -0.000003   0.000020  -0.000041   0.003332  -0.000072  -0.000000
    18  H   -0.029759  -0.031450  -0.006385  -0.000037   0.000017  -0.000000
    19  H    0.574192  -0.028645   0.004194   0.002061  -0.000038  -0.000000
    20  H   -0.028645   0.581206   0.004146   0.002184   0.000021   0.000000
    21  H    0.004194   0.004146   0.616927   0.007367   0.002074  -0.000000
    22  H    0.002061   0.002184   0.007367   0.644383   0.000696  -0.000000
    23  H   -0.000038   0.000021   0.002074   0.000696   0.656842  -0.000111
    24  H   -0.000000   0.000000  -0.000000  -0.000000  -0.000111   0.656304
    25  H    0.000000   0.000000   0.000337   0.000001   0.001876   0.006522
    26  H    0.000000  -0.000000   0.000000  -0.000000  -0.000012   0.005998
    27  H   -0.000000   0.000000   0.000000   0.000000  -0.000016   0.000003
    28  H    0.000000  -0.000000  -0.000001  -0.000000  -0.000026   0.000005
    29  H   -0.000000   0.000000   0.000000   0.000000  -0.000000  -0.000001
    30  H    0.000000  -0.000000  -0.000000  -0.000000  -0.000000   0.000000
    31  H    0.000000  -0.000000  -0.000000  -0.000000  -0.000000  -0.000000
    32  H   -0.000000   0.000000  -0.000000  -0.000000  -0.000127   0.007468
    33  H    0.000000   0.000000  -0.000000   0.000000   0.000005  -0.000041
    34  H   -0.000000   0.000000   0.000000   0.000003   0.000006   0.000000
    35  H    0.000000  -0.000000   0.000001   0.000024   0.000005   0.000000
    36  H    0.000025  -0.000089   0.000035   0.002174  -0.000022  -0.000000
              25         26         27         28         29         30
     1  C    0.000001   0.000000   0.000000  -0.000000   0.000000  -0.000000
     2  C    0.000133  -0.000000   0.000001  -0.000001   0.000000  -0.000000
     3  C    0.000050   0.000000  -0.000000   0.000000   0.000000   0.000000
     4  C    0.001510   0.000001  -0.000000  -0.000000  -0.000000  -0.000000
     5  C    0.001454   0.000011  -0.000009  -0.000004  -0.000000   0.000000
     6  C   -0.017267   0.000441   0.000032   0.000022   0.000000  -0.000000
     7  C   -0.038029  -0.015338  -0.000048   0.000070   0.000013   0.000008
     8  C    0.344033  -0.031070  -0.010302  -0.011140  -0.000245  -0.000140
     9  C   -0.050625   0.367675  -0.016254  -0.019313   0.007746  -0.002030
    10  C   -0.016632  -0.073663   0.350243   0.350168  -0.053272  -0.027598
    11  C    0.000143  -0.003833  -0.027373  -0.035114   0.363846   0.359219
    12  O   -0.000001   0.000105   0.003252  -0.000617  -0.029767  -0.013873
    13  C   -0.000287  -0.000040  -0.000000  -0.000000   0.000000   0.000000
    14  C   -0.000003  -0.000000  -0.000000   0.000000   0.000000   0.000000
    15  C    0.000002   0.000000   0.000000  -0.000000  -0.000000  -0.000000
    16  C   -0.000007  -0.000000   0.000000  -0.000000   0.000000  -0.000000
    17  N   -0.000000   0.000000   0.000000  -0.000000   0.000000  -0.000000
    18  H   -0.000001  -0.000000  -0.000000   0.000000  -0.000000   0.000000
    19  H    0.000000   0.000000  -0.000000   0.000000  -0.000000   0.000000
    20  H    0.000000  -0.000000   0.000000  -0.000000   0.000000  -0.000000
    21  H    0.000337   0.000000   0.000000  -0.000001   0.000000  -0.000000
    22  H    0.000001  -0.000000   0.000000  -0.000000   0.000000  -0.000000
    23  H    0.001876  -0.000012  -0.000016  -0.000026  -0.000000  -0.000000
    24  H    0.006522   0.005998   0.000003   0.000005  -0.000001   0.000000
    25  H    0.677538   0.008676   0.003702   0.003360   0.000028   0.000016
    26  H    0.008676   0.648596   0.004297   0.004428   0.003658   0.002331
    27  H    0.003702   0.004297   0.620558  -0.044798   0.006838  -0.006898
    28  H    0.003360   0.004428  -0.044798   0.654891  -0.007716   0.006307
    29  H    0.000028   0.003658   0.006838  -0.007716   0.675791  -0.048847
    30  H    0.000016   0.002331  -0.006898   0.006307  -0.048847   0.608947
    31  H    0.000001   0.000030  -0.000599   0.006825  -0.005929   0.007084
    32  H    0.000003   0.000005   0.000000  -0.000000   0.000000  -0.000000
    33  H   -0.000000  -0.000000  -0.000000   0.000000   0.000000   0.000000
    34  H    0.000000   0.000000   0.000000  -0.000000  -0.000000  -0.000000
    35  H   -0.000000  -0.000000   0.000000  -0.000000   0.000000  -0.000000
    36  H   -0.000000  -0.000000   0.000000  -0.000000   0.000000  -0.000000
              31         32         33         34         35         36
     1  C   -0.000000   0.000000   0.000000  -0.000000  -0.000000   0.000030
     2  C   -0.000000   0.000000   0.000000   0.000000  -0.000015   0.000960
     3  C    0.000000   0.000004  -0.000001  -0.000140  -0.000265   0.016375
     4  C   -0.000000  -0.000319  -0.000189   0.006896   0.004225  -0.012812
     5  C   -0.000000   0.006447   0.000148  -0.000321  -0.000045  -0.000651
     6  C   -0.000000  -0.051395   0.004759   0.000270  -0.000021   0.000016
     7  C    0.000000  -0.014681  -0.000273  -0.000002  -0.000000   0.000000
     8  C   -0.000026   0.000241   0.000003   0.000000  -0.000000   0.000000
     9  C   -0.000202  -0.000019  -0.000000   0.000000   0.000000   0.000000
    10  C   -0.002008  -0.000000   0.000000  -0.000000  -0.000000  -0.000000
    11  C   -0.067535   0.000000  -0.000000   0.000000  -0.000000   0.000000
    12  O    0.308815   0.000000   0.000000   0.000000   0.000000   0.000000
    13  C    0.000000   0.365302  -0.043925   0.006488   0.000028  -0.000019
    14  C    0.000000  -0.046543   0.362807  -0.043351  -0.000211  -0.000043
    15  C   -0.000000   0.006851  -0.047360   0.359514  -0.004241   0.005663
    16  C    0.000000   0.000276   0.007298  -0.055416  -0.035343  -0.034840
    17  N    0.000000   0.000001  -0.000074  -0.016502   0.352502   0.343045
    18  H    0.000000  -0.000000   0.000000   0.000000   0.000000  -0.000001
    19  H    0.000000  -0.000000   0.000000  -0.000000   0.000000   0.000025
    20  H   -0.000000   0.000000   0.000000   0.000000  -0.000000  -0.000089
    21  H   -0.000000  -0.000000  -0.000000   0.000000   0.000001   0.000035
    22  H   -0.000000  -0.000000   0.000000   0.000003   0.000024   0.002174
    23  H   -0.000000  -0.000127   0.000005   0.000006   0.000005  -0.000022
    24  H   -0.000000   0.007468  -0.000041   0.000000   0.000000  -0.000000
    25  H    0.000001   0.000003  -0.000000   0.000000  -0.000000  -0.000000
    26  H    0.000030   0.000005  -0.000000   0.000000  -0.000000  -0.000000
    27  H   -0.000599   0.000000  -0.000000   0.000000   0.000000   0.000000
    28  H    0.006825  -0.000000   0.000000  -0.000000  -0.000000  -0.000000
    29  H   -0.005929   0.000000   0.000000  -0.000000   0.000000   0.000000
    30  H    0.007084  -0.000000   0.000000  -0.000000  -0.000000  -0.000000
    31  H    0.474078  -0.000000   0.000000  -0.000000   0.000000  -0.000000
    32  H   -0.000000   0.658559  -0.012525  -0.000273  -0.000000  -0.000000
    33  H    0.000000  -0.012525   0.659303  -0.012969  -0.000020   0.000004
    34  H   -0.000000  -0.000273  -0.012969   0.686601   0.007671  -0.000018
    35  H    0.000000  -0.000000  -0.000020   0.007671   0.446362  -0.026134
    36  H   -0.000000  -0.000000   0.000004  -0.000018  -0.026134   0.455372
 Mulliken charges:
               1
     1  C   -0.424414
     2  C   -0.062420
     3  C   -0.179047
     4  C    0.166696
     5  C   -0.177050
     6  C    0.180577
     7  C   -0.177960
     8  C   -0.046996
     9  C   -0.121600
    10  C   -0.234672
    11  C   -0.067216
    12  O   -0.426757
    13  C   -0.145825
    14  C   -0.105156
    15  C   -0.163693
    16  C    0.240143
    17  N   -0.589579
    18  H    0.122247
    19  H    0.135556
    20  H    0.131442
    21  H    0.101401
    22  H    0.093116
    23  H    0.100125
    24  H    0.075358
    25  H    0.073467
    26  H    0.077706
    27  H    0.117375
    28  H    0.092655
    29  H    0.087856
    30  H    0.115475
    31  H    0.279466
    32  H    0.080726
    33  H    0.083049
    34  H    0.061543
    35  H    0.255476
    36  H    0.250928
 Sum of Mulliken charges =  -0.00000
 Mulliken charges with hydrogens summed into heavy atoms:
               1
     1  C   -0.035169
     2  C    0.038981
     3  C   -0.085930
     4  C    0.166696
     5  C   -0.076925
     6  C    0.180577
     7  C   -0.102602
     8  C    0.026470
     9  C   -0.043894
    10  C   -0.024642
    11  C    0.136116
    12  O   -0.147290
    13  C   -0.065099
    14  C   -0.022107
    15  C   -0.102150
    16  C    0.240143
    17  N   -0.083175
 Electronic spatial extent (au):  <R**2>=           6979.3511
 Charge=              0.0000 electrons
 Dipole moment (field-independent basis, Debye):
    X=              3.7477    Y=              2.1164    Z=              1.3700  Tot=              4.5168
 Quadrupole moment (field-independent basis, Debye-Ang):
   XX=            -99.0830   YY=            -92.0914   ZZ=           -105.1031
   XY=              4.7902   XZ=             -6.4755   YZ=              1.6247
 Traceless Quadrupole moment (field-independent basis, Debye-Ang):
   XX=             -0.3239   YY=              6.6678   ZZ=             -6.3439
   XY=              4.7902   XZ=             -6.4755   YZ=              1.6247
 Octapole moment (field-independent basis, Debye-Ang**2):
  XXX=            223.4830  YYY=             15.5851  ZZZ=             -0.7754  XYY=             -2.7979
  XXY=              2.3529  XXZ=             51.1369  XZZ=            -21.2384  YZZ=             12.0955
  YYZ=              6.2472  XYZ=            -16.0025
 Hexadecapole moment (field-independent basis, Debye-Ang**3):
 XXXX=          -7179.8756 YYYY=          -2182.2836 ZZZZ=           -161.1055 XXXY=            103.9883
 XXXZ=           -279.0917 YYYX=            -21.9063 YYYZ=             -1.4190 ZZZX=              0.3071
 ZZZY=              2.9181 XXYY=          -1370.3109 XXZZ=          -1160.5191 YYZZ=           -416.4593
 XXYZ=             78.2742 YYXZ=            -20.7687 ZZXY=             -3.7551
 N-N= 1.078177047507D+03 E-N=-3.812104667524D+03  KE= 7.074482573111D+02
 PrsmSu:  requested number of processors reduced to:  13 ShMem   1 Linda.
 Calling FoFJK, ICntrl=      2127 FMM=F ISym2X=0 I1Cent= 0 IOpClX= 0 NMat=1 NMatS=1 NMatT=0.
 ***** Axes restored to original set *****
 -------------------------------------------------------------------
 Center     Atomic                   Forces (Hartrees/Bohr)
 Number     Number              X              Y              Z
 -------------------------------------------------------------------
      1        6          -0.005209810    0.004880010   -0.006072808
      2        6           0.010204365   -0.004022986    0.011345569
      3        6           0.002490332   -0.010041408   -0.006445030
      4        6          -0.003592212    0.000642596    0.004678486
      5        6           0.015252696    0.006481856   -0.004388685
      6        6           0.009215822   -0.005363412    0.001266713
      7        6          -0.010955209    0.021831360   -0.009665810
      8        6           0.013962534   -0.009406972    0.004594085
      9        6          -0.007035528   -0.001888071    0.000763416
     10        6           0.009589385    0.002583081    0.000760368
     11        6          -0.014328026    0.001031703   -0.007057370
     12        8          -0.004665286    0.005203273   -0.003893440
     13        6          -0.003082100    0.003426102   -0.001918749
     14        6          -0.004814734   -0.009734968    0.005999819
     15        6           0.024130888   -0.005116147    0.001966612
     16        6          -0.013834565   -0.002544495    0.000411150
     17        7          -0.011560836    0.003710885    0.000808844
     18        1          -0.003014121   -0.000529090    0.001794709
     19        1          -0.003563446   -0.001767514    0.000855695
     20        1          -0.003809747    0.000928740    0.001300251
     21        1           0.002729256   -0.002995752    0.001864623
     22        1          -0.004281312   -0.001672040    0.000411042
     23        1           0.001364844    0.000520299    0.000012598
     24        1          -0.001170357   -0.003013007    0.001218298
     25        1          -0.001921154   -0.002889313    0.001195356
     26        1           0.001420578    0.001158343   -0.000648678
     27        1           0.000134938    0.002212135   -0.001426258
     28        1          -0.000558595    0.000788058   -0.001648928
     29        1           0.006556053   -0.003568810    0.000223296
     30        1          -0.001636180    0.002874048   -0.000905061
     31        1           0.006297552    0.004185539    0.007210046
     32        1          -0.003522738    0.002760635   -0.001188567
     33        1          -0.001392087    0.000062259   -0.000680524
     34        1          -0.004942131   -0.001814732    0.000436815
     35        1          -0.002066025    0.004676120   -0.002755466
     36        1           0.007606953   -0.003588329   -0.000422418
 -------------------------------------------------------------------
 Cartesian Forces:  Max     0.024130888 RMS     0.006083689

 GradGradGradGradGradGradGradGradGradGradGradGradGradGradGradGradGradGrad
 Berny optimization.
 FormGI is forming the generalized inverse of G from B-inverse, IUseBI=4.
 Internal  Forces:  Max     0.022031594 RMS     0.005607997
 Search for a local minimum.
 Step number   1 out of a maximum of  180
 All quantities printed in internal units (Hartrees-Bohrs-Radians)
 Mixed Optimization -- RFO/linear search
 Second derivative matrix not updated -- first step.
 ITU=  0
     Eigenvalues ---    0.00511   0.00760   0.00903   0.01008   0.01340
     Eigenvalues ---    0.01425   0.01459   0.01574   0.01641   0.01641
     Eigenvalues ---    0.01706   0.01838   0.01894   0.01898   0.01950
     Eigenvalues ---    0.02049   0.02066   0.02122   0.02163   0.02205
     Eigenvalues ---    0.02229   0.02423   0.02610   0.02621   0.02664
     Eigenvalues ---    0.02825   0.02927   0.04312   0.05134   0.05548
     Eigenvalues ---    0.05819   0.07333   0.07533   0.09215   0.11527
     Eigenvalues ---    0.12740   0.13829   0.15997   0.15997   0.15998
     Eigenvalues ---    0.15998   0.16000   0.16000   0.16000   0.16000
     Eigenvalues ---    0.16000   0.16000   0.16000   0.16000   0.16000
     Eigenvalues ---    0.16000   0.16000   0.21890   0.21999   0.22000
     Eigenvalues ---    0.22000   0.22000   0.22000   0.22001   0.22028
     Eigenvalues ---    0.22730   0.23486   0.24769   0.24968   0.24995
     Eigenvalues ---    0.24999   0.30439   0.32329   0.33486   0.33831
     Eigenvalues ---    0.33852   0.34242   0.34285   0.34312   0.34350
     Eigenvalues ---    0.34378   0.34386   0.34469   0.34764   0.34872
     Eigenvalues ---    0.34879   0.34907   0.34991   0.35101   0.35353
     Eigenvalues ---    0.35607   0.35920   0.36561   0.37455   0.38560
     Eigenvalues ---    0.39408   0.42432   0.45550   0.45823   0.48308
     Eigenvalues ---    0.52878   0.52997   0.53777   0.54362   0.56249
     Eigenvalues ---    0.56901   0.57962
 RFO step:  Lambda=-1.89008068D-02 EMin= 5.11376789D-03
 Linear search not attempted -- first point.
 Iteration  1 RMS(Cart)=  0.21750845 RMS(Int)=  0.00362185
 Iteration  2 RMS(Cart)=  0.01176330 RMS(Int)=  0.00027150
 Iteration  3 RMS(Cart)=  0.00005975 RMS(Int)=  0.00027111
 Iteration  4 RMS(Cart)=  0.00000001 RMS(Int)=  0.00027111
 Variable       Old X    -DE/DX   Delta X   Delta X   Delta X     New X
                                 (Linear)    (Quad)   (Total)
    R1        2.81506   0.01564   0.00000   0.04420   0.04420   2.85926
    R2        2.06807  -0.00074   0.00000  -0.00205  -0.00205   2.06602
    R3        2.06684   0.00079   0.00000   0.00218   0.00218   2.06902
    R4        2.06743   0.00068   0.00000   0.00187   0.00187   2.06931
    R5        2.54039  -0.00837   0.00000  -0.01440  -0.01440   2.52598
    R6        2.05690  -0.00111   0.00000  -0.00302  -0.00302   2.05388
    R7        2.79997   0.00341   0.00000   0.00939   0.00939   2.80936
    R8        2.05511   0.00277   0.00000   0.00750   0.00750   2.06260
    R9        2.54288   0.02137   0.00000   0.03707   0.03704   2.57992
   R10        2.78932  -0.00436   0.00000  -0.01120  -0.01126   2.77807
   R11        2.75042   0.00104   0.00000   0.00235   0.00236   2.75279
   R12        2.04207  -0.00051   0.00000  -0.00134  -0.00134   2.04073
   R13        2.56957   0.02149   0.00000   0.03915   0.03915   2.60872
   R14        2.74666   0.00124   0.00000   0.00254   0.00259   2.74925
   R15        2.73558  -0.00322   0.00000  -0.00796  -0.00796   2.72762
   R16        2.06060  -0.00203   0.00000  -0.00554  -0.00554   2.05506
   R17        2.52591   0.01444   0.00000   0.02413   0.02413   2.55004
   R18        2.04700   0.00247   0.00000   0.00658   0.00658   2.05358
   R19        2.83547   0.01063   0.00000   0.03107   0.03107   2.86654
   R20        2.05105   0.00174   0.00000   0.00466   0.00466   2.05571
   R21        2.87096   0.00683   0.00000   0.02111   0.02111   2.89207
   R22        2.07581  -0.00067   0.00000  -0.00188  -0.00188   2.07392
   R23        2.07617   0.00110   0.00000   0.00308   0.00308   2.07925
   R24        2.68377   0.00379   0.00000   0.00854   0.00854   2.69231
   R25        2.06923   0.00427   0.00000   0.01182   0.01182   2.08105
   R26        2.06852  -0.00022   0.00000  -0.00061  -0.00061   2.06792
   R27        1.83768  -0.01041   0.00000  -0.01901  -0.01901   1.81867
   R28        2.52937   0.01660   0.00000   0.02765   0.02770   2.55707
   R29        2.05872  -0.00195   0.00000  -0.00529  -0.00529   2.05342
   R30        2.71530  -0.00169   0.00000  -0.00397  -0.00396   2.71134
   R31        2.05883  -0.00139   0.00000  -0.00378  -0.00378   2.05505
   R32        2.54968   0.01270   0.00000   0.02257   0.02254   2.57222
   R33        2.05826   0.00027   0.00000   0.00073   0.00073   2.05899
   R34        2.61613  -0.00065   0.00000  -0.00129  -0.00129   2.61483
   R35        1.91032  -0.00565   0.00000  -0.01184  -0.01184   1.89848
   R36        1.91342  -0.00738   0.00000  -0.01556  -0.01556   1.89785
    A1        1.91813   0.00405   0.00000   0.02566   0.02534   1.94347
    A2        1.93901   0.00307   0.00000   0.01571   0.01555   1.95456
    A3        1.92258   0.00364   0.00000   0.01877   0.01859   1.94117
    A4        1.88644  -0.00296   0.00000  -0.01351  -0.01379   1.87265
    A5        1.88361  -0.00315   0.00000  -0.01472  -0.01503   1.86857
    A6        1.91290  -0.00498   0.00000  -0.03352  -0.03355   1.87935
    A7        2.14163   0.00695   0.00000   0.02916   0.02912   2.17075
[...]
 0000464,-0.00000106,0.00000286,0.00000207,0.00000340,-0.00001035,-0.00
 000143,0.00000196,0.00000432,0.00000674,-0.00000313,0.00000860,0.00000
 197,-0.00000114,-0.00001195,-0.00002774,-0.00003506,-0.00002769,0.0000
 5402,0.00002059,-0.00006583,-0.00004918,-0.00007719,0.00027876,0.00118
 353,0.00006543,0.00085566,-0.00170043,0.00122455,-0.00445533,0.0028655
 8,-0.00000023,-0.15428073,-0.06538660,0.45918879,0.00000974,0.00001682
 ,-0.00000819,0.00000697,-0.00003716,0.00002540,0.00004302,-0.00012654,
 0.00011492,0.00003774,-0.00016495,0.00003174,-0.00113201,0.00346705,-0
 .00320842,-0.02240585,-0.01163001,0.00161330,0.00018099,-0.00207892,0.
 00202428,0.00068051,0.00069851,-0.00012750,-0.00013506,-0.00006061,-0.
 00000104,0.00007038,0.00005022,0.00000902,-0.00004033,-0.00008156,-0.0
 0004227,-0.00001222,0.00007172,-0.00000579,-0.27070783,-0.11025826,0.0
 1278807,-0.00045745,0.00129645,-0.00155779,0.00306308,-0.00023198,-0.0
 0104633,-0.00069893,0.00047120,-0.00043207,0.00037385,0.00010293,0.000
 00156,-0.00001992,0.00000690,0.00000389,-0.00000856,-0.00000230,0.0000
 0766,-0.00002146,-0.00000608,-0.00000406,0.00001148,0.00000493,0.00003
 643,-0.00010132,-0.00002997,0.00001701,-0.00121740,-0.00020464,0.00048
 016,0.00107222,0.00084504,-0.00088081,0.00021805,-0.00016916,0.0001194
 4,0.00002311,0.00005266,-0.00002083,-0.00000505,-0.00000142,0.00000226
 ,-0.00003167,0.00002875,-0.00003309,0.00001495,0.00000768,0.00000024,-
 0.00000270,-0.00000333,0.00000592,-0.00000283,-0.00001786,0.00000376,0
 .28982508,-0.00000320,0.00000557,-0.00001022,-0.00000993,-0.00002609,0
 .00002463,-0.00010357,0.00005610,-0.00022792,0.00006264,0.00035591,0.0
 0010391,0.00117203,-0.00077170,0.00264574,0.01487928,0.00598649,0.0026
 5339,0.00274238,0.00037095,-0.00058689,-0.00005759,-0.00006623,-0.0001
 3960,-0.00001302,0.00003842,-0.00004464,0.00001997,0.00003547,0.000051
 68,-0.00000456,-0.00003925,-0.00001391,-0.00002438,0.00005362,-0.00001
 519,-0.10967711,-0.10235817,0.01373002,-0.02726679,-0.01409034,0.00410
 191,0.00077119,-0.00097354,0.00522530,0.00082209,-0.00036612,0.0005209
 9,-0.00042510,-0.00003162,-0.00039694,-0.00000544,0.00000279,-0.000000
 31,0.00000122,-0.00000260,-0.00000028,-0.00000481,-0.00000278,0.000002
 37,-0.00000537,0.00000277,-0.00000852,0.00006497,0.00002828,-0.0000002
 7,0.00066658,-0.00027453,-0.00073986,-0.00007584,-0.00031008,0.0003218
 5,0.00001411,0.00006833,-0.00003740,-0.00000281,-0.00001799,0.00000938
 ,-0.00000714,0.00000185,-0.00000090,-0.00000218,0.00001077,-0.00001563
 ,0.00000069,-0.00000012,0.00000170,0.00000226,-0.00000194,0.00000012,0
 .00000068,-0.00001047,0.00000517,0.11712213,0.11428029,0.00000762,0.00
 000634,0.00001937,-0.00001967,-0.00008907,0.00002855,-0.00022525,-0.00
 024668,-0.00023589,0.00000644,0.00121597,-0.00001337,-0.00201198,0.002
 72606,0.00157986,-0.00914963,-0.00536731,0.00607196,-0.00150483,-0.000
 17279,-0.00115525,0.00052169,-0.00058418,-0.00022657,-0.00000421,0.000
 18113,-0.00010053,0.00004309,0.00003539,0.00008510,-0.00001306,-0.0000
 2689,-0.00001187,-0.00002314,0.00004655,-0.00001873,0.01095254,0.01567
 582,-0.04285530,0.01384298,0.00896475,0.00193338,-0.00288296,0.0045213
 3,0.00639265,0.00009625,-0.00054482,0.00064952,0.00048670,0.00014038,-
 0.00079183,0.00000651,-0.00000134,-0.00000146,-0.00000666,0.00000090,0
 .00000025,0.00000461,0.00000022,-0.00000063,0.00000180,0.00001882,0.00
 003228,0.00002662,0.00005965,0.00001558,-0.00072926,-0.00053969,-0.000
 76553,0.00005932,0.00071844,-0.00005191,-0.00001173,-0.00006456,0.0001
 0326,0.00000069,0.00001864,-0.00002101,-0.00000867,0.00000028,-0.00000
 391,-0.00001659,0.00000825,-0.00002032,0.00000182,-0.00000153,0.000002
 00,0.00000494,-0.00000345,-0.00000173,0.00000153,-0.00000582,0.0000044
 0,-0.01111120,-0.02457122,0.03444883,-0.00000134,0.00000605,-0.0000228
 8,0.00001770,-0.00000968,0.00003503,0.00001448,0.00012272,-0.00005674,
 0.00041127,-0.00035715,0.00010258,0.00007548,-0.00016750,0.00016238,0.
 00207536,-0.00116549,-0.00070403,-0.00019205,0.00035268,-0.00024050,0.
 00012838,-0.00002896,0.00018442,-0.00001736,0.00008045,-0.00004268,0.0
 0003723,-0.00000469,-0.00000509,-0.00000195,-0.00005388,-0.00001115,-0
 .00001954,0.00005766,-0.00001254,-0.00002856,-0.00157107,0.00021145,-0
 .26972662,0.07978551,-0.07903296,-0.02199589,0.00890571,-0.00790884,-0
 .00073346,-0.00423044,0.00025844,-0.00140415,0.00019626,-0.00008087,-0
 .00001575,0.00000763,0.00000182,-0.00000165,-0.00000501,0.00000463,-0.
 00002013,-0.00000667,0.00000042,0.00000043,-0.00000008,0.00000197,0.00
 000836,-0.00002576,-0.00000305,0.00002718,0.00007715,0.00001613,-0.000
 01409,0.00002079,-0.00003533,0.00000014,-0.00000950,0.00000462,0.00000
 267,0.00001112,0.00000622,-0.00000287,0.00000141,0.00000111,-0.0000152
 0,0.00002452,-0.00002597,0.00000464,0.00000335,0.00000088,-0.00000042,
 -0.00000213,0.00000128,-0.00000005,-0.00001564,0.00000422,0.00158752,0
 .00007131,0.00120919,0.28906520,-0.00000638,-0.00001929,0.00000303,0.0
 0000022,0.00001342,-0.00000100,-0.00002747,0.00008320,-0.00004031,0.00
 012906,-0.00032087,0.00009227,-0.00045997,-0.00016679,0.00012702,-0.00
 222912,-0.00153430,0.00557495,0.00140157,0.00004746,0.00013831,-0.0001
 7022,-0.00061544,-0.00010410,0.00011043,0.00000362,-0.00001773,-0.0000
 1367,0.00002619,0.00009305,-0.00001035,0.00000697,-0.00000878,-0.00000
 808,0.00000482,-0.00000491,0.02750227,-0.00977917,0.01167773,0.0785802
 7,-0.08259655,0.03432726,-0.01947621,0.00654768,-0.00475074,-0.0033211
 8,-0.00171789,0.00163282,-0.00043498,0.00043599,-0.00039351,0.00001463
 ,-0.00000373,-0.00000350,0.00000303,0.00000163,-0.00000356,0.00000771,
 0.00000341,0.00000148,-0.00000415,0.00000222,-0.00000572,0.00003395,-0
 .00000382,-0.00000493,0.00012664,-0.00004012,-0.00014305,-0.00014636,-
 0.00000811,0.00006106,-0.00001026,0.00003119,-0.00001578,-0.00001428,-
 0.00001537,-0.00001510,-0.00000748,0.00000147,-0.00000538,0.00000859,-
 0.00001664,0.00000783,-0.00000215,-0.00000375,0.00000038,0.00000177,-0
 .00000080,0.00000082,0.00000148,0.00000367,0.00000114,0.00081058,-0.00
 100351,-0.00254400,-0.08189281,0.09006792,0.00000450,0.00001704,0.0000
 0449,-0.00001819,-0.00000851,-0.00001071,0.00002495,-0.00007274,-0.000
 03923,0.00005120,0.00006318,0.00000188,-0.00016468,-0.00025195,0.00000
 107,0.00046641,0.00583227,0.00788433,-0.00042896,0.00005959,0.00013179
 ,0.00030103,-0.00050909,-0.00097884,-0.00008061,-0.00002880,-0.0000717
 3,0.00002140,0.00017636,0.00024070,-0.00004010,-0.00006317,-0.00006351
 ,-0.00003862,0.00009733,-0.00001880,-0.01426161,0.00863350,-0.00260306
 ,-0.07857398,0.03267937,-0.06670696,0.00621615,0.00018855,0.00407267,-
 0.00018069,0.00156659,0.00278554,0.00031539,-0.00004126,-0.00017967,-0
 .00000536,-0.00000060,0.00000159,-0.00000185,0.00000047,0.00000235,-0.
 00000237,-0.00000143,-0.00000303,0.00000075,-0.00000090,0.00001030,-0.
 00002523,0.00000568,0.00000923,-0.00011697,-0.00011614,-0.00020078,0.0
 0003550,0.00011209,0.00017470,-0.00003484,0.00001172,0.00001786,0.0000
 1095,-0.00003718,-0.00005462,-0.00000777,-0.00000138,-0.00000300,0.000
 01573,-0.00001486,-0.00000585,0.00000718,0.00000243,0.00000240,0.00000
 154,-0.00000442,0.00000251,0.00000042,-0.00001396,0.00000861,0.0009632
 6,-0.00276086,-0.00503489,0.08515894,-0.04482616,0.06182051,-0.0000557
 3,-0.00014297,-0.00019175,-0.00032990,0.00000308,0.00025543,-0.0001805
 0,0.00145969,-0.00086949,-0.00471263,-0.00179645,-0.00039554,-0.000203
 78,-0.00033763,0.00022693,-0.00042785,0.00017445,-0.00020712,0.0002541
 1,-0.00023667,0.00019545,-0.00008793,0.00006214,-0.00005408,0.00002399
 ,-0.00004716,0.00002898,-0.00002099,-0.00000583,-0.00000754,0.00000067
 ,0.00001635,0.00000787,0.00001188,-0.00001952,0.00000514,-0.00280313,-
 0.00172618,-0.00013523,0.00562982,-0.02415166,0.00939465,-0.07542660,0
 .06589762,-0.02979477,-0.00900018,0.02971344,-0.01225380,0.00105113,0.
 00220561,0.00023164,-0.00000211,0.00000920,0.00000577,-0.00000278,-0.0
 0000057,0.00001437,-0.00009660,0.00000449,0.00000549,0.00001576,0.0000
 6928,0.00002395,-0.00005291,-0.00001555,0.00005467,0.00003681,0.000125
 65,0.00001892,0.00005369,0.00004380,-0.00001899,0.00003943,-0.00001380
 ,0.00001537,0.00000551,0.00000614,-0.00000404,0.00000678,-0.00000129,0
 .00000199,0.00000696,-0.00000777,0.00000900,0.00000095,0.00000148,-0.0
 0000075,-0.00000095,-0.00000004,-0.00000186,-0.00000146,0.00000345,-0.
 00000194,-0.00022298,-0.00073688,0.00056781,0.00091517,-0.00035237,0.0
 0035286,0.08652498,0.00001449,-0.00003154,0.00003598,0.00010821,0.0000
 7494,-0.00014066,-0.00005824,-0.00001389,0.00025655,0.00004936,0.00276
 979,0.00187793,-0.00028888,-0.00004453,-0.00004022,-0.00025530,0.00034
 078,-0.00006222,0.00019163,-0.00020079,0.00013502,-0.00015944,0.000012
 83,-0.00014341,0.00004843,-0.00004298,0.00003563,-0.00006731,-0.000038
 30,-0.00003589,0.00000330,0.00012192,0.00003090,0.00005387,-0.00012746
 ,0.00003240,-0.00373053,-0.00004190,-0.00009341,0.00717056,-0.01788486
 ,0.00835542,0.06633198,-0.26537513,0.09063659,0.00061661,-0.00645952,0
 .00460061,-0.00220504,0.00140699,-0.00284275,0.00001969,-0.00000219,-0
 .00000292,0.00000442,0.00000316,-0.00001099,0.00001682,-0.00000293,0.0
 0000325,-0.00000585,-0.00002141,-0.00003159,0.00014556,-0.00003767,-0.
 00004667,0.00003289,-0.00014632,-0.00014894,0.00001955,0.00007265,0.00
 004146,0.00004095,-0.00000467,0.00000265,0.00000141,-0.00000073,0.0000
 0246,0.00001470,-0.00000332,0.00000010,0.00002667,-0.00003886,0.000046
 33,-0.00000494,-0.00000383,-0.00000267,-0.00000141,0.00000388,-0.00000
 437,-0.00000362,0.00003020,-0.00001058,-0.00006289,-0.00083844,0.00066
 384,-0.00001081,0.00074012,-0.00065855,-0.06890639,0.28513045,0.000036
 66,0.00001025,-0.00008212,-0.00029063,-0.00002985,-0.00001243,0.000343
 81,0.00050475,-0.00037499,-0.00226598,0.00125165,0.00729255,0.00025248
 ,0.00006539,-0.00023042,-0.00049715,-0.00005194,0.00059744,-0.00001304
 ,-0.00014541,0.00003389,-0.00011018,-0.00006830,-0.00027175,0.00004745
 ,-0.00003132,0.00004263,-0.00003901,-0.00000205,0.00000860,0.00000457,
 0.00004355,0.00001674,0.00001717,-0.00004088,0.00000692,0.00123574,0.0
 0012151,0.00296231,-0.00114714,0.00599691,-0.00090392,-0.03258622,0.09
 046798,-0.06810886,0.00108879,0.00828415,0.00285707,0.00095872,-0.0012
 3383,-0.00409565,-0.00003267,0.00000682,0.00000294,0.00000455,0.000002
 16,0.00000471,-0.00005220,-0.00000506,-0.00001332,0.00002230,0.0000033
 0,-0.00003832,0.00002527,-0.00007905,0.00001271,-0.00006403,-0.0001485
 9,-0.00050237,-0.00000360,0.00009609,0.00013248,0.00003150,-0.00001596
 ,0.00001761,0.00000594,-0.00000099,-0.00000611,0.00000960,-0.00000206,
 0.00000149,0.00001693,-0.00001863,0.00001957,-0.00000154,0.00000004,-0
 .00000100,0.00000023,0.00000048,-0.00000462,-0.00000154,0.00000968,-0.
 00000273,0.00013432,0.00023411,-0.00004862,0.00073770,-0.00100049,-0.0
 0117751,0.03256712,-0.10247073,0.06194127,0.00000885,0.00010924,-0.000
 03544,0.00064679,0.00008935,0.00025714,-0.00102537,0.00125864,-0.00000
 323,-0.00332270,-0.00365174,0.00066957,0.00080337,-0.00043710,0.000227
 68,-0.00007867,0.00017138,-0.00022249,0.00015091,-0.00008150,0.0000402
 4,0.00002165,0.00000109,-0.00000919,-0.00002058,-0.00000649,0.00001067
 ,0.00000752,0.00000874,0.00000594,0.00000017,-0.00003041,-0.00000531,-
 0.00001068,0.00003077,-0.00000711,0.00000855,-0.00002380,-0.00001040,0
 .00013037,0.00051697,-0.00039389,0.00040838,-0.00324591,0.00154882,0.0
 1262863,-0.02238276,0.00500484,-0.14000850,0.15356267,-0.04700462,-0.0
 0006631,0.00000596,0.00000983,-0.00000480,-0.00000612,0.00001880,-0.00
 004419,-0.00002709,0.00001295,-0.00004516,-0.00012652,-0.00010344,0.00
 021600,0.00018056,-0.00052269,-0.00003265,-0.00024039,0.00024986,-0.00
 000295,0.00001167,0.00001499,-0.00001360,-0.00000429,-0.00000527,0.000
 00080,0.00000069,0.00000182,-0.00000036,0.00000061,0.00000009,-0.00000
 475,0.00000709,-0.00000884,0.00000237,0.00000251,0.00000054,-0.0000001
 9,-0.00000116,0.00000036,0.00000044,-0.00000853,0.00000210,0.00002750,
 0.00010655,0.00002533,0.00000658,0.00004064,-0.00004018,-0.00121150,0.
 00109704,-0.00016311,0.13971896,0.00003116,0.00000521,0.00002834,0.000
 11251,0.00009429,-0.00005450,-0.00055064,0.00007494,0.00017681,-0.0040
 2044,-0.00158160,0.00081035,0.00125198,-0.00064241,0.00032431,0.000219
 50,-0.00017085,0.00020200,-0.00014948,0.00021316,-0.00015193,0.0001188
 6,-0.00008823,0.00011511,-0.00002660,0.00006463,-0.00004059,0.00003031
 ,0.00001302,0.00002096,-0.00000214,-0.00004239,-0.00001056,-0.00002110
 ,0.00004816,-0.00001351,0.00011775,0.00046120,-0.00010875,-0.00078207,
 -0.00005092,0.00068907,0.00319026,0.00263534,0.00010031,0.01479911,-0.
 02447384,0.00168299,0.14559482,-0.36098385,0.06214739,-0.00000887,0.00
 000482,-0.00000006,0.00000107,-0.00000454,-0.00000188,0.00000215,-0.00
 001229,0.00000176,-0.00001733,-0.00002545,-0.00000662,0.00004097,0.000
 01279,0.00001005,-0.00028289,-0.00035973,0.00007473,-0.00001760,-0.000
 02416,0.00000099,-0.00003756,0.00001001,-0.00001292,-0.00000296,-0.000
 01003,-0.00000798,-0.00000686,0.00000166,-0.00000110,-0.00001183,0.000
 01472,-0.00001870,0.00000151,0.00000094,0.00000107,0.00000100,-0.00000
 143,0.00000140,0.00000168,-0.00001118,0.00000427,-0.00000832,0.0000241
 8,-0.00016070,0.00006006,-0.00002767,-0.00003883,-0.00118550,0.0005074
 6,-0.00108288,-0.15458193,0.37932858,-0.00003370,-0.00006124,0.0000045
 6,0.00007530,-0.00000684,0.00040953,0.00005074,0.00021447,-0.00042441,
 0.00163665,0.00189685,0.00296282,-0.00052246,0.00043284,0.00056567,-0.
 00039232,0.00046910,-0.00036283,0.00038593,-0.00038451,0.00021493,-0.0
 0021281,0.00016490,-0.00013369,0.00003223,-0.00011587,0.00005139,-0.00
 007380,-0.00002862,-0.00003793,0.00000237,0.00011578,0.00003476,0.0000
 5392,-0.00012549,0.00002837,-0.00005879,-0.00059917,0.00045302,0.00115
 927,0.00069912,-0.00176507,-0.00378906,-0.00192992,-0.00112263,0.00227
 162,0.01556285,-0.00615177,-0.03161348,0.02492993,-0.01786871,0.000021
 31,-0.00000368,-0.00000507,0.00000913,-0.00000627,-0.00003042,-0.00000
 008,-0.00000618,0.00000800,0.00006488,0.00010003,0.00005823,-0.0002874
 0,-0.00003656,0.00012360,0.00005091,-0.00014065,-0.00053315,0.00001227
 ,0.00002964,0.00000630,0.00004631,0.00000454,0.00001802,0.00000615,-0.
 00000131,-0.00000307,0.00001538,-0.00000309,0.00000330,0.00002757,-0.0
 0003566,0.00004224,-0.00000428,-0.00000307,-0.00000279,-0.00000086,0.0
 0000268,-0.00000683,-0.00000334,0.00003050,-0.00000960,0.00001900,0.00
 004255,0.00018067,-0.00012833,0.00001555,0.00008916,-0.00028324,0.0002
 8434,0.00087592,0.03835391,-0.06046057,0.02721472,-0.00000044,0.000055
 46,-0.00006691,-0.00098262,0.00011488,-0.00047216,0.00131075,0.0003132
 1,-0.00020497,0.00071914,0.00281817,0.00037455,-0.00061946,-0.00038020
 ,0.00028657,0.00067682,-0.00085665,0.00099899,-0.00053652,0.00062782,-
 0.00038778,0.00024840,-0.00023829,0.00022354,-0.00000030,0.00017071,-0
 .00010496,0.00008073,0.00002470,0.00005062,0.00000484,-0.00009225,-0.0
 0002797,-0.00005823,0.00010530,-0.00002966,-0.00003206,0.00126462,-0.0
 0039956,-0.00214507,-0.00104361,0.00049753,0.00309287,-0.00348268,0.00
 030600,-0.02589523,-0.00628430,-0.01051341,-0.29643509,-0.01672165,-0.
 18698465,-0.00001441,-0.00006394,0.00003380,-0.00008943,0.00006188,0.0
 0010078,-0.00004324,0.00006325,-0.00005325,0.00002744,-0.00003069,0.00
 013993,-0.00035936,0.00150019,0.00060580,0.00004688,0.00001587,-0.0003
 4729,-0.00002256,-0.00004243,-0.00002825,-0.00003671,0.00000642,-0.000
 00059,-0.00001079,-0.00001131,-0.00001672,-0.00002072,0.00000166,-0.00
 000328,-0.00002559,0.00003227,-0.00003899,-0.00000254,-0.00000161,0.00
 000258,0.00000311,-0.00000170,0.00000623,0.00000701,-0.00002154,0.0000
 0954,-0.00002262,-0.00009437,-0.00014863,-0.00018670,-0.00018536,0.000
 07384,0.00026287,-0.00024749,-0.00027282,-0.00889490,-0.00386056,-0.00
 689090,0.32995374,0.00005554,0.00006895,-0.00021460,0.00213413,0.00005
 696,0.00123191,-0.00097810,-0.00052479,-0.00042952,-0.00151952,-0.0001
 9445,-0.00021523,-0.00027422,-0.00006404,0.00026265,-0.00041808,0.0009
 3587,-0.00071133,0.00078223,-0.00077670,0.00046442,-0.00032932,0.00023
 294,-0.00025248,0.00004029,-0.00018933,0.00011965,-0.00008299,-0.00001
 266,-0.00002937,-0.00000150,0.00003527,0.00002836,0.00004038,-0.000045
 21,0.00001130,-0.00023565,-0.00056611,0.00002967,0.00060492,0.00225262
 ,0.00099976,-0.00404455,-0.00421762,0.00159599,-0.01892636,0.00317009,
 -0.02003631,-0.03139700,-0.06589288,-0.00133798,-0.00020520,0.00001709
 ,0.00003556,-0.00001439,-0.00002780,0.00004392,-0.00024437,-0.00010083
 ,0.00002546,-0.00009362,-0.00000077,-0.00014850,0.00100194,-0.00154903
 ,-0.00095604,-0.00002667,-0.00013743,0.00005751,0.00005578,0.00008914,
 0.00002751,0.00008127,-0.00002861,0.00003213,0.00002479,0.00002285,0.0
 0000572,0.00002684,-0.00000252,0.00000831,0.00002498,-0.00002103,0.000
 02312,0.00000821,0.00000867,-0.00000239,-0.00000405,-0.00000134,-0.000
 00873,-0.00000710,0.00000413,-0.00000435,0.00012237,-0.00013630,-0.000
 07870,-0.00022713,-0.00014714,0.00000460,-0.00011162,0.00014610,-0.000
 67082,0.02765357,0.00499545,0.01895306,0.02648423,0.06260042,-0.000040
 12,0.00015962,0.00018606,0.00004077,0.00026554,-0.00108588,-0.00065111
 ,-0.00037639,0.00212588,0.00000576,-0.00036432,-0.00021947,-0.00019355
 ,0.00005565,-0.00016136,-0.00040007,0.00049148,-0.00010462,0.00043235,
 -0.00036494,0.00024769,-0.00024336,0.00012080,-0.00015536,0.00004309,-
 0.00010507,0.00005212,-0.00008233,-0.00004173,-0.00004828,0.00000027,0
 .00012400,0.00003948,0.00006125,-0.00013248,0.00003164,-0.00021796,-0.
 00067987,0.00001122,0.00183323,0.00138864,0.00188652,-0.00151985,0.002
 31087,0.00025321,0.01911004,0.00255550,0.00097388,-0.22510737,-0.00157
 433,-0.14688863,-0.00001864,0.00003246,-0.00006084,0.00009677,-0.00002
 873,-0.00006783,-0.00003815,0.00000849,-0.00000725,-0.00007697,-0.0001
 2203,-0.00034724,0.00087033,-0.00041179,-0.00084740,0.00009100,0.00002
 444,0.00005819,0.00002371,0.00001652,-0.00000750,0.00004770,-0.0000058
 6,0.00001391,0.00000651,0.00001210,0.00001788,0.00001891,-0.00000264,0
 .00000461,0.00003274,-0.00003705,0.00004467,-0.00000251,-0.00000243,-0
 .00000379,-0.00000200,0.00000234,-0.00000809,-0.00000469,0.00003050,-0
 .00001080,0.00007777,-0.00010428,-0.00018829,0.00020752,0.00013405,-0.
 00010950,0.00023675,-0.00029491,-0.00095210,0.00207973,-0.00421986,-0.
 00488723,0.20328244,0.00113572,0.15021451\\0.00000036,-0.00000316,0.,0
 .00000416,0.00000135,-0.00000480,-0.00001315,0.00000321,0.00000130,0.0
 0000584,-0.00001461,-0.00000317,0.00001284,0.00000839,0.00000309,-0.00
 000911,-0.00000547,-0.00000123,0.00000913,-0.00000859,0.00000339,-0.00
 000088,0.00000731,-0.00000154,-0.00000442,-0.00000168,-0.00000180,0.00
 000468,0.00000138,0.00000714,-0.00000244,-0.00000365,-0.00000279,0.000
 00490,0.00001153,0.00000542,-0.00000852,0.00002102,-0.00000269,-0.0000
 0331,-0.00001390,0.00000138,-0.00000029,-0.00000385,0.00000021,-0.0000
 0144,0.00000720,0.00000092,0.00000165,-0.00000068,-0.00000232,-0.00000
 076,0.00000043,0.00000129,-0.00000185,0.00000068,-0.00000092,0.0000001
 0,0.00000058,0.00000071,0.00000071,-0.00000064,0.00000166,0.00000111,0
 .00000267,0.,-0.00000069,-0.00000215,0.00000306,-0.00000226,0.00000203
 ,-0.00000293,0.00000082,0.00000167,-0.00000173,0.00000086,0.00000064,-
 0.00000114,-0.00000108,-0.00000012,-0.00000048,0.00000176,-0.00000069,
 -0.00000273,0.00000010,0.00000155,0.00000114,-0.00000135,-0.00000317,-
 0.00000122,-0.00000400,-0.00000727,-0.00000444,0.00000214,-0.00000377,
 0.00000320,0.00000135,0.00000175,-0.00000160,0.00000038,0.00000061,0.0
 0000087,-0.00000082,0.00000133,0.00000228,0.00000349,-0.00000191,0.000
 00046\\\@


 We find comfort among those who agree with us -- growth among those who don't.
 -- Frank A. Clark
 Job cpu time:       0 days 13 hours 34 minutes 40.4 seconds.
 Elapsed time:       0 days  3 hours 25 minutes  3.9 seconds.
 File lengths (MBytes):  RWF=    842 Int=      0 D2E=      0 Chk=     27 Scr=      1
 Normal termination of Gaussian 16 at Sat May 20 15:49:22 2023.
### All Done ###
