### Starting Gaussian ###
 Entering Gaussian System, Link 0=g16
 Initial command:
 /cluster/software/gaussian/gaussian-16-A.03/avx2/g16/l1.exe "/local/scratch/cz9n3/Gau-28158.inp" -scrdir="/local/scratch/cz9n3/"
 Entering Link 1 = /cluster/software/gaussian/gaussian-16-A.03/avx2/g16/l1.exe PID=     28159.
  
 Copyright (c) 1988,1990,1992,1993,1995,1998,2003,2009,2016,
            Gaussian, Inc.  All Rights Reserved.
  
 This is part of the Gaussian(R) 16 program.  It is based on
 the Gaussian(R) 09 system (copyright 2009, Gaussian, Inc.),
 the Gaussian(R) 03 system (copyright 2003, Gaussian, Inc.),
 the Gaussian(R) 98 system (copyright 1998, Gaussian, Inc.),
 the Gaussian(R) 94 system (copyright 1995, Gaussian, Inc.),
 the Gaussian 92(TM) system (copyright 1992, Gaussian, Inc.),
 the Gaussian 90(TM) system (copyright 1990, Gaussian, Inc.),
 the Gaussian 88(TM) system (copyright 1988, Gaussian, Inc.),
 the Gaussian 86(TM) system (copyright 1986, Carnegie Mellon
 University), and the Gaussian 82(TM) system (copyright 1983,
 Carnegie Mellon University). Gaussian is a federally registered
 trademark of Gaussian, Inc.
  
 This software contains proprietary and confidential information,
 including trade secrets, belonging to Gaussian, Inc.
  
 This software is provided under written license and may be
 used, copied, transmitted, or stored only in accord with that
 written license.
  
 The following legend is applicable only to US Government
 contracts under FAR:
  
                    RESTRICTED RIGHTS LEGEND
  
 Use, reproduction and disclosure by the US Government is
 subject to restrictions as set forth in subparagraphs (a)
 and (c) of the Commercial Computer Software - Restricted
 Rights clause in FAR 52.227-19.
  
 Gaussian, Inc.
 340 Quinnipiac St., Bldg. 40, Wallingford CT 06492
  
  
 ---------------------------------------------------------------
 Warning -- This program may not be used in any manner that
 competes with the business of Gaussian, Inc. or will provide
 assistance to any competitor of Gaussian, Inc.  The licensee
 of this program is prohibited from giving any competitor of
 Gaussian, Inc. access to this program.  By using this program,
 the user acknowledges that Gaussian, Inc. is engaged in the
 business of creating and licensing software in the field of
 computational chemistry and represents and warrants to the
 licensee that it is not a competitor of Gaussian, Inc. and that
 it will not use this program in any manner prohibited above.
 ---------------------------------------------------------------
  

 Cite this work as:
 Gaussian 16, Revision A.03,
 M. J. Frisch, G. W. Trucks, H. B. Schlegel, G. E. Scuseria, 
 M. A. Robb, J. R. Cheeseman, G. Scalmani, V. Barone, 
 G. A. Petersson, H. Nakatsuji, X. Li, M. Caricato, A. V. Marenich, 
 J. Bloino, B. G. Janesko, R. Gomperts, B. Mennucci, H. P. Hratchian, 
 J. V. Ortiz, A. F. Izmaylov, J. L. Sonnenberg, D. Williams-Young, 
 F. Ding, F. Lipparini, F. Egidi, J. Goings, B. Peng, A. Petrone, 
 T. Henderson, D. Ranasinghe, V. G. Zakrzewski, J. Gao, N. Rega, 
 G. Zheng, W. Liang, M. Hada, M. Ehara, K. Toyota, R. Fukuda, 
 J. Hasegawa, M. Ishida, T. Nakajima, Y. Honda, O. Kitao, H. Nakai, 
 T. Vreven, K. Throssell, J. A. Montgomery, Jr., J. E. Peralta, 
 F. Ogliaro, M. J. Bearpark, J. J. Heyd, E. N. Brothers, K. N. Kudin, 
 V. N. Staroverov, T. A. Keith, R. Kobayashi, J. Normand, 
 K. Raghavachari, A. P. Rendell, J. C. Burant, S. S. Iyengar, 
 J. Tomasi, M. Cossi, J. M. Millam, M. Klene, C. Adamo, R. Cammi, 
 J. W. Ochterski, R. L. Martin, K. Morokuma, O. Farkas, 
 J. B. Foresman, and D. J. Fox, Gaussian, Inc., Wallingford CT, 2016.
 
 ******************************************
 Gaussian 16:  ES64L-G16RevA.03 25-Dec-2016
                20-May-2023 
 ******************************************
 %chk=CCdC1CdCC2dCCdCCdCCdC2CCCOOCCC1.chk
 %NProcShared=20
 Will use up to   20 processors via shared memory.
 -----------------------------
 # opt freq b3lyp/6-31g(2df,p)
 -----------------------------
 1/18=20,19=15,26=3,38=1/1,3;
 2/9=110,12=2,17=6,18=5,40=1/2;
 3/5=1,6=6,7=104,11=2,25=1,30=1,71=1,74=-5/1,2,3;
 4//1;
 5/5=2,38=5/2;
 6/7=2,8=2,9=2,10=2,28=1/1;
 7//1,2,3,16;
 1/18=20,19=15,26=3/3(2);
 2/9=110/2;
 99//99;
 2/9=110/2;
 3/5=1,6=6,7=104,11=2,25=1,30=1,71=1,74=-5/1,2,3;
 4/5=5,16=3,69=1/1;
 5/5=2,38=5/2;
 7//1,2,3,16;
 1/18=20,19=15,26=3/3(-5);
 2/9=110/2;
 6/7=2,8=2,9=2,10=2,19=2,28=1/1;
 99/9=1/99;
 -------------------
 Title Card Required
 -------------------
 Symbolic Z-matrix:
 Charge =  0 Multiplicity = 1
 C                     1.05783  -0.0548   -0.07169 
 C                     2.55388  -0.06577  -0.03449 
 C                     3.29127  -0.47433   1.01765 
 C                     4.74938  -0.58218   0.93898 
 C                     5.65854   0.3304    0.52253 
 C                     7.11578   0.13903   0.76731 
 C                     7.60303  -1.13588   0.76402 
 C                     8.77597  -1.43987   1.54395 
 C                     9.90728  -1.88576   0.93631 
 C                     10.87689  -0.79697   0.97322 
 C                     10.51553   0.30142   0.25792 
 C                     9.38003   1.30817   0.6606 
 C                     8.06346   1.24404   1.15048 
 C                     7.69657   1.66904   2.6962 
 C                     6.24295   2.08813   3.20028 
 C                     5.85356   1.67463   4.66011 
 O                     4.46782   2.03187   4.89941 
 O                     3.77479   0.85398   5.46019 
 C                     2.8005    0.45145   4.47786 
 C                     3.47225  -0.54621   3.55502 
 C                     2.65833  -0.95697   2.325 
 H                     0.70847   0.30616  -1.04378 
 H                     0.64764   0.60831   0.69572 
 H                     0.6558   -1.06472   0.0679 
 H                     3.05425   0.23832  -0.94957 
 H                     5.11869  -1.48565   1.42809 
 H                     5.31055   1.31173   0.19461 
 H                     7.05361  -1.94589   0.31334 
 H                     9.00458  -0.68798   2.30045 
 H                     9.86754  -2.54911   0.08518 
 H                     11.91279  -1.07745   1.18447 
 H                     10.66235   0.12654  -0.82363 
 H                     9.536     2.14705  -0.03915 
 H                     8.39144   2.45146   3.02893 
 H                     7.94171   0.78648   3.30052 
 H                     5.45573   1.69092   2.56518 
 H                     6.11862   3.17625   3.12922 
 H                     6.45193   2.21925   5.39907 
 H                     5.99665   0.60207   4.83275 
 H                     2.42404   1.3279    3.93865 
 H                     1.95276  -0.02192   4.98801 
 H                     3.76693  -1.43733   4.12135 
 H                     4.41401  -0.09358   3.25982 
 H                     1.62333  -0.60825   2.43008 
 H                     2.59619  -2.05449   2.29268 
 

 GradGradGradGradGradGradGradGradGradGradGradGradGradGradGradGradGradGrad
 Berny optimization.
 Initialization pass.
                           ----------------------------
                           !    Initial Parameters    !
                           ! (Angstroms and Degrees)  !
 --------------------------                            --------------------------
 ! Name  Definition              Value          Derivative Info.                !
 --------------------------------------------------------------------------------
 ! R1    R(1,2)                  1.4966         estimate D2E/DX2                !
 ! R2    R(1,22)                 1.0942         estimate D2E/DX2                !
 ! R3    R(1,23)                 1.094          estimate D2E/DX2                !
 ! R4    R(1,24)                 1.0959         estimate D2E/DX2                !
 ! R5    R(2,3)                  1.3482         estimate D2E/DX2                !
 ! R6    R(2,25)                 1.0864         estimate D2E/DX2                !
 ! R7    R(3,4)                  1.4642         estimate D2E/DX2                !
 ! R8    R(3,21)                 1.5306         estimate D2E/DX2                !
 ! R9    R(4,5)                  1.3538         estimate D2E/DX2                !
 ! R10   R(4,26)                 1.0917         estimate D2E/DX2                !
 ! R11   R(5,6)                  1.49           estimate D2E/DX2                !
 ! R12   R(5,27)                 1.0916         estimate D2E/DX2                !
 ! R13   R(6,7)                  1.3649         estimate D2E/DX2                !
 ! R14   R(6,13)                 1.5053         estimate D2E/DX2                !
 ! R15   R(7,8)                  1.441          estimate D2E/DX2                !
 ! R16   R(7,28)                 1.0775         estimate D2E/DX2                !
 ! R17   R(8,9)                  1.3594         estimate D2E/DX2                !
 ! R18   R(8,29)                 1.0908         estimate D2E/DX2                !
 ! R19   R(9,10)                 1.4584         estimate D2E/DX2                !
 ! R20   R(9,30)                 1.0798         estimate D2E/DX2                !
 ! R21   R(10,11)                1.3597         estimate D2E/DX2                !
 ! R22   R(10,31)                1.0938         estimate D2E/DX2                !
 ! R23   R(11,12)                1.57           estimate D2E/DX2                !
 ! R24   R(11,32)                1.1054         estimate D2E/DX2                !
 ! R25   R(12,13)                1.4062         estimate D2E/DX2                !
 ! R26   R(12,33)                1.1035         estimate D2E/DX2                !
 ! R27   R(13,14)                1.6445         estimate D2E/DX2                !
 ! R28   R(14,15)                1.5946         estimate D2E/DX2                !
 ! R29   R(14,34)                1.0981         estimate D2E/DX2                !
 ! R30   R(14,35)                1.0974         estimate D2E/DX2                !
 ! R31   R(15,16)                1.5664         estimate D2E/DX2                !
 ! R32   R(15,36)                1.0867         estimate D2E/DX2                !
 ! R33   R(15,37)                1.0975         estimate D2E/DX2                !
 ! R34   R(16,17)                1.4509         estimate D2E/DX2                !
 ! R35   R(16,38)                1.0958         estimate D2E/DX2                !
 ! R36   R(16,39)                1.0957         estimate D2E/DX2                !
 ! R37   R(17,18)                1.4772         estimate D2E/DX2                !
 ! R38   R(18,19)                1.4409         estimate D2E/DX2                !
 ! R39   R(19,20)                1.516          estimate D2E/DX2                !
 ! R40   R(19,40)                1.0957         estimate D2E/DX2                !
 ! R41   R(19,41)                1.0968         estimate D2E/DX2                !
 ! R42   R(20,21)                1.5311         estimate D2E/DX2                !
 ! R43   R(20,42)                1.0962         estimate D2E/DX2                !
 ! R44   R(20,43)                1.0858         estimate D2E/DX2                !
 ! R45   R(21,44)                1.0972         estimate D2E/DX2                !
 ! R46   R(21,45)                1.0998         estimate D2E/DX2                !
 ! A1    A(2,1,22)             110.1008         estimate D2E/DX2                !
 ! A2    A(2,1,23)             111.2119         estimate D2E/DX2                !
 ! A3    A(2,1,24)             110.9036         estimate D2E/DX2                !
 ! A4    A(22,1,23)            107.6686         estimate D2E/DX2                !
 ! A5    A(22,1,24)            107.459          estimate D2E/DX2                !
 ! A6    A(23,1,24)            109.3699         estimate D2E/DX2                !
 ! A7    A(1,2,3)              124.6371         estimate D2E/DX2                !
 ! A8    A(1,2,25)             115.9408         estimate D2E/DX2                !
 ! A9    A(3,2,25)             119.3576         estimate D2E/DX2                !
 ! A10   A(2,3,4)              121.6719         estimate D2E/DX2                !
 ! A11   A(2,3,21)             122.4088         estimate D2E/DX2                !
 ! A12   A(4,3,21)             115.7515         estimate D2E/DX2                !
 ! A13   A(3,4,5)              129.4671         estimate D2E/DX2                !
 ! A14   A(3,4,26)             111.9474         estimate D2E/DX2                !
 ! A15   A(5,4,26)             117.9359         estimate D2E/DX2                !
 ! A16   A(4,5,6)              121.3108         estimate D2E/DX2                !
 ! A17   A(4,5,27)             118.9668         estimate D2E/DX2                !
 ! A18   A(6,5,27)             118.4626         estimate D2E/DX2                !
 ! A19   A(5,6,7)              117.9517         estimate D2E/DX2                !
 ! A20   A(5,6,13)             124.281          estimate D2E/DX2                !
 ! A21   A(7,6,13)             117.488          estimate D2E/DX2                !
 ! A22   A(6,7,8)              119.1002         estimate D2E/DX2                !
 ! A23   A(6,7,28)             121.4104         estimate D2E/DX2                !
 ! A24   A(8,7,28)             118.8701         estimate D2E/DX2                !
 ! A25   A(7,8,9)              120.3097         estimate D2E/DX2                !
 ! A26   A(7,8,29)             113.6118         estimate D2E/DX2                !
 ! A27   A(9,8,29)             111.2033         estimate D2E/DX2                !
 ! A28   A(8,9,10)             107.2838         estimate D2E/DX2                !
 ! A29   A(8,9,30)             121.5471         estimate D2E/DX2                !
 ! A30   A(10,9,30)            120.2009         estimate D2E/DX2                !
 ! A31   A(9,10,11)            114.399          estimate D2E/DX2                !
 ! A32   A(9,10,31)            116.3018         estimate D2E/DX2                !
 ! A33   A(11,10,31)           124.0877         estimate D2E/DX2                !
 ! A34   A(10,11,12)           125.1197         estimate D2E/DX2                !
 ! A35   A(10,11,32)           110.5872         estimate D2E/DX2                !
 ! A36   A(12,11,32)           116.6443         estimate D2E/DX2                !
 ! A37   A(11,12,13)           137.4954         estimate D2E/DX2                !
 ! A38   A(11,12,33)           102.8618         estimate D2E/DX2                !
 ! A39   A(13,12,33)           112.8244         estimate D2E/DX2                !
 ! A40   A(6,13,12)            122.2913         estimate D2E/DX2                !
 ! A41   A(6,13,14)            106.7686         estimate D2E/DX2                !
 ! A42   A(12,13,14)           121.6362         estimate D2E/DX2                !
 ! A43   A(13,14,15)           124.6399         estimate D2E/DX2                !
 ! A44   A(13,14,34)           109.1338         estimate D2E/DX2                !
 ! A45   A(13,14,35)           105.0659         estimate D2E/DX2                !
 ! A46   A(15,14,34)           107.0862         estimate D2E/DX2                !
 ! A47   A(15,14,35)           103.9412         estimate D2E/DX2                !
 ! A48   A(34,14,35)           105.3571         estimate D2E/DX2                !
 ! A49   A(14,15,16)           116.8614         estimate D2E/DX2                !
 ! A50   A(14,15,36)           112.3068         estimate D2E/DX2                !
 ! A51   A(14,15,37)           110.0825         estimate D2E/DX2                !
 ! A52   A(16,15,36)           105.5512         estimate D2E/DX2                !
 ! A53   A(16,15,37)           107.0915         estimate D2E/DX2                !
 ! A54   A(36,15,37)           104.034          estimate D2E/DX2                !
 ! A55   A(15,16,17)           109.0339         estimate D2E/DX2                !
 ! A56   A(15,16,38)           111.1944         estimate D2E/DX2                !
 ! A57   A(15,16,39)           111.8859         estimate D2E/DX2                !
 ! A58   A(17,16,38)           106.7348         estimate D2E/DX2                !
 ! A59   A(17,16,39)           109.8611         estimate D2E/DX2                !
 ! A60   A(38,16,39)           107.9954         estimate D2E/DX2                !
 ! A61   A(16,17,18)           108.3218         estimate D2E/DX2                !
 ! A62   A(17,18,19)           106.3298         estimate D2E/DX2                !
 ! A63   A(18,19,20)           107.4114         estimate D2E/DX2                !
 ! A64   A(18,19,40)           110.1415         estimate D2E/DX2                !
 ! A65   A(18,19,41)           109.0315         estimate D2E/DX2                !
 ! A66   A(20,19,40)           112.2762         estimate D2E/DX2                !
 ! A67   A(20,19,41)           109.9743         estimate D2E/DX2                !
 ! A68   A(40,19,41)           107.972          estimate D2E/DX2                !
 ! A69   A(19,20,21)           115.4704         estimate D2E/DX2                !
 ! A70   A(19,20,42)           109.8524         estimate D2E/DX2                !
 ! A71   A(19,20,43)           105.9917         estimate D2E/DX2                !
 ! A72   A(21,20,42)           109.8684         estimate D2E/DX2                !
 ! A73   A(21,20,43)           110.7634         estimate D2E/DX2                !
 ! A74   A(42,20,43)           104.2514         estimate D2E/DX2                !
 ! A75   A(3,21,20)            112.4435         estimate D2E/DX2                !
 ! A76   A(3,21,44)            111.8181         estimate D2E/DX2                !
 ! A77   A(3,21,45)            108.2372         estimate D2E/DX2                !
 ! A78   A(20,21,44)           109.8316         estimate D2E/DX2                !
 ! A79   A(20,21,45)           108.7469         estimate D2E/DX2                !
 ! A80   A(44,21,45)           105.4676         estimate D2E/DX2                !
 ! D1    D(22,1,2,3)          -179.1012         estimate D2E/DX2                !
 ! D2    D(22,1,2,25)           -2.0503         estimate D2E/DX2                !
 ! D3    D(23,1,2,3)            61.6422         estimate D2E/DX2                !
 ! D4    D(23,1,2,25)         -121.3068         estimate D2E/DX2                !
 ! D5    D(24,1,2,3)           -60.3003         estimate D2E/DX2                !
 ! D6    D(24,1,2,25)          116.7506         estimate D2E/DX2                !
 ! D7    D(1,2,3,4)            173.9068         estimate D2E/DX2                !
 ! D8    D(1,2,3,21)            -1.185          estimate D2E/DX2                !
 ! D9    D(25,2,3,4)            -3.0505         estimate D2E/DX2                !
 ! D10   D(25,2,3,21)         -178.1423         estimate D2E/DX2                !
 ! D11   D(2,3,4,5)             51.302          estimate D2E/DX2                !
 ! D12   D(2,3,4,26)          -138.2782         estimate D2E/DX2                !
 ! D13   D(21,3,4,5)          -133.2979         estimate D2E/DX2                !
 ! D14   D(21,3,4,26)           37.1218         estimate D2E/DX2                !
 ! D15   D(2,3,21,20)         -144.0655         estimate D2E/DX2                !
 ! D16   D(2,3,21,44)          -19.9582         estimate D2E/DX2                !
 ! D17   D(2,3,21,45)           95.7875         estimate D2E/DX2                !
 ! D18   D(4,3,21,20)           40.5717         estimate D2E/DX2                !
 ! D19   D(4,3,21,44)          164.679          estimate D2E/DX2                !
 ! D20   D(4,3,21,45)          -79.5753         estimate D2E/DX2                !
 ! D21   D(3,4,5,6)            167.6315         estimate D2E/DX2                !
 ! D22   D(3,4,5,27)             0.6506         estimate D2E/DX2                !
 ! D23   D(26,4,5,6)            -2.3057         estimate D2E/DX2                !
 ! D24   D(26,4,5,27)         -169.2866         estimate D2E/DX2                !
 ! D25   D(4,5,6,7)             33.0245         estimate D2E/DX2                !
 ! D26   D(4,5,6,13)          -140.7394         estimate D2E/DX2                !
 ! D27   D(27,5,6,7)          -159.9309         estimate D2E/DX2                !
 ! D28   D(27,5,6,13)           26.3052         estimate D2E/DX2                !
 ! D29   D(5,6,7,8)           -152.42           estimate D2E/DX2                !
 ! D30   D(5,6,7,28)            18.4555         estimate D2E/DX2                !
 ! D31   D(13,6,7,8)            21.773          estimate D2E/DX2                !
 ! D32   D(13,6,7,28)         -167.3515         estimate D2E/DX2                !
 ! D33   D(5,6,13,12)         -142.1674         estimate D2E/DX2                !
 ! D34   D(5,6,13,14)           70.8542         estimate D2E/DX2                !
 ! D35   D(7,6,13,12)           44.0421         estimate D2E/DX2                !
 ! D36   D(7,6,13,14)         -102.9362         estimate D2E/DX2                !
 ! D37   D(6,7,8,9)           -118.4306         estimate D2E/DX2                !
 ! D38   D(6,7,8,29)            17.0295         estimate D2E/DX2                !
 ! D39   D(28,7,8,9)            70.4601         estimate D2E/DX2                !
 ! D40   D(28,7,8,29)         -154.0798         estimate D2E/DX2                !
 ! D41   D(7,8,9,10)           107.467          estimate D2E/DX2                !
 ! D42   D(7,8,9,30)           -36.5519         estimate D2E/DX2                !
 ! D43   D(29,8,9,10)          -28.9542         estimate D2E/DX2                !
 ! D44   D(29,8,9,30)         -172.9731         estimate D2E/DX2                !
 ! D45   D(8,9,10,11)          -64.5458         estimate D2E/DX2                !
 ! D46   D(8,9,10,31)          139.8526         estimate D2E/DX2                !
 ! D47   D(30,9,10,11)          80.0514         estimate D2E/DX2                !
 ! D48   D(30,9,10,31)         -75.5502         estimate D2E/DX2                !
 ! D49   D(9,10,11,12)          71.7503         estimate D2E/DX2                !
 ! D50   D(9,10,11,32)         -76.4445         estimate D2E/DX2                !
 ! D51   D(31,10,11,12)       -134.8101         estimate D2E/DX2                !
 ! D52   D(31,10,11,32)         76.9951         estimate D2E/DX2                !
 ! D53   D(10,11,12,13)        -44.3189         estimate D2E/DX2                !
 ! D54   D(10,11,12,33)        168.7475         estimate D2E/DX2                !
 ! D55   D(32,11,12,13)        102.1773         estimate D2E/DX2                !
 ! D56   D(32,11,12,33)        -44.7563         estimate D2E/DX2                !
 ! D57   D(11,12,13,6)         -33.8183         estimate D2E/DX2                !
 ! D58   D(11,12,13,14)        108.3854         estimate D2E/DX2                !
 ! D59   D(33,12,13,6)         110.9341         estimate D2E/DX2                !
 ! D60   D(33,12,13,14)       -106.8621         estimate D2E/DX2                !
 ! D61   D(6,13,14,15)         -53.8682         estimate D2E/DX2                !
 ! D62   D(6,13,14,34)         177.9842         estimate D2E/DX2                !
 ! D63   D(6,13,14,35)          65.4219         estimate D2E/DX2                !
 ! D64   D(12,13,14,15)        158.8891         estimate D2E/DX2                !
 ! D65   D(12,13,14,34)         30.7415         estimate D2E/DX2                !
 ! D66   D(12,13,14,35)        -81.8208         estimate D2E/DX2                !
 ! D67   D(13,14,15,16)        145.7039         estimate D2E/DX2                !
 ! D68   D(13,14,15,36)         23.5207         estimate D2E/DX2                !
 ! D69   D(13,14,15,37)        -91.8882         estimate D2E/DX2                !
 ! D70   D(34,14,15,16)        -85.3086         estimate D2E/DX2                !
 ! D71   D(34,14,15,36)        152.5082         estimate D2E/DX2                !
 ! D72   D(34,14,15,37)         37.0993         estimate D2E/DX2                !
 ! D73   D(35,14,15,16)         25.9006         estimate D2E/DX2                !
 ! D74   D(35,14,15,36)        -96.2826         estimate D2E/DX2                !
 ! D75   D(35,14,15,37)        148.3085         estimate D2E/DX2                !
 ! D76   D(14,15,16,17)       -175.011          estimate D2E/DX2                !
 ! D77   D(14,15,16,38)         67.5717         estimate D2E/DX2                !
 ! D78   D(14,15,16,39)        -53.2828         estimate D2E/DX2                !
 ! D79   D(36,15,16,17)        -49.3782         estimate D2E/DX2                !
 ! D80   D(36,15,16,38)       -166.7955         estimate D2E/DX2                !
 ! D81   D(36,15,16,39)         72.3501         estimate D2E/DX2                !
 ! D82   D(37,15,16,17)         61.0424         estimate D2E/DX2                !
 ! D83   D(37,15,16,38)        -56.3748         estimate D2E/DX2                !
 ! D84   D(37,15,16,39)       -177.2293         estimate D2E/DX2                !
 ! D85   D(15,16,17,18)        130.1277         estimate D2E/DX2                !
 ! D86   D(38,16,17,18)       -109.6678         estimate D2E/DX2                !
 ! D87   D(39,16,17,18)          7.1798         estimate D2E/DX2                !
 ! D88   D(16,17,18,19)       -114.3887         estimate D2E/DX2                !
 ! D89   D(17,18,19,20)         90.1025         estimate D2E/DX2                !
 ! D90   D(17,18,19,40)        -32.4567         estimate D2E/DX2                !
 ! D91   D(17,18,19,41)       -150.762          estimate D2E/DX2                !
 ! D92   D(18,19,20,21)       -172.17           estimate D2E/DX2                !
 ! D93   D(18,19,20,42)         62.9247         estimate D2E/DX2                !
 ! D94   D(18,19,20,43)        -49.1456         estimate D2E/DX2                !
 ! D95   D(40,19,20,21)        -50.942          estimate D2E/DX2                !
 ! D96   D(40,19,20,42)       -175.8473         estimate D2E/DX2                !
 ! D97   D(40,19,20,43)         72.0824         estimate D2E/DX2                !
 ! D98   D(41,19,20,21)         69.3011         estimate D2E/DX2                !
 ! D99   D(41,19,20,42)        -55.6042         estimate D2E/DX2                !
 ! D100  D(41,19,20,43)       -167.6745         estimate D2E/DX2                !
 ! D101  D(19,20,21,3)         113.4079         estimate D2E/DX2                !
 ! D102  D(19,20,21,44)        -11.7926         estimate D2E/DX2                !
 ! D103  D(19,20,21,45)       -126.7404         estimate D2E/DX2                !
 ! D104  D(42,20,21,3)        -121.6951         estimate D2E/DX2                !
 ! D105  D(42,20,21,44)        113.1044         estimate D2E/DX2                !
 ! D106  D(42,20,21,45)         -1.8434         estimate D2E/DX2                !
 ! D107  D(43,20,21,3)          -7.053          estimate D2E/DX2                !
 ! D108  D(43,20,21,44)       -132.2535         estimate D2E/DX2                !
 ! D109  D(43,20,21,45)        112.7987         estimate D2E/DX2                !
 --------------------------------------------------------------------------------
 Trust Radius=3.00D-01 FncErr=1.00D-07 GrdErr=1.00D-06 EigMax=2.50D+02 EigMin=1.00D-04
 Number of steps in this run=    245 maximum allowed number of steps=    270.
 GradGradGradGradGradGradGradGradGradGradGradGradGradGradGradGradGradGrad

                          Input orientation:                          
 ---------------------------------------------------------------------
 Center     Atomic      Atomic             Coordinates (Angstroms)
 Number     Number       Type             X           Y           Z
 ---------------------------------------------------------------------
      1          6           0        1.057830   -0.054800   -0.071690
      2          6           0        2.553880   -0.065770   -0.034490
      3          6           0        3.291270   -0.474330    1.017650
      4          6           0        4.749380   -0.582180    0.938980
      5          6           0        5.658540    0.330400    0.522530
      6          6           0        7.115780    0.139030    0.767310
      7          6           0        7.603030   -1.135880    0.764020
      8          6           0        8.775970   -1.439870    1.543950
      9          6           0        9.907280   -1.885760    0.936310
     10          6           0       10.876890   -0.796970    0.973220
     11          6           0       10.515530    0.301420    0.257920
     12          6           0        9.380030    1.308170    0.660600
     13          6           0        8.063460    1.244040    1.150480
     14          6           0        7.696570    1.669040    2.696200
     15          6           0        6.242950    2.088130    3.200280
     16          6           0        5.853560    1.674630    4.660110
     17          8           0        4.467820    2.031870    4.899410
     18          8           0        3.774790    0.853980    5.460190
     19          6           0        2.800500    0.451450    4.477860
     20          6           0        3.472250   -0.546210    3.555020
     21          6           0        2.658330   -0.956970    2.325000
     22          1           0        0.708470    0.306160   -1.043780
     23          1           0        0.647640    0.608310    0.695720
     24          1           0        0.655800   -1.064720    0.067900
     25          1           0        3.054250    0.238320   -0.949570
     26          1           0        5.118690   -1.485650    1.428090
     27          1           0        5.310550    1.311730    0.194610
     28          1           0        7.053610   -1.945890    0.313340
     29          1           0        9.004580   -0.687980    2.300450
     30          1           0        9.867540   -2.549110    0.085180
     31          1           0       11.912790   -1.077450    1.184470
     32          1           0       10.662350    0.126540   -0.823630
     33          1           0        9.536000    2.147050   -0.039150
     34          1           0        8.391440    2.451460    3.028930
     35          1           0        7.941710    0.786480    3.300520
     36          1           0        5.455730    1.690920    2.565180
     37          1           0        6.118620    3.176250    3.129220
     38          1           0        6.451930    2.219250    5.399070
     39          1           0        5.996650    0.602070    4.832750
     40          1           0        2.424040    1.327900    3.938650
     41          1           0        1.952760   -0.021920    4.988010
     42          1           0        3.766930   -1.437330    4.121350
     43          1           0        4.414010   -0.093580    3.259820
     44          1           0        1.623330   -0.608250    2.430080
     45          1           0        2.596190   -2.054490    2.292680
 ---------------------------------------------------------------------
                    Distance matrix (angstroms):
                    1          2          3          4          5
     1  C    0.000000
     2  C    1.496553   0.000000
     3  C    2.520103   1.348208   0.000000
     4  C    3.863564   2.456531   1.464208   0.000000
     5  C    4.654891   3.179015   2.548863   1.353811   0.000000
     6  C    6.118844   4.636352   3.881463   2.479811   1.489996
     7  C    6.686313   5.222707   4.369582   2.912132   2.447312
     8  C    8.006147   6.564604   5.593853   4.161135   3.727670
     9  C    9.092923   7.637232   6.765378   5.320081   4.809820
    10  C    9.902353   8.415618   7.592608   6.131369   5.357729
    11  C    9.470144   7.975475   7.305403   5.873081   4.864279
    12  C    8.464806   6.997656   6.354352   5.009375   3.850271
    13  C    7.229076   5.785778   5.073878   3.789847   2.648150
    14  C    7.396331   6.075648   5.178632   4.103869   3.266552
    15  C    6.494875   5.358382   4.476884   3.804574   3.255994
    16  C    6.955565   5.996345   4.944783   4.489901   4.354831
    17  O    6.379190   5.692682   4.767952   4.753687   4.844574
    18  O    6.229723   5.703338   4.662013   4.842904   5.310663
    19  C    4.898121   4.548587   3.615381   4.170155   4.881361
    20  C    4.384511   3.736149   2.544831   2.911361   3.839831
    21  C    3.019873   2.524349   1.530594   2.536535   3.729273
    22  H    1.094214   2.136009   3.395514   4.587967   5.192023
    23  H    1.094024   2.149731   2.874809   4.277933   5.021588
    24  H    1.095925   2.147345   2.862916   4.212959   5.213488
    25  H    2.200519   1.086376   2.105707   2.667078   2.992972
    26  H    4.559304   3.276194   2.128542   1.091731   2.099884
    27  H    4.474813   3.090182   2.818669   2.110899   1.091621
    28  H    6.298718   4.889111   4.100822   2.749656   2.677961
    29  H    8.317379   6.888441   5.859448   4.468951   3.923529
    30  H    9.157357   7.724696   6.958559   5.549176   5.118450
    31  H   10.975150   9.492026   8.644200   7.184706   6.444831
    32  H    9.635616   8.149050   7.621298   6.210660   5.185732
    33  H    8.759485   7.324384   6.854569   5.596174   4.318611
    34  H    8.347276   7.056777   6.214276   5.180296   4.271964
    35  H    7.711508   6.393538   5.331766   4.200128   3.624652
    36  H    5.416839   4.273754   3.430458   2.882783   2.462634
    37  H    6.804198   5.764298   5.077339   4.560457   3.886563
    38  H    8.012293   7.066802   6.036720   5.535259   5.289411
    39  H    6.991205   5.999058   4.799240   4.256709   4.331988
    40  H    4.456592   4.212483   3.540108   4.248957   4.809041
    41  H    5.138341   5.058535   4.214267   4.952738   5.813557
    42  H    5.179980   4.541329   3.284292   3.438600   4.433347
    43  H    4.729102   3.783297   2.536305   2.395308   3.036671
    44  H    2.623919   2.689668   2.189730   3.463560   4.561001
    45  H    3.457681   3.061457   2.146100   2.938780   4.266043
                    6          7          8          9         10
     6  C    0.000000
     7  C    1.364851   0.000000
     8  C    2.419158   1.441003   0.000000
     9  C    3.452652   2.429315   1.359377   0.000000
    10  C    3.881294   3.297997   2.270004   1.458413   0.000000
    11  C    3.441533   3.287039   2.777055   2.369375   1.359668
    12  C    2.550510   3.023542   2.949054   3.248876   2.601910
    13  C    1.505312   2.454662   2.804614   3.638844   3.480306
    14  C    2.529598   3.407293   3.486848   4.541041   4.377705
    15  C    3.237308   4.263733   4.648269   5.860433   5.895507
    16  C    4.370945   5.112644   5.286875   6.555586   6.703418
    17  O    5.260113   6.079937   6.470877   7.787279   8.030783
    18  O    5.804868   6.377223   6.753554   8.098092   8.561446
    19  C    5.699774   6.275071   6.920344   8.277164   8.892082
    20  C    4.638555   5.020033   5.742167   7.075426   7.845844
    21  C    4.847316   5.188326   6.186174   7.438978   8.330524
    22  H    6.660450   7.272041   8.650406   9.661438  10.425064
    23  H    6.485537   7.171075   8.425217   9.592664  10.329055
    24  H    6.608293   6.982382   8.261757   9.328351  10.264598
    25  H    4.410619   5.051358   6.463130   7.418374   8.121739
    26  H    2.657928   2.595241   3.659401   4.830376   5.817049
    27  H    2.227570   3.401542   4.626138   5.648362   6.003082
    28  H    2.134677   1.077539   2.176461   2.921496   4.046348
    29  H    2.569441   2.127340   1.090822   2.027418   2.297599
    30  H    3.906863   2.754278   2.133061   1.079831   2.208483
    31  H    4.966402   4.330615   3.178083   2.176469   1.093794
    32  H    3.887082   3.670664   3.408446   2.777926   2.031642
    33  H    3.246535   3.893467   3.993726   4.165685   3.389710
    34  H    3.477005   4.315138   4.182760   5.048595   4.577740
    35  H    2.741989   3.200626   2.956038   4.073551   4.066807
    36  H    2.897665   3.980687   4.676404   5.938195   6.173565
    37  H    3.974626   5.137325   5.557261   6.692290   6.563227
    38  H    5.120665   5.836576   5.801058   6.979024   6.947374
    39  H    4.242011   4.706962   4.765537   6.055128   6.377306
    40  H    5.786470   6.555183   7.330904   8.679893   9.206493
    41  H    6.670606   7.142027   7.773566   9.119461   9.816279
    42  H    4.994927   5.106682   5.633248   6.931772   7.802071
    43  H    3.683242   4.181537   4.876823   6.227891   6.891452
    44  H    5.787075   6.229844   7.255141   8.513942   9.369441
    45  H    5.250236   5.314988   6.255241   7.437758   8.478934
                   11         12         13         14         15
    11  C    0.000000
    12  C    1.570050   0.000000
    13  C    2.774499   1.406219   0.000000
    14  C    3.970155   2.666071   1.644531   0.000000
    15  C    5.486780   4.110910   2.868523   1.594598   0.000000
    16  C    6.557358   5.344751   4.169720   2.693262   1.566432
    17  O    7.817460   6.528481   5.253930   3.925635   2.457904
    18  O    8.532673   7.393312   6.092490   4.866654   3.566810
    19  C    8.795004   7.654780   6.276815   5.350546   4.020124
    20  C    7.822860   6.835075   5.483249   4.846626   3.839579
    21  C    8.221433   7.285763   5.953098   5.693644   4.784167
    22  H    9.893072   8.894093   7.732417   8.042290   7.198467
    23  H    9.882363   8.760461   7.456899   7.403680   6.306360
    24  H    9.955738   9.060579   7.834270   7.997115   7.139224
    25  H    7.558618   6.614584   5.523936   6.073692   5.550753
    26  H    5.804205   5.153008   4.024916   4.266806   4.144457
    27  H    5.302504   4.096075   2.914924   3.475444   3.241330
    28  H    4.127755   4.015187   3.449095   4.377115   5.026421
    29  H    2.726502   2.610495   2.437384   2.724528   4.017845
    30  H    2.928353   3.930316   4.333308   5.415102   6.659241
    31  H    2.170740   3.518593   4.495310   5.254050   6.799373
    32  H    1.105391   2.289876   3.449659   4.854314   6.290531
    33  H    2.110469   1.103493   2.097384   3.330786   4.619692
    34  H    4.100357   2.809521   2.256991   1.098059   2.185722
    35  H    4.014629   3.051246   2.201558   1.097364   2.142458
    36  H    5.731992   4.378819   3.000222   2.244774   1.086666
    37  H    5.986805   4.496732   3.381013   2.224661   1.097503
    38  H    6.828055   5.644195   4.647427   3.026114   2.212587
    39  H    6.437370   5.417811   4.271176   2.931382   2.221260
    40  H    8.948388   7.689720   6.291580   5.427673   3.963233
    41  H    9.787713   8.698273   7.325977   6.411169   5.104314
    42  H    7.968246   7.142930   5.871625   5.207942   4.405441
    43  H    6.811459   5.777733   4.422333   3.768249   2.847530
    44  H    9.198750   8.183527   6.822289   6.491619   5.404125
    45  H    8.509201   7.745428   6.486599   6.327826   5.593201
                   16         17         18         19         20
    16  C    0.000000
    17  O    1.450917   0.000000
    18  O    2.373790   1.477224   0.000000
    19  C    3.294019   2.335677   1.440918   0.000000
    20  C    3.438603   3.073278   2.383639   1.515984   0.000000
    21  C    4.752636   4.339932   3.788857   2.576561   1.531058
    22  H    7.802501   7.241015   7.211383   5.906455   5.432677
    23  H    6.629859   5.855878   5.704349   4.354767   4.181738
    24  H    7.457154   6.889402   6.518152   5.132860   4.512344
    25  H    6.431767   6.278978   6.479447   5.437537   4.591464
    26  H    4.579668   4.984641   4.851574   4.292722   2.849060
    27  H    4.513009   4.833626   5.504037   5.038518   4.257187
    28  H    5.782966   6.598555   6.714164   6.417119   5.029288
    29  H    4.591171   5.893587   6.301770   6.673082   5.674568
    30  H    7.408239   8.562661   8.808709   8.845454   7.546597
    31  H    7.507882   8.882355   9.393575   9.809066   8.783191
    32  H    7.456034   8.646136   9.351687   9.487890   8.445277
    33  H    5.988872   7.077365   8.068848   8.285252   7.545911
    34  H    3.115293   4.366869   5.456778   6.112123   5.784568
    35  H    2.645310   4.021860   4.693821   5.284923   4.670857
    36  H    2.132432   2.557507   3.450668   3.499268   3.149401
    37  H    2.160728   2.677372   4.039789   4.500365   4.587078
    38  H    1.095773   2.054620   3.005790   4.160130   4.463942
    39  H    1.095748   2.094300   2.322456   3.219318   3.053479
    40  H    3.521695   2.365517   2.089069   1.095735   2.181331
    41  H    4.266385   3.248296   2.076041   1.096811   2.153414
    42  H    3.785311   3.623806   2.653800   2.151413   1.096203
    43  H    2.675758   2.684900   2.479536   2.093823   1.085785
    44  H    5.299002   4.599886   3.993553   2.588841   2.165143
    45  H    5.488308   5.195804   4.458858   3.331139   2.153112
                   21         22         23         24         25
    21  C    0.000000
    22  H    4.092204   0.000000
    23  H    3.024488   1.766594   0.000000
    24  H    3.019311   1.765763   1.786968   0.000000
    25  H    3.508316   2.348651   2.938647   2.913026   0.000000
    26  H    2.671577   5.363839   4.991124   4.684516   3.589882
    27  H    4.088989   4.870721   4.742219   5.227836   2.748135
    28  H    4.933885   6.868355   6.906997   6.462869   4.728699
    29  H    6.351996   8.999868   8.607786   8.650338   6.843032
    30  H    7.715207   9.660004   9.764662   9.330588   7.433801
    31  H    9.325254  11.507226  11.401064  11.312237   9.206471
    32  H    8.669037   9.957934  10.140757  10.116569   7.609963
    33  H    7.907369   9.073227   9.050453   9.443775   6.818005
    34  H    6.706822   8.956411   8.295029   8.998408   7.015130
    35  H    5.648483   8.451237   7.747270   8.182986   6.500078
    36  H    3.859333   6.121979   5.271115   6.072008   4.497846
    37  H    5.450127   7.410875   6.515202   7.563062   5.887132
    38  H    5.824919   8.840677   7.642409   8.532348   7.468169
    39  H    4.456882   7.911132   6.762172   7.348923   6.498096
    40  H    2.807025   5.367657   3.766962   4.882009   5.047677
    41  H    2.909256   6.167527   4.530373   5.193941   6.044490
    42  H    2.164859   6.250800   5.064539   5.123322   5.387944
    43  H    2.168350   5.693135   4.610076   5.025496   4.435997
    44  H    1.097211   3.706861   2.332379   2.593140   3.766463
    45  H    1.099753   4.502013   3.665738   3.113584   3.997372
                   26         27         28         29         30
    26  H    0.000000
    27  H    3.063269   0.000000
    28  H    2.280001   3.696545   0.000000
    29  H    4.061703   4.698857   3.055688   0.000000
    30  H    5.048359   5.973627   2.886890   3.019259   0.000000
    31  H    6.810710   7.090668   5.012453   3.139233   2.749049
    32  H    6.196900   5.575236   4.314009   3.629259   2.935432
    33  H    5.904399   4.313564   4.799861   3.713964   4.709490
    34  H    5.364179   4.338691   5.338624   3.280657   5.987507
    35  H    4.078972   4.104335   4.144612   2.074576   5.017309
    36  H    3.390747   2.405091   4.566223   4.280606   6.602448
    37  H    5.062313   3.569502   5.919434   4.893659   7.490015
    38  H    5.592182   5.404882   6.601141   4.956758   7.914612
    39  H    4.089144   4.742014   5.294746   4.138166   6.888624
    40  H    4.634664   4.727583   6.730044   7.074672   9.235049
    41  H    4.983839   6.002504   7.181425   7.575934   9.647185
    42  H    3.013841   5.035810   5.055872   5.595550   7.398930
    43  H    2.406173   3.489154   4.368099   4.727265   6.771186
    44  H    3.740502   4.720089   5.979783   7.382819   8.788202
    45  H    2.726555   4.806359   4.878337   6.552471   7.615132
                   31         32         33         34         35
    31  H    0.000000
    32  H    2.654366   0.000000
    33  H    4.188529   2.442649   0.000000
    34  H    5.315557   5.040288   3.288738   0.000000
    35  H    4.870460   4.984578   3.942881   1.745903   0.000000
    36  H    7.159878   6.406263   4.862015   3.067878   2.745694
    37  H    7.446370   6.750647   4.772453   2.387695   3.010648
    38  H    7.645396   7.799299   6.252275   3.071349   2.945537
    39  H    7.150626   7.347756   6.216862   3.522645   2.482941
    40  H   10.168952   9.591263   8.189864   6.140020   5.580773
    41  H   10.713695  10.471588   9.353197   7.170230   6.274445
    42  H    8.666592   8.628171   7.964905   6.140209   4.800821
    43  H    7.842626   7.467581   6.491410   4.727630   3.636046
    44  H   10.375195   9.634855   8.734937   7.451695   6.528772
    45  H    9.433015   8.918028   8.441050   7.377708   6.136891
                   36         37         38         39         40
    36  H    0.000000
    37  H    1.721560   0.000000
    38  H    3.049997   2.485792   0.000000
    39  H    2.572948   3.089222   1.772927   0.000000
    40  H    3.348036   4.209691   4.376212   3.753636   0.000000
    41  H    4.590722   5.571156   5.043247   4.094694   1.773492
    42  H    3.880678   5.272560   4.713000   3.104335   3.079485
    43  H    2.179942   3.689789   3.752158   2.337261   2.537991
    44  H    4.471211   5.917674   6.334433   5.134552   2.581782
    45  H    4.720098   6.361443   6.540737   5.007234   3.765556
                   41         42         43         44         45
    41  H    0.000000
    42  H    2.458800   0.000000
    43  H    3.008243   1.722385   0.000000
    44  H    2.644865   2.853557   2.956560   0.000000
    45  H    3.436589   2.257333   2.843413   1.748412   0.000000
 Stoichiometry    C19H24O2
 Framework group  C1[X(C19H24O2)]
 Deg. of freedom   129
 Full point group                 C1      NOp   1
 Largest Abelian subgroup         C1      NOp   1
 Largest concise Abelian subgroup C1      NOp   1
                         Standard orientation:                         
 ---------------------------------------------------------------------
 Center     Atomic      Atomic             Coordinates (Angstroms)
 Number     Number       Type             X           Y           Z
 ---------------------------------------------------------------------
      1          6           0       -4.108755   -3.169965   -0.914586
      2          6           0       -2.673585   -2.760299   -0.804447
      3          6           0       -2.205067   -1.833433    0.055247
      4          6           0       -0.771196   -1.575320    0.201179
      5          6           0        0.157403   -1.315111   -0.748979
      6          6           0        1.513135   -0.812222   -0.389563
      7          6           0        2.060977   -1.234564    0.787006
      8          6           0        3.012876   -0.388025    1.460615
      9          6           0        4.286296   -0.816536    1.667223
     10          6           0        5.147248   -0.072368    0.755113
     11          6           0        4.914431   -0.316647   -0.562013
     12          6           0        3.655386    0.172251   -1.362537
     13          6           0        2.263815    0.233685   -1.169640
     14          6           0        1.490706    1.662400   -0.913592
     15          6           0       -0.065835    1.907313   -1.158424
     16          6           0       -0.788346    2.898026   -0.183655
     17          8           0       -2.208256    2.904160   -0.481947
     18          8           0       -2.949018    2.711179    0.781470
     19          6           0       -3.615153    1.438339    0.670181
     20          6           0       -2.671872    0.383585    1.214167
     21          6           0       -3.119682   -1.066711    1.013546
     22          1           0       -4.220259   -3.948589   -1.675253
     23          1           0       -4.739890   -2.325996   -1.208313
     24          1           0       -4.471551   -3.582397    0.033745
     25          1           0       -1.976023   -3.296714   -1.441533
     26          1           0       -0.484865   -1.442097    1.246236
     27          1           0       -0.154062   -1.269819   -1.794243
     28          1           0        1.694128   -2.111476    1.294487
     29          1           0        2.995742    0.647495    1.118128
     30          1           0        4.504483   -1.848149    1.900038
     31          1           0        6.110202    0.255807    1.156865
     32          1           0        5.341940   -1.292132   -0.857909
     33          1           0        3.933550   -0.037133   -2.409666
     34          1           0        2.029624    2.462352   -1.438358
     35          1           0        1.626607    1.872790    0.154806
     36          1           0       -0.640108    0.985780   -1.115645
     37          1           0       -0.233226    2.278141   -2.177728
     38          1           0       -0.431654    3.924331   -0.325743
     39          1           0       -0.629639    2.626760    0.866055
     40          1           0       -3.894008    1.248295   -0.372295
     41          1           0       -4.534746    1.462495    1.267476
     42          1           0       -2.477970    0.570014    2.276856
     43          1           0       -1.714993    0.561086    0.732707
     44          1           0       -4.166386   -1.091089    0.685385
     45          1           0       -3.105393   -1.578865    1.986659
 ---------------------------------------------------------------------
 Rotational constants (GHZ):           0.4280478           0.1853333           0.1496054
 Standard basis: 6-31G(2df,p) (6D, 7F)
 There are   771 symmetry adapted cartesian basis functions of A   symmetry.
 There are   708 symmetry adapted basis functions of A   symmetry.
   708 basis functions,  1092 primitive gaussians,   771 cartesian basis functions
    77 alpha electrons       77 beta electrons
       nuclear repulsion energy      1644.6798386947 Hartrees.
 NAtoms=   45 NActive=   45 NUniq=   45 SFac= 1.00D+00 NAtFMM=   60 NAOKFM=F Big=F
 Integral buffers will be    131072 words long.
 Raffenetti 2 integral format.
 Two-electron integral symmetry is turned on.
 One-electron integrals computed using PRISM.
 PrsmSu:  requested number of processors reduced to:  12 ShMem   1 Linda.
 NBasis=   708 RedAO= T EigKep=  4.10D-04  NBF=   708
 NBsUse=   708 1.00D-06 EigRej= -1.00D+00 NBFU=   708
 ExpMin= 1.61D-01 ExpMax= 5.48D+03 ExpMxC= 8.25D+02 IAcc=3 IRadAn=         5 AccDes= 0.00D+00
 Harris functional with IExCor=  402 and IRadAn=       5 diagonalized for initial guess.
 HarFok:  IExCor=  402 AccDes= 0.00D+00 IRadAn=         5 IDoV= 1 UseB2=F ITyADJ=14
 ICtDFT=  3500011 ScaDFX=  1.000000  1.000000  1.000000  1.000000
 FoFCou: FMM=F IPFlag=           0 FMFlag=      100000 FMFlg1=           0
         NFxFlg=           0 DoJE=T BraDBF=F KetDBF=T FulRan=T
         wScrn=  0.000000 ICntrl=       500 IOpCl=  0 I1Cent=   200000004 NGrid=           0
         NMat0=    1 NMatS0=      1 NMatT0=    0 NMatD0=    1 NMtDS0=    0 NMtDT0=    0
 Petite list used in FoFCou.
 Requested convergence on RMS density matrix=1.00D-08 within 128 cycles.
 Requested convergence on MAX density matrix=1.00D-06.
 Requested convergence on             energy=1.00D-06.
 No special actions if energy rises.
 Integral accuracy reduced to 1.0D-05 until final iterations.
 Initial convergence to 1.0D-05 achieved.  Increase integral accuracy.
 SCF Done:  E(RB3LYP) =  -888.474461936     A.U. after   19 cycles
            NFock= 19  Conv=0.61D-08     -V/T= 2.0083

 **********************************************************************

            Population analysis using the SCF density.

 **********************************************************************

 Orbital symmetries:
       Occupied  (A) (A) (A) (A) (A) (A) (A) (A) (A) (A) (A) (A)
                 (A) (A) (A) (A) (A) (A) (A) (A) (A) (A) (A) (A)
                 (A) (A) (A) (A) (A) (A) (A) (A) (A) (A) (A) (A)
                 (A) (A) (A) (A) (A) (A) (A) (A) (A) (A) (A) (A)
                 (A) (A) (A) (A) (A) (A) (A) (A) (A) (A) (A) (A)
                 (A) (A) (A) (A) (A) (A) (A) (A) (A) (A) (A) (A)
                 (A) (A) (A) (A) (A)
       Virtual   (A) (A) (A) (A) (A) (A) (A) (A) (A) (A) (A) (A)
                 (A) (A) (A) (A) (A) (A) (A) (A) (A) (A) (A) (A)
                 (A) (A) (A) (A) (A) (A) (A) (A) (A) (A) (A) (A)
                 (A) (A) (A) (A) (A) (A) (A) (A) (A) (A) (A) (A)
                 (A) (A) (A) (A) (A) (A) (A) (A) (A) (A) (A) (A)
                 (A) (A) (A) (A) (A) (A) (A) (A) (A) (A) (A) (A)
                 (A) (A) (A) (A) (A) (A) (A) (A) (A) (A) (A) (A)
                 (A) (A) (A) (A) (A) (A) (A) (A) (A) (A) (A) (A)
                 (A) (A) (A) (A) (A) (A) (A) (A) (A) (A) (A) (A)
                 (A) (A) (A) (A) (A) (A) (A) (A) (A) (A) (A) (A)
                 (A) (A) (A) (A) (A) (A) (A) (A) (A) (A) (A) (A)
                 (A) (A) (A) (A) (A) (A) (A) (A) (A) (A) (A) (A)
                 (A) (A) (A) (A) (A) (A) (A) (A) (A) (A) (A) (A)
                 (A) (A) (A) (A) (A) (A) (A) (A) (A) (A) (A) (A)
                 (A) (A) (A) (A) (A) (A) (A) (A) (A) (A) (A) (A)
                 (A) (A) (A) (A) (A) (A) (A) (A) (A) (A) (A) (A)
                 (A) (A) (A) (A) (A) (A) (A) (A) (A) (A) (A) (A)
                 (A) (A) (A) (A) (A) (A) (A) (A) (A) (A) (A) (A)
                 (A) (A) (A) (A) (A) (A) (A) (A) (A) (A) (A) (A)
                 (A) (A) (A) (A) (A) (A) (A) (A) (A) (A) (A) (A)
                 (A) (A) (A) (A) (A) (A) (A) (A) (A) (A) (A) (A)
                 (A) (A) (A) (A) (A) (A) (A) (A) (A) (A) (A) (A)
                 (A) (A) (A) (A) (A) (A) (A) (A) (A) (A) (A) (A)
                 (A) (A) (A) (A) (A) (A) (A) (A) (A) (A) (A) (A)
                 (A) (A) (A) (A) (A) (A) (A) (A) (A) (A) (A) (A)
                 (A) (A) (A) (A) (A) (A) (A) (A) (A) (A) (A) (A)
                 (A) (A) (A) (A) (A) (A) (A) (A) (A) (A) (A) (A)
                 (A) (A) (A) (A) (A) (A) (A) (A) (A) (A) (A) (A)
                 (A) (A) (A) (A) (A) (A) (A) (A) (A) (A) (A) (A)
                 (A) (A) (A) (A) (A) (A) (A) (A) (A) (A) (A) (A)
                 (A) (A) (A) (A) (A) (A) (A) (A) (A) (A) (A) (A)
                 (A) (A) (A) (A) (A) (A) (A) (A) (A) (A) (A) (A)
                 (A) (A) (A) (A) (A) (A) (A) (A) (A) (A) (A) (A)
                 (A) (A) (A) (A) (A) (A) (A) (A) (A) (A) (A) (A)
                 (A) (A) (A) (A) (A) (A) (A) (A) (A) (A) (A) (A)
                 (A) (A) (A) (A) (A) (A) (A) (A) (A) (A) (A) (A)
                 (A) (A) (A) (A) (A) (A) (A) (A) (A) (A) (A) (A)
                 (A) (A) (A) (A) (A) (A) (A) (A) (A) (A) (A) (A)
                 (A) (A) (A) (A) (A) (A) (A) (A) (A) (A) (A) (A)
                 (A) (A) (A) (A) (A) (A) (A) (A) (A) (A) (A) (A)
                 (A) (A) (A) (A) (A) (A) (A) (A) (A) (A) (A) (A)
                 (A) (A) (A) (A) (A) (A) (A) (A) (A) (A) (A) (A)
                 (A) (A) (A) (A) (A) (A) (A) (A) (A) (A) (A) (A)
                 (A) (A) (A) (A) (A) (A) (A) (A) (A) (A) (A) (A)
                 (A) (A) (A) (A) (A) (A) (A) (A) (A) (A) (A) (A)
                 (A) (A) (A) (A) (A) (A) (A) (A) (A) (A) (A) (A)
                 (A) (A) (A) (A) (A) (A) (A) (A) (A) (A) (A) (A)
                 (A) (A) (A) (A) (A) (A) (A) (A) (A) (A) (A) (A)
                 (A) (A) (A) (A) (A) (A) (A) (A) (A) (A) (A) (A)
                 (A) (A) (A) (A) (A) (A) (A) (A) (A) (A) (A) (A)
                 (A) (A) (A) (A) (A) (A) (A) (A) (A) (A) (A) (A)
                 (A) (A) (A) (A) (A) (A) (A) (A) (A) (A) (A) (A)
                 (A) (A) (A) (A) (A) (A) (A)
 The electronic state is 1-A.
 Alpha  occ. eigenvalues --  -19.18458 -19.18393 -10.23057 -10.22724 -10.22721
 Alpha  occ. eigenvalues --  -10.21173 -10.20771 -10.20552 -10.20466 -10.19298
 Alpha  occ. eigenvalues --  -10.18914 -10.18911 -10.18898 -10.18870 -10.18683
 Alpha  occ. eigenvalues --  -10.18622 -10.18241 -10.18035 -10.18004 -10.17504
 Alpha  occ. eigenvalues --  -10.17437  -1.09183  -0.91458  -0.85316  -0.83001
 Alpha  occ. eigenvalues --   -0.80781  -0.78012  -0.76687  -0.75359  -0.74725
 Alpha  occ. eigenvalues --   -0.70764  -0.67596  -0.67149  -0.64350  -0.63370
 Alpha  occ. eigenvalues --   -0.60121  -0.59386  -0.58292  -0.56256  -0.53787
 Alpha  occ. eigenvalues --   -0.51085  -0.50936  -0.50399  -0.47960  -0.47021
 Alpha  occ. eigenvalues --   -0.46696  -0.46347  -0.45517  -0.44626  -0.43611
 Alpha  occ. eigenvalues --   -0.42740  -0.42556  -0.41681  -0.41213  -0.40919
 Alpha  occ. eigenvalues --   -0.40147  -0.39443  -0.39158  -0.38360  -0.37860
 Alpha  occ. eigenvalues --   -0.37237  -0.36371  -0.35407  -0.35226  -0.34675
 Alpha  occ. eigenvalues --   -0.33624  -0.33459  -0.32804  -0.31627  -0.30372
 Alpha  occ. eigenvalues --   -0.28304  -0.26696  -0.24466  -0.23340  -0.21281
 Alpha  occ. eigenvalues --   -0.20013  -0.16734
 Alpha virt. eigenvalues --   -0.10302  -0.05551  -0.04383  -0.00439   0.01244
 Alpha virt. eigenvalues --    0.03915   0.06724   0.08870   0.09955   0.10865
 Alpha virt. eigenvalues --    0.11180   0.11756   0.12089   0.12571   0.12893
 Alpha virt. eigenvalues --    0.13867   0.14092   0.14409   0.14892   0.15442
 Alpha virt. eigenvalues --    0.15867   0.16190   0.16587   0.17203   0.17687
 Alpha virt. eigenvalues --    0.18141   0.18536   0.19383   0.19687   0.20605
 Alpha virt. eigenvalues --    0.21019   0.21649   0.22679   0.23381   0.24118
 Alpha virt. eigenvalues --    0.24498   0.25313   0.25680   0.26931   0.27050
 Alpha virt. eigenvalues --    0.27926   0.29347   0.29703   0.31816   0.32819
 Alpha virt. eigenvalues --    0.32922   0.35070   0.36186   0.37125   0.38324
 Alpha virt. eigenvalues --    0.40984   0.42206   0.43136   0.43868   0.44845
 Alpha virt. eigenvalues --    0.45398   0.45832   0.47321   0.47457   0.48216
 Alpha virt. eigenvalues --    0.48737   0.49227   0.49348   0.49526   0.50616
 Alpha virt. eigenvalues --    0.50886   0.51103   0.51747   0.52082   0.52765
 Alpha virt. eigenvalues --    0.53808   0.54179   0.54582   0.54823   0.55821
 Alpha virt. eigenvalues --    0.56117   0.56899   0.56994   0.57597   0.58023
 Alpha virt. eigenvalues --    0.58734   0.59102   0.60218   0.60741   0.61256
 Alpha virt. eigenvalues --    0.61960   0.63272   0.64585   0.66269   0.66347
 Alpha virt. eigenvalues --    0.67005   0.67404   0.67760   0.68184   0.68529
 Alpha virt. eigenvalues --    0.68961   0.69049   0.70100   0.70831   0.71091
 Alpha virt. eigenvalues --    0.71319   0.72967   0.73356   0.73903   0.74197
 Alpha virt. eigenvalues --    0.74579   0.74804   0.75046   0.75342   0.76014
 Alpha virt. eigenvalues --    0.76343   0.76803   0.77203   0.77563   0.77790
 Alpha virt. eigenvalues --    0.79057   0.79404   0.79752   0.80265   0.80856
 Alpha virt. eigenvalues --    0.80937   0.81908   0.82397   0.83240   0.83910
 Alpha virt. eigenvalues --    0.84223   0.84775   0.85176   0.85434   0.86130
 Alpha virt. eigenvalues --    0.87421   0.87807   0.87982   0.88675   0.90009
 Alpha virt. eigenvalues --    0.90602   0.91961   0.92858   0.93482   0.94069
 Alpha virt. eigenvalues --    0.95248   0.95743   0.96568   0.97109   0.97989
 Alpha virt. eigenvalues --    0.99993   1.00168   1.01039   1.02041   1.02568
 Alpha virt. eigenvalues --    1.02900   1.03739   1.04928   1.05648   1.07377
 Alpha virt. eigenvalues --    1.08535   1.08968   1.09956   1.10871   1.11918
 Alpha virt. eigenvalues --    1.12549   1.13758   1.14377   1.16031   1.16728
 Alpha virt. eigenvalues --    1.17518   1.18658   1.19579   1.20348   1.22562
 Alpha virt. eigenvalues --    1.23063   1.24878   1.25044   1.26361   1.26676
 Alpha virt. eigenvalues --    1.28379   1.28716   1.29913   1.30483   1.31806
 Alpha virt. eigenvalues --    1.32420   1.33084   1.33527   1.33912   1.34104
 Alpha virt. eigenvalues --    1.36971   1.38020   1.38216   1.38967   1.41018
 Alpha virt. eigenvalues --    1.41841   1.43133   1.43435   1.44493   1.44928
 Alpha virt. eigenvalues --    1.45315   1.45677   1.47433   1.48639   1.48889
 Alpha virt. eigenvalues --    1.49750   1.50489   1.52414   1.52972   1.53899
 Alpha virt. eigenvalues --    1.54847   1.55079   1.56720   1.57684   1.58892
 Alpha virt. eigenvalues --    1.59107   1.59943   1.60628   1.60826   1.61612
 Alpha virt. eigenvalues --    1.62302   1.62887   1.63488   1.65065   1.65488
 Alpha virt. eigenvalues --    1.65955   1.66548   1.67541   1.68279   1.69097
 Alpha virt. eigenvalues --    1.70657   1.70969   1.72289   1.73075   1.74464
 Alpha virt. eigenvalues --    1.75106   1.75875   1.77716   1.78164   1.79021
 Alpha virt. eigenvalues --    1.79395   1.80202   1.81058   1.82215   1.83763
 Alpha virt. eigenvalues --    1.85094   1.87301   1.88153   1.88418   1.91005
 Alpha virt. eigenvalues --    1.91429   1.91518   1.93712   1.94957   1.96120
 Alpha virt. eigenvalues --    1.96935   1.99134   1.99773   2.00329   2.01915
 Alpha virt. eigenvalues --    2.03895   2.05784   2.07152   2.08977   2.10034
 Alpha virt. eigenvalues --    2.10981   2.12667   2.13017   2.14129   2.15337
 Alpha virt. eigenvalues --    2.16476   2.17713   2.19081   2.19481   2.21055
 Alpha virt. eigenvalues --    2.23024   2.23678   2.25050   2.26892   2.29644
 Alpha virt. eigenvalues --    2.29940   2.30877   2.32134   2.33625   2.34710
 Alpha virt. eigenvalues --    2.36798   2.37262   2.37888   2.39763   2.40728
 Alpha virt. eigenvalues --    2.41312   2.42219   2.43400   2.44757   2.46233
 Alpha virt. eigenvalues --    2.48134   2.49654   2.50653   2.52219   2.52652
 Alpha virt. eigenvalues --    2.54281   2.55605   2.56255   2.58191   2.60209
 Alpha virt. eigenvalues --    2.61006   2.63245   2.63782   2.64142   2.65477
 Alpha virt. eigenvalues --    2.66910   2.67623   2.69989   2.70265   2.70957
 Alpha virt. eigenvalues --    2.73977   2.74300   2.75014   2.75385   2.76431
 Alpha virt. eigenvalues --    2.77903   2.78176   2.78474   2.80055   2.80481
 Alpha virt. eigenvalues --    2.82404   2.82738   2.83382   2.83577   2.84855
 Alpha virt. eigenvalues --    2.86030   2.86487   2.88009   2.88718   2.89388
 Alpha virt. eigenvalues --    2.90082   2.90893   2.91622   2.92252   2.92710
 Alpha virt. eigenvalues --    2.93116   2.94095   2.95290   2.96297   2.96702
 Alpha virt. eigenvalues --    2.97398   2.97596   2.99899   3.00888   3.01852
 Alpha virt. eigenvalues --    3.02390   3.03965   3.04683   3.05140   3.05648
 Alpha virt. eigenvalues --    3.06327   3.07567   3.08269   3.09892   3.11103
 Alpha virt. eigenvalues --    3.11613   3.12069   3.12753   3.12910   3.13733
 Alpha virt. eigenvalues --    3.14768   3.15710   3.16744   3.17641   3.17912
 Alpha virt. eigenvalues --    3.18665   3.20716   3.21287   3.22159   3.22833
 Alpha virt. eigenvalues --    3.23371   3.24660   3.25112   3.25549   3.26011
 Alpha virt. eigenvalues --    3.28278   3.28923   3.30005   3.30173   3.30796
 Alpha virt. eigenvalues --    3.31397   3.31818   3.33650   3.34040   3.35087
 Alpha virt. eigenvalues --    3.35346   3.36537   3.37099   3.37561   3.39162
 Alpha virt. eigenvalues --    3.39513   3.41123   3.42311   3.43637   3.44820
 Alpha virt. eigenvalues --    3.45457   3.45527   3.46717   3.47608   3.48298
 Alpha virt. eigenvalues --    3.49129   3.49937   3.50715   3.51825   3.53009
 Alpha virt. eigenvalues --    3.53679   3.54338   3.55142   3.56002   3.57280
 Alpha virt. eigenvalues --    3.58035   3.59252   3.60043   3.61229   3.61626
 Alpha virt. eigenvalues --    3.62812   3.63964   3.65710   3.66590   3.67141
 Alpha virt. eigenvalues --    3.69048   3.69921   3.70131   3.70717   3.71869
 Alpha virt. eigenvalues --    3.72131   3.72529   3.75724   3.76375   3.77041
 Alpha virt. eigenvalues --    3.77950   3.80135   3.80884   3.82278   3.83538
 Alpha virt. eigenvalues --    3.84826   3.85489   3.86902   3.90010   3.90400
 Alpha virt. eigenvalues --    3.92435   3.93214   3.93816   3.95193   3.95904
 Alpha virt. eigenvalues --    3.98002   3.99507   4.00500   4.01191   4.01953
 Alpha virt. eigenvalues --    4.04659   4.05544   4.08692   4.10032   4.12573
 Alpha virt. eigenvalues --    4.13008   4.15583   4.16026   4.18687   4.20598
 Alpha virt. eigenvalues --    4.22096   4.22956   4.24106   4.26561   4.28009
 Alpha virt. eigenvalues --    4.28483   4.29899   4.31279   4.32269   4.33708
 Alpha virt. eigenvalues --    4.34979   4.35224   4.36908   4.37939   4.39095
 Alpha virt. eigenvalues --    4.40713   4.41640   4.42189   4.42856   4.42931
 Alpha virt. eigenvalues --    4.43843   4.44437   4.45371   4.46370   4.47362
 Alpha virt. eigenvalues --    4.47979   4.48680   4.49616   4.50164   4.50611
 Alpha virt. eigenvalues --    4.50866   4.51637   4.52984   4.53567   4.54130
 Alpha virt. eigenvalues --    4.55037   4.56768   4.57279   4.57733   4.58200
 Alpha virt. eigenvalues --    4.59126   4.59485   4.60698   4.60907   4.61981
 Alpha virt. eigenvalues --    4.63384   4.63750   4.64387   4.65121   4.66084
 Alpha virt. eigenvalues --    4.66694   4.67103   4.68079   4.68664   4.69551
 Alpha virt. eigenvalues --    4.70057   4.70329   4.70729   4.71363   4.72511
 Alpha virt. eigenvalues --    4.74264   4.74507   4.75090   4.76001   4.76353
 Alpha virt. eigenvalues --    4.76935   4.77658   4.78528   4.79141   4.79808
 Alpha virt. eigenvalues --    4.80838   4.80914   4.81803   4.82659   4.84607
 Alpha virt. eigenvalues --    4.85834   4.86081   4.86767   4.87978   4.88648
 Alpha virt. eigenvalues --    4.89564   4.90884   4.91155   4.92403   4.92774
 Alpha virt. eigenvalues --    4.93734   4.95197   4.96717   4.98315   4.99243
 Alpha virt. eigenvalues --    4.99926   5.00789   5.02431   5.03596   5.07237
 Alpha virt. eigenvalues --    5.08197   5.08916   5.10834   5.11494   5.12380
 Alpha virt. eigenvalues --    5.13551   5.15212   5.16843   5.20803   5.21162
 Alpha virt. eigenvalues --    5.22414   5.25507   5.27654   5.30577   5.32132
 Alpha virt. eigenvalues --    5.32417   5.35011   5.36235   5.37037   5.38924
 Alpha virt. eigenvalues --    5.39487   5.40753   5.41722   5.43360   5.44477
 Alpha virt. eigenvalues --    5.46954   5.50381   5.53276   5.55379   5.57308
 Alpha virt. eigenvalues --    5.59160   5.61240   5.62178   5.63093   5.65304
 Alpha virt. eigenvalues --    5.67040   5.71005   5.72488   5.75382   5.78754
 Alpha virt. eigenvalues --    5.82363   5.84782   5.90109   5.91330   5.96868
 Alpha virt. eigenvalues --    5.99916   6.10601   6.20996   6.25257   6.29334
 Alpha virt. eigenvalues --    6.33360   6.54094   6.65461   6.84432   7.16375
 Alpha virt. eigenvalues --   10.22026  10.29712  10.70184  10.87201  11.05143
 Alpha virt. eigenvalues --   11.24848  11.35069  11.50945  11.61410  11.66947
 Alpha virt. eigenvalues --   11.86772  11.92368  11.99609  12.05869  12.13793
 Alpha virt. eigenvalues --   12.35682  12.43449  12.50566  12.66952  13.18068
 Alpha virt. eigenvalues --   13.56837
          Condensed to atoms (all electrons):
               1          2          3          4          5          6
     1  C    5.052670   0.343628   0.008247   0.008083   0.000182  -0.000002
     2  C    0.343628   4.957449   0.651396  -0.042064  -0.015588   0.000485
     3  C    0.008247   0.651396   4.422651   0.390814  -0.007351   0.005144
     4  C    0.008083  -0.042064   0.390814   4.984246   0.604786  -0.016796
     5  C    0.000182  -0.015588  -0.007351   0.604786   5.008986   0.400446
     6  C   -0.000002   0.000485   0.005144  -0.016796   0.400446   4.525157
     7  C    0.000000  -0.000017   0.001209  -0.022590  -0.021681   0.619187
     8  C    0.000000   0.000000  -0.000026   0.000161   0.004893  -0.007107
     9  C    0.000000  -0.000000   0.000001   0.000032  -0.000219  -0.003175
    10  C    0.000000   0.000000   0.000000  -0.000000  -0.000019   0.000882
    11  C   -0.000000  -0.000000   0.000000   0.000006   0.000154  -0.002129
    12  C    0.000000  -0.000000   0.000003   0.000134   0.000537  -0.036887
    13  C    0.000000  -0.000003  -0.000045   0.002552  -0.039554   0.416176
    14  C    0.000000   0.000001   0.000003   0.000312  -0.004206  -0.041203
    15  C    0.000000   0.000006  -0.000153  -0.003977  -0.001564  -0.000415
    16  C    0.000000  -0.000001  -0.000017   0.000013  -0.000044  -0.000003
    17  O    0.000000  -0.000000   0.000037  -0.000028  -0.000007   0.000003
    18  O    0.000000  -0.000001  -0.000068   0.000020   0.000001  -0.000000
    19  C   -0.000069   0.000226   0.001454   0.000108   0.000071  -0.000003
    20  C    0.000443   0.002539  -0.021082  -0.008684  -0.001910  -0.000037
    21  C   -0.024644  -0.043213   0.387832  -0.068699   0.002473  -0.000224
    22  H    0.372900  -0.016304   0.001076  -0.000154  -0.000010   0.000000
    23  H    0.365197  -0.018719  -0.009396  -0.000039   0.000004  -0.000000
    24  H    0.373373  -0.019906  -0.012325  -0.000353   0.000012   0.000000
    25  H   -0.069095   0.355926  -0.014251  -0.019223   0.005606  -0.000055
    26  H   -0.000219   0.004751  -0.042219   0.338399  -0.042736  -0.014156
    27  H   -0.000076   0.003209  -0.007029  -0.044098   0.343319  -0.039098
    28  H    0.000000  -0.000010   0.000385   0.004886  -0.016459  -0.030782
    29  H   -0.000000  -0.000000  -0.000000   0.000003   0.000240  -0.020193
    30  H    0.000000  -0.000000   0.000000   0.000004  -0.000002  -0.000187
    31  H    0.000000   0.000000   0.000000   0.000000  -0.000000  -0.000062
    32  H    0.000000  -0.000000   0.000000   0.000000   0.000000  -0.000563
    33  H    0.000000   0.000000  -0.000000   0.000001  -0.000231   0.001042
    34  H    0.000000   0.000000   0.000000  -0.000023  -0.000088   0.002470
    35  H   -0.000000  -0.000000   0.000001   0.000358   0.000276  -0.007690
    36  H   -0.000001   0.000044   0.001353   0.000751   0.007514  -0.001645
    37  H   -0.000000  -0.000001  -0.000005   0.000185   0.000215  -0.000245
    38  H    0.000000   0.000000   0.000001  -0.000007  -0.000009  -0.000004
    39  H    0.000000  -0.000000  -0.000018   0.000113   0.000010   0.000049
    40  H   -0.000009  -0.000129   0.000369   0.000286  -0.000019   0.000000
    41  H    0.000001   0.000020   0.000072  -0.000018  -0.000002   0.000000
    42  H    0.000002  -0.000372  -0.000525   0.001827   0.000057  -0.000008
    43  H   -0.000010   0.000941  -0.008868   0.002478   0.000317   0.000855
    44  H    0.006110  -0.016908  -0.014609   0.004323  -0.000105   0.000000
    45  H    0.000495   0.001141  -0.016423  -0.005777   0.000090   0.000021
               7          8          9         10         11         12
     1  C    0.000000   0.000000   0.000000   0.000000  -0.000000   0.000000
     2  C   -0.000017   0.000000  -0.000000   0.000000  -0.000000  -0.000000
     3  C    0.001209  -0.000026   0.000001   0.000000   0.000000   0.000003
     4  C   -0.022590   0.000161   0.000032  -0.000000   0.000006   0.000134
     5  C   -0.021681   0.004893  -0.000219  -0.000019   0.000154   0.000537
     6  C    0.619187  -0.007107  -0.003175   0.000882  -0.002129  -0.036887
     7  C    4.932712   0.433674  -0.041462   0.001096   0.001554  -0.011957
     8  C    0.433674   4.958159   0.560851  -0.010459  -0.032498  -0.006191
     9  C   -0.041462   0.560851   4.909232   0.405599  -0.038675  -0.005782
    10  C    0.001096  -0.010459   0.405599   5.007308   0.549463  -0.033248
    11  C    0.001554  -0.032498  -0.038675   0.549463   5.065785   0.380375
    12  C   -0.011957  -0.006191  -0.005782  -0.033248   0.380375   5.117591
    13  C   -0.036399  -0.012855  -0.000803  -0.008905  -0.041560   0.495176
    14  C   -0.000770  -0.002192  -0.000008  -0.000664   0.003204  -0.034963
    15  C   -0.000323   0.000214  -0.000006  -0.000008  -0.000052   0.001036
    16  C    0.000002   0.000002  -0.000000   0.000000   0.000000  -0.000033
    17  O    0.000000  -0.000000  -0.000000   0.000000  -0.000000   0.000000
    18  O   -0.000000   0.000000   0.000000   0.000000   0.000000  -0.000000
    19  C   -0.000000  -0.000000  -0.000000  -0.000000   0.000000   0.000000
    20  C    0.000002   0.000003   0.000000   0.000000  -0.000000  -0.000000
    21  C    0.000030   0.000001  -0.000000   0.000000  -0.000000  -0.000000
    22  H   -0.000000  -0.000000  -0.000000  -0.000000   0.000000  -0.000000
    23  H   -0.000000  -0.000000  -0.000000  -0.000000   0.000000   0.000000
    24  H    0.000000   0.000000   0.000000   0.000000  -0.000000  -0.000000
    25  H    0.000009   0.000000   0.000000   0.000000  -0.000000   0.000000
    26  H    0.008197   0.000006   0.000034   0.000001   0.000000   0.000008
    27  H    0.005415  -0.000083   0.000005   0.000001   0.000010   0.000427
    28  H    0.332164  -0.053414   0.003099   0.000015  -0.000731  -0.000173
    29  H   -0.048811   0.358935  -0.040381  -0.015651  -0.008168  -0.002264
    30  H   -0.012328  -0.049096   0.377987  -0.068393  -0.008329   0.000054
    31  H   -0.000078   0.002092  -0.057217   0.366957  -0.057055   0.002486
    32  H   -0.000560   0.003626   0.009975  -0.052386   0.354862  -0.033393
    33  H    0.000004   0.000189   0.000894   0.002068  -0.045022   0.348641
    34  H    0.000140  -0.000054   0.000006  -0.000007  -0.000501   0.001048
    35  H    0.000435  -0.002630   0.000245   0.000862   0.000412  -0.002198
    36  H    0.000145  -0.000063  -0.000000   0.000000  -0.000001   0.000151
    37  H   -0.000019  -0.000002   0.000000   0.000000   0.000001  -0.000006
    38  H    0.000002  -0.000001   0.000000   0.000000  -0.000000   0.000004
    39  H    0.000005   0.000001   0.000000   0.000000   0.000000   0.000001
    40  H    0.000000   0.000000   0.000000  -0.000000  -0.000000   0.000000
    41  H    0.000000   0.000000   0.000000   0.000000   0.000000  -0.000000
    42  H   -0.000001   0.000000  -0.000000  -0.000000  -0.000000   0.000000
    43  H   -0.000019  -0.000002   0.000000  -0.000000   0.000000  -0.000000
    44  H   -0.000000  -0.000000  -0.000000  -0.000000   0.000000   0.000000
    45  H   -0.000001   0.000000   0.000000  -0.000000  -0.000000  -0.000000
              13         14         15         16         17         18
     1  C    0.000000   0.000000   0.000000   0.000000   0.000000   0.000000
     2  C   -0.000003   0.000001   0.000006  -0.000001  -0.000000  -0.000001
     3  C   -0.000045   0.000003  -0.000153  -0.000017   0.000037  -0.000068
     4  C    0.002552   0.000312  -0.003977   0.000013  -0.000028   0.000020
     5  C   -0.039554  -0.004206  -0.001564  -0.000044  -0.000007   0.000001
     6  C    0.416176  -0.041203  -0.000415  -0.000003   0.000003  -0.000000
     7  C   -0.036399  -0.000770  -0.000323   0.000002   0.000000  -0.000000
     8  C   -0.012855  -0.002192   0.000214   0.000002  -0.000000   0.000000
     9  C   -0.000803  -0.000008  -0.000006  -0.000000  -0.000000   0.000000
    10  C   -0.008905  -0.000664  -0.000008   0.000000   0.000000   0.000000
    11  C   -0.041560   0.003204  -0.000052   0.000000  -0.000000   0.000000
    12  C    0.495176  -0.034963   0.001036  -0.000033   0.000000  -0.000000
    13  C    4.998118   0.346384  -0.016799   0.000699  -0.000009   0.000000
    14  C    0.346384   5.010742   0.332530  -0.023396   0.001738  -0.000039
    15  C   -0.016799   0.332530   4.970141   0.394678  -0.030809   0.002381
    16  C    0.000699  -0.023396   0.394678   4.792978   0.297515  -0.048916
    17  O   -0.000009   0.001738  -0.030809   0.297515   7.897952   0.119043
    18  O    0.000000  -0.000039   0.002381  -0.048916   0.119043   7.863817
    19  C   -0.000000   0.000020  -0.000907   0.000977  -0.050363   0.320022
    20  C   -0.000002   0.000043  -0.001377  -0.000685   0.000755  -0.046130
    21  C   -0.000000  -0.000001   0.000130  -0.000040  -0.000209   0.003213
    22  H    0.000000   0.000000  -0.000000  -0.000000  -0.000000   0.000000
    23  H    0.000000  -0.000000  -0.000000  -0.000000  -0.000000   0.000000
    24  H   -0.000000   0.000000   0.000000  -0.000000   0.000000  -0.000000
    25  H   -0.000002   0.000000   0.000002  -0.000000   0.000000  -0.000000
    26  H    0.000072   0.000017  -0.000081   0.000006  -0.000001   0.000000
    27  H   -0.003967   0.000729  -0.001034   0.000061  -0.000000  -0.000000
    28  H    0.008098  -0.000269   0.000011  -0.000001   0.000000  -0.000000
    29  H    0.005383  -0.001326  -0.000043  -0.000020   0.000000   0.000000
    30  H   -0.000342  -0.000008  -0.000000   0.000000  -0.000000   0.000000
    31  H    0.000127   0.000006   0.000000  -0.000000  -0.000000   0.000000
    32  H    0.002684  -0.000080   0.000000  -0.000000   0.000000  -0.000000
    33  H   -0.027088   0.000031  -0.000076  -0.000000  -0.000000   0.000000
    34  H   -0.023831   0.345947  -0.022884  -0.000417  -0.000023   0.000000
    35  H   -0.028311   0.375651  -0.047977  -0.006271   0.000031  -0.000008
    36  H   -0.003693  -0.026458   0.357734  -0.040259   0.005336   0.000180
    37  H    0.001382  -0.027016   0.357112  -0.030947   0.000609  -0.000059
    38  H   -0.000036   0.003486  -0.039145   0.358304  -0.023933   0.002854
    39  H    0.000035  -0.002333  -0.028071   0.352242  -0.018697   0.006953
    40  H    0.000000   0.000008   0.000229  -0.000096   0.007182  -0.017955
    41  H    0.000000   0.000000  -0.000001  -0.000378   0.002790  -0.014592
    42  H    0.000000   0.000001   0.000077  -0.000284   0.000085   0.002306
    43  H   -0.000060   0.000015  -0.000519   0.002200   0.002587  -0.004892
    44  H   -0.000000  -0.000000  -0.000003  -0.000001   0.000005   0.000141
    45  H   -0.000000   0.000000  -0.000002   0.000002  -0.000001  -0.000078
              19         20         21         22         23         24
     1  C   -0.000069   0.000443  -0.024644   0.372900   0.365197   0.373373
     2  C    0.000226   0.002539  -0.043213  -0.016304  -0.018719  -0.019906
     3  C    0.001454  -0.021082   0.387832   0.001076  -0.009396  -0.012325
     4  C    0.000108  -0.008684  -0.068699  -0.000154  -0.000039  -0.000353
     5  C    0.000071  -0.001910   0.002473  -0.000010   0.000004   0.000012
     6  C   -0.000003  -0.000037  -0.000224   0.000000  -0.000000   0.000000
     7  C   -0.000000   0.000002   0.000030  -0.000000  -0.000000   0.000000
     8  C   -0.000000   0.000003   0.000001  -0.000000  -0.000000   0.000000
     9  C   -0.000000   0.000000  -0.000000  -0.000000  -0.000000   0.000000
    10  C   -0.000000   0.000000   0.000000  -0.000000  -0.000000   0.000000
    11  C    0.000000  -0.000000  -0.000000   0.000000   0.000000  -0.000000
    12  C    0.000000  -0.000000  -0.000000  -0.000000   0.000000  -0.000000
    13  C   -0.000000  -0.000002  -0.000000   0.000000   0.000000  -0.000000
    14  C    0.000020   0.000043  -0.000001   0.000000  -0.000000   0.000000
    15  C   -0.000907  -0.001377   0.000130  -0.000000  -0.000000   0.000000
    16  C    0.000977  -0.000685  -0.000040  -0.000000  -0.000000  -0.000000
    17  O   -0.050363   0.000755  -0.000209  -0.000000  -0.000000   0.000000
    18  O    0.320022  -0.046130   0.003213   0.000000   0.000000  -0.000000
    19  C    4.770834   0.411544  -0.024258   0.000001   0.000038  -0.000005
    20  C    0.411544   4.908319   0.334014  -0.000014   0.000105   0.000003
    21  C   -0.024258   0.334014   5.123504   0.000309   0.001468   0.001716
    22  H    0.000001  -0.000014   0.000309   0.594295  -0.030095  -0.032499
    23  H    0.000038   0.000105   0.001468  -0.030095   0.585034  -0.032571
    24  H   -0.000005   0.000003   0.001716  -0.032499  -0.032571   0.586343
    25  H   -0.000003  -0.000085   0.008503  -0.007158   0.004304   0.004299
    26  H    0.000214  -0.000151  -0.004931   0.000003  -0.000010   0.000031
    27  H    0.000012  -0.000039   0.000158  -0.000000  -0.000009   0.000003
    28  H   -0.000000   0.000001   0.000002  -0.000000  -0.000000   0.000000
    29  H   -0.000000   0.000000  -0.000000  -0.000000   0.000000  -0.000000
    30  H   -0.000000   0.000000   0.000000  -0.000000  -0.000000   0.000000
    31  H   -0.000000   0.000000  -0.000000  -0.000000  -0.000000   0.000000
    32  H   -0.000000   0.000000   0.000000  -0.000000  -0.000000   0.000000
    33  H   -0.000000   0.000000   0.000000  -0.000000  -0.000000   0.000000
    34  H   -0.000000  -0.000001   0.000000  -0.000000  -0.000000   0.000000
    35  H    0.000007  -0.000003  -0.000001   0.000000   0.000000  -0.000000
    36  H    0.000566  -0.001469  -0.000380   0.000000  -0.000001   0.000000
    37  H    0.000039   0.000095  -0.000001   0.000000   0.000000  -0.000000
[...]
     41          1           0        1.554122    1.235118    4.392429
     42          1           0        2.913200   -0.723728    4.823304
     43          1           0        4.198519   -0.152941    3.777003
     44          1           0        1.530037   -0.670389    2.457802
     45          1           0        2.461128   -2.058976    2.964276
 ---------------------------------------------------------------------
                    Distance matrix (angstroms):
                    1          2          3          4          5
     1  C    0.000000
     2  C    1.509390   0.000000
     3  C    2.551346   1.342122   0.000000
     4  C    3.895659   2.455786   1.478208   0.000000
     5  C    4.523910   3.062476   2.488206   1.340784   0.000000
     6  C    5.959761   4.478916   3.894543   2.534539   1.478486
     7  C    6.537531   5.036530   4.515258   3.122948   2.440719
     8  C    7.939327   6.449630   5.970385   4.567910   3.747313
     9  C    8.279090   6.853102   6.603113   5.316268   4.304271
    10  C    9.248127   7.848582   7.578745   6.295566   5.141054
    11  C    9.088936   7.704784   7.327623   6.059939   4.840444
    12  C    8.158849   6.779426   6.256825   5.009130   3.820371
    13  C    6.970324   5.568158   4.940762   3.681987   2.556816
    14  C    6.952587   5.662313   4.825126   3.747455   2.938869
    15  C    6.205993   5.130589   4.424662   3.777504   3.071491
    16  C    6.507364   5.615587   4.735503   4.344467   4.067456
    17  O    5.861346   5.269549   4.583091   4.639578   4.515833
    18  O    5.752845   5.347789   4.542592   4.855678   5.119412
    19  C    4.445997   4.164577   3.419767   4.073308   4.601514
    20  C    4.295023   3.674755   2.563685   3.021086   3.852834
    21  C    3.079429   2.518807   1.520587   2.541174   3.668740
    22  H    1.092742   2.153642   3.418409   4.602012   5.029525
    23  H    1.096681   2.177269   2.915012   4.297687   4.861243
    24  H    1.096463   2.175379   2.935046   4.327314   5.182945
    25  H    2.213459   1.087178   2.077027   2.617525   2.842733
    26  H    4.679343   3.313445   2.202283   1.090314   2.095954
    27  H    4.182225   2.868680   2.677580   2.079586   1.088668
    28  H    6.099649   4.633464   4.189377   2.927505   2.640291
    29  H    8.682889   7.177390   6.540341   5.079777   4.317506
    30  H    7.759910   6.407211   6.364146   5.227071   4.227056
    31  H   10.133158   8.767947   8.578821   7.327171   6.165008
    32  H    9.952023   8.609112   8.240259   7.011341   5.768940
    33  H    8.760357   7.438267   6.854761   5.675339   4.534459
    34  H    8.007053   6.743561   5.891964   4.818167   4.016665
    35  H    6.837667   5.524749   4.492651   3.359606   2.913426
    36  H    5.151560   4.085425   3.501858   3.023577   2.351856
    37  H    6.757446   5.772033   5.253399   4.679124   3.806867
    38  H    7.586220   6.712593   5.828239   5.371902   5.020376
    39  H    6.420205   5.476411   4.404422   3.962652   3.963205
    40  H    3.779290   3.594049   3.159755   3.947822   4.308426
    41  H    4.699639   4.724071   4.086135   4.937836   5.597042
    42  H    5.144286   4.596595   3.433399   3.781810   4.701433
    43  H    4.728404   3.796162   2.585182   2.485557   3.098931
    44  H    2.589523   2.620077   2.147644   3.458214   4.496936
    45  H    3.712369   3.156160   2.149915   2.885557   4.176538
                    6          7          8          9         10
     6  C    0.000000
     7  C    1.353585   0.000000
     8  C    2.379951   1.475678   0.000000
     9  C    3.036349   2.394680   1.343145   0.000000
    10  C    3.818454   3.556133   2.407875   1.463926   0.000000
    11  C    3.550435   3.735395   2.863125   2.386495   1.348406
    12  C    2.641607   3.274689   2.929954   2.998960   2.588212
    13  C    1.513419   2.527278   2.826184   3.284030   3.457291
    14  C    2.518000   3.674785   4.179241   4.797105   4.892664
    15  C    3.316062   4.643498   5.374851   5.829297   5.937695
    16  C    4.499240   5.753644   6.570148   7.188352   7.332575
    17  O    5.298731   6.584462   7.549009   8.074887   8.289180
    18  O    6.051169   7.226074   8.320684   8.993263   9.357369
    19  C    5.778863   6.846968   8.103145   8.781948   9.347300
    20  C    4.980621   5.859402   7.173256   8.005675   8.728324
    21  C    4.977852   5.639761   7.076141   7.852663   8.775990
    22  H    6.392822   6.911042   8.242846   8.421567   9.380620
    23  H    6.331389   7.086758   8.474436   8.820735   9.672486
    24  H    6.596524   7.047872   8.487662   8.926641   9.985444
    25  H    4.100791   4.541112   5.873170   6.116651   7.137485
    26  H    2.788124   3.065295   4.466151   5.433770   6.472805
    27  H    2.170342   3.225438   4.378146   4.650756   5.335443
    28  H    2.119379   1.086834   2.274119   3.086060   4.419707
    29  H    2.879537   2.208247   1.087019   2.096449   2.622536
    30  H    3.239161   2.631867   2.112449   1.091057   2.191034
    31  H    4.881011   4.551243   3.337297   2.253031   1.087698
    32  H    4.541309   4.814336   3.911200   3.375048   2.079245
    33  H    3.512688   4.271243   3.937607   4.025882   3.384681
    34  H    3.416851   4.434869   4.644144   5.212471   5.034227
    35  H    2.602956   3.575158   4.242268   5.119619   5.428306
    36  H    3.021692   4.354285   5.301171   5.712027   6.026148
    37  H    3.933649   5.260623   5.815809   6.052988   5.937774
    38  H    5.241714   6.469898   7.113182   7.712260   7.678331
    39  H    4.412575   5.535597   6.436069   7.232069   7.526698
    40  H    5.583719   6.696435   7.957429   8.488264   9.041922
    41  H    6.818068   7.834272   9.126757   9.826992  10.428777
    42  H    5.686463   6.463637   7.737304   8.683519   9.413637
    43  H    4.053804   4.990747   6.230571   7.084036   7.744707
    44  H    5.889778   6.577115   8.026020   8.718547   9.637576
    45  H    5.338314   5.782421   7.214830   8.106813   9.127168
                   11         12         13         14         15
    11  C    0.000000
    12  C    1.478850   0.000000
    13  C    2.682651   1.367351   0.000000
    14  C    3.928274   2.454287   1.534580   0.000000
    15  C    4.955154   3.528926   2.638083   1.539315   0.000000
    16  C    6.318963   4.853302   3.942763   2.537032   1.528160
    17  O    7.328230   5.908979   4.956503   3.741113   2.380584
    18  O    8.468246   7.021947   5.939371   4.693439   3.558367
    19  C    8.628004   7.240987   6.021724   5.028809   3.971833
    20  C    8.140921   6.788775   5.468613   4.614906   3.991684
    21  C    8.404620   7.197261   5.840480   5.362028   4.848825
    22  H    9.306757   8.503951   7.411586   7.553333   6.802363
    23  H    9.369497   8.339753   7.154826   6.935866   5.985082
    24  H    9.878352   8.938516   7.698913   7.647674   6.984915
    25  H    7.117956   6.357677   5.259258   5.636982   5.242874
    26  H    6.286708   5.252899   3.940334   3.958154   4.287789
    27  H    4.966467   3.985369   2.877869   3.227698   2.930219
    28  H    4.757389   4.345020   3.509976   4.510166   5.321187
    29  H    2.827101   2.846454   2.920044   4.071885   5.456673
    30  H    3.107820   3.646244   3.757687   5.274732   6.085569
    31  H    2.114329   3.532772   4.510278   5.917168   6.919844
    32  H    1.090047   2.127272   3.477536   4.486517   5.425115
    33  H    2.079408   1.087852   2.039398   2.461153   3.434645
    34  H    3.902110   2.496136   2.146750   1.093365   2.152584
    35  H    4.616110   3.211030   2.136961   1.100065   2.152332
    36  H    5.223848   3.891570   2.822856   2.177930   1.088322
    37  H    4.851727   3.540459   3.016889   2.184601   1.096040
    38  H    6.548150   5.108231   4.429089   2.942808   2.196484
    39  H    6.609107   5.134439   4.081298   2.682459   2.172019
    40  H    8.358617   7.039899   5.860942   5.043229   3.835234
    41  H    9.723895   8.336799   7.111179   6.103554   5.045141
    42  H    8.815487   7.443345   6.137353   5.182955   4.716437
    43  H    7.119723   5.751340   4.438258   3.558595   3.113016
    44  H    9.267032   8.070788   6.735718   6.245262   5.540775
    45  H    8.844895   7.679312   6.313264   5.890962   5.607926
                   16         17         18         19         20
    16  C    0.000000
    17  O    1.432803   0.000000
    18  O    2.361963   1.446630   0.000000
    19  C    3.186013   2.319045   1.429319   0.000000
    20  C    3.418541   3.168031   2.486990   1.537744   0.000000
    21  C    4.666581   4.364980   3.850539   2.585430   1.549670
    22  H    7.258546   6.595889   6.630045   5.387230   5.326735
    23  H    6.113564   5.266620   5.089969   3.813024   4.021679
    24  H    7.158543   6.533318   6.214758   4.821481   4.508631
    25  H    5.997023   5.784340   6.085077   5.028146   4.531861
    26  H    4.691089   5.173739   5.232818   4.515699   3.199736
    27  H    4.049066   4.249604   5.017414   4.509580   4.106916
    28  H    6.324665   7.021483   7.506045   6.932624   5.830153
    29  H    6.535021   7.662618   8.419748   8.349085   7.400356
    30  H    7.492261   8.215576   9.127288   8.784846   8.055082
    31  H    8.332124   9.269715  10.380494  10.383206   9.796433
    32  H    6.738610   7.756441   8.974067   9.268917   8.898795
    33  H    4.614231   5.734462   6.912851   7.343103   7.038504
    34  H    2.857160   4.185797   5.180193   5.751932   5.438662
    35  H    2.625548   3.869618   4.505489   4.747681   4.063057
    36  H    2.117365   2.439828   3.488106   3.515478   3.505822
    37  H    2.162913   2.742060   4.122575   4.664758   4.928982
    38  H    1.100129   2.091537   2.943249   4.045645   4.367678
    39  H    1.090616   2.058116   2.338256   2.975450   2.800857
    40  H    3.397674   2.353116   2.059749   1.095692   2.189953
    41  H    4.148704   3.179751   2.000541   1.097371   2.181070
    42  H    3.912633   3.786005   2.822236   2.158917   1.094803
    43  H    2.708683   2.879415   2.636281   2.147962   1.090223
    44  H    5.288220   4.705173   4.064395   2.651504   2.181973
    45  H    5.390461   5.253872   4.628714   3.448226   2.173100
                   21         22         23         24         25
    21  C    0.000000
    22  H    4.144734   0.000000
    23  H    3.096249   1.762893   0.000000
    24  H    3.119003   1.761314   1.761558   0.000000
    25  H    3.484484   2.373350   2.972709   2.938820   0.000000
    26  H    2.809901   5.446975   5.116676   4.912237   3.525523
    27  H    3.925134   4.550620   4.412367   5.020334   2.547159
    28  H    5.345764   6.456998   6.778505   6.487525   4.126858
    29  H    7.489251   9.073385   9.150386   9.209606   6.708126
    30  H    7.729519   7.780742   8.362892   8.425137   5.555746
    31  H    9.815368  10.189552  10.577005  10.886234   7.995130
    32  H    9.272020  10.153075  10.162121  10.783761   8.037774
    33  H    7.651248   9.147822   8.821364   9.564050   7.110942
    34  H    6.332220   8.606535   7.936666   8.707733   6.717748
    35  H    4.843752   7.550931   6.865169   7.397682   5.626547
    36  H    4.093885   5.720053   4.972524   5.966666   4.195325
    37  H    5.757080   7.234707   6.472959   7.629086   5.784624
    38  H    5.703162   8.324666   7.149873   8.238719   7.069409
    39  H    4.140185   7.274959   6.107897   6.931441   5.949601
    40  H    2.737633   4.604642   3.059772   4.348518   4.386740
    41  H    2.986273   5.655975   3.955760   4.899646   5.687665
    42  H    2.189698   6.213528   4.881944   5.179645   5.479545
    43  H    2.153709   5.680769   4.571553   5.084399   4.446731
    44  H    1.094908   3.678688   2.404472   2.487285   3.699633
    45  H    1.098263   4.755448   3.911215   3.469421   4.044911
                   26         27         28         29         30
    26  H    0.000000
    27  H    3.046887   0.000000
    28  H    2.773477   3.469077   0.000000
    29  H    4.834738   5.016316   3.047321   0.000000
    30  H    5.488256   4.421694   3.053387   3.070012   0.000000
    31  H    7.519353   6.293462   5.332704   3.513947   2.748526
    32  H    7.263266   5.802562   5.844933   3.742536   4.050580
    33  H    5.916669   4.623566   5.339512   3.670527   4.696555
    34  H    4.942546   4.268642   5.357216   4.318227   5.831151
    35  H    3.302598   3.497522   4.266237   4.059591   5.629861
    36  H    3.742614   2.013213   4.868152   5.584751   5.786613
    37  H    5.281757   3.427064   6.016879   5.908561   6.281145
    38  H    5.638412   5.010018   7.138331   6.941233   8.117406
    39  H    4.088241   4.204729   6.007266   6.350839   7.578275
    40  H    4.627343   3.978407   6.780701   8.318473   8.380566
    41  H    5.314524   5.504415   7.841361   9.377037   9.802019
    42  H    3.673321   5.090584   6.408935   7.855699   8.815027
    43  H    2.629426   3.474897   5.101985   6.397700   7.220723
    44  H    3.845972   4.553076   6.243488   8.496037   8.506717
    45  H    2.761708   4.643818   5.356153   7.585191   8.022939
                   31         32         33         34         35
    31  H    0.000000
    32  H    2.384421   0.000000
    33  H    4.181744   2.197127   0.000000
    34  H    5.983598   4.230398   2.058060   0.000000
    35  H    6.490592   5.269770   3.332755   1.747774   0.000000
    36  H    7.016490   5.825498   4.059417   3.057733   2.602190
    37  H    6.825668   5.139077   3.255246   2.445073   3.061850
    38  H    8.633436   6.813236   4.640520   2.841502   3.114709
    39  H    8.571583   7.132693   5.010399   3.091939   2.303851
    40  H   10.039052   8.994266   7.194210   5.837553   4.959519
    41  H   11.465770  10.365348   8.427979   6.793994   5.772916
    42  H   10.495727   9.564977   7.642880   5.895180   4.469177
    43  H    8.819950   7.869506   5.994572   4.394353   2.975083
    44  H   10.654676  10.113752   8.505232   7.208534   5.815113
    45  H   10.170975   9.760494   8.182537   6.837202   5.212644
                   36         37         38         39         40
    36  H    0.000000
    37  H    1.751693   0.000000
    38  H    3.044404   2.465987   0.000000
    39  H    2.571331   3.067142   1.764703   0.000000
    40  H    3.172888   4.378175   4.327210   3.466124   0.000000
    41  H    4.601296   5.694910   4.894108   3.895796   1.774560
    42  H    4.404653   5.688056   4.701585   3.093197   3.071443
    43  H    2.738408   4.134868   3.689246   2.024455   2.619055
    44  H    4.725279   6.347684   6.310508   4.876134   2.648678
    45  H    4.934592   6.588325   6.378658   4.696827   3.777966
                   41         42         43         44         45
    41  H    0.000000
    42  H    2.422772   0.000000
    43  H    3.049310   1.752880   0.000000
    44  H    2.715569   2.740727   3.021396   0.000000
    45  H    3.703152   2.333075   2.704074   1.746889   0.000000
 Stoichiometry    C19H24O2
 Framework group  C1[X(C19H24O2)]
 Deg. of freedom   129
 Full point group                 C1      NOp   1
 Largest Abelian subgroup         C1      NOp   1
 Largest concise Abelian subgroup C1      NOp   1
                         Standard orientation:                         
 ---------------------------------------------------------------------
 Center     Atomic      Atomic             Coordinates (Angstroms)
 Number     Number       Type             X           Y           Z
 ---------------------------------------------------------------------
      1          6           0       -3.364653   -3.194567   -1.518407
      2          6           0       -2.093192   -2.712646   -0.863121
      3          6           0       -1.993891   -1.908004    0.206451
      4          6           0       -0.674684   -1.477882    0.716144
      5          6           0        0.298392   -0.977208   -0.058550
      6          6           0        1.675459   -0.609138    0.334045
      7          6           0        2.436192   -1.518255    0.987485
      8          6           0        3.870906   -1.179508    1.054364
      9          6           0        4.583061   -1.387465   -0.065290
     10          6           0        5.361370   -0.270789   -0.604132
     11          6           0        4.708923    0.903311   -0.722454
     12          6           0        3.333612    1.321200   -0.374765
     13          6           0        2.134969    0.799613    0.026296
     14          6           0        1.052341    1.830221    0.373716
     15          6           0       -0.118386    2.015797   -0.608348
     16          6           0       -1.279941    2.770310    0.037230
     17          8           0       -2.432713    2.545349   -0.783400
     18          8           0       -3.601870    2.337317    0.042754
     19          6           0       -3.885184    0.936359    0.040885
     20          6           0       -3.175930    0.157043    1.160832
     21          6           0       -3.201823   -1.379882    0.964191
     22          1           0       -3.139185   -3.812505   -2.390991
     23          1           0       -3.997314   -2.366750   -1.860707
     24          1           0       -3.975490   -3.802940   -0.840917
     25          1           0       -1.165362   -3.074854   -1.298888
     26          1           0       -0.520820   -1.512247    1.795000
     27          1           0        0.083946   -0.862358   -1.119691
     28          1           0        2.020165   -2.485287    1.257630
     29          1           0        4.181731   -0.391036    1.735032
     30          1           0        4.290678   -2.176004   -0.760362
     31          1           0        6.358508   -0.384569   -1.023486
     32          1           0        5.272762    1.734806   -1.145424
     33          1           0        3.291510    2.403931   -0.471421
     34          1           0        1.535029    2.799451    0.525549
     35          1           0        0.636371    1.549175    1.352554
     36          1           0       -0.508642    1.052367   -0.930759
     37          1           0        0.210447    2.539691   -1.513173
     38          1           0       -1.077084    3.847220    0.134166
     39          1           0       -1.486292    2.387441    1.037367
     40          1           0       -3.638394    0.531200   -0.946779
     41          1           0       -4.974304    0.886989    0.165795
     42          1           0       -3.621297    0.430115    2.122952
     43          1           0       -2.134018    0.476009    1.196408
     44          1           0       -4.116142   -1.674891    0.439010
     45          1           0       -3.255388   -1.867351    1.946884
 ---------------------------------------------------------------------
 Rotational constants (GHZ):           0.4641789           0.1831022           0.1437444
 Standard basis: 6-31G(2df,p) (6D, 7F)
 There are   771 symmetry adapted cartesian basis functions of A   symmetry.
 There are   708 symmetry adapted basis functions of A   symmetry.
   708 basis functions,  1092 primitive gaussians,   771 cartesian basis functions
    77 alpha electrons       77 beta electrons
       nuclear repulsion energy      1650.6450119181 Hartrees.
 NAtoms=   45 NActive=   45 NUniq=   45 SFac= 1.00D+00 NAtFMM=   60 NAOKFM=F Big=F
 Integral buffers will be    131072 words long.
 Raffenetti 2 integral format.
 Two-electron integral symmetry is turned on.
 One-electron integrals computed using PRISM.
 PrsmSu:  requested number of processors reduced to:  12 ShMem   1 Linda.
 NBasis=   708 RedAO= T EigKep=  3.26D-04  NBF=   708
 NBsUse=   708 1.00D-06 EigRej= -1.00D+00 NBFU=   708
 Initial guess from the checkpoint file:  "CCdC1CdCC2dCCdCCdCCdC2CCCOOCCC1.chk"
 B after Tr=    -0.000000   -0.000000   -0.000000
         Rot=    0.999945   -0.010262    0.000944    0.002055 Ang=  -1.20 deg.
slurmstepd: error: *** JOB 27448868 ON lewis4-r630-hpc4-node231 CANCELLED AT 2023-05-20T20:05:39 ***
