### Starting Gaussian ###
 Entering Gaussian System, Link 0=g16
 Initial command:
 /cluster/software/gaussian/gaussian-16-A.03/avx2/g16/l1.exe "/local/scratch/cz9n3/Gau-1094.inp" -scrdir="/local/scratch/cz9n3/"
 Entering Link 1 = /cluster/software/gaussian/gaussian-16-A.03/avx2/g16/l1.exe PID=      1095.
  
 Copyright (c) 1988,1990,1992,1993,1995,1998,2003,2009,2016,
            Gaussian, Inc.  All Rights Reserved.
  
 This is part of the Gaussian(R) 16 program.  It is based on
 the Gaussian(R) 09 system (copyright 2009, Gaussian, Inc.),
 the Gaussian(R) 03 system (copyright 2003, Gaussian, Inc.),
 the Gaussian(R) 98 system (copyright 1998, Gaussian, Inc.),
 the Gaussian(R) 94 system (copyright 1995, Gaussian, Inc.),
 the Gaussian 92(TM) system (copyright 1992, Gaussian, Inc.),
 the Gaussian 90(TM) system (copyright 1990, Gaussian, Inc.),
 the Gaussian 88(TM) system (copyright 1988, Gaussian, Inc.),
 the Gaussian 86(TM) system (copyright 1986, Carnegie Mellon
 University), and the Gaussian 82(TM) system (copyright 1983,
 Carnegie Mellon University). Gaussian is a federally registered
 trademark of Gaussian, Inc.
  
 This software contains proprietary and confidential information,
 including trade secrets, belonging to Gaussian, Inc.
  
 This software is provided under written license and may be
 used, copied, transmitted, or stored only in accord with that
 written license.
  
 The following legend is applicable only to US Government
 contracts under FAR:
  
                    RESTRICTED RIGHTS LEGEND
  
 Use, reproduction and disclosure by the US Government is
 subject to restrictions as set forth in subparagraphs (a)
 and (c) of the Commercial Computer Software - Restricted
 Rights clause in FAR 52.227-19.
  
 Gaussian, Inc.
 340 Quinnipiac St., Bldg. 40, Wallingford CT 06492
  
  
 ---------------------------------------------------------------
 Warning -- This program may not be used in any manner that
 competes with the business of Gaussian, Inc. or will provide
 assistance to any competitor of Gaussian, Inc.  The licensee
 of this program is prohibited from giving any competitor of
 Gaussian, Inc. access to this program.  By using this program,
 the user acknowledges that Gaussian, Inc. is engaged in the
 business of creating and licensing software in the field of
 computational chemistry and represents and warrants to the
 licensee that it is not a competitor of Gaussian, Inc. and that
 it will not use this program in any manner prohibited above.
 ---------------------------------------------------------------
  

 Cite this work as:
 Gaussian 16, Revision A.03,
 M. J. Frisch, G. W. Trucks, H. B. Schlegel, G. E. Scuseria, 
 M. A. Robb, J. R. Cheeseman, G. Scalmani, V. Barone, 
 G. A. Petersson, H. Nakatsuji, X. Li, M. Caricato, A. V. Marenich, 
 J. Bloino, B. G. Janesko, R. Gomperts, B. Mennucci, H. P. Hratchian, 
 J. V. Ortiz, A. F. Izmaylov, J. L. Sonnenberg, D. Williams-Young, 
 F. Ding, F. Lipparini, F. Egidi, J. Goings, B. Peng, A. Petrone, 
 T. Henderson, D. Ranasinghe, V. G. Zakrzewski, J. Gao, N. Rega, 
 G. Zheng, W. Liang, M. Hada, M. Ehara, K. Toyota, R. Fukuda, 
 J. Hasegawa, M. Ishida, T. Nakajima, Y. Honda, O. Kitao, H. Nakai, 
 T. Vreven, K. Throssell, J. A. Montgomery, Jr., J. E. Peralta, 
 F. Ogliaro, M. J. Bearpark, J. J. Heyd, E. N. Brothers, K. N. Kudin, 
 V. N. Staroverov, T. A. Keith, R. Kobayashi, J. Normand, 
 K. Raghavachari, A. P. Rendell, J. C. Burant, S. S. Iyengar, 
 J. Tomasi, M. Cossi, J. M. Millam, M. Klene, C. Adamo, R. Cammi, 
 J. W. Ochterski, R. L. Martin, K. Morokuma, O. Farkas, 
 J. B. Foresman, and D. J. Fox, Gaussian, Inc., Wallingford CT, 2016.
 
 ******************************************
 Gaussian 16:  ES64L-G16RevA.03 25-Dec-2016
                19-May-2023 
 ******************************************
 %chk=CCN1CC2dCCdCNOC2dCCdCCdN1.chk
 %NProcShared=20
 Will use up to   20 processors via shared memory.
 -----------------------------
 # opt freq b3lyp/6-31g(2df,p)
 -----------------------------
 1/18=20,19=15,26=3,38=1/1,3;
 2/9=110,12=2,17=6,18=5,40=1/2;
 3/5=1,6=6,7=104,11=2,25=1,30=1,71=1,74=-5/1,2,3;
 4//1;
 5/5=2,38=5/2;
 6/7=2,8=2,9=2,10=2,28=1/1;
 7//1,2,3,16;
 1/18=20,19=15,26=3/3(2);
 2/9=110/2;
 99//99;
 2/9=110/2;
 3/5=1,6=6,7=104,11=2,25=1,30=1,71=1,74=-5/1,2,3;
 4/5=5,16=3,69=1/1;
 5/5=2,38=5/2;
 7//1,2,3,16;
 1/18=20,19=15,26=3/3(-5);
 2/9=110/2;
 6/7=2,8=2,9=2,10=2,19=2,28=1/1;
 99/9=1/99;
 -------------------
 Title Card Required
 -------------------
 Symbolic Z-matrix:
 Charge =  0 Multiplicity = 1
 C                     1.62529   0.43902  -0.10938 
 C                     3.36414   0.69356  -0.43116 
 N                     4.63498   1.87325  -0.1446 
 C                     5.12688   1.41401   1.11545 
 C                     4.96922   2.6211    1.98089 
 C                     3.75439   2.87987   2.5447 
 C                     3.62613   3.79396   3.62513 
 C                     4.31522   4.96965   3.74549 
 N                     5.17421   5.54164   2.87245 
 O                     5.70356   4.91306   1.74613 
 C                     6.02173   3.6064    2.07371 
 C                     7.3112    3.1395    2.04862 
 C                     8.43063   3.80591   1.45929 
 C                     8.61976   2.98501   0.40832 
 C                     7.28616   2.94054  -0.64456 
 N                     5.97668   2.56543  -0.94955 
 H                     1.30795  -0.53995  -0.56606 
 H                     0.93652   1.14975  -0.5865 
 H                     1.26666   0.26205   0.93418 
 H                     3.46535   0.34417  -1.44957 
 H                     3.65678  -0.15799   0.2189 
 H                     6.0392    0.98315   0.69291 
 H                     4.74359   0.51567   1.61399 
 H                     2.89198   2.26463   2.3111 
 H                     3.0286    3.44642   4.44777 
 H                     4.27273   5.4815    4.68853 
 H                     5.40546   6.53072   2.98438 
 H                     7.38814   2.05627   1.98679 
 H                     8.20417   4.85491   1.22028 
 H                     9.49269   2.30564   0.47758 
 H                     7.69592   3.7197   -1.36101 
 
 Add virtual bond connecting atoms N3         and C2         Dist= 3.32D+00.
 Add virtual bond connecting atoms H23        and H21        Dist= 3.58D+00.

 GradGradGradGradGradGradGradGradGradGradGradGradGradGradGradGradGradGrad
 Berny optimization.
 Initialization pass.
                           ----------------------------
                           !    Initial Parameters    !
                           ! (Angstroms and Degrees)  !
 --------------------------                            --------------------------
 ! Name  Definition              Value          Derivative Info.                !
 --------------------------------------------------------------------------------
 ! R1    R(1,2)                  1.7866         estimate D2E/DX2                !
 ! R2    R(1,17)                 1.1259         estimate D2E/DX2                !
 ! R3    R(1,18)                 1.0987         estimate D2E/DX2                !
 ! R4    R(1,19)                 1.1176         estimate D2E/DX2                !
 ! R5    R(2,3)                  1.7575         estimate D2E/DX2                !
 ! R6    R(2,20)                 1.0814         estimate D2E/DX2                !
 ! R7    R(2,21)                 1.1106         estimate D2E/DX2                !
 ! R8    R(3,4)                  1.4285         estimate D2E/DX2                !
 ! R9    R(4,5)                  1.4936         estimate D2E/DX2                !
 ! R10   R(4,22)                 1.0939         estimate D2E/DX2                !
 ! R11   R(4,23)                 1.0966         estimate D2E/DX2                !
 ! R12   R(5,6)                  1.3641         estimate D2E/DX2                !
 ! R13   R(5,11)                 1.4447         estimate D2E/DX2                !
 ! R14   R(6,7)                  1.421          estimate D2E/DX2                !
 ! R15   R(6,24)                 1.0848         estimate D2E/DX2                !
 ! R16   R(7,8)                  1.3681         estimate D2E/DX2                !
 ! R17   R(7,25)                 1.0745         estimate D2E/DX2                !
 ! R18   R(8,9)                  1.3518         estimate D2E/DX2                !
 ! R19   R(8,26)                 1.0738         estimate D2E/DX2                !
 ! R20   R(9,10)                 1.3942         estimate D2E/DX2                !
 ! R21   R(9,27)                 1.0219         estimate D2E/DX2                !
 ! R22   R(10,11)                1.3842         estimate D2E/DX2                !
 ! R23   R(11,12)                1.3716         estimate D2E/DX2                !
 ! R24   R(12,13)                1.4299         estimate D2E/DX2                !
 ! R25   R(12,28)                1.0877         estimate D2E/DX2                !
 ! R26   R(13,14)                1.3469         estimate D2E/DX2                !
 ! R27   R(13,29)                1.0995         estimate D2E/DX2                !
 ! R28   R(14,15)                1.6997         estimate D2E/DX2                !
 ! R29   R(14,30)                1.1083         estimate D2E/DX2                !
 ! R30   R(15,16)                1.3959         estimate D2E/DX2                !
 ! R31   R(15,31)                1.135          estimate D2E/DX2                !
 ! R32   R(21,23)                1.8924         estimate D2E/DX2                !
 ! A1    A(2,1,17)             108.9745         estimate D2E/DX2                !
 ! A2    A(2,1,18)             116.0884         estimate D2E/DX2                !
 ! A3    A(2,1,19)             120.2032         estimate D2E/DX2                !
 ! A4    A(17,1,18)            102.1005         estimate D2E/DX2                !
 ! A5    A(17,1,19)             98.6627         estimate D2E/DX2                !
 ! A6    A(18,1,19)            107.8641         estimate D2E/DX2                !
 ! A7    A(1,2,3)              140.3569         estimate D2E/DX2                !
 ! A8    A(1,2,20)             102.3962         estimate D2E/DX2                !
 ! A9    A(1,2,21)              92.3954         estimate D2E/DX2                !
 ! A10   A(3,2,20)             107.6221         estimate D2E/DX2                !
 ! A11   A(3,2,21)             103.2207         estimate D2E/DX2                !
 ! A12   A(20,2,21)            106.1911         estimate D2E/DX2                !
 ! A13   A(2,3,4)              100.1967         estimate D2E/DX2                !
 ! A14   A(3,4,5)              102.412          estimate D2E/DX2                !
 ! A15   A(3,4,22)              94.1918         estimate D2E/DX2                !
 ! A16   A(3,4,23)             122.9587         estimate D2E/DX2                !
 ! A17   A(5,4,22)             129.0642         estimate D2E/DX2                !
 ! A18   A(5,4,23)             111.2075         estimate D2E/DX2                !
 ! A19   A(22,4,23)             98.306          estimate D2E/DX2                !
 ! A20   A(4,5,6)              119.1315         estimate D2E/DX2                !
 ! A21   A(4,5,11)             120.7635         estimate D2E/DX2                !
 ! A22   A(6,5,11)             119.5305         estimate D2E/DX2                !
 ! A23   A(5,6,7)              121.1095         estimate D2E/DX2                !
 ! A24   A(5,6,24)             120.758          estimate D2E/DX2                !
 ! A25   A(7,6,24)             117.1796         estimate D2E/DX2                !
 ! A26   A(6,7,8)              125.0461         estimate D2E/DX2                !
 ! A27   A(6,7,25)             115.1019         estimate D2E/DX2                !
 ! A28   A(8,7,25)             119.3874         estimate D2E/DX2                !
 ! A29   A(7,8,9)              128.8224         estimate D2E/DX2                !
 ! A30   A(7,8,26)             117.8374         estimate D2E/DX2                !
 ! A31   A(9,8,26)             112.9943         estimate D2E/DX2                !
 ! A32   A(8,9,10)             124.9066         estimate D2E/DX2                !
 ! A33   A(8,9,27)             118.8564         estimate D2E/DX2                !
 ! A34   A(10,9,27)            116.0353         estimate D2E/DX2                !
 ! A35   A(9,10,11)            108.7648         estimate D2E/DX2                !
 ! A36   A(5,11,10)            117.4613         estimate D2E/DX2                !
 ! A37   A(5,11,12)            116.8437         estimate D2E/DX2                !
 ! A38   A(10,11,12)           122.2156         estimate D2E/DX2                !
 ! A39   A(11,12,13)           125.795          estimate D2E/DX2                !
 ! A40   A(11,12,28)           113.9872         estimate D2E/DX2                !
 ! A41   A(13,12,28)           112.6644         estimate D2E/DX2                !
 ! A42   A(12,13,14)            98.4808         estimate D2E/DX2                !
 ! A43   A(12,13,29)           111.9018         estimate D2E/DX2                !
 ! A44   A(14,13,29)           116.1545         estimate D2E/DX2                !
 ! A45   A(13,14,15)           112.8994         estimate D2E/DX2                !
 ! A46   A(13,14,30)           115.8123         estimate D2E/DX2                !
 ! A47   A(15,14,30)           129.8399         estimate D2E/DX2                !
 ! A48   A(14,15,16)           151.4521         estimate D2E/DX2                !
 ! A49   A(14,15,31)            95.1517         estimate D2E/DX2                !
 ! A50   A(16,15,31)           112.6576         estimate D2E/DX2                !
 ! A51   A(2,21,23)            108.0526         estimate D2E/DX2                !
 ! A52   A(4,23,21)             99.0448         estimate D2E/DX2                !
 ! D1    D(17,1,2,3)           178.8036         estimate D2E/DX2                !
 ! D2    D(17,1,2,20)           40.1165         estimate D2E/DX2                !
 ! D3    D(17,1,2,21)          -67.0376         estimate D2E/DX2                !
 ! D4    D(18,1,2,3)            64.2734         estimate D2E/DX2                !
 ! D5    D(18,1,2,20)          -74.4138         estimate D2E/DX2                !
 ! D6    D(18,1,2,21)          178.4322         estimate D2E/DX2                !
 ! D7    D(19,1,2,3)           -68.588          estimate D2E/DX2                !
 ! D8    D(19,1,2,20)          152.7249         estimate D2E/DX2                !
 ! D9    D(19,1,2,21)           45.5708         estimate D2E/DX2                !
 ! D10   D(1,2,3,4)             89.4667         estimate D2E/DX2                !
 ! D11   D(20,2,3,4)          -133.1061         estimate D2E/DX2                !
 ! D12   D(21,2,3,4)           -21.0719         estimate D2E/DX2                !
 ! D13   D(1,2,21,23)         -119.2345         estimate D2E/DX2                !
 ! D14   D(3,2,21,23)           24.0407         estimate D2E/DX2                !
 ! D15   D(20,2,21,23)         137.122          estimate D2E/DX2                !
 ! D16   D(2,3,4,5)           -122.9327         estimate D2E/DX2                !
 ! D17   D(2,3,4,22)           105.528          estimate D2E/DX2                !
 ! D18   D(2,3,4,23)             2.8101         estimate D2E/DX2                !
 ! D19   D(3,4,5,6)             82.7468         estimate D2E/DX2                !
 ! D20   D(3,4,5,11)           -88.5213         estimate D2E/DX2                !
 ! D21   D(22,4,5,6)          -171.2898         estimate D2E/DX2                !
 ! D22   D(22,4,5,11)           17.4422         estimate D2E/DX2                !
 ! D23   D(23,4,5,6)           -50.3253         estimate D2E/DX2                !
 ! D24   D(23,4,5,11)          138.4067         estimate D2E/DX2                !
 ! D25   D(3,4,23,21)            8.692          estimate D2E/DX2                !
 ! D26   D(5,4,23,21)          130.452          estimate D2E/DX2                !
 ! D27   D(22,4,23,21)         -91.835          estimate D2E/DX2                !
 ! D28   D(4,5,6,7)            163.8597         estimate D2E/DX2                !
 ! D29   D(4,5,6,24)            -4.6558         estimate D2E/DX2                !
 ! D30   D(11,5,6,7)           -24.763          estimate D2E/DX2                !
 ! D31   D(11,5,6,24)          166.7216         estimate D2E/DX2                !
 ! D32   D(4,5,11,10)          122.9019         estimate D2E/DX2                !
 ! D33   D(4,5,11,12)          -36.5514         estimate D2E/DX2                !
 ! D34   D(6,5,11,10)          -48.3316         estimate D2E/DX2                !
 ! D35   D(6,5,11,12)          152.215          estimate D2E/DX2                !
 ! D36   D(5,6,7,8)             38.8499         estimate D2E/DX2                !
 ! D37   D(5,6,7,25)          -133.2423         estimate D2E/DX2                !
 ! D38   D(24,6,7,8)          -152.2391         estimate D2E/DX2                !
 ! D39   D(24,6,7,25)           35.6687         estimate D2E/DX2                !
 ! D40   D(6,7,8,9)              4.0926         estimate D2E/DX2                !
 ! D41   D(6,7,8,26)          -168.6303         estimate D2E/DX2                !
 ! D42   D(25,7,8,9)           175.872          estimate D2E/DX2                !
 ! D43   D(25,7,8,26)            3.149          estimate D2E/DX2                !
 ! D44   D(7,8,9,10)           -11.534          estimate D2E/DX2                !
 ! D45   D(7,8,9,27)           163.0893         estimate D2E/DX2                !
 ! D46   D(26,8,9,10)          161.4771         estimate D2E/DX2                !
 ! D47   D(26,8,9,27)          -23.8996         estimate D2E/DX2                !
 ! D48   D(8,9,10,11)          -40.5157         estimate D2E/DX2                !
 ! D49   D(27,9,10,11)         144.7249         estimate D2E/DX2                !
 ! D50   D(9,10,11,5)           85.5241         estimate D2E/DX2                !
 ! D51   D(9,10,11,12)        -116.1997         estimate D2E/DX2                !
 ! D52   D(5,11,12,13)         145.6664         estimate D2E/DX2                !
 ! D53   D(5,11,12,28)          -1.5616         estimate D2E/DX2                !
 ! D54   D(10,11,12,13)        -12.7356         estimate D2E/DX2                !
 ! D55   D(10,11,12,28)       -159.9636         estimate D2E/DX2                !
 ! D56   D(11,12,13,14)       -109.4764         estimate D2E/DX2                !
 ! D57   D(11,12,13,29)         13.2264         estimate D2E/DX2                !
 ! D58   D(28,12,13,14)         38.1162         estimate D2E/DX2                !
 ! D59   D(28,12,13,29)        160.819          estimate D2E/DX2                !
 ! D60   D(12,13,14,15)         61.9441         estimate D2E/DX2                !
 ! D61   D(12,13,14,30)       -105.7017         estimate D2E/DX2                !
 ! D62   D(29,13,14,15)        -57.6191         estimate D2E/DX2                !
 ! D63   D(29,13,14,30)        134.7351         estimate D2E/DX2                !
 ! D64   D(13,14,15,16)        -71.5579         estimate D2E/DX2                !
 ! D65   D(13,14,15,31)         95.6232         estimate D2E/DX2                !
 ! D66   D(30,14,15,16)         93.9146         estimate D2E/DX2                !
 ! D67   D(30,14,15,31)        -98.9042         estimate D2E/DX2                !
 ! D68   D(2,21,23,4)          -25.0128         estimate D2E/DX2                !
 --------------------------------------------------------------------------------
 Trust Radius=3.00D-01 FncErr=1.00D-07 GrdErr=1.00D-06 EigMax=2.50D+02 EigMin=1.00D-04
 Number of steps in this run=    162 maximum allowed number of steps=    186.
 GradGradGradGradGradGradGradGradGradGradGradGradGradGradGradGradGradGrad

                          Input orientation:                          
 ---------------------------------------------------------------------
 Center     Atomic      Atomic             Coordinates (Angstroms)
 Number     Number       Type             X           Y           Z
 ---------------------------------------------------------------------
      1          6           0        1.625290    0.439020   -0.109380
      2          6           0        3.364140    0.693560   -0.431160
      3          7           0        4.634980    1.873250   -0.144600
      4          6           0        5.126880    1.414010    1.115450
      5          6           0        4.969220    2.621100    1.980890
      6          6           0        3.754390    2.879870    2.544700
      7          6           0        3.626130    3.793960    3.625130
      8          6           0        4.315220    4.969650    3.745490
      9          7           0        5.174210    5.541640    2.872450
     10          8           0        5.703560    4.913060    1.746130
     11          6           0        6.021730    3.606400    2.073710
     12          6           0        7.311200    3.139500    2.048620
     13          6           0        8.430630    3.805910    1.459290
     14          6           0        8.619760    2.985010    0.408320
     15          6           0        7.286160    2.940540   -0.644560
     16          7           0        5.976680    2.565430   -0.949550
     17          1           0        1.307950   -0.539950   -0.566060
     18          1           0        0.936520    1.149750   -0.586500
     19          1           0        1.266660    0.262050    0.934180
     20          1           0        3.465350    0.344170   -1.449570
     21          1           0        3.656780   -0.157990    0.218900
     22          1           0        6.039200    0.983150    0.692910
     23          1           0        4.743590    0.515670    1.613990
     24          1           0        2.891980    2.264630    2.311100
     25          1           0        3.028600    3.446420    4.447770
     26          1           0        4.272730    5.481500    4.688530
     27          1           0        5.405460    6.530720    2.984380
     28          1           0        7.388140    2.056270    1.986790
     29          1           0        8.204170    4.854910    1.220280
     30          1           0        9.492690    2.305640    0.477580
     31          1           0        7.695920    3.719700   -1.361010
 ---------------------------------------------------------------------
                    Distance matrix (angstroms):
                    1          2          3          4          5
     1  C    0.000000
     2  C    1.786598   0.000000
     3  N    3.334140   1.757504   0.000000
     4  C    3.835616   2.453223   1.428493   0.000000
     5  C    4.506947   3.479896   2.277873   1.493623   0.000000
     6  C    4.187476   3.713218   3.003507   2.464798   1.364058
     7  C    5.404216   5.112202   4.349456   3.770266   2.425493
     8  C    6.528580   6.052595   4.982242   4.496496   3.009521
     9  N    6.893684   6.139550   4.780214   4.486270   3.060466
    10  O    6.331843   5.293171   3.735929   3.601898   2.418150
    11  C    5.841820   4.671380   3.138118   2.554524   1.444718
    12  C    6.654256   5.264144   3.684529   2.935877   2.399624
    13  C    7.753020   6.239379   4.551329   4.093186   3.695565
    14  C    7.461413   5.794567   4.173752   3.894648   3.991472
    15  C    6.212042   4.525119   2.901349   3.176542   3.516140
    16  N    4.915496   3.255456   1.710911   2.512400   3.099283
    17  H    1.125897   2.401596   4.131621   4.607566   5.466634
    18  H    1.098720   2.474991   3.794382   4.530517   5.001903
    19  H    1.117565   2.539641   3.886555   4.032514   4.513277
    20  H    2.278360   1.081423   2.325740   3.237988   4.383388
    21  H    2.142695   1.110565   2.283625   2.331562   3.542661
    22  H    4.519109   2.916049   1.861595   1.093850   2.342356
    23  H    3.563660   2.473290   2.224288   1.096571   2.149037
    24  H    3.285739   3.195495   3.036724   2.673558   2.133316
    25  H    5.637495   5.612021   5.113236   4.431459   3.245405
    26  H    7.446844   7.068319   6.042337   5.480962   3.999788
    27  H    7.808319   7.064371   5.663584   5.454469   4.059855
    28  H    6.341913   4.888357   3.486576   2.506996   2.483997
    29  H    8.034285   6.593177   4.846887   4.617412   4.004165
    30  H    8.107082   6.401854   4.916443   4.501353   4.777158
    31  H    7.012987   5.365302   3.776028   4.248415   4.450855
                    6          7          8          9         10
     6  C    0.000000
     7  C    1.421035   0.000000
     8  C    2.474592   1.368056   0.000000
     9  N    3.034523   2.453052   1.351753   0.000000
    10  O    2.927600   3.016412   2.434775   1.394246   0.000000
    11  C    2.427037   2.860242   2.750541   2.258634   1.384161
    12  C    3.600611   4.061212   3.899322   3.318991   2.412783
    13  C    4.889058   5.270126   4.849495   3.951462   2.957189
    14  C    5.314791   5.994882   5.796944   4.947738   3.743172
    15  C    4.759040   5.688093   5.675941   4.857511   3.480066
    16  N    4.152978   5.287917   5.530291   4.910139   3.585060
    17  H    5.230398   6.459319   7.615040   7.984801   7.375834
    18  H    4.553913   5.653643   6.691292   7.015059   6.506023
    19  H    3.954182   5.028190   6.273650   6.848351   6.478984
    20  H    4.739991   6.138361   7.007567   6.972356   6.008064
    21  H    3.827201   5.217399   6.258041   6.467589   5.677789
    22  H    3.499576   4.724561   5.308722   5.126249   4.082416
    23  H    2.726569   4.005070   4.956282   5.198993   4.502893
    24  H    1.084823   2.145810   3.376421   4.032677   3.903634
    25  H    2.114102   1.074506   2.113958   3.387510   4.074960
    26  H    3.410742   2.096832   1.073834   2.028406   3.320861
    27  H    4.030888   3.326625   2.050573   1.021902   2.058871
    28  H    3.767455   4.456057   4.585155   4.222995   3.325203
    29  H    5.045336   5.278955   4.638295   3.518795   2.555964
    30  H    6.126240   6.821927   6.677004   5.903928   4.771306
    31  H    5.612089   6.436637   6.250428   5.253634   3.879166
                   11         12         13         14         15
    11  C    0.000000
    12  C    1.371626   0.000000
    13  C    2.494016   1.429873   0.000000
    14  C    3.147921   2.103992   1.346917   0.000000
    15  C    3.071017   2.700635   2.546539   1.699713   0.000000
    16  N    3.197773   3.331595   3.655567   3.000955   1.395874
    17  H    6.810310   7.510920   8.586100   8.175410   6.918018
    18  H    6.242692   7.179102   8.209880   7.961785   6.597593
    19  H    5.924010   6.786616   8.009816   7.858697   6.775036
    20  H    5.439736   5.902691   6.715588   6.082247   4.689112
    21  H    4.817047   5.251295   6.327773   5.877542   4.849624
    22  H    2.964516   2.847065   3.778128   3.278372   2.678640
    23  H    3.376033   3.696756   4.944075   4.751418   4.176806
    24  H    3.413508   4.512627   5.811864   6.078403   5.338689
    25  H    3.823687   4.918413   6.184026   6.913113   6.656918
    26  H    3.662279   4.656865   5.524828   6.591611   6.631673
    27  H    3.124221   4.000983   4.347659   5.435059   5.440187
    28  H    2.068220   1.087718   2.103873   2.207037   2.777829
    29  H    2.655215   2.103847   1.099459   2.080510   2.825807
    30  H    4.035737   2.814674   2.083875   1.108308   2.555596
    31  H    3.822702   3.479974   2.915703   2.126918   1.135030
                   16         17         18         19         20
    16  N    0.000000
    17  H    5.620275   0.000000
    18  H    5.247777   1.730163   0.000000
    19  H    5.571202   1.701655   1.791500   0.000000
    20  H    3.389807   2.493318   2.790848   3.243955   0.000000
    21  H    3.763539   2.505805   3.123887   2.529967   1.752884
    22  H    2.281489   5.127335   5.263268   4.832736   3.409284
    23  H    3.506246   4.203638   4.442746   3.551831   3.323960
    24  H    4.498632   4.318897   3.669178   2.923679   4.261403
    25  H    6.212760   6.632516   5.915688   5.058652   6.677823
    26  H    6.572279   8.523995   7.597387   7.097483   8.044892
    27  H    5.614768   8.910083   7.853499   7.786476   7.854765
    28  H    3.297508   7.087038   7.004784   6.465271   5.488910
    29  H    3.861553   8.936072   8.355322   8.324978   7.066208
    30  H    3.803488   8.727917   8.699218   8.488363   6.624960
    31  H    2.111261   7.718985   7.272826   7.652361   5.412926
                   21         22         23         24         25
    21  H    0.000000
    22  H    2.683805   0.000000
    23  H    1.892419   1.656964   0.000000
    24  H    3.291095   3.763738   2.640697   0.000000
    25  H    5.591934   5.406513   4.422759   2.445537   0.000000
    26  H    7.222246   6.270610   5.859520   4.231654   2.397368
    27  H    7.446113   6.035561   6.204584   4.997040   4.159793
    28  H    4.685235   2.155308   3.083192   4.512654   5.195626
    29  H    6.841833   4.467185   5.564137   6.009892   6.259957
    30  H    6.339892   3.704314   5.200901   6.850755   7.671261
    31  H    5.817839   3.801581   5.275669   6.219281   7.456573
                   26         27         28         29         30
    26  H    0.000000
    27  H    2.299580   0.000000
    28  H    5.360726   4.994688   0.000000
    29  H    5.279924   3.708526   3.014271   0.000000
    30  H    7.420658   6.390680   2.601736   2.951384   0.000000
    31  H    7.170711   5.659545   3.750932   2.865323   2.934001
                   31
    31  H    0.000000
 Stoichiometry    C12H15N3O
 Framework group  C1[X(C12H15N3O)]
 Deg. of freedom    87
 Full point group                 C1      NOp   1
 Largest Abelian subgroup         C1      NOp   1
 Largest concise Abelian subgroup C1      NOp   1
                         Standard orientation:                         
 ---------------------------------------------------------------------
 Center     Atomic      Atomic             Coordinates (Angstroms)
 Number     Number       Type             X           Y           Z
 ---------------------------------------------------------------------
      1          6           0       -4.627907    0.416752   -0.256826
      2          6           0       -3.332074   -0.805123   -0.116222
      3          7           0       -1.602274   -0.979081   -0.373810
      4          6           0       -1.114665   -0.586716    0.910277
      5          6           0       -0.200109    0.545345    0.574219
      6          6           0       -0.725175    1.790519    0.388469
      7          6           0        0.101722    2.946066    0.405538
      8          6           0        1.357172    3.021704   -0.132703
      9          7           0        2.034932    2.087948   -0.836958
     10          8           0        1.655555    0.752186   -0.962393
     11          6           0        1.189765    0.304760    0.261842
     12          6           0        1.818847   -0.691696    0.963760
     13          6           0        2.835112   -1.559523    0.455216
     14          6           0        2.118799   -2.699285    0.410229
     15          6           0        0.787346   -2.602561   -0.641864
     16          7           0       -0.482276   -2.125701   -0.972211
     17          1           0       -5.607502   -0.052810    0.039060
     18          1           0       -4.843053    0.778266   -1.271816
     19          1           0       -4.648147    1.296599    0.431949
     20          1           0       -3.811133   -1.696505   -0.497557
     21          1           0       -3.430010   -0.849662    0.989119
     22          1           0       -0.865273   -1.606862    1.216239
     23          1           0       -1.775852   -0.327873    1.745920
     24          1           0       -1.798223    1.948717    0.408041
     25          1           0       -0.267557    3.762118    0.999049
     26          1           0        1.953105    3.883116    0.103842
     27          1           0        2.844934    2.377859   -1.388441
     28          1           0        1.188475   -1.174820    1.706963
     29          1           0        3.237749   -1.202017   -0.503368
     30          1           0        2.350172   -3.446003    1.195866
     31          1           0        1.322206   -3.071242   -1.526486
 ---------------------------------------------------------------------
 Rotational constants (GHZ):           0.6390491           0.4912259           0.3111506
 Standard basis: 6-31G(2df,p) (6D, 7F)
 There are   571 symmetry adapted cartesian basis functions of A   symmetry.
 There are   523 symmetry adapted basis functions of A   symmetry.
   523 basis functions,   809 primitive gaussians,   571 cartesian basis functions
    58 alpha electrons       58 beta electrons
       nuclear repulsion energy      1085.8328575285 Hartrees.
 NAtoms=   31 NActive=   31 NUniq=   31 SFac= 1.00D+00 NAtFMM=   60 NAOKFM=F Big=F
 Integral buffers will be    131072 words long.
 Raffenetti 2 integral format.
 Two-electron integral symmetry is turned on.
 One-electron integrals computed using PRISM.
 PrsmSu:  requested number of processors reduced to:  12 ShMem   1 Linda.
 NBasis=   523 RedAO= T EigKep=  2.82D-04  NBF=   523
 NBsUse=   523 1.00D-06 EigRej= -1.00D+00 NBFU=   523
 ExpMin= 1.61D-01 ExpMax= 5.48D+03 ExpMxC= 8.25D+02 IAcc=3 IRadAn=         5 AccDes= 0.00D+00
 Harris functional with IExCor=  402 and IRadAn=       5 diagonalized for initial guess.
 HarFok:  IExCor=  402 AccDes= 0.00D+00 IRadAn=         5 IDoV= 1 UseB2=F ITyADJ=14
 ICtDFT=  3500011 ScaDFX=  1.000000  1.000000  1.000000  1.000000
 FoFCou: FMM=F IPFlag=           0 FMFlag=      100000 FMFlg1=           0
         NFxFlg=           0 DoJE=T BraDBF=F KetDBF=T FulRan=T
         wScrn=  0.000000 ICntrl=       500 IOpCl=  0 I1Cent=   200000004 NGrid=           0
         NMat0=    1 NMatS0=      1 NMatT0=    0 NMatD0=    1 NMtDS0=    0 NMtDT0=    0
 Petite list used in FoFCou.
 Requested convergence on RMS density matrix=1.00D-08 within 128 cycles.
 Requested convergence on MAX density matrix=1.00D-06.
 Requested convergence on             energy=1.00D-06.
 No special actions if energy rises.
 Integral accuracy reduced to 1.0D-05 until final iterations.
 EnCoef did     5 forward-backward iterations
 EnCoef did     6 forward-backward iterations
 Initial convergence to 1.0D-05 achieved.  Increase integral accuracy.
 SCF Done:  E(RB3LYP) =  -705.159930738     A.U. after   27 cycles
            NFock= 27  Conv=0.51D-08     -V/T= 2.0083

 **********************************************************************

            Population analysis using the SCF density.

 **********************************************************************

 Orbital symmetries:
       Occupied  (A) (A) (A) (A) (A) (A) (A) (A) (A) (A) (A) (A)
                 (A) (A) (A) (A) (A) (A) (A) (A) (A) (A) (A) (A)
                 (A) (A) (A) (A) (A) (A) (A) (A) (A) (A) (A) (A)
                 (A) (A) (A) (A) (A) (A) (A) (A) (A) (A) (A) (A)
                 (A) (A) (A) (A) (A) (A) (A) (A) (A) (A)
       Virtual   (A) (A) (A) (A) (A) (A) (A) (A) (A) (A) (A) (A)
                 (A) (A) (A) (A) (A) (A) (A) (A) (A) (A) (A) (A)
                 (A) (A) (A) (A) (A) (A) (A) (A) (A) (A) (A) (A)
                 (A) (A) (A) (A) (A) (A) (A) (A) (A) (A) (A) (A)
                 (A) (A) (A) (A) (A) (A) (A) (A) (A) (A) (A) (A)
                 (A) (A) (A) (A) (A) (A) (A) (A) (A) (A) (A) (A)
                 (A) (A) (A) (A) (A) (A) (A) (A) (A) (A) (A) (A)
                 (A) (A) (A) (A) (A) (A) (A) (A) (A) (A) (A) (A)
                 (A) (A) (A) (A) (A) (A) (A) (A) (A) (A) (A) (A)
                 (A) (A) (A) (A) (A) (A) (A) (A) (A) (A) (A) (A)
                 (A) (A) (A) (A) (A) (A) (A) (A) (A) (A) (A) (A)
                 (A) (A) (A) (A) (A) (A) (A) (A) (A) (A) (A) (A)
                 (A) (A) (A) (A) (A) (A) (A) (A) (A) (A) (A) (A)
                 (A) (A) (A) (A) (A) (A) (A) (A) (A) (A) (A) (A)
                 (A) (A) (A) (A) (A) (A) (A) (A) (A) (A) (A) (A)
                 (A) (A) (A) (A) (A) (A) (A) (A) (A) (A) (A) (A)
                 (A) (A) (A) (A) (A) (A) (A) (A) (A) (A) (A) (A)
                 (A) (A) (A) (A) (A) (A) (A) (A) (A) (A) (A) (A)
                 (A) (A) (A) (A) (A) (A) (A) (A) (A) (A) (A) (A)
                 (A) (A) (A) (A) (A) (A) (A) (A) (A) (A) (A) (A)
                 (A) (A) (A) (A) (A) (A) (A) (A) (A) (A) (A) (A)
                 (A) (A) (A) (A) (A) (A) (A) (A) (A) (A) (A) (A)
                 (A) (A) (A) (A) (A) (A) (A) (A) (A) (A) (A) (A)
                 (A) (A) (A) (A) (A) (A) (A) (A) (A) (A) (A) (A)
                 (A) (A) (A) (A) (A) (A) (A) (A) (A) (A) (A) (A)
                 (A) (A) (A) (A) (A) (A) (A) (A) (A) (A) (A) (A)
                 (A) (A) (A) (A) (A) (A) (A) (A) (A) (A) (A) (A)
                 (A) (A) (A) (A) (A) (A) (A) (A) (A) (A) (A) (A)
                 (A) (A) (A) (A) (A) (A) (A) (A) (A) (A) (A) (A)
                 (A) (A) (A) (A) (A) (A) (A) (A) (A) (A) (A) (A)
                 (A) (A) (A) (A) (A) (A) (A) (A) (A) (A) (A) (A)
                 (A) (A) (A) (A) (A) (A) (A) (A) (A) (A) (A) (A)
                 (A) (A) (A) (A) (A) (A) (A) (A) (A) (A) (A) (A)
                 (A) (A) (A) (A) (A) (A) (A) (A) (A) (A) (A) (A)
                 (A) (A) (A) (A) (A) (A) (A) (A) (A) (A) (A) (A)
                 (A) (A) (A) (A) (A) (A) (A) (A) (A) (A) (A) (A)
                 (A) (A) (A) (A) (A) (A) (A) (A) (A) (A) (A) (A)
                 (A) (A) (A) (A) (A) (A) (A) (A) (A) (A) (A) (A)
                 (A) (A) (A) (A) (A) (A) (A) (A) (A)
 The electronic state is 1-A.
 Alpha  occ. eigenvalues --  -19.20605 -14.41480 -14.36415 -14.35630 -10.24552
 Alpha  occ. eigenvalues --  -10.24252 -10.23888 -10.23847 -10.21826 -10.21485
 Alpha  occ. eigenvalues --  -10.20178 -10.19868 -10.19120 -10.17961 -10.17392
 Alpha  occ. eigenvalues --  -10.12929  -1.11806  -0.90566  -0.89651  -0.83142
 Alpha  occ. eigenvalues --   -0.82329  -0.79072  -0.73786  -0.72081  -0.71533
 Alpha  occ. eigenvalues --   -0.65279  -0.63610  -0.61610  -0.58201  -0.57790
 Alpha  occ. eigenvalues --   -0.55974  -0.53781  -0.52346  -0.48820  -0.47588
 Alpha  occ. eigenvalues --   -0.46082  -0.45571  -0.44721  -0.43380  -0.42413
 Alpha  occ. eigenvalues --   -0.41547  -0.39998  -0.39455  -0.38647  -0.37966
 Alpha  occ. eigenvalues --   -0.37079  -0.36014  -0.34581  -0.33685  -0.31950
 Alpha  occ. eigenvalues --   -0.30592  -0.29923  -0.28429  -0.25173  -0.22883
 Alpha  occ. eigenvalues --   -0.21098  -0.17708  -0.14018
 Alpha virt. eigenvalues --   -0.10583  -0.06481  -0.01928  -0.01035   0.03378
 Alpha virt. eigenvalues --    0.05488   0.05987   0.07561   0.08475   0.09078
 Alpha virt. eigenvalues --    0.10223   0.11663   0.12936   0.13285   0.14008
 Alpha virt. eigenvalues --    0.14607   0.15475   0.15953   0.17078   0.17804
 Alpha virt. eigenvalues --    0.18314   0.18646   0.19911   0.20496   0.20976
 Alpha virt. eigenvalues --    0.24316   0.26239   0.27689   0.28841   0.30363
 Alpha virt. eigenvalues --    0.32410   0.34340   0.35234   0.37194   0.38971
 Alpha virt. eigenvalues --    0.40658   0.41804   0.42749   0.44169   0.45575
 Alpha virt. eigenvalues --    0.46400   0.46683   0.47274   0.48278   0.49100
 Alpha virt. eigenvalues --    0.49903   0.50658   0.51243   0.51785   0.52776
 Alpha virt. eigenvalues --    0.53550   0.53873   0.54902   0.55149   0.56117
 Alpha virt. eigenvalues --    0.56884   0.58106   0.58907   0.58932   0.59489
 Alpha virt. eigenvalues --    0.60526   0.62185   0.62887   0.63744   0.64411
 Alpha virt. eigenvalues --    0.65704   0.66966   0.67800   0.68868   0.69575
 Alpha virt. eigenvalues --    0.70676   0.71114   0.71970   0.72480   0.72590
 Alpha virt. eigenvalues --    0.72922   0.73439   0.74501   0.75127   0.75682
 Alpha virt. eigenvalues --    0.76202   0.76797   0.76860   0.77863   0.78292
 Alpha virt. eigenvalues --    0.78364   0.79039   0.80142   0.80554   0.81901
 Alpha virt. eigenvalues --    0.82708   0.83578   0.84552   0.86027   0.86593
 Alpha virt. eigenvalues --    0.87530   0.88032   0.89369   0.90815   0.92142
 Alpha virt. eigenvalues --    0.92562   0.93041   0.93701   0.94331   0.94955
 Alpha virt. eigenvalues --    0.95495   0.99211   0.99739   1.00399   1.00911
 Alpha virt. eigenvalues --    1.04091   1.05651   1.06439   1.08371   1.10153
 Alpha virt. eigenvalues --    1.10553   1.11156   1.12014   1.12742   1.15471
 Alpha virt. eigenvalues --    1.17356   1.17940   1.20141   1.21250   1.22420
 Alpha virt. eigenvalues --    1.23932   1.24815   1.26242   1.27047   1.27709
 Alpha virt. eigenvalues --    1.30536   1.30878   1.31866   1.32362   1.34830
 Alpha virt. eigenvalues --    1.35140   1.35550   1.38122   1.39257   1.39733
 Alpha virt. eigenvalues --    1.41952   1.42433   1.43945   1.44620   1.46399
 Alpha virt. eigenvalues --    1.47756   1.48469   1.50612   1.51526   1.52319
 Alpha virt. eigenvalues --    1.53904   1.55650   1.56129   1.58372   1.59401
 Alpha virt. eigenvalues --    1.59770   1.61650   1.62264   1.62795   1.63293
 Alpha virt. eigenvalues --    1.64577   1.64986   1.66690   1.67965   1.68816
 Alpha virt. eigenvalues --    1.69603   1.71586   1.72653   1.73436   1.76877
 Alpha virt. eigenvalues --    1.78974   1.79468   1.81148   1.83308   1.84382
 Alpha virt. eigenvalues --    1.86283   1.87477   1.89497   1.90687   1.92521
 Alpha virt. eigenvalues --    1.94180   1.95471   1.96316   1.97871   1.99089
 Alpha virt. eigenvalues --    1.99629   2.02452   2.03694   2.06725   2.07643
 Alpha virt. eigenvalues --    2.08936   2.11441   2.12507   2.16528   2.18488
 Alpha virt. eigenvalues --    2.20337   2.20647   2.22127   2.24513   2.24696
 Alpha virt. eigenvalues --    2.26771   2.28806   2.30970   2.32559   2.34220
 Alpha virt. eigenvalues --    2.36512   2.37574   2.41551   2.41721   2.42609
 Alpha virt. eigenvalues --    2.45066   2.45553   2.48036   2.49998   2.50489
 Alpha virt. eigenvalues --    2.53572   2.54868   2.56812   2.59458   2.60981
 Alpha virt. eigenvalues --    2.63406   2.63776   2.65920   2.68812   2.70608
 Alpha virt. eigenvalues --    2.73584   2.75348   2.77090   2.78751   2.78933
 Alpha virt. eigenvalues --    2.79619   2.79941   2.81439   2.82229   2.83044
 Alpha virt. eigenvalues --    2.84679   2.85509   2.88243   2.89057   2.90935
 Alpha virt. eigenvalues --    2.91412   2.92600   2.94216   2.96375   2.96800
 Alpha virt. eigenvalues --    2.97425   2.98478   2.99522   3.00264   3.01139
 Alpha virt. eigenvalues --    3.02368   3.04730   3.05570   3.06769   3.07301
 Alpha virt. eigenvalues --    3.09508   3.09942   3.10900   3.11444   3.12567
 Alpha virt. eigenvalues --    3.14276   3.15907   3.17416   3.18882   3.20082
 Alpha virt. eigenvalues --    3.21385   3.21840   3.24072   3.24351   3.25047
 Alpha virt. eigenvalues --    3.26191   3.27002   3.28590   3.29762   3.31069
 Alpha virt. eigenvalues --    3.31554   3.32454   3.33812   3.36218   3.37408
 Alpha virt. eigenvalues --    3.39636   3.39959   3.40764   3.42334   3.43912
 Alpha virt. eigenvalues --    3.45756   3.47128   3.47631   3.48572   3.49588
 Alpha virt. eigenvalues --    3.50800   3.51698   3.53339   3.53656   3.55052
 Alpha virt. eigenvalues --    3.56291   3.57713   3.59085   3.60598   3.61858
 Alpha virt. eigenvalues --    3.64103   3.65511   3.67204   3.67850   3.70821
 Alpha virt. eigenvalues --    3.72458   3.74341   3.75331   3.75645   3.77326
 Alpha virt. eigenvalues --    3.77487   3.79442   3.81263   3.83894   3.86345
 Alpha virt. eigenvalues --    3.87708   3.88940   3.89752   3.90042   3.91693
 Alpha virt. eigenvalues --    3.92355   3.95068   3.96011   3.97344   3.98277
 Alpha virt. eigenvalues --    4.01020   4.03484   4.05538   4.05765   4.09648
 Alpha virt. eigenvalues --    4.10602   4.12195   4.13490   4.14686   4.16858
 Alpha virt. eigenvalues --    4.17686   4.19922   4.21470   4.21956   4.23644
 Alpha virt. eigenvalues --    4.26131   4.27893   4.28907   4.29858   4.30453
 Alpha virt. eigenvalues --    4.31467   4.32406   4.34874   4.36228   4.37390
 Alpha virt. eigenvalues --    4.37608   4.39178   4.39775   4.40768   4.42506
 Alpha virt. eigenvalues --    4.42895   4.44046   4.45209   4.46120   4.48698
 Alpha virt. eigenvalues --    4.49585   4.50975   4.52241   4.53380   4.53640
 Alpha virt. eigenvalues --    4.54893   4.56520   4.56755   4.58432   4.59559
 Alpha virt. eigenvalues --    4.61417   4.61784   4.63006   4.63795   4.65195
 Alpha virt. eigenvalues --    4.66208   4.66829   4.68783   4.69737   4.70050
 Alpha virt. eigenvalues --    4.71104   4.71741   4.72641   4.73601   4.75276
 Alpha virt. eigenvalues --    4.75654   4.76607   4.78591   4.79317   4.79892
 Alpha virt. eigenvalues --    4.82091   4.82353   4.84525   4.85521   4.85834
 Alpha virt. eigenvalues --    4.88966   4.90748   4.91679   4.93061   4.95439
 Alpha virt. eigenvalues --    4.95771   4.98974   5.00429   5.01757   5.03838
 Alpha virt. eigenvalues --    5.05344   5.06341   5.07607   5.09039   5.10065
 Alpha virt. eigenvalues --    5.12846   5.13446   5.15303   5.20573   5.22260
 Alpha virt. eigenvalues --    5.23239   5.25880   5.27436   5.28703   5.30566
 Alpha virt. eigenvalues --    5.31796   5.36105   5.39270   5.42287   5.44509
 Alpha virt. eigenvalues --    5.47660   5.49730   5.51577   5.52103   5.57246
 Alpha virt. eigenvalues --    5.61524   5.62868   5.70247   5.74881   5.75860
 Alpha virt. eigenvalues --    5.77850   5.81729   5.90868   6.01480   6.02533
 Alpha virt. eigenvalues --    6.09115   6.24209   6.25553   6.38289   6.92098
 Alpha virt. eigenvalues --    7.16267   8.51004   9.96256  10.42764  10.65035
 Alpha virt. eigenvalues --   10.85212  11.06147  11.25562  11.33609  11.39418
 Alpha virt. eigenvalues --   11.42578  11.51440  11.58349  11.77441  12.06689
 Alpha virt. eigenvalues --   12.20350  12.61031  13.36564  14.05977  15.47183
          Condensed to atoms (all electrons):
               1          2          3          4          5          6
     1  C    5.067786   0.331462  -0.007757   0.002866  -0.000617  -0.000571
     2  C    0.331462   5.012680   0.222925  -0.041311   0.006289   0.001789
     3  N   -0.007757   0.222925   6.725029   0.223496  -0.074206  -0.002106
     4  C    0.002866  -0.041311   0.223496   5.160229   0.419408  -0.056772
     5  C   -0.000617   0.006289  -0.074206   0.419408   4.619945   0.514245
     6  C   -0.000571   0.001789  -0.002106  -0.056772   0.514245   4.993065
     7  C    0.000006   0.000025   0.000668   0.001203  -0.015559   0.455480
     8  C    0.000000   0.000002  -0.000050   0.000706  -0.015727  -0.004771
     9  N   -0.000000   0.000000   0.000004  -0.000288   0.000043  -0.017285
    10  O    0.000000  -0.000003   0.000395   0.000568  -0.059299   0.001737
    11  C    0.000002  -0.000123  -0.007100  -0.047873   0.433709  -0.016405
    12  C   -0.000000  -0.000080   0.002642  -0.022608  -0.036033   0.004694
    13  C   -0.000000  -0.000003   0.000323   0.002019   0.002974  -0.000707
    14  C   -0.000000  -0.000005  -0.001347  -0.000310  -0.000395   0.000075
    15  C   -0.000003  -0.000027  -0.030522   0.000340  -0.002262   0.000093
    16  N    0.000053  -0.000770   0.187723  -0.035385   0.003069  -0.000102
    17  H    0.368278  -0.014617   0.000344  -0.000043   0.000002   0.000020
    18  H    0.375401  -0.018232   0.000137  -0.000099   0.000019  -0.000002
    19  H    0.375793  -0.017073  -0.000012   0.000018   0.000009  -0.000305
    20  H   -0.033183   0.358355  -0.016931   0.002993   0.000086  -0.000049
    21  H   -0.055380   0.355581  -0.020235  -0.020459  -0.000078   0.000298
    22  H   -0.000082   0.003177  -0.039303   0.348518  -0.004177   0.004345
    23  H    0.000597  -0.027225  -0.013298   0.339479  -0.031719  -0.005611
    24  H    0.001652   0.000052   0.000814  -0.007313  -0.025656   0.337777
    25  H   -0.000000   0.000000   0.000000  -0.000323   0.000002  -0.040036
    26  H    0.000000   0.000000  -0.000000   0.000008   0.001111   0.002916
    27  H   -0.000000  -0.000000   0.000001   0.000004  -0.000427   0.000125
    28  H   -0.000000  -0.000005  -0.000010   0.003318  -0.016721   0.000872
    29  H    0.000000  -0.000000   0.000001  -0.000060   0.000255   0.000008
    30  H    0.000000  -0.000000   0.000012   0.000045  -0.000009  -0.000000
    31  H    0.000000  -0.000013   0.001766  -0.000201   0.000054   0.000000
               7          8          9         10         11         12
     1  C    0.000006   0.000000  -0.000000   0.000000   0.000002  -0.000000
     2  C    0.000025   0.000002   0.000000  -0.000003  -0.000123  -0.000080
     3  N    0.000668  -0.000050   0.000004   0.000395  -0.007100   0.002642
     4  C    0.001203   0.000706  -0.000288   0.000568  -0.047873  -0.022608
     5  C   -0.015559  -0.015727   0.000043  -0.059299   0.433709  -0.036033
     6  C    0.455480  -0.004771  -0.017285   0.001737  -0.016405   0.004694
     7  C    4.837409   0.620123  -0.009258  -0.008188  -0.006208   0.000744
     8  C    0.620123   4.710615   0.389750  -0.028247  -0.001203   0.000310
     9  N   -0.009258   0.389750   6.357473   0.232842  -0.086263   0.005478
    10  O   -0.008188  -0.028247   0.232842   7.814216   0.345053  -0.028294
    11  C   -0.006208  -0.001203  -0.086263   0.345053   4.712243   0.490751
    12  C    0.000744   0.000310   0.005478  -0.028294   0.490751   4.983269
    13  C    0.000003   0.000111  -0.000238  -0.011110  -0.052617   0.462815
    14  C   -0.000009  -0.000006   0.000050   0.000625   0.015046  -0.056630
    15  C   -0.000001   0.000001   0.000052   0.000846   0.014149  -0.018297
    16  N    0.000006  -0.000002   0.000028  -0.000347   0.000062  -0.005585
    17  H   -0.000000  -0.000000   0.000000  -0.000000  -0.000000  -0.000000
    18  H   -0.000000   0.000000  -0.000000   0.000000   0.000000   0.000000
    19  H   -0.000003  -0.000000   0.000000  -0.000000   0.000001  -0.000000
    20  H   -0.000000  -0.000000   0.000000  -0.000000   0.000007   0.000001
    21  H    0.000001  -0.000000   0.000000   0.000000  -0.000048   0.000009
    22  H    0.000004  -0.000013   0.000007   0.000084  -0.007840  -0.003357
    23  H    0.000315   0.000002   0.000003  -0.000059   0.004746   0.000388
    24  H   -0.037550   0.003227   0.000401  -0.000150   0.005137  -0.000222
    25  H    0.365751  -0.028939   0.003045  -0.000053   0.000296  -0.000007
    26  H   -0.032611   0.354246  -0.038188   0.003300  -0.002023  -0.000053
    27  H    0.003946  -0.048893   0.360321  -0.026124   0.004562   0.000117
    28  H    0.000071  -0.000060  -0.000077   0.002529  -0.038453   0.373410
    29  H   -0.000005  -0.000024   0.000913   0.010399  -0.016417  -0.013847
    30  H   -0.000000  -0.000000   0.000000  -0.000016  -0.000071   0.002815
    31  H   -0.000000  -0.000000  -0.000001  -0.000115   0.000909   0.002220
              13         14         15         16         17         18
     1  C   -0.000000  -0.000000  -0.000003   0.000053   0.368278   0.375401
     2  C   -0.000003  -0.000005  -0.000027  -0.000770  -0.014617  -0.018232
     3  N    0.000323  -0.001347  -0.030522   0.187723   0.000344   0.000137
     4  C    0.002019  -0.000310   0.000340  -0.035385  -0.000043  -0.000099
     5  C    0.002974  -0.000395  -0.002262   0.003069   0.000002   0.000019
     6  C   -0.000707   0.000075   0.000093  -0.000102   0.000020  -0.000002
     7  C    0.000003  -0.000009  -0.000001   0.000006  -0.000000  -0.000000
     8  C    0.000111  -0.000006   0.000001  -0.000002  -0.000000   0.000000
     9  N   -0.000238   0.000050   0.000052   0.000028   0.000000  -0.000000
    10  O   -0.011110   0.000625   0.000846  -0.000347  -0.000000   0.000000
    11  C   -0.052617   0.015046   0.014149   0.000062  -0.000000   0.000000
    12  C    0.462815  -0.056630  -0.018297  -0.005585  -0.000000   0.000000
    13  C    5.290983   0.421127  -0.112644   0.004532   0.000000   0.000000
    14  C    0.421127   5.260044   0.319794  -0.032258  -0.000000   0.000000
    15  C   -0.112644   0.319794   5.044910   0.514897   0.000000   0.000000
    16  N    0.004532  -0.032258   0.514897   6.633143  -0.000001  -0.000001
    17  H    0.000000  -0.000000   0.000000  -0.000001   0.580514  -0.034025
    18  H    0.000000   0.000000   0.000000  -0.000001  -0.034025   0.559320
    19  H    0.000000   0.000000   0.000000  -0.000001  -0.041720  -0.030746
    20  H    0.000000   0.000001   0.000062   0.000425  -0.002210  -0.000121
    21  H    0.000000   0.000000   0.000031   0.000164   0.001057   0.003344
    22  H   -0.000681   0.004790   0.014888  -0.024340   0.000003   0.000002
    23  H   -0.000020  -0.000070  -0.000128   0.002521  -0.000075   0.000007
    24  H    0.000007  -0.000001  -0.000007  -0.000019  -0.000063   0.000032
    25  H    0.000000  -0.000000  -0.000000   0.000000   0.000000  -0.000000
    26  H   -0.000002  -0.000000  -0.000000   0.000000   0.000000  -0.000000
    27  H    0.000088  -0.000003  -0.000002   0.000000   0.000000   0.000000
    28  H   -0.049181  -0.019854  -0.004599  -0.000888   0.000000   0.000000
    29  H    0.343249  -0.038237  -0.004451  -0.000132  -0.000000   0.000000
    30  H   -0.036483   0.339769  -0.036048   0.000605  -0.000000  -0.000000
    31  H    0.004570  -0.046704   0.321291  -0.016057  -0.000000   0.000000
              19         20         21         22         23         24
     1  C    0.375793  -0.033183  -0.055380  -0.000082   0.000597   0.001652
     2  C   -0.017073   0.358355   0.355581   0.003177  -0.027225   0.000052
     3  N   -0.000012  -0.016931  -0.020235  -0.039303  -0.013298   0.000814
     4  C    0.000018   0.002993  -0.020459   0.348518   0.339479  -0.007313
     5  C    0.000009   0.000086  -0.000078  -0.004177  -0.031719  -0.025656
     6  C   -0.000305  -0.000049   0.000298   0.004345  -0.005611   0.337777
     7  C   -0.000003  -0.000000   0.000001   0.000004   0.000315  -0.037550
     8  C   -0.000000  -0.000000  -0.000000  -0.000013   0.000002   0.003227
     9  N    0.000000   0.000000   0.000000   0.000007   0.000003   0.000401
    10  O   -0.000000  -0.000000   0.000000   0.000084  -0.000059  -0.000150
    11  C    0.000001   0.000007  -0.000048  -0.007840   0.004746   0.005137
    12  C   -0.000000   0.000001   0.000009  -0.003357   0.000388  -0.000222
    13  C    0.000000   0.000000   0.000000  -0.000681  -0.000020   0.000007
    14  C    0.000000   0.000001   0.000000   0.004790  -0.000070  -0.000001
    15  C    0.000000   0.000062   0.000031   0.014888  -0.000128  -0.000007
    16  N   -0.000001   0.000425   0.000164  -0.024340   0.002521  -0.000019
    17  H   -0.041720  -0.002210   0.001057   0.000003  -0.000075  -0.000063
    18  H   -0.030746  -0.000121   0.003344   0.000002   0.000007   0.000032
    19  H    0.576691   0.002462  -0.001832  -0.000005   0.000335   0.001699
    20  H    0.002462   0.570027  -0.030123  -0.000876   0.001433   0.000032
    21  H   -0.001832  -0.030123   0.620519   0.003740   0.007827  -0.000123
    22  H   -0.000005  -0.000876   0.003740   0.602131  -0.050430  -0.000069
    23  H    0.000335   0.001433   0.007827  -0.050430   0.665729   0.003091
    24  H    0.001699   0.000032  -0.000123  -0.000069   0.003091   0.613592
    25  H   -0.000000   0.000000   0.000000   0.000004   0.000011  -0.002754
    26  H   -0.000000  -0.000000  -0.000000  -0.000000   0.000000  -0.000239
    27  H    0.000000   0.000000   0.000000   0.000000  -0.000000   0.000011
    28  H    0.000000   0.000000   0.000017   0.005888  -0.000023  -0.000001
    29  H    0.000000   0.000000   0.000000   0.000003   0.000002   0.000000
    30  H    0.000000  -0.000000   0.000000  -0.000212   0.000004   0.000000
    31  H   -0.000000  -0.000001   0.000001  -0.000296   0.000006   0.000000
              25         26         27         28         29         30
     1  C   -0.000000   0.000000  -0.000000  -0.000000   0.000000   0.000000
     2  C    0.000000   0.000000  -0.000000  -0.000005  -0.000000  -0.000000
     3  N    0.000000  -0.000000   0.000001  -0.000010   0.000001   0.000012
     4  C   -0.000323   0.000008   0.000004   0.003318  -0.000060   0.000045
     5  C    0.000002   0.001111  -0.000427  -0.016721   0.000255  -0.000009
     6  C   -0.040036   0.002916   0.000125   0.000872   0.000008  -0.000000
     7  C    0.365751  -0.032611   0.003946   0.000071  -0.000005  -0.000000
     8  C   -0.028939   0.354246  -0.048893  -0.000060  -0.000024  -0.000000
     9  N    0.003045  -0.038188   0.360321  -0.000077   0.000913   0.000000
    10  O   -0.000053   0.003300  -0.026124   0.002529   0.010399  -0.000016
    11  C    0.000296  -0.002023   0.004562  -0.038453  -0.016417  -0.000071
    12  C   -0.000007  -0.000053   0.000117   0.373410  -0.013847   0.002815
    13  C    0.000000  -0.000002   0.000088  -0.049181   0.343249  -0.036483
    14  C   -0.000000  -0.000000  -0.000003  -0.019854  -0.038237   0.339769
    15  C   -0.000000  -0.000000  -0.000002  -0.004599  -0.004451  -0.036048
    16  N    0.000000   0.000000   0.000000  -0.000888  -0.000132   0.000605
    17  H    0.000000   0.000000   0.000000   0.000000  -0.000000  -0.000000
    18  H   -0.000000  -0.000000   0.000000   0.000000   0.000000  -0.000000
    19  H   -0.000000  -0.000000   0.000000   0.000000   0.000000   0.000000
    20  H    0.000000  -0.000000   0.000000   0.000000   0.000000  -0.000000
    21  H    0.000000  -0.000000   0.000000   0.000017   0.000000   0.000000
    22  H    0.000004  -0.000000   0.000000   0.005888   0.000003  -0.000212
    23  H    0.000011   0.000000  -0.000000  -0.000023   0.000002   0.000004
    24  H   -0.002754  -0.000239   0.000011  -0.000001   0.000000   0.000000
    25  H    0.606558  -0.006166  -0.000169   0.000000  -0.000000  -0.000000
    26  H   -0.006166   0.593821  -0.003613  -0.000001  -0.000003   0.000000
    27  H   -0.000169  -0.003613   0.430889   0.000006  -0.000113  -0.000000
    28  H    0.000000  -0.000001   0.000006   0.635258   0.007220   0.002687
    29  H   -0.000000  -0.000003  -0.000113   0.007220   0.602212   0.004499
    30  H   -0.000000   0.000000  -0.000000   0.002687   0.004499   0.586295
    31  H    0.000000   0.000000  -0.000000   0.000078  -0.000916   0.003392
              31
     1  C    0.000000
     2  C   -0.000013
     3  N    0.001766
     4  C   -0.000201
     5  C    0.000054
     6  C    0.000000
     7  C   -0.000000
     8  C   -0.000000
     9  N   -0.000001
    10  O   -0.000115
    11  C    0.000909
    12  C    0.002220
    13  C    0.004570
    14  C   -0.046704
    15  C    0.321291
    16  N   -0.016057
    17  H   -0.000000
    18  H    0.000000
    19  H   -0.000000
    20  H   -0.000001
    21  H    0.000001
    22  H   -0.000296
    23  H    0.000006
    24  H    0.000000
    25  H    0.000000
    26  H    0.000000
    27  H   -0.000000
    28  H    0.000078
    29  H   -0.000916
    30  H    0.003392
    31  H    0.564822
 Mulliken charges:
               1
     1  C   -0.426303
     2  C   -0.172854
     3  N   -0.153406
     4  C   -0.272172
     5  C    0.281666
     6  C   -0.172816
     7  C   -0.176365
     8  C    0.048843
     9  N   -0.198813
    10  O   -0.250590
    11  C    0.255970
    12  C   -0.144651
    13  C   -0.269117
    14  C   -0.165496
    15  C   -0.022365
    16  N   -0.231343
    17  H    0.142535
    18  H    0.144965
    19  H    0.134689
    20  H    0.147609
    21  H    0.135690
    22  H    0.144097
    23  H    0.102159
    24  H    0.106643
    25  H    0.102780
    26  H    0.127497
    27  H    0.279274
    28  H    0.098519
    29  H    0.105445
    30  H    0.132714
    31  H    0.165195
 Sum of Mulliken charges =  -0.00000
 Mulliken charges with hydrogens summed into heavy atoms:
               1
     1  C   -0.004115
     2  C    0.110445
     3  N   -0.153406
     4  C   -0.025915
     5  C    0.281666
     6  C   -0.066173
     7  C   -0.073585
     8  C    0.176341
     9  N    0.080461
    10  O   -0.250590
    11  C    0.255970
    12  C   -0.046132
    13  C   -0.163672
    14  C   -0.032782
    15  C    0.142831
    16  N   -0.231343
 Electronic spatial extent (au):  <R**2>=           3680.9595
 Charge=             -0.0000 electrons
 Dipole moment (field-independent basis, Debye):
    X=             -1.2833    Y=              3.4295    Z=              1.2825  Tot=              3.8798
 Quadrupole moment (field-independent basis, Debye-Ang):
   XX=            -83.4712   YY=            -85.9646   ZZ=            -95.7445
   XY=              6.1216   XZ=             -9.7132   YZ=             -3.7393
 Traceless Quadrupole moment (field-independent basis, Debye-Ang):
   XX=              4.9222   YY=              2.4289   ZZ=             -7.3511
   XY=              6.1216   XZ=             -9.7132   YZ=             -3.7393
 Octapole moment (field-independent basis, Debye-Ang**2):
  XXX=            -70.1547  YYY=             39.8885  ZZZ=             -7.9588  XYY=             30.5701
  XXY=             37.8674  XXZ=            -24.0794  XZZ=              6.5756  YZZ=              4.0111
  YYZ=              2.5732  XYZ=             -4.3772
 Hexadecapole moment (field-independent basis, Debye-Ang**3):
 XXXX=          -2487.7318 YYYY=          -1851.9273 ZZZZ=           -362.0991 XXXY=            141.5378
 XXXZ=            -98.3300 YYYX=             75.2504 YYYZ=             -9.3248 ZZZX=            -34.1517
 ZZZY=            -22.2141 XXYY=           -700.4472 XXZZ=           -493.7168 YYZZ=           -370.1844
 XXYZ=            -20.6414 YYXZ=            -40.4195 ZZXY=              7.0612
 N-N= 1.085832857528D+03 E-N=-3.811714064106D+03  KE= 6.993664926495D+02
 PrsmSu:  requested number of processors reduced to:  13 ShMem   1 Linda.
 Calling FoFJK, ICntrl=      2127 FMM=F ISym2X=0 I1Cent= 0 IOpClX= 0 NMat=1 NMatS=1 NMatT=0.
 ***** Axes restored to original set *****
 -------------------------------------------------------------------
 Center     Atomic                   Forces (Hartrees/Bohr)
 Number     Number              X              Y              Z
 -------------------------------------------------------------------
      1        6           0.008653272    0.012775962   -0.008380698
      2        6          -0.007566434   -0.040190884   -0.002778460
      3        7          -0.050382414   -0.000136471    0.007920228
      4        6           0.027616357   -0.018100877    0.000385358
      5        6           0.005482621    0.016879180    0.016876010
      6        6           0.004839115   -0.012908181    0.001272951
      7        6           0.003183352    0.019152388   -0.006029413
      8        6          -0.005376124   -0.019254269   -0.001086722
      9        7          -0.006071641    0.024450519    0.023303917
     10        8          -0.003360899    0.007968926    0.005567269
     11        6           0.008661629   -0.041696261   -0.012034159
     12        6          -0.023276166    0.020827309   -0.022423313
     13        6          -0.021707013    0.053769531    0.059176184
     14        6          -0.004912500   -0.047891298   -0.058143130
     15        6          -0.050529386   -0.062199635    0.011940100
     16        7           0.047200712    0.031726603   -0.024513362
     17        1           0.023993045    0.011535194   -0.002960636
     18        1           0.008220703    0.005406283    0.003851728
     19        1           0.019559190    0.014975000   -0.005667846
     20        1           0.000647284    0.005654422   -0.007885215
     21        1           0.010051108    0.011541623   -0.011804169
     22        1           0.024832871    0.010751855    0.035896466
     23        1          -0.019311151    0.005097557   -0.005473274
     24        1           0.001244452   -0.007407891    0.002974936
     25        1          -0.008441572    0.006022756    0.005646186
     26        1          -0.003328510    0.010747921    0.004227587
     27        1           0.007383291   -0.015555774   -0.007555216
     28        1          -0.002379995    0.001800961    0.018680042
     29        1           0.023502205    0.004266211    0.018872867
     30        1          -0.001798876    0.009914071   -0.040712963
     31        1          -0.016628529   -0.019922732    0.000856749
 -------------------------------------------------------------------
 Cartesian Forces:  Max     0.062199635 RMS     0.021695603

 GradGradGradGradGradGradGradGradGradGradGradGradGradGradGradGradGradGrad
 Berny optimization.
 FormGI is forming the generalized inverse of G from B-inverse, IUseBI=4.
 Internal  Forces:  Max     0.162976004 RMS     0.033711091
 Search for a local minimum.
 Step number   1 out of a maximum of  162
 All quantities printed in internal units (Hartrees-Bohrs-Radians)
 Mixed Optimization -- RFO/linear search
 Second derivative matrix not updated -- first step.
 ITU=  0
     Eigenvalues ---    0.00230   0.00230   0.00309   0.00410   0.00735
     Eigenvalues ---    0.00850   0.01433   0.01594   0.01694   0.01785
     Eigenvalues ---    0.02009   0.02099   0.02242   0.02265   0.02342
     Eigenvalues ---    0.02437   0.02443   0.02464   0.02584   0.02663
     Eigenvalues ---    0.02791   0.03817   0.04192   0.05031   0.05051
     Eigenvalues ---    0.05412   0.05449   0.05657   0.05816   0.09568
     Eigenvalues ---    0.10089   0.11143   0.13393   0.14417   0.14761
     Eigenvalues ---    0.14976   0.15017   0.15617   0.15663   0.15868
     Eigenvalues ---    0.15930   0.15966   0.16000   0.16000   0.16000
     Eigenvalues ---    0.16000   0.16207   0.17424   0.17792   0.18020
     Eigenvalues ---    0.20622   0.22037   0.22084   0.22108   0.22451
     Eigenvalues ---    0.22690   0.23188   0.24147   0.24806   0.30087
     Eigenvalues ---    0.30232   0.30973   0.31812   0.32780   0.33056
     Eigenvalues ---    0.33156   0.33742   0.33824   0.34371   0.35078
     Eigenvalues ---    0.35418   0.35823   0.36666   0.36750   0.37591
     Eigenvalues ---    0.39579   0.40541   0.41008   0.44036   0.45153
     Eigenvalues ---    0.45626   0.46311   0.49417   0.50665   0.50988
     Eigenvalues ---    0.53574   0.55683
 RFO step:  Lambda=-3.37146243D-01 EMin= 2.30000000D-03
 Linear search not attempted -- first point.
 Maximum step size (   0.300) exceeded in Quadratic search.
    -- Step size scaled by   0.493
 Iteration  1 RMS(Cart)=  0.31104595 RMS(Int)=  0.01159621
 Iteration  2 RMS(Cart)=  0.07131844 RMS(Int)=  0.00061838
 Iteration  3 RMS(Cart)=  0.00120345 RMS(Int)=  0.00038444
 Iteration  4 RMS(Cart)=  0.00000061 RMS(Int)=  0.00038444
 Variable       Old X    -DE/DX   Delta X   Delta X   Delta X     New X
                                 (Linear)    (Quad)   (Total)
    R1        3.37618  -0.06755   0.00000  -0.06919  -0.06919   3.30699
    R2        2.12764  -0.01559   0.00000  -0.01188  -0.01188   2.11575
    R3        2.07628  -0.00333   0.00000  -0.00243  -0.00243   2.07385
    R4        2.11189  -0.01394   0.00000  -0.01049  -0.01049   2.10140
    R5        3.32120  -0.06465   0.00000  -0.06341  -0.06348   3.25772
    R6        2.04359   0.00566   0.00000   0.00401   0.00401   2.04761
    R7        2.09866   0.00081   0.00000   0.00012  -0.00007   2.09859
    R8        2.69946   0.00382   0.00000   0.00356   0.00369   2.70315
    R9        2.82254  -0.01252   0.00000  -0.00924  -0.00924   2.81330
   R10        2.06708   0.00261   0.00000   0.00189   0.00189   2.06897
   R11        2.07222  -0.00703   0.00000  -0.00517  -0.00501   2.06721
   R12        2.57770  -0.00071   0.00000  -0.00034  -0.00033   2.57736
   R13        2.73012  -0.07657   0.00000  -0.05212  -0.05219   2.67793
   R14        2.68537   0.02438   0.00000   0.01614   0.01623   2.70159
   R15        2.05002   0.00257   0.00000   0.00183   0.00183   2.05185
   R16        2.58525   0.00799   0.00000   0.00477   0.00485   2.59010
   R17        2.03052   0.00707   0.00000   0.00495   0.00495   2.03547
   R18        2.55444   0.01253   0.00000   0.00687   0.00688   2.56132
   R19        2.02925   0.00897   0.00000   0.00627   0.00627   2.03553
   R20        2.63474   0.01280   0.00000   0.00757   0.00750   2.64224
   R21        1.93112  -0.01421   0.00000  -0.00901  -0.00901   1.92210
   R22        2.61568   0.00415   0.00000   0.00253   0.00249   2.61817
   R23        2.59200  -0.04421   0.00000  -0.02583  -0.02583   2.56617
   R24        2.70207  -0.02021   0.00000  -0.01333  -0.01333   2.68873
   R25        2.05549  -0.00302   0.00000  -0.00217  -0.00217   2.05332
   R26        2.54530   0.13640   0.00000   0.07522   0.07522   2.62052
   R27        2.07768  -0.00487   0.00000  -0.00356  -0.00356   2.07412
   R28        3.21199   0.02424   0.00000   0.02310   0.02310   3.23509
   R29        2.09440  -0.01004   0.00000  -0.00744  -0.00744   2.08696
   R30        2.63782  -0.04745   0.00000  -0.02923  -0.02923   2.60859
   R31        2.14490  -0.02022   0.00000  -0.01562  -0.01562   2.12927
   R32        3.57615   0.02255   0.00000   0.02749   0.02747   3.60362
    A1        1.90196  -0.02336   0.00000  -0.02262  -0.02271   1.87925
    A2        2.02612  -0.00037   0.00000  -0.00061  -0.00064   2.02549
    A3        2.09794  -0.01825   0.00000  -0.01836  -0.01845   2.07949
    A4        1.78199   0.01519   0.00000   0.01557   0.01557   1.79756
    A5        1.72199   0.02426   0.00000   0.02450   0.02435   1.74634
    A6        1.88258   0.01031   0.00000   0.00958   0.00955   1.89213
    A7        2.44969  -0.04211   0.00000  -0.04332  -0.04337   2.40632
    A8        1.78715   0.01537   0.00000   0.01488   0.01462   1.80177
    A9        1.61260   0.02838   0.00000   0.02828   0.02840   1.64101
   A10        1.87836   0.01273   0.00000   0.01263   0.01262   1.89098
   A11        1.80154  -0.00886   0.00000  -0.00741  -0.00728   1.79426
   A12        1.85338   0.00317   0.00000   0.00493   0.00467   1.85806
   A13        1.74876   0.02680   0.00000   0.02613   0.02612   1.77489
   A14        1.78743  -0.02022   0.00000  -0.02051  -0.02165   1.76577
   A15        1.64396   0.00589   0.00000   0.00222   0.00106   1.64501
   A16        2.14603  -0.00465   0.00000  -0.00193  -0.00190   2.14413
   A17        2.25260  -0.05469   0.00000  -0.06157  -0.06182   2.19078
   A18        1.94094   0.05211   0.00000   0.05621   0.05670   1.99764
   A19        1.71576   0.00726   0.00000   0.00989   0.01068   1.72645
   A20        2.07924   0.12829   0.00000   0.10682   0.10667   2.18591
   A21        2.10772  -0.16298   0.00000  -0.13859  -0.13845   1.96927
   A22        2.08620   0.03234   0.00000   0.02862   0.02854   2.11474
   A23        2.11376  -0.02204   0.00000  -0.01754  -0.01760   2.09616
   A24        2.10763   0.00948   0.00000   0.00738   0.00738   2.11501
   A25        2.04517   0.01344   0.00000   0.01135   0.01140   2.05657
   A26        2.18247  -0.00006   0.00000   0.00215   0.00210   2.18456
   A27        2.00891   0.00635   0.00000   0.00509   0.00510   2.01401
   A28        2.08370  -0.00687   0.00000  -0.00796  -0.00792   2.07578
   A29        2.24837   0.00060   0.00000   0.00199   0.00182   2.25020
   A30        2.05665   0.00300   0.00000   0.00237   0.00246   2.05911
   A31        1.97212  -0.00350   0.00000  -0.00414  -0.00406   1.96807
   A32        2.18003  -0.01181   0.00000  -0.00948  -0.00979   2.17025
   A33        2.07444   0.01626   0.00000   0.01477   0.01485   2.08928
   A34        2.02520  -0.00524   0.00000  -0.00640  -0.00628   2.01892
   A35        1.89830   0.00267   0.00000   0.00370   0.00342   1.90172
   A36        2.05009   0.00627   0.00000   0.00396   0.00349   2.05357
   A37        2.03931  -0.07344   0.00000  -0.06598  -0.06646   1.97284
   A38        2.13307   0.04964   0.00000   0.03827   0.03691   2.16997
   A39        2.19554  -0.02781   0.00000  -0.02631  -0.02685   2.16869
   A40        1.98945   0.00429   0.00000   0.00028  -0.00034   1.98911
   A41        1.96637   0.00183   0.00000  -0.00201  -0.00261   1.96376
   A42        1.71881  -0.06800   0.00000  -0.05961  -0.05963   1.65919
   A43        1.95305   0.01245   0.00000   0.00759   0.00774   1.96079
   A44        2.02728   0.02295   0.00000   0.01976   0.01955   2.04682
   A45        1.97047   0.05981   0.00000   0.05296   0.05299   2.02346
   A46        2.02131   0.00362   0.00000   0.00709   0.00715   2.02846
   A47        2.26613  -0.06262   0.00000  -0.05922  -0.05926   2.20688
   A48        2.64334   0.06102   0.00000   0.05404   0.05395   2.69729
   A49        1.66071  -0.01289   0.00000  -0.00938  -0.00948   1.65123
   A50        1.96625  -0.04518   0.00000  -0.04138  -0.04147   1.92477
   A51        1.88587   0.01128   0.00000   0.01138   0.01097   1.89685
   A52        1.72866  -0.01971   0.00000  -0.02235  -0.02221   1.70645
    D1        3.12071  -0.00249   0.00000  -0.00393  -0.00380   3.11691
    D2        0.70016   0.00791   0.00000   0.00978   0.00986   0.71003
    D3       -1.17003  -0.00397   0.00000  -0.00383  -0.00416  -1.17419
    D4        1.12178  -0.00526   0.00000  -0.00754  -0.00736   1.11442
    D5       -1.29877   0.00514   0.00000   0.00617   0.00630  -1.29246
    D6        3.11423  -0.00673   0.00000  -0.00744  -0.00772   3.10651
    D7       -1.19709   0.00001   0.00000  -0.00063  -0.00042  -1.19751
    D8        2.66555   0.01041   0.00000   0.01309   0.01324   2.67879
    D9        0.79536  -0.00147   0.00000  -0.00052  -0.00078   0.79458
   D10        1.56149   0.01725   0.00000   0.02094   0.02109   1.58258
   D11       -2.32314   0.00577   0.00000   0.00592   0.00607  -2.31707
   D12       -0.36777   0.01029   0.00000   0.01302   0.01288  -0.35489
   D13       -2.08104   0.02799   0.00000   0.02698   0.02695  -2.05409
   D14        0.41959  -0.00888   0.00000  -0.01069  -0.01073   0.40886
   D15        2.39323   0.00275   0.00000   0.00210   0.00197   2.39520
   D16       -2.14558  -0.05546   0.00000  -0.06599  -0.06576  -2.21134
   D17        1.84181   0.00659   0.00000   0.00479   0.00500   1.84681
   D18        0.04904  -0.00520   0.00000  -0.00827  -0.00825   0.04080
   D19        1.44420   0.04750   0.00000   0.06537   0.06480   1.50900
   D20       -1.54499   0.06192   0.00000   0.08628   0.08593  -1.45906
   D21       -2.98957   0.01201   0.00000   0.02140   0.02222  -2.96735
   D22        0.30442   0.02643   0.00000   0.04231   0.04335   0.34777
   D23       -0.87834   0.03366   0.00000   0.04560   0.04502  -0.83332
   D24        2.41565   0.04808   0.00000   0.06651   0.06615   2.48180
   D25        0.15170   0.00024   0.00000   0.00191   0.00181   0.15351
   D26        2.27682   0.01882   0.00000   0.02649   0.02629   2.30310
   D27       -1.60282  -0.01070   0.00000  -0.00707  -0.00630  -1.60912
   D28        2.85989   0.02446   0.00000   0.02876   0.02933   2.88922
   D29       -0.08126   0.01768   0.00000   0.02032   0.02091  -0.06035
   D30       -0.43220  -0.00726   0.00000  -0.00685  -0.00724  -0.43944
   D31        2.90984  -0.01404   0.00000  -0.01529  -0.01566   2.89418
   D32        2.14504   0.01258   0.00000   0.01163   0.01339   2.15843
   D33       -0.63794   0.05159   0.00000   0.07071   0.07061  -0.56733
   D34       -0.84355   0.01886   0.00000   0.02595   0.02594  -0.81760
   D35        2.65665   0.05787   0.00000   0.08502   0.08316   2.73982
   D36        0.67806  -0.01479   0.00000  -0.01893  -0.01876   0.65930
   D37       -2.32552  -0.00937   0.00000  -0.01230  -0.01219  -2.33771
   D38       -2.65707  -0.00850   0.00000  -0.01106  -0.01092  -2.66799
   D39        0.62254  -0.00307   0.00000  -0.00443  -0.00435   0.61819
   D40        0.07143   0.00544   0.00000   0.00785   0.00790   0.07933
   D41       -2.94315   0.00474   0.00000   0.00584   0.00577  -2.93738
   D42        3.06955   0.00079   0.00000   0.00195   0.00210   3.07165
   D43        0.05496   0.00009   0.00000  -0.00006  -0.00003   0.05493
   D44       -0.20131   0.01337   0.00000   0.01730   0.01725  -0.18406
   D45        2.84645   0.00269   0.00000   0.00222   0.00199   2.84843
   D46        2.81831   0.01442   0.00000   0.01960   0.01966   2.83797
   D47       -0.41713   0.00374   0.00000   0.00451   0.00440  -0.41273
   D48       -0.70713  -0.01187   0.00000  -0.01950  -0.01986  -0.72699
   D49        2.52593  -0.00252   0.00000  -0.00584  -0.00619   2.51973
   D50        1.49268   0.00061   0.00000  -0.00435  -0.00368   1.48900
   D51       -2.02807  -0.06813   0.00000  -0.09006  -0.09146  -2.11953
   D52        2.54236  -0.09028   0.00000  -0.12251  -0.12246   2.41990
   D53       -0.02725  -0.04916   0.00000  -0.06735  -0.06742  -0.09467
   D54       -0.22228  -0.03798   0.00000  -0.05138  -0.05132  -0.27360
   D55       -2.79189   0.00314   0.00000   0.00378   0.00372  -2.78817
   D56       -1.91072   0.03640   0.00000   0.04899   0.04876  -1.86196
   D57        0.23084   0.02949   0.00000   0.04108   0.04111   0.27196
   D58        0.66525  -0.00342   0.00000  -0.00479  -0.00482   0.66044
   D59        2.80682  -0.01033   0.00000  -0.01270  -0.01247   2.79435
   D60        1.08113  -0.03528   0.00000  -0.04405  -0.04396   1.03717
   D61       -1.84484  -0.02999   0.00000  -0.03931  -0.03960  -1.88444
   D62       -1.00564  -0.01642   0.00000  -0.02337  -0.02307  -1.02872
   D63        2.35157  -0.01113   0.00000  -0.01862  -0.01871   2.33286
   D64       -1.24892  -0.00534   0.00000  -0.00589  -0.00572  -1.25465
   D65        1.66894   0.00572   0.00000   0.00959   0.00977   1.67871
   D66        1.63912   0.00239   0.00000   0.00219   0.00201   1.64113
   D67       -1.72620   0.01345   0.00000   0.01767   0.01750  -1.70870
   D68       -0.43656   0.00761   0.00000   0.00861   0.00862  -0.42794
         Item               Value     Threshold  Converged?
 Maximum Force            0.162976     0.000450     NO 
 RMS     Force            0.033711     0.000300     NO 
 Maximum Displacement     1.501364     0.001800     NO 
 RMS     Displacement     0.374642     0.001200     NO 
 Predicted change in Energy=-1.543077D-01
 GradGradGradGradGradGradGradGradGradGradGradGradGradGradGradGradGradGrad

                          Input orientation:                          
 ---------------------------------------------------------------------
 Center     Atomic      Atomic             Coordinates (Angstroms)
 Number     Number       Type             X           Y           Z
 ---------------------------------------------------------------------
      1          6           0        2.023532    0.484173   -0.419174
      2          6           0        3.738882    0.817691   -0.512943
      3          7           0        4.835325    2.036747    0.019588
      4          6           0        5.234281    1.530125    1.296440
      5          6           0        4.945603    2.698143    2.173208
      6          6           0        3.740785    2.968820    2.752279
      7          6           0        3.652338    3.928096    3.808586
      8          6           0        4.366356    5.096100    3.876061
      9          7           0        5.214354    5.629801    2.963291
     10          8           0        5.682531    4.954509    1.832009
     11          6           0        5.994488    3.650991    2.182829
     12          6           0        7.222585    3.090890    2.034142
     13          6           0        8.257669    3.634000    1.222945
     14          6           0        8.140767    2.681843    0.221583
     15          6           0        6.612172    2.582997   -0.542841
     16          7           0        5.270337    2.265978   -0.609909
     17          1           0        1.831156   -0.466910   -0.977704
     18          1           0        1.364513    1.203275   -0.922113
     19          1           0        1.575092    0.225539    0.564995
     20          1           0        3.986146    0.559904   -1.535918
     21          1           0        4.022502   -0.057269    0.109370
     22          1           0        6.227523    1.221435    0.954565
     23          1           0        4.884740    0.571137    1.689916
     24          1           0        2.870766    2.349694    2.555568
[...]
 0290,-0.00009779,0.00010393,0.00001813,-0.00002419,-0.00008867,-0.0000
 3024,0.00006398,0.00000325,-0.00006560,-0.00007119,-0.00004597,-0.0000
 1843,-0.00000752,-0.00002222,0.00000298,0.00000671,0.00000820,0.000015
 33,0.00000398,0.00000039,-0.00002535,-0.00003086,-0.00001207,0.0000051
 2,0.00000324,0.00001648,0.00004110,-0.00032881,-0.00019135,-0.00004910
 ,-0.00004496,0.00001002,-0.00111745,0.00053436,-0.00015577,-0.15933494
 ,-0.01903829,0.16031189,0.00000751,-0.00000212,0.00000345,-0.00006269,
 -0.00003386,-0.00005254,0.00015836,-0.00004171,-0.00014914,-0.00016486
 ,0.00012296,-0.00031179,-0.00058549,-0.00047353,0.00061795,0.00274689,
 -0.00397712,0.00380330,0.00908310,-0.00914735,-0.00823445,-0.06807302,
 0.04417125,0.06059161,-0.00294906,0.01575214,0.02370347,-0.00332781,-0
 .00229351,-0.00314320,0.00005170,0.00117834,0.00093510,-0.00044830,0.0
 0010786,-0.00033418,0.00043880,0.00021006,-0.00015264,-0.00002679,0.00
 006491,0.00024246,-0.00002600,-0.00029090,0.00001288,-0.00001799,0.000
 14627,-0.00010141,0.00001275,0.00000607,0.00000355,-0.00000578,-0.0000
 0345,-0.00001197,-0.00001029,0.00000485,-0.00000501,0.00000786,0.00002
 483,0.00001389,0.00001452,-0.00000254,0.00000320,-0.00008019,0.0000558
 0,0.00009913,0.00000914,0.00006519,0.00004230,0.00018391,-0.00062282,-
 0.00037553,-0.00203186,0.00129532,-0.00324532,0.06499669,-0.00000105,-
 0.00001066,-0.00000192,0.00003137,0.00003118,0.00004424,-0.00001839,0.
 00003221,0.00002685,0.00034680,-0.00009466,0.00020170,-0.00021692,0.00
 025236,-0.00012668,-0.00571144,-0.00064624,-0.00078597,0.00917724,-0.0
 1625249,-0.01975178,0.04560749,-0.18191626,-0.13517640,-0.00322152,0.0
 0587555,0.00569020,-0.00310577,0.00324571,0.00419553,-0.00020941,-0.00
 180078,0.00076916,0.00022752,0.00058126,-0.00000440,-0.00010099,-0.000
 08845,-0.00000600,0.00001619,-0.00000681,-0.00007406,0.00001287,0.0000
 4934,0.00000147,-0.00001938,-0.00002605,-0.00000195,-0.00000962,-0.000
 00190,-0.00000709,0.00000448,0.00000416,-0.00000378,0.00000421,0.00000
 260,0.00000024,-0.00000295,-0.00000901,-0.00000664,0.00001713,-0.00000
 441,0.00000679,0.00009355,-0.00010742,-0.00012693,0.00003536,0.0000894
 4,-0.00000820,0.00030864,-0.00107173,-0.00070007,0.00168309,-0.0002718
 8,0.00188320,-0.04586606,0.19043325,0.00000443,0.00000409,-0.00000030,
 -0.00000168,-0.00002242,-0.00001862,0.00005403,-0.00007599,-0.00019267
 ,-0.00033179,0.00009896,-0.00022615,0.00029052,-0.00008048,0.00039696,
 0.00252594,-0.00159537,0.00437745,0.00287243,0.00219093,0.00277714,0.0
 6160560,-0.13285006,-0.17210400,0.00660017,-0.01152586,-0.01049404,0.0
 0501351,-0.00303389,-0.00357561,0.00012274,0.00310327,-0.00049137,-0.0
 0028276,-0.00085739,-0.00015765,0.00019432,0.00016061,0.00011636,-0.00
 001514,-0.00002873,0.00009681,-0.00004178,-0.00006442,0.00000934,-0.00
 001346,0.00004302,-0.00004503,0.00000135,-0.00000078,0.00000090,-0.000
 00195,-0.00000054,-0.00000209,0.00000048,0.00000090,0.00000019,-0.0000
 0660,-0.00000001,0.00000273,-0.00000103,-0.00000190,0.00000081,-0.0000
 8022,0.00012868,0.00012562,-0.00003309,-0.00001979,0.00003265,0.000029
 62,0.00000357,-0.00012974,-0.00262892,0.00135096,-0.00171718,-0.074131
 80,0.14347970,0.18226332,0.00001556,0.00000789,0.00000883,-0.00012572,
 -0.00007980,-0.00008432,0.00008881,0.00003470,-0.00011335,0.00007895,-
 0.00029868,0.00020170,-0.00114720,-0.00162323,0.00097915,0.00128943,-0
 .00184086,-0.00227316,-0.00071526,0.00520575,0.00602784,-0.01808271,-0
 .03821243,0.00205589,-0.01625458,-0.03130622,0.02148868,-0.00087425,-0
 .00284035,-0.00524465,-0.00078092,0.00448260,0.00124387,-0.00133227,-0
 .00037080,-0.00047350,0.00079999,0.00062838,-0.00020649,-0.00009862,-0
 .00011889,0.00045508,0.00008319,-0.00026006,-0.00000537,-0.00006613,0.
 00019800,0.00002216,0.00002489,0.00000653,0.00001365,-0.00001504,-0.00
 000368,-0.00000741,-0.00001173,0.00000535,-0.00001110,0.00001825,0.000
 04589,0.00002318,0.00000468,-0.00000183,0.00000776,-0.00006192,0.00006
 342,0.00005998,0.00004667,0.00004175,0.00001293,0.00001980,-0.00000248
 ,-0.00016731,-0.00019700,-0.00149344,0.00048575,0.00047479,0.00094223,
 -0.00171210,0.03723914,0.00000467,0.00000438,0.00000015,-0.00000035,-0
 .00002373,0.00001806,-0.00011079,0.00002650,0.00016549,-0.00002363,-0.
 00012221,-0.00034548,-0.00061566,0.00048068,0.00015495,0.00099051,-0.0
 0036674,-0.00006215,-0.00017230,0.00234161,0.00236148,0.00669868,-0.00
 755131,0.00133758,-0.07683142,-0.43208053,0.01826608,0.00412828,-0.006
 31094,0.00088542,0.00076345,-0.00100430,-0.00374673,-0.00036177,-0.000
 12823,0.00079094,-0.00016925,-0.00014236,-0.00009585,-0.00003980,0.000
 08239,-0.00011552,-0.00003872,0.00015402,-0.00001573,0.00009896,-0.000
 06544,0.00006372,0.00000068,-0.00000211,0.00000639,-0.00000137,0.00000
 361,0.00001313,0.00000494,-0.00000272,-0.00000328,-0.00000764,-0.00000
 370,-0.00000552,-0.00002900,-0.00000557,-0.00000522,-0.00001573,0.0000
 6485,0.00006716,-0.00001670,0.00001737,0.00003296,0.00000301,0.0000200
 1,0.00005646,-0.00085029,0.00025438,-0.00110919,-0.00047588,0.00168430
 ,-0.00033299,0.06686774,0.44259927,0.00000461,-0.00000459,-0.00000228,
 0.00003389,-0.00004977,0.00002557,-0.00010656,-0.00003549,0.00001756,-
 0.00024234,-0.00023806,-0.00012412,-0.00080941,-0.00093158,0.00073434,
 0.00059491,-0.00170101,-0.00151209,0.00430157,0.00150382,-0.00106398,-
 0.00474354,0.01883761,0.00162066,0.02506558,0.04725704,-0.04486457,-0.
 00051347,-0.04819617,-0.01612985,-0.00219816,0.00245604,-0.00702551,0.
 00012710,-0.00145404,0.00108367,-0.00058858,-0.00039466,0.00011278,-0.
 00004082,0.00010170,-0.00027100,-0.00001297,0.00027355,-0.00000694,-0.
 00000594,-0.00003722,0.00009892,-0.00000419,-0.00000298,0.00000390,-0.
 00000166,0.00000743,0.00001670,0.00001114,0.00000271,-0.00000218,-0.00
 002114,-0.00000407,-0.00001529,-0.00003300,-0.00000609,0.00000114,-0.0
 0003955,0.00018575,0.00010231,-0.00002746,-0.00004548,-0.00001060,-0.0
 0006984,0.00010847,-0.00001096,0.00117808,0.00032431,0.00097168,0.0002
 7239,0.00044080,-0.00088346,-0.02289712,-0.01848431,0.06706287,0.00007
 591,0.00003397,0.00002101,-0.00015721,-0.00004287,0.00016086,-0.003430
 86,-0.00064619,-0.00125256,-0.00306752,-0.00135429,0.00036001,-0.00374
 657,0.00084412,-0.00130829,0.00064871,-0.00018224,-0.00081780,-0.00037
 742,0.00001246,0.00006694,0.00046397,0.00094229,-0.00041482,-0.0016461
 1,0.00144366,0.00233872,0.00458756,-0.00306161,0.00711271,-0.00447342,
 0.02483639,-0.00286961,-0.06592350,0.07970288,0.00401211,0.00461210,-0
 .01136055,0.00610159,-0.00028312,-0.00167726,-0.00173626,0.00048457,0.
 00079856,-0.00058389,0.00067494,-0.00058770,-0.00011955,0.00001199,-0.
 00000944,0.00002999,-0.00000852,-0.00000267,0.00002281,0.00000196,-0.0
 0001031,0.00000687,0.00003226,0.00004198,0.00001089,-0.00008298,0.0000
 0351,-0.00002492,-0.00009922,-0.00191061,0.00045006,0.00048434,0.00006
 365,0.00021626,0.00039250,-0.00014686,0.00049393,0.00004907,-0.0000521
 2,-0.00001038,-0.00030558,-0.00007055,0.00004181,-0.00024052,0.0001087
 2,0.00058875,0.07033533,0.00006323,0.00002414,-0.00002655,0.00006980,-
 0.00050129,0.00011905,-0.00197149,0.00004493,-0.00118278,-0.00442664,-
 0.00191885,0.00187609,-0.00206428,-0.00075483,-0.00061480,0.00005336,-
 0.00037919,-0.00023833,0.00010943,0.00022567,0.00005851,-0.00030279,-0
 .00015209,0.00004006,0.00038277,0.00109816,0.00099826,0.00231672,-0.00
 018687,0.00074024,0.00272542,-0.00798077,-0.00138292,0.09056622,-0.313
 21052,0.00808531,0.00245499,-0.01727047,0.00541080,-0.00071463,-0.0007
 6546,-0.00315714,0.00063522,0.00140386,-0.00232365,-0.00101690,-0.0013
 0501,-0.00111052,0.00000601,0.00000925,0.00002472,-0.00001738,0.000011
 78,-0.00002089,0.00000166,0.00000495,-0.00000711,-0.00020193,0.0000005
 8,-0.00005513,0.00002163,-0.00002106,0.00001196,-0.00261068,-0.0021436
 9,0.00137867,-0.00049846,-0.00006343,-0.00023737,0.00008403,0.00005851
 ,0.00013622,0.00001297,0.00000358,0.00001067,-0.00006819,0.00003760,-0
 .00009988,-0.00010517,0.00008452,0.00014861,-0.08587037,0.34383807,-0.
 00004614,0.00000435,-0.00001629,0.00007414,-0.00000311,-0.00033788,-0.
 00193456,-0.00030646,-0.00050643,0.00205065,-0.00009822,0.00073689,-0.
 00172933,0.00007628,-0.00247522,0.00057062,-0.00036656,-0.00049059,0.0
 0013627,0.00049729,0.00030641,-0.00079735,-0.00024640,-0.00010318,0.00
 076157,0.00156318,0.00255105,0.01002422,-0.00562009,0.00105468,0.00338
 844,-0.01973930,-0.00174993,0.00520971,0.00612149,-0.04724031,-0.00360
 834,0.02716088,-0.00022509,0.00033639,-0.00008547,-0.00240152,0.000720
 11,0.00141287,-0.00398496,-0.00144596,-0.00224542,0.00031219,0.0000115
 2,-0.00000623,-0.00001592,-0.00001370,0.00000816,-0.00004510,0.0000125
 4,-0.00002217,-0.00000841,-0.00002588,0.00005118,0.00006680,0.00010645
 ,0.00000855,0.00001112,0.00038640,0.00151316,0.00030285,-0.00011920,0.
 00038388,-0.00014624,0.00028641,-0.00012866,0.00029289,0.00001219,0.00
 002750,0.00000453,-0.00015996,0.00007796,-0.00020415,-0.00012962,0.000
 12410,0.00016583,-0.01531508,-0.01069096,0.05711511,0.00002906,-0.0000
 4399,-0.00000243,0.00012954,-0.00018112,-0.00006782,0.00036999,-0.0003
 1139,0.00115664,0.00026060,0.00058864,0.00003298,0.00062827,0.00047645
 ,-0.00081594,-0.00055475,0.00031346,0.00044746,-0.00003305,-0.00030792
 ,-0.00022642,0.00002255,0.00015538,-0.00001692,0.00009401,0.00030049,0
 .00050280,0.00026460,-0.00010066,-0.00024212,-0.00199386,0.00076140,0.
 00177982,0.00598227,-0.00584917,-0.00760323,-0.04555921,-0.03670791,0.
 01418224,0.00595515,-0.00124836,0.00056645,0.01330203,-0.00122835,0.00
 181235,-0.00320979,0.00125601,-0.00234252,-0.00000634,0.00002046,0.000
 00882,-0.00000055,0.00000260,0.00003112,-0.00001911,0.00002209,-0.0000
 0557,0.00001124,0.00000815,-0.00001967,0.00001929,0.00001745,0.0000222
 2,0.00018953,-0.00005376,0.00003698,0.00001649,0.00003080,-0.00008548,
 0.00007178,-0.00002498,0.00007078,0.00000071,0.00000018,-0.00000739,-0
 .00000196,0.00000850,-0.00003559,0.00001450,0.00003415,0.00008203,0.00
 136055,0.00078617,0.00137222,0.02952935,-0.00001472,-0.00005684,-0.000
 00500,0.00006849,0.00007991,0.00009970,-0.00025739,0.00028115,-0.00024
 174,-0.00009844,-0.00020844,0.00014749,-0.00041711,-0.00011137,0.00029
 100,0.00013261,-0.00032346,-0.00024806,0.00011808,0.00029472,0.0000876
 4,-0.00029145,-0.00020303,0.00015218,0.00039554,0.00025726,-0.00030944
 ,-0.00065033,0.00051799,-0.00032022,0.00188972,-0.00087578,-0.00041308
 ,-0.00092250,-0.00752393,0.00199490,-0.03664429,-0.32655005,0.02302121
 ,-0.00367754,-0.01436056,0.00426913,-0.00025203,0.00085346,-0.00231109
 ,0.00048571,-0.00030784,0.00049528,-0.00000713,0.00001356,-0.00001747,
 0.00000684,0.00000187,-0.00001070,-0.00001018,0.00001859,0.00000183,-0
 .00001930,-0.00002041,-0.00001965,-0.00001059,-0.00001358,-0.00001466,
 -0.00009344,0.00010046,-0.00001759,-0.00007252,-0.00004016,-0.00001408
 ,-0.00004557,0.00000334,-0.00000761,-0.00000620,0.00000921,0.00002333,
 0.00000765,0.00000937,-0.00000469,-0.00010079,0.00004487,0.00002359,-0
 .00163957,-0.00029441,0.00083441,0.04158853,0.34790960,0.00000892,-0.0
 0002192,-0.00000579,0.00006382,0.00010563,0.00012720,-0.00040535,0.000
 27642,0.00018728,-0.00009696,0.00016880,-0.00044044,-0.00012149,-0.000
 11057,-0.00052246,0.00016721,0.00021342,0.00002234,-0.00016069,-0.0000
 4714,-0.00000542,0.00020074,0.00006712,-0.00014612,-0.00036718,-0.0001
 3943,-0.00015304,0.00070124,-0.00133853,0.00066608,-0.00194726,0.00074
 726,0.00003242,0.00138952,0.02620671,0.00117952,0.00859094,0.02919308,
 -0.05588110,-0.00444923,-0.02747408,0.00445821,0.00238713,-0.00090824,
 -0.00313952,0.00016215,-0.00054461,0.00011502,-0.00000975,0.00000193,0
 .00000343,0.00000838,0.00000068,0.00002681,-0.00000495,0.00000783,0.00
 000903,0.00003591,-0.00002278,-0.00001636,-0.00006234,-0.00000523,-0.0
 0001533,0.00020789,-0.00018646,-0.00001266,0.00013107,-0.00001385,0.00
 010502,0.00010913,-0.00004304,0.00005588,0.00000599,-0.00001308,-0.000
 01251,0.00003198,-0.00002157,0.00004107,0.00019216,-0.00004107,-0.0000
 8425,0.00247060,0.00241829,-0.00330303,-0.00803490,-0.02775549,0.05600
 207,-0.00000325,-0.00002345,0.00001540,0.00026220,-0.00020566,-0.00009
 039,0.00032063,-0.00001890,0.00025676,-0.00027357,0.00006971,0.0004953
 5,-0.00068514,0.00010795,-0.00081572,0.00023070,-0.00052376,-0.0004891
 0,0.00018438,0.00030066,0.00017620,-0.00019355,-0.00009119,0.00013270,
 0.00044283,0.00059381,0.00010887,-0.00017382,-0.00009080,0.00015233,0.
 00234168,0.00019167,-0.00119508,0.00757745,-0.00164117,0.00353509,0.00
 450637,-0.00219186,-0.00272626,-0.05546854,-0.02441283,0.07815432,-0.0
 0241262,-0.00757176,0.00501008,0.00182720,0.00071655,-0.00163643,0.000
 04933,0.00004530,-0.00004459,-0.00001248,-0.00009439,-0.00009061,-0.00
 010352,0.00006483,0.00005697,-0.00007140,0.00000401,-0.00004018,0.0001
 4856,0.00004625,0.00003271,0.00009217,0.00001199,0.00001500,0.00007647
 ,-0.00011114,-0.00002321,0.00000884,-0.00004240,0.00002803,-0.00000293
 ,-0.00001219,0.00004048,-0.00009329,0.00003418,-0.00004876,-0.00019909
 ,0.00007499,0.00012347,-0.00032266,-0.00033917,-0.00002157,-0.00594806
 ,0.00046577,-0.00120365,0.04772425,-0.00001422,-0.00003316,0.00003518,
 0.00027469,-0.00001826,0.00036080,0.00098948,0.00003203,0.00060411,-0.
 00009274,0.00021473,-0.00055623,0.00062420,-0.00020591,0.00020927,-0.0
 0003708,0.00037562,0.00023573,-0.00007367,-0.00012477,-0.00005187,0.00
 007125,0.00001386,-0.00005122,-0.00013699,-0.00022463,-0.00009143,-0.0
 0010152,0.00008261,-0.00011337,-0.00061025,0.00097220,0.00048308,-0.00
 072359,-0.00185032,-0.00352875,0.00387695,0.00930872,-0.01937769,-0.02
 826701,-0.09291571,0.09167508,-0.01099773,-0.00852575,0.02909892,-0.00
 108648,-0.00541519,-0.00379314,-0.00003534,0.00002466,-0.00001751,0.00
 003753,-0.00005935,0.00009480,-0.00002728,0.00005790,0.00000963,0.0000
 8704,0.00001672,-0.00007265,-0.00017082,0.00003374,-0.00004092,-0.0000
 2620,-0.00001699,0.00000438,-0.00002879,0.00006217,0.00007238,0.000007
 16,0.00003244,-0.00007121,-0.00000239,0.00000883,-0.00001211,0.0000430
 0,-0.00001152,0.00002056,0.00008149,-0.00002500,-0.00005472,-0.0001878
 6,0.00009665,-0.00022971,0.00108247,0.00106858,0.00060310,0.03529574,0
 .09640849,0.00001505,0.00003673,0.00001704,-0.00010453,-0.00002728,-0.
 00007086,-0.00007950,-0.00024433,0.00009934,0.00001028,-0.00001303,0.0
 0002425,0.00037357,-0.00021027,-0.00010569,0.00006475,0.00010814,0.000
 07112,-0.00001428,-0.00002893,0.00000994,0.00004020,-0.00001193,-0.000
 03302,-0.00004093,0.00009194,0.00008166,0.00021497,-0.00035138,0.00004
 535,-0.00064608,0.00107316,-0.00045198,0.00295772,-0.00441190,-0.00268
 211,0.00780172,0.01178096,-0.02065495,0.07142031,0.08917834,-0.2665527
 0,0.00043569,-0.00345196,0.00176116,-0.00112055,0.00033321,-0.00016566
 ,0.00001492,-0.00000789,0.00000911,-0.00000969,-0.00000805,-0.00001471
 ,0.00000041,-0.00001541,-0.00000716,0.00000490,0.00002665,0.00002824,0
 .00000806,0.00000629,0.00001086,0.00003308,-0.00001790,0.00003859,0.00
 003728,0.00000986,-0.00000170,0.00000582,0.00002256,-0.00005354,0.0000
 0509,-0.00000369,-0.00001197,0.00000543,-0.00000346,-0.00000807,0.0000
 1045,0.00001888,-0.00000783,-0.00014289,-0.00014763,0.00040499,-0.0020
 3377,0.00013262,0.00072993,-0.07937132,-0.09443926,0.28717368,-0.00007
 378,-0.00000122,-0.00003668,0.00132185,-0.00079551,-0.00013240,0.00658
 530,-0.00303719,0.01022566,-0.00225776,0.00108991,0.00024100,0.0000554
 1,-0.00035071,0.00044490,0.00001773,0.00025870,0.00016451,-0.00006710,
 0.00010428,-0.00009696,-0.00016679,-0.00004792,0.00007222,0.00015548,-
 0.00010563,-0.00006192,-0.00003263,0.00016527,-0.00014192,-0.00027982,
 0.00004923,0.00053138,0.00081549,-0.00000060,-0.00068021,-0.00018858,0
 .00017889,0.00097499,0.00650682,-0.00616916,0.00017651,-0.14275462,0.0
 8942382,0.09118616,-0.03181944,0.00393210,0.01387432,-0.00006259,0.000
 02098,-0.00004313,-0.00003235,-0.00000101,0.00002361,0.00002974,0.0000
 1967,-0.00001475,-0.00014661,-0.00007354,-0.00014426,0.00006085,0.0000
 6036,0.00005682,-0.00002546,0.00006510,0.00011033,-0.00005253,0.000049
 00,0.00053431,0.00009163,-0.00002121,0.00005280,-0.00001712,0.00001894
 ,0.00001217,0.00002494,0.00000319,0.00000972,0.00000431,-0.00001847,-0
 .00002777,-0.00005053,-0.00008155,-0.00011315,-0.00092484,0.00007213,-
 0.00000104,0.00017085,0.00014897,0.00010385,0.16311216,-0.00002349,-0.
 00013989,0.00005455,-0.00020369,0.00081444,0.00089041,-0.00470393,0.00
 040025,0.00142980,-0.00029751,0.00008599,-0.00086371,0.00001133,-0.000
 22490,0.00005618,0.00008617,0.00021108,0.00004458,-0.00004460,0.000033
 37,-0.00000635,-0.00006966,-0.00006912,-0.00000503,0.00000781,-0.00015
 568,-0.00011726,0.00002320,0.00019043,-0.00003277,-0.00033342,0.000220
 65,-0.00006784,0.00097444,-0.00006615,0.00079851,-0.00061879,-0.005011
 47,0.00246966,0.01731578,-0.01547441,-0.02058116,0.09163278,-0.1263988
 7,-0.07844859,-0.01672022,0.01028210,0.01482478,-0.00000597,0.00001626
 ,-0.00004653,0.00006029,0.00005008,-0.00005526,-0.00000046,0.00002059,
 -0.00000646,0.00001568,-0.00014249,-0.00006687,-0.00038979,-0.00018468
 ,-0.00016983,0.00015697,-0.00007661,0.00006763,0.00000162,0.00000227,0
 .00016075,0.00005770,0.00001122,0.00000304,0.00000268,0.00001168,-0.00
 000826,0.00004253,-0.00000808,0.00000992,0.00004699,-0.00002787,-0.000
 03119,-0.00001914,0.00000570,-0.00007647,-0.00139575,-0.00057409,-0.00
 132321,-0.00065275,0.00061660,0.00057500,-0.08495681,0.13558158,0.0000
 6526,0.00004538,-0.00015382,0.00130407,-0.00178369,-0.00229108,0.00726
 000,0.00075938,0.01114490,-0.00109039,0.00083895,0.00160835,0.00015632
 ,-0.00013319,-0.00001232,-0.00018004,0.00022736,0.00022281,-0.00009004
 ,-0.00011061,-0.00011560,0.00007455,0.00005336,-0.00001271,-0.00007895
 ,-0.00003484,-0.00001918,0.00001372,0.00000692,-0.00004208,-0.00030706
 ,0.00002457,0.00057359,0.00089634,0.00018805,-0.00111572,0.00029645,0.
 00098755,0.00330037,0.00318125,-0.00550406,0.00350616,0.09459948,-0.07
 239614,-0.12838966,0.01172173,-0.00355585,-0.01905350,-0.00004513,0.00
 001618,0.00009195,-0.00003606,-0.00001598,0.00016295,-0.00002965,0.000
 00141,0.00000352,-0.00000150,0.00024407,0.00002727,0.00075422,0.000428
 82,0.00037990,-0.00025103,0.00016416,-0.00003069,-0.00000854,0.0000775
 3,0.00013002,0.00004377,-0.00001162,0.00005906,0.00000099,0.00000194,-
 0.00000668,0.00002683,-0.00001093,0.00000877,0.00003643,0.00000007,-0.
 00000304,0.00009009,-0.00016178,-0.00007110,-0.00056516,0.00013628,-0.
 00002326,-0.00053691,-0.00100522,0.00031669,-0.11730107,0.08052195,0.1
 2980413\\0.00000319,-0.00000143,0.00000764,0.00000551,0.00000118,0.000
 01527,-0.00005204,0.00001181,0.00001648,0.00000035,0.00000078,0.000008
 05,-0.00000839,0.00000728,-0.00000416,0.00000487,-0.00000654,-0.000000
 59,0.00000053,0.00000511,0.00000036,-0.00000399,-0.00000189,0.00000374
 ,0.00000460,0.00000512,0.00000888,-0.00000877,0.00000135,-0.00001591,-
 0.00001332,-0.00000942,-0.00002640,0.00007163,-0.00001983,0.00004884,-
 0.00005469,0.00003314,-0.00003036,0.00002222,-0.00001650,0.00003130,0.
 00000368,0.00000145,-0.00001852,0.00002450,-0.00000378,-0.00003955,-0.
 00000041,-0.00000223,0.00000279,-0.00000012,0.00000017,0.00000085,-0.0
 0000003,0.00000102,-0.00000087,-0.00000053,0.00000160,-0.00000052,-0.0
 0002036,0.00000520,-0.00001882,-0.00000239,-0.00000256,0.00000021,0.00
 001372,-0.00000566,0.00001529,0.00000036,-0.00000012,0.,-0.00000039,-0
 .00000052,-0.00000024,-0.00000269,-0.00000003,-0.00000105,0.00000134,0
 .00000072,0.00000250,-0.00000260,-0.00000089,0.00000206,0.00000232,-0.
 00000521,-0.00000333,0.00000360,-0.00000107,-0.00000482,0.00000832,0.0
 0000170,0.00000090\\\@


 MICHAEL FARADAY, ASKED BY A POLITICIAN WHAT GOOD
 HIS ELECTRICAL DISCOVERIES WERE, REPLIED 
 "AT PRESENT I DO NOT KNOW, BUT ONE DAY YOU WILL BE
 ABLE TO TAX THEM."
 Job cpu time:       0 days 11 hours 47 minutes 25.6 seconds.
 Elapsed time:       0 days  2 hours 56 minutes 52.0 seconds.
 File lengths (MBytes):  RWF=    607 Int=      0 D2E=      0 Chk=     23 Scr=      1
 Normal termination of Gaussian 16 at Sat May 20 08:16:38 2023.
### All Done ###
