### Starting Gaussian ###
 Entering Gaussian System, Link 0=g16
 Initial command:
 /cluster/software/gaussian/gaussian-16-A.03/avx2/g16/l1.exe "/local/scratch/linjian/Gau-17094.inp" -scrdir="/local/scratch/linjian/"
 Entering Link 1 = /cluster/software/gaussian/gaussian-16-A.03/avx2/g16/l1.exe PID=     17095.
  
 Copyright (c) 1988,1990,1992,1993,1995,1998,2003,2009,2016,
            Gaussian, Inc.  All Rights Reserved.
  
 This is part of the Gaussian(R) 16 program.  It is based on
 the Gaussian(R) 09 system (copyright 2009, Gaussian, Inc.),
 the Gaussian(R) 03 system (copyright 2003, Gaussian, Inc.),
 the Gaussian(R) 98 system (copyright 1998, Gaussian, Inc.),
 the Gaussian(R) 94 system (copyright 1995, Gaussian, Inc.),
 the Gaussian 92(TM) system (copyright 1992, Gaussian, Inc.),
 the Gaussian 90(TM) system (copyright 1990, Gaussian, Inc.),
 the Gaussian 88(TM) system (copyright 1988, Gaussian, Inc.),
 the Gaussian 86(TM) system (copyright 1986, Carnegie Mellon
 University), and the Gaussian 82(TM) system (copyright 1983,
 Carnegie Mellon University). Gaussian is a federally registered
 trademark of Gaussian, Inc.
  
 This software contains proprietary and confidential information,
 including trade secrets, belonging to Gaussian, Inc.
  
 This software is provided under written license and may be
 used, copied, transmitted, or stored only in accord with that
 written license.
  
 The following legend is applicable only to US Government
 contracts under FAR:
  
                    RESTRICTED RIGHTS LEGEND
  
 Use, reproduction and disclosure by the US Government is
 subject to restrictions as set forth in subparagraphs (a)
 and (c) of the Commercial Computer Software - Restricted
 Rights clause in FAR 52.227-19.
  
 Gaussian, Inc.
 340 Quinnipiac St., Bldg. 40, Wallingford CT 06492
  
  
 ---------------------------------------------------------------
 Warning -- This program may not be used in any manner that
 competes with the business of Gaussian, Inc. or will provide
 assistance to any competitor of Gaussian, Inc.  The licensee
 of this program is prohibited from giving any competitor of
 Gaussian, Inc. access to this program.  By using this program,
 the user acknowledges that Gaussian, Inc. is engaged in the
 business of creating and licensing software in the field of
 computational chemistry and represents and warrants to the
 licensee that it is not a competitor of Gaussian, Inc. and that
 it will not use this program in any manner prohibited above.
 ---------------------------------------------------------------
  

 Cite this work as:
 Gaussian 16, Revision A.03,
 M. J. Frisch, G. W. Trucks, H. B. Schlegel, G. E. Scuseria, 
 M. A. Robb, J. R. Cheeseman, G. Scalmani, V. Barone, 
 G. A. Petersson, H. Nakatsuji, X. Li, M. Caricato, A. V. Marenich, 
 J. Bloino, B. G. Janesko, R. Gomperts, B. Mennucci, H. P. Hratchian, 
 J. V. Ortiz, A. F. Izmaylov, J. L. Sonnenberg, D. Williams-Young, 
 F. Ding, F. Lipparini, F. Egidi, J. Goings, B. Peng, A. Petrone, 
 T. Henderson, D. Ranasinghe, V. G. Zakrzewski, J. Gao, N. Rega, 
 G. Zheng, W. Liang, M. Hada, M. Ehara, K. Toyota, R. Fukuda, 
 J. Hasegawa, M. Ishida, T. Nakajima, Y. Honda, O. Kitao, H. Nakai, 
 T. Vreven, K. Throssell, J. A. Montgomery, Jr., J. E. Peralta, 
 F. Ogliaro, M. J. Bearpark, J. J. Heyd, E. N. Brothers, K. N. Kudin, 
 V. N. Staroverov, T. A. Keith, R. Kobayashi, J. Normand, 
 K. Raghavachari, A. P. Rendell, J. C. Burant, S. S. Iyengar, 
 J. Tomasi, M. Cossi, J. M. Millam, M. Klene, C. Adamo, R. Cammi, 
 J. W. Ochterski, R. L. Martin, K. Morokuma, O. Farkas, 
 J. B. Foresman, and D. J. Fox, Gaussian, Inc., Wallingford CT, 2016.
 
 ******************************************
 Gaussian 16:  ES64L-G16RevA.03 25-Dec-2016
                20-May-2023 
 ******************************************
 %chk=CCN1CdC2CdCCdCCdCCdC2C1dO.chk
 %NProcShared=20
 Will use up to   20 processors via shared memory.
 -----------------------------
 # opt freq b3lyp/6-31g(2df,p)
 -----------------------------
 1/18=20,19=15,26=3,38=1/1,3;
 2/9=110,12=2,17=6,18=5,40=1/2;
 3/5=1,6=6,7=104,11=2,25=1,30=1,71=1,74=-5/1,2,3;
 4//1;
 5/5=2,38=5/2;
 6/7=2,8=2,9=2,10=2,28=1/1;
 7//1,2,3,16;
 1/18=20,19=15,26=3/3(2);
 2/9=110/2;
 99//99;
 2/9=110/2;
 3/5=1,6=6,7=104,11=2,25=1,30=1,71=1,74=-5/1,2,3;
 4/5=5,16=3,69=1/1;
 5/5=2,38=5/2;
 7//1,2,3,16;
 1/18=20,19=15,26=3/3(-5);
 2/9=110/2;
 6/7=2,8=2,9=2,10=2,19=2,28=1/1;
 99/9=1/99;
 -------------------
 Title Card Required
 -------------------
 Symbolic Z-matrix:
 Charge =  0 Multiplicity = 1
 C                     1.13905   0.03829  -0.0944 
 C                     2.6804    0.17767  -0.26896 
 N                     3.38348   0.80773  -1.67193 
 C                     4.11799  -0.05459  -2.43432 
 C                     4.77069   0.48971  -3.48749 
 C                     5.36332  -0.40279  -4.40675 
 C                     5.34614   0.13068  -5.59597 
 C                     6.15795  -0.07051  -6.72137 
 C                     6.10428   1.05811  -7.45597 
 C                     7.30379   1.87912  -7.25569 
 C                     6.80149   2.70162  -6.2438 
 C                     5.58196   2.80237  -4.8563 
 C                     4.7334    2.02607  -3.73944 
 C                     3.42253   2.1082   -2.4239 
 O                     2.55061   2.94775  -2.26807 
 H                     0.84753  -0.34761   0.91224 
 H                     0.70013  -0.67836  -0.79484 
 H                     0.65118   1.00673  -0.18304 
 H                     3.07048  -0.84995  -0.06868 
 H                     3.03491   0.75743   0.59769 
 H                     4.0791   -1.11891  -2.21175 
 H                     5.72564  -1.38875  -4.19836 
 H                     4.73178   1.02303  -5.70493 
 H                     7.075    -0.64037  -6.5838 
 H                     5.24239   1.76069  -7.43473 
 H                     7.70064   1.05789  -7.92626 
 H                     6.94172   3.60065  -6.95589 
 H                     5.3864    3.89278  -4.85881 
 

 GradGradGradGradGradGradGradGradGradGradGradGradGradGradGradGradGradGrad
 Berny optimization.
 Initialization pass.
                           ----------------------------
                           !    Initial Parameters    !
                           ! (Angstroms and Degrees)  !
 --------------------------                            --------------------------
 ! Name  Definition              Value          Derivative Info.                !
 --------------------------------------------------------------------------------
 ! R1    R(1,2)                  1.5575         estimate D2E/DX2                !
 ! R2    R(1,16)                 1.1168         estimate D2E/DX2                !
 ! R3    R(1,17)                 1.094          estimate D2E/DX2                !
 ! R4    R(1,18)                 1.088          estimate D2E/DX2                !
 ! R5    R(2,3)                  1.691          estimate D2E/DX2                !
 ! R6    R(2,19)                 1.1173         estimate D2E/DX2                !
 ! R7    R(2,20)                 1.1013         estimate D2E/DX2                !
 ! R8    R(3,4)                  1.3654         estimate D2E/DX2                !
 ! R9    R(3,14)                 1.5027         estimate D2E/DX2                !
 ! R10   R(4,5)                  1.3533         estimate D2E/DX2                !
 ! R11   R(4,21)                 1.088          estimate D2E/DX2                !
 ! R12   R(5,6)                  1.4117         estimate D2E/DX2                !
 ! R13   R(5,13)                 1.5573         estimate D2E/DX2                !
 ! R14   R(6,7)                  1.3035         estimate D2E/DX2                !
 ! R15   R(6,22)                 1.0709         estimate D2E/DX2                !
 ! R16   R(7,8)                  1.4022         estimate D2E/DX2                !
 ! R17   R(7,23)                 1.0889         estimate D2E/DX2                !
 ! R18   R(8,9)                  1.3477         estimate D2E/DX2                !
 ! R19   R(8,24)                 1.0884         estimate D2E/DX2                !
 ! R20   R(9,10)                 1.4673         estimate D2E/DX2                !
 ! R21   R(9,25)                 1.1122         estimate D2E/DX2                !
 ! R22   R(10,11)                1.3974         estimate D2E/DX2                !
 ! R23   R(10,26)                1.1321         estimate D2E/DX2                !
 ! R24   R(11,27)                1.1554         estimate D2E/DX2                !
 ! R25   R(12,13)                1.6031         estimate D2E/DX2                !
 ! R26   R(12,28)                1.1078         estimate D2E/DX2                !
 ! R27   R(14,15)                1.2204         estimate D2E/DX2                !
 ! A1    A(2,1,16)             112.9721         estimate D2E/DX2                !
 ! A2    A(2,1,17)             112.5767         estimate D2E/DX2                !
 ! A3    A(2,1,18)             110.7924         estimate D2E/DX2                !
 ! A4    A(16,1,17)            104.2421         estimate D2E/DX2                !
 ! A5    A(16,1,18)            105.3049         estimate D2E/DX2                !
 ! A6    A(17,1,18)            110.5495         estimate D2E/DX2                !
 ! A7    A(1,2,3)              122.534          estimate D2E/DX2                !
 ! A8    A(1,2,19)             104.0711         estimate D2E/DX2                !
 ! A9    A(1,2,20)             106.11           estimate D2E/DX2                !
 ! A10   A(3,2,19)             110.2584         estimate D2E/DX2                !
 ! A11   A(3,2,20)             108.8383         estimate D2E/DX2                !
 ! A12   A(19,2,20)            103.3406         estimate D2E/DX2                !
 ! A13   A(2,3,4)              116.8461         estimate D2E/DX2                !
 ! A14   A(2,3,14)             138.4519         estimate D2E/DX2                !
 ! A15   A(4,3,14)             104.6646         estimate D2E/DX2                !
 ! A16   A(3,4,5)              116.1018         estimate D2E/DX2                !
 ! A17   A(3,4,21)             118.9688         estimate D2E/DX2                !
 ! A18   A(5,4,21)             124.7407         estimate D2E/DX2                !
 ! A19   A(4,5,6)              117.0621         estimate D2E/DX2                !
 ! A20   A(4,5,13)             120.7397         estimate D2E/DX2                !
 ! A21   A(6,5,13)             121.8987         estimate D2E/DX2                !
 ! A22   A(5,6,7)              109.2576         estimate D2E/DX2                !
 ! A23   A(5,6,22)             126.6842         estimate D2E/DX2                !
 ! A24   A(7,6,22)             123.9721         estimate D2E/DX2                !
 ! A25   A(6,7,8)              131.7512         estimate D2E/DX2                !
 ! A26   A(6,7,23)             115.73           estimate D2E/DX2                !
 ! A27   A(8,7,23)             111.3428         estimate D2E/DX2                !
 ! A28   A(7,8,9)              107.1139         estimate D2E/DX2                !
 ! A29   A(7,8,24)             117.4836         estimate D2E/DX2                !
 ! A30   A(9,8,24)             122.7453         estimate D2E/DX2                !
 ! A31   A(8,9,10)             111.1998         estimate D2E/DX2                !
 ! A32   A(8,9,25)             123.3313         estimate D2E/DX2                !
 ! A33   A(10,9,25)            106.1079         estimate D2E/DX2                !
 ! A34   A(9,10,11)             97.7197         estimate D2E/DX2                !
 ! A35   A(9,10,26)             78.4526         estimate D2E/DX2                !
 ! A36   A(10,11,27)            88.1706         estimate D2E/DX2                !
 ! A37   A(13,12,28)           112.6295         estimate D2E/DX2                !
 ! A38   A(5,13,12)            125.2925         estimate D2E/DX2                !
 ! A39   A(3,14,15)            120.8557         estimate D2E/DX2                !
 ! A40   L(11,10,26,9,-1)      176.1724         estimate D2E/DX2                !
 ! A41   L(11,10,26,9,-2)      190.3684         estimate D2E/DX2                !
 ! D1    D(16,1,2,3)          -177.0687         estimate D2E/DX2                !
 ! D2    D(16,1,2,19)           57.2484         estimate D2E/DX2                !
 ! D3    D(16,1,2,20)          -51.414          estimate D2E/DX2                !
 ! D4    D(17,1,2,3)            65.1798         estimate D2E/DX2                !
 ! D5    D(17,1,2,19)          -60.5031         estimate D2E/DX2                !
 ! D6    D(17,1,2,20)         -169.1655         estimate D2E/DX2                !
 ! D7    D(18,1,2,3)           -59.1885         estimate D2E/DX2                !
 ! D8    D(18,1,2,19)          175.1287         estimate D2E/DX2                !
 ! D9    D(18,1,2,20)           66.4662         estimate D2E/DX2                !
 ! D10   D(1,2,3,4)           -113.1377         estimate D2E/DX2                !
 ! D11   D(1,2,3,14)            64.2144         estimate D2E/DX2                !
 ! D12   D(19,2,3,4)             9.7393         estimate D2E/DX2                !
 ! D13   D(19,2,3,14)         -172.9086         estimate D2E/DX2                !
 ! D14   D(20,2,3,4)           122.4324         estimate D2E/DX2                !
 ! D15   D(20,2,3,14)          -60.2154         estimate D2E/DX2                !
 ! D16   D(2,3,4,5)           -174.3519         estimate D2E/DX2                !
 ! D17   D(2,3,4,21)            10.4019         estimate D2E/DX2                !
 ! D18   D(14,3,4,5)             7.463          estimate D2E/DX2                !
 ! D19   D(14,3,4,21)         -167.7831         estimate D2E/DX2                !
 ! D20   D(2,3,14,15)          -21.2929         estimate D2E/DX2                !
 ! D21   D(4,3,14,15)          156.2652         estimate D2E/DX2                !
 ! D22   D(3,4,5,6)           -170.4228         estimate D2E/DX2                !
 ! D23   D(3,4,5,13)             3.4093         estimate D2E/DX2                !
 ! D24   D(21,4,5,6)             4.5152         estimate D2E/DX2                !
 ! D25   D(21,4,5,13)          178.3473         estimate D2E/DX2                !
 ! D26   D(4,5,6,7)            148.6804         estimate D2E/DX2                !
 ! D27   D(4,5,6,22)           -28.0335         estimate D2E/DX2                !
 ! D28   D(13,5,6,7)           -25.075          estimate D2E/DX2                !
 ! D29   D(13,5,6,22)          158.2111         estimate D2E/DX2                !
 ! D30   D(4,5,13,12)          173.4068         estimate D2E/DX2                !
 ! D31   D(6,5,13,12)          -13.0641         estimate D2E/DX2                !
 ! D32   D(5,6,7,8)            154.7122         estimate D2E/DX2                !
 ! D33   D(5,6,7,23)           -11.6173         estimate D2E/DX2                !
 ! D34   D(22,6,7,8)           -28.4654         estimate D2E/DX2                !
 ! D35   D(22,6,7,23)          165.2051         estimate D2E/DX2                !
 ! D36   D(6,7,8,9)           -154.6934         estimate D2E/DX2                !
 ! D37   D(6,7,8,24)           -11.7407         estimate D2E/DX2                !
 ! D38   D(23,7,8,9)            12.0931         estimate D2E/DX2                !
 ! D39   D(23,7,8,24)          155.0458         estimate D2E/DX2                !
 ! D40   D(7,8,9,10)           101.461          estimate D2E/DX2                !
 ! D41   D(7,8,9,25)           -26.2199         estimate D2E/DX2                !
 ! D42   D(24,8,9,10)          -39.0844         estimate D2E/DX2                !
 ! D43   D(24,8,9,25)         -166.7652         estimate D2E/DX2                !
 ! D44   D(8,9,10,11)          -93.969          estimate D2E/DX2                !
 ! D45   D(8,9,10,26)           75.6625         estimate D2E/DX2                !
 ! D46   D(25,9,10,11)          42.5381         estimate D2E/DX2                !
 ! D47   D(25,9,10,26)        -147.8304         estimate D2E/DX2                !
 ! D48   D(9,10,11,27)        -117.3322         estimate D2E/DX2                !
 ! D49   D(28,12,13,5)         179.3917         estimate D2E/DX2                !
 --------------------------------------------------------------------------------
 Trust Radius=3.00D-01 FncErr=1.00D-07 GrdErr=1.00D-06 EigMax=2.50D+02 EigMin=1.00D-04
 Number of steps in this run=    127 maximum allowed number of steps=    168.
 GradGradGradGradGradGradGradGradGradGradGradGradGradGradGradGradGradGrad

                          Input orientation:                          
 ---------------------------------------------------------------------
 Center     Atomic      Atomic             Coordinates (Angstroms)
 Number     Number       Type             X           Y           Z
 ---------------------------------------------------------------------
      1          6           0        1.139050    0.038290   -0.094400
      2          6           0        2.680400    0.177670   -0.268960
      3          7           0        3.383480    0.807730   -1.671930
      4          6           0        4.117990   -0.054590   -2.434320
      5          6           0        4.770690    0.489710   -3.487490
      6          6           0        5.363320   -0.402790   -4.406750
      7          6           0        5.346140    0.130680   -5.595970
      8          6           0        6.157950   -0.070510   -6.721370
      9          6           0        6.104280    1.058110   -7.455970
     10          6           0        7.303790    1.879120   -7.255690
     11          6           0        6.801490    2.701620   -6.243800
     12          6           0        5.581960    2.802370   -4.856300
     13          6           0        4.733400    2.026070   -3.739440
     14          6           0        3.422530    2.108200   -2.423900
     15          8           0        2.550610    2.947750   -2.268070
     16          1           0        0.847530   -0.347610    0.912240
     17          1           0        0.700130   -0.678360   -0.794840
     18          1           0        0.651180    1.006730   -0.183040
     19          1           0        3.070480   -0.849950   -0.068680
     20          1           0        3.034910    0.757430    0.597690
     21          1           0        4.079100   -1.118910   -2.211750
     22          1           0        5.725640   -1.388750   -4.198360
     23          1           0        4.731780    1.023030   -5.704930
     24          1           0        7.075000   -0.640370   -6.583800
     25          1           0        5.242390    1.760690   -7.434730
     26          1           0        7.700640    1.057890   -7.926260
     27          1           0        6.941720    3.600650   -6.955890
     28          1           0        5.386400    3.892780   -4.858810
 ---------------------------------------------------------------------
                    Distance matrix (angstroms):
                    1          2          3          4          5
     1  C    0.000000
     2  C    1.557452   0.000000
     3  N    2.849229   1.691042   0.000000
     4  C    3.789187   2.609481   1.365408   0.000000
     5  C    4.990556   3.850405   2.306891   1.353310   0.000000
     6  C    6.052716   4.965511   3.586693   2.358510   1.411668
     7  C    6.926429   5.956963   4.439428   3.396867   2.214889
     8  C    8.313719   7.334067   5.828021   4.747682   3.563189
     9  C    8.937911   8.009447   6.396918   5.513657   4.224970
    10  C    9.626876   8.548980   6.906163   6.093781   4.748304
    11  C    8.773350   7.684557   6.014284   5.413871   4.076020
    12  C    7.074976   6.029244   4.353403   4.021370   2.807169
    13  C    5.491533   4.435721   2.753404   2.532037   1.557328
    14  C    3.863338   2.986883   1.502733   2.271879   2.359718
    15  O    3.896447   3.418571   2.372497   3.390924   3.529547
    16  H    1.116793   2.242892   3.800498   4.688415   5.953983
    17  H    1.094008   2.220542   3.190316   3.841712   5.018387
    18  H    1.088003   2.193731   3.117989   4.267720   5.306323
    19  H    2.126042   1.117263   2.327291   2.706682   4.046439
    20  H    2.142530   1.101309   2.296782   3.320470   4.446718
    21  H    3.803443   2.722483   2.118309   1.088038   2.166441
    22  H    6.317890   5.212230   4.085717   2.734293   2.223933
    23  H    6.734647   5.871334   4.257858   3.497841   2.281005
    24  H    8.820907   7.736854   6.312747   5.128863   4.021699
    25  H    8.583968   7.772902   6.129726   5.437244   4.173559
    26  H   10.268012   9.198469   7.603755   6.650895   5.348842
    27  H    9.666511   8.636589   6.955696   6.463654   5.140148
    28  H    7.456318   6.495475   4.866768   4.802993   3.720283
                    6          7          8          9         10
     6  C    0.000000
     7  C    1.303507   0.000000
     8  C    2.469679   1.402155   0.000000
     9  C    3.461357   2.212352   1.347702   0.000000
    10  C    4.133884   3.105496   2.323683   1.467308   0.000000
    11  C    3.883355   3.024477   2.885641   2.157912   1.397402
    12  C    3.243910   2.782202   3.473282   3.173885   3.094214
    13  C    2.596433   2.722987   3.913681   4.077849   4.358040
    14  C    3.742116   4.203914   5.540537   5.797948   6.201843
    15  O    4.869436   5.179362   6.477243   6.566096   6.972162
    16  H    6.977611   7.926099   9.303190   9.981804  10.646910
    17  H    5.904843   6.729844   8.079668   8.751618   9.586011
    18  H    6.483112   7.218720   8.615957   9.090349   9.748880
    19  H    4.927060   6.057326   7.375519   8.210767   8.776209
    20  H    5.640215   6.640484   8.000469   8.623971   9.008724
    21  H    2.641983   3.823586   5.075178   6.028484   6.695382
    22  H    1.070896   2.099048   2.879276   4.091762   4.745187
    23  H    2.029058   1.088852   2.064689   2.225113   3.122976
    24  H    2.779539   2.135248   1.088415   2.141918   2.617558
    25  H    3.723430   2.459418   2.168047   1.112171   2.072547
    26  H    4.470302   3.440006   2.259411   1.664193   1.132066
    27  H    5.001699   4.054127   3.761211   2.723214   1.784556
    28  H    4.319353   3.833852   4.446581   3.911003   3.671001
                   11         12         13         14         15
    11  C    0.000000
    12  C    1.850016   0.000000
    13  C    3.317406   1.603144   0.000000
    14  C    5.134311   3.325895   1.858970   0.000000
    15  O    5.825546   3.988628   2.789085   1.220398   0.000000
    16  H    9.795731   8.100201   6.509414   4.877649   4.886128
    17  H    8.851103   7.241768   5.679074   4.222584   4.329360
    18  H    8.799533   7.026825   5.509225   3.730291   3.423849
    19  H    8.041529   6.524437   4.950886   3.797585   4.419288
    20  H    8.048167   6.357299   4.827527   3.332392   3.639317
    21  H    6.185894   4.962728   3.557084   3.300050   4.344787
    22  H    4.698128   4.244881   3.585546   4.547712   5.710698
    23  H    2.718776   2.146865   2.206636   3.695523   4.502672
    24  H    3.370357   4.131087   4.547898   6.180610   7.209038
    25  H    2.175881   2.801554   3.739608   5.342384   5.945517
    26  H    2.518132   4.117848   5.222198   7.048499   7.880958
    27  H    1.155418   2.625733   4.207319   5.928831   6.456298
    28  H    2.310744   1.107810   2.272445   3.601430   3.955594
                   16         17         18         19         20
    16  H    0.000000
    17  H    1.745063   0.000000
    18  H    1.752834   1.793383   0.000000
    19  H    2.481140   2.485017   3.051778   0.000000
    20  H    2.470766   3.074383   2.520686   1.740398   0.000000
    21  H    4.560402   3.690414   4.514936   2.383779   3.536091
    22  H    7.141300   6.111003   6.900092   4.939072   5.903237
    23  H    7.794420   6.577075   6.866064   6.167275   6.532452
    24  H    9.749754   8.611183   9.216731   7.650287   8.357629
    25  H    9.666004   8.406499   8.615955   8.111185   8.390427
    26  H   11.272073  10.142921  10.471626   9.317714   9.721987
    27  H   10.706791   9.758376   9.600563   9.067966   8.966807
    28  H    8.478636   7.705342   7.253580   7.127575   6.718133
                   21         22         23         24         25
    21  H    0.000000
    22  H    2.594326   0.000000
    23  H    4.149241   3.012340   0.000000
    24  H    5.321582   2.840980   3.004995   0.000000
    25  H    6.076583   4.541651   1.948608   3.138093   0.000000
    26  H    7.107013   4.876875   3.708052   2.253378   2.603560
    27  H    7.278441   5.828974   3.618406   4.259397   2.549993
    28  H    5.816614   5.333464   3.062664   5.135797   3.346926
                   26         27         28
    26  H    0.000000
    27  H    2.825457   0.000000
    28  H    4.775098   2.627186   0.000000
 Stoichiometry    C13H13NO
 Framework group  C1[X(C13H13NO)]
 Deg. of freedom    78
 Full point group                 C1      NOp   1
 Largest Abelian subgroup         C1      NOp   1
 Largest concise Abelian subgroup C1      NOp   1
                         Standard orientation:                         
 ---------------------------------------------------------------------
 Center     Atomic      Atomic             Coordinates (Angstroms)
 Number     Number       Type             X           Y           Z
 ---------------------------------------------------------------------
      1          6           0        5.086038   -0.472193    0.638701
      2          6           0        4.041942   -0.518110   -0.516034
      3          7           0        2.433617   -0.039142   -0.307466
      4          6           0        1.482733   -1.014593   -0.400497
      5          6           0        0.195972   -0.598524   -0.349704
      6          6           0       -0.797176   -1.595099   -0.234369
      7          6           0       -1.807160   -1.119675    0.438709
      8          6           0       -3.166075   -1.464956    0.451699
      9          6           0       -3.848829   -0.373393    0.849993
     10          6           0       -4.463504    0.313766   -0.291488
     11          6           0       -3.439978    1.234917   -0.529414
     12          6           0       -1.623185    1.539414   -0.358817
     13          6           0       -0.147663    0.918484   -0.273072
     14          6           0        1.665370    1.211551    0.014670
     15          8           0        2.206105    2.151574    0.574432
     16          1           0        6.110412   -0.774509    0.312373
     17          1           0        4.846151   -1.166171    1.449690
     18          1           0        5.193844    0.540379    1.021881
     19          1           0        4.087171   -1.572992   -0.881352
     20          1           0        4.479528    0.057481   -1.346752
     21          1           0        1.797011   -2.055857   -0.429234
     22          1           0       -0.733742   -2.605087   -0.584680
     23          1           0       -1.634986   -0.169121    0.941105
     24          1           0       -3.523211   -2.128711   -0.333495
     25          1           0       -3.408633    0.423234    1.489161
     26          1           0       -5.149727   -0.578031   -0.167516
     27          1           0       -4.192152    2.077563   -0.286157
     28          1           0       -1.626736    2.643691   -0.270477
 ---------------------------------------------------------------------
 Rotational constants (GHZ):           1.5499028           0.2908792           0.2570748
 Standard basis: 6-31G(2df,p) (6D, 7F)
 There are   530 symmetry adapted cartesian basis functions of A   symmetry.
 There are   485 symmetry adapted basis functions of A   symmetry.
   485 basis functions,   751 primitive gaussians,   530 cartesian basis functions
    53 alpha electrons       53 beta electrons
       nuclear repulsion energy       878.7875088937 Hartrees.
 NAtoms=   28 NActive=   28 NUniq=   28 SFac= 1.00D+00 NAtFMM=   60 NAOKFM=F Big=F
 Integral buffers will be    131072 words long.
 Raffenetti 2 integral format.
 Two-electron integral symmetry is turned on.
 One-electron integrals computed using PRISM.
 PrsmSu:  requested number of processors reduced to:  12 ShMem   1 Linda.
 NBasis=   485 RedAO= T EigKep=  2.26D-04  NBF=   485
 NBsUse=   485 1.00D-06 EigRej= -1.00D+00 NBFU=   485
 ExpMin= 1.61D-01 ExpMax= 5.48D+03 ExpMxC= 8.25D+02 IAcc=3 IRadAn=         5 AccDes= 0.00D+00
 Harris functional with IExCor=  402 and IRadAn=       5 diagonalized for initial guess.
 HarFok:  IExCor=  402 AccDes= 0.00D+00 IRadAn=         5 IDoV= 1 UseB2=F ITyADJ=14
 ICtDFT=  3500011 ScaDFX=  1.000000  1.000000  1.000000  1.000000
 FoFCou: FMM=F IPFlag=           0 FMFlag=      100000 FMFlg1=           0
         NFxFlg=           0 DoJE=T BraDBF=F KetDBF=T FulRan=T
         wScrn=  0.000000 ICntrl=       500 IOpCl=  0 I1Cent=   200000004 NGrid=           0
         NMat0=    1 NMatS0=      1 NMatT0=    0 NMatD0=    1 NMtDS0=    0 NMtDT0=    0
 Petite list used in FoFCou.
 Requested convergence on RMS density matrix=1.00D-08 within 128 cycles.
 Requested convergence on MAX density matrix=1.00D-06.
 Requested convergence on             energy=1.00D-06.
 No special actions if energy rises.
 Integral accuracy reduced to 1.0D-05 until final iterations.
 EnCoef did     3 forward-backward iterations
 EnCoef did     4 forward-backward iterations
 Initial convergence to 1.0D-05 achieved.  Increase integral accuracy.
 SCF Done:  E(RB3LYP) =  -632.646512307     A.U. after   21 cycles
            NFock= 21  Conv=0.34D-08     -V/T= 2.0094

 **********************************************************************

            Population analysis using the SCF density.

 **********************************************************************

 Orbital symmetries:
       Occupied  (A) (A) (A) (A) (A) (A) (A) (A) (A) (A) (A) (A)
                 (A) (A) (A) (A) (A) (A) (A) (A) (A) (A) (A) (A)
                 (A) (A) (A) (A) (A) (A) (A) (A) (A) (A) (A) (A)
                 (A) (A) (A) (A) (A) (A) (A) (A) (A) (A) (A) (A)
                 (A) (A) (A) (A) (A)
       Virtual   (A) (A) (A) (A) (A) (A) (A) (A) (A) (A) (A) (A)
                 (A) (A) (A) (A) (A) (A) (A) (A) (A) (A) (A) (A)
                 (A) (A) (A) (A) (A) (A) (A) (A) (A) (A) (A) (A)
                 (A) (A) (A) (A) (A) (A) (A) (A) (A) (A) (A) (A)
                 (A) (A) (A) (A) (A) (A) (A) (A) (A) (A) (A) (A)
                 (A) (A) (A) (A) (A) (A) (A) (A) (A) (A) (A) (A)
                 (A) (A) (A) (A) (A) (A) (A) (A) (A) (A) (A) (A)
                 (A) (A) (A) (A) (A) (A) (A) (A) (A) (A) (A) (A)
                 (A) (A) (A) (A) (A) (A) (A) (A) (A) (A) (A) (A)
                 (A) (A) (A) (A) (A) (A) (A) (A) (A) (A) (A) (A)
                 (A) (A) (A) (A) (A) (A) (A) (A) (A) (A) (A) (A)
                 (A) (A) (A) (A) (A) (A) (A) (A) (A) (A) (A) (A)
                 (A) (A) (A) (A) (A) (A) (A) (A) (A) (A) (A) (A)
                 (A) (A) (A) (A) (A) (A) (A) (A) (A) (A) (A) (A)
                 (A) (A) (A) (A) (A) (A) (A) (A) (A) (A) (A) (A)
                 (A) (A) (A) (A) (A) (A) (A) (A) (A) (A) (A) (A)
                 (A) (A) (A) (A) (A) (A) (A) (A) (A) (A) (A) (A)
                 (A) (A) (A) (A) (A) (A) (A) (A) (A) (A) (A) (A)
                 (A) (A) (A) (A) (A) (A) (A) (A) (A) (A) (A) (A)
                 (A) (A) (A) (A) (A) (A) (A) (A) (A) (A) (A) (A)
                 (A) (A) (A) (A) (A) (A) (A) (A) (A) (A) (A) (A)
                 (A) (A) (A) (A) (A) (A) (A) (A) (A) (A) (A) (A)
                 (A) (A) (A) (A) (A) (A) (A) (A) (A) (A) (A) (A)
                 (A) (A) (A) (A) (A) (A) (A) (A) (A) (A) (A) (A)
                 (A) (A) (A) (A) (A) (A) (A) (A) (A) (A) (A) (A)
                 (A) (A) (A) (A) (A) (A) (A) (A) (A) (A) (A) (A)
                 (A) (A) (A) (A) (A) (A) (A) (A) (A) (A) (A) (A)
                 (A) (A) (A) (A) (A) (A) (A) (A) (A) (A) (A) (A)
                 (A) (A) (A) (A) (A) (A) (A) (A) (A) (A) (A) (A)
                 (A) (A) (A) (A) (A) (A) (A) (A) (A) (A) (A) (A)
                 (A) (A) (A) (A) (A) (A) (A) (A) (A) (A) (A) (A)
                 (A) (A) (A) (A) (A) (A) (A) (A) (A) (A) (A) (A)
                 (A) (A) (A) (A) (A) (A) (A) (A) (A) (A) (A) (A)
                 (A) (A) (A) (A) (A) (A) (A) (A) (A) (A) (A) (A)
                 (A) (A) (A) (A) (A) (A) (A) (A) (A) (A) (A) (A)
                 (A) (A) (A) (A) (A) (A) (A) (A) (A) (A) (A) (A)
 The electronic state is 1-A.
 Alpha  occ. eigenvalues --  -19.14476 -14.39314 -10.32355 -10.27479 -10.24725
 Alpha  occ. eigenvalues --  -10.24358 -10.23971 -10.22094 -10.20830 -10.20212
 Alpha  occ. eigenvalues --  -10.19373 -10.18912 -10.18471 -10.18056 -10.16393
 Alpha  occ. eigenvalues --   -1.04574  -0.94514  -0.86498  -0.82385  -0.78457
 Alpha  occ. eigenvalues --   -0.75256  -0.69966  -0.69525  -0.65374  -0.63941
 Alpha  occ. eigenvalues --   -0.59868  -0.56829  -0.56029  -0.52237  -0.51034
 Alpha  occ. eigenvalues --   -0.49572  -0.47550  -0.45845  -0.44396  -0.43848
 Alpha  occ. eigenvalues --   -0.43455  -0.42271  -0.41089  -0.39852  -0.39194
 Alpha  occ. eigenvalues --   -0.38497  -0.38120  -0.37897  -0.37138  -0.34614
 Alpha  occ. eigenvalues --   -0.33529  -0.32218  -0.29702  -0.26192  -0.25569
 Alpha  occ. eigenvalues --   -0.22507  -0.18234  -0.16931
 Alpha virt. eigenvalues --   -0.08649  -0.05107  -0.03547  -0.00855   0.02823
 Alpha virt. eigenvalues --    0.03375   0.04262   0.06648   0.08239   0.10082
 Alpha virt. eigenvalues --    0.10642   0.11921   0.12580   0.12886   0.12985
 Alpha virt. eigenvalues --    0.13985   0.14857   0.16017   0.17105   0.17415
 Alpha virt. eigenvalues --    0.19186   0.19681   0.20419   0.21522   0.23918
 Alpha virt. eigenvalues --    0.25331   0.26230   0.29467   0.30968   0.31976
 Alpha virt. eigenvalues --    0.34787   0.36272   0.37695   0.38856   0.40406
 Alpha virt. eigenvalues --    0.41200   0.43841   0.44519   0.45778   0.47175
 Alpha virt. eigenvalues --    0.47848   0.48146   0.49175   0.49533   0.50294
 Alpha virt. eigenvalues --    0.50896   0.51512   0.52651   0.54136   0.54258
 Alpha virt. eigenvalues --    0.54983   0.56626   0.57325   0.58211   0.58400
 Alpha virt. eigenvalues --    0.59674   0.59999   0.61762   0.62170   0.63390
 Alpha virt. eigenvalues --    0.64232   0.65064   0.65487   0.66217   0.67625
 Alpha virt. eigenvalues --    0.68069   0.69300   0.69802   0.70923   0.71369
 Alpha virt. eigenvalues --    0.71908   0.72261   0.73350   0.73853   0.74200
 Alpha virt. eigenvalues --    0.74611   0.75539   0.76631   0.76680   0.77361
 Alpha virt. eigenvalues --    0.78306   0.79024   0.80347   0.80873   0.81963
 Alpha virt. eigenvalues --    0.83282   0.83623   0.83817   0.84904   0.85526
 Alpha virt. eigenvalues --    0.86142   0.87212   0.88260   0.88434   0.89791
 Alpha virt. eigenvalues --    0.90940   0.93017   0.94265   0.95969   0.97282
 Alpha virt. eigenvalues --    0.97466   0.98948   1.00351   1.00628   1.03397
 Alpha virt. eigenvalues --    1.04097   1.04820   1.05928   1.07590   1.08876
 Alpha virt. eigenvalues --    1.09233   1.09688   1.11812   1.13975   1.15649
 Alpha virt. eigenvalues --    1.18208   1.18832   1.21133   1.23076   1.23788
 Alpha virt. eigenvalues --    1.25730   1.25804   1.27032   1.28454   1.29821
 Alpha virt. eigenvalues --    1.30547   1.31527   1.32557   1.32989   1.34838
 Alpha virt. eigenvalues --    1.37152   1.37327   1.40100   1.40362   1.41821
 Alpha virt. eigenvalues --    1.43449   1.45069   1.45488   1.47075   1.48694
 Alpha virt. eigenvalues --    1.49711   1.50693   1.51319   1.51918   1.52766
 Alpha virt. eigenvalues --    1.53612   1.56200   1.56340   1.58060   1.58913
 Alpha virt. eigenvalues --    1.59799   1.61227   1.62771   1.63918   1.65361
 Alpha virt. eigenvalues --    1.67469   1.68037   1.70339   1.70656   1.72424
 Alpha virt. eigenvalues --    1.73991   1.76052   1.77104   1.79165   1.80685
 Alpha virt. eigenvalues --    1.82502   1.83194   1.85557   1.86456   1.87690
 Alpha virt. eigenvalues --    1.90219   1.93763   1.95726   1.96746   1.98620
 Alpha virt. eigenvalues --    2.00782   2.02598   2.05971   2.08232   2.10561
 Alpha virt. eigenvalues --    2.12463   2.13600   2.16484   2.19667   2.21664
 Alpha virt. eigenvalues --    2.22596   2.23827   2.25573   2.27324   2.28336
 Alpha virt. eigenvalues --    2.32137   2.32302   2.36341   2.36718   2.38211
 Alpha virt. eigenvalues --    2.40174   2.42451   2.42826   2.43808   2.46097
 Alpha virt. eigenvalues --    2.48420   2.49206   2.51470   2.55410   2.56377
 Alpha virt. eigenvalues --    2.57490   2.60755   2.62291   2.64709   2.64830
 Alpha virt. eigenvalues --    2.67239   2.68750   2.71783   2.72676   2.73986
 Alpha virt. eigenvalues --    2.74560   2.76464   2.78566   2.79419   2.79805
 Alpha virt. eigenvalues --    2.80995   2.81744   2.83183   2.85299   2.85742
 Alpha virt. eigenvalues --    2.87545   2.89118   2.90584   2.91398   2.92373
 Alpha virt. eigenvalues --    2.95617   2.96151   2.97264   2.98126   2.99492
 Alpha virt. eigenvalues --    3.00006   3.01246   3.02397   3.03014   3.04909
 Alpha virt. eigenvalues --    3.06065   3.07463   3.09277   3.10367   3.10971
 Alpha virt. eigenvalues --    3.12808   3.13927   3.14780   3.15792   3.16237
 Alpha virt. eigenvalues --    3.18165   3.19997   3.21991   3.22797   3.23217
 Alpha virt. eigenvalues --    3.23409   3.25272   3.26432   3.27838   3.29134
 Alpha virt. eigenvalues --    3.30197   3.32300   3.34006   3.34834   3.35644
 Alpha virt. eigenvalues --    3.36104   3.37277   3.41105   3.41570   3.42182
 Alpha virt. eigenvalues --    3.43678   3.44443   3.45562   3.46140   3.49179
 Alpha virt. eigenvalues --    3.50581   3.51489   3.52593   3.52970   3.54098
 Alpha virt. eigenvalues --    3.54832   3.56874   3.57719   3.58358   3.60104
 Alpha virt. eigenvalues --    3.60840   3.63232   3.63922   3.66522   3.70424
 Alpha virt. eigenvalues --    3.70451   3.72599   3.74486   3.75668   3.77562
 Alpha virt. eigenvalues --    3.81772   3.82672   3.85243   3.85731   3.88987
 Alpha virt. eigenvalues --    3.91506   3.92729   3.94317   3.96939   3.97335
 Alpha virt. eigenvalues --    3.99455   4.00440   4.03122   4.06724   4.09211
 Alpha virt. eigenvalues --    4.10205   4.11090   4.13780   4.15421   4.18026
 Alpha virt. eigenvalues --    4.19758   4.22430   4.22727   4.24493   4.26001
 Alpha virt. eigenvalues --    4.29277   4.29836   4.31321   4.32399   4.34357
 Alpha virt. eigenvalues --    4.35061   4.35479   4.38085   4.39289   4.39421
 Alpha virt. eigenvalues --    4.40741   4.41800   4.42540   4.44928   4.46197
 Alpha virt. eigenvalues --    4.46931   4.49064   4.49634   4.50646   4.51965
 Alpha virt. eigenvalues --    4.52568   4.53414   4.55062   4.55915   4.57523
 Alpha virt. eigenvalues --    4.58336   4.58796   4.60118   4.61484   4.62111
 Alpha virt. eigenvalues --    4.64293   4.65087   4.66043   4.67491   4.68809
 Alpha virt. eigenvalues --    4.69660   4.70394   4.71667   4.73095   4.74340
 Alpha virt. eigenvalues --    4.75627   4.76175   4.77368   4.79777   4.81009
 Alpha virt. eigenvalues --    4.81615   4.82632   4.83263   4.84111   4.85944
 Alpha virt. eigenvalues --    4.86460   4.88943   4.90762   4.91684   4.93623
 Alpha virt. eigenvalues --    4.96281   4.97517   4.99343   5.01830   5.03665
 Alpha virt. eigenvalues --    5.05937   5.06169   5.07512   5.08982   5.10065
 Alpha virt. eigenvalues --    5.13057   5.13716   5.19342   5.21510   5.25973
 Alpha virt. eigenvalues --    5.26498   5.31194   5.32120   5.33936   5.36222
 Alpha virt. eigenvalues --    5.40936   5.42480   5.46226   5.50028   5.51347
 Alpha virt. eigenvalues --    5.52582   5.53542   5.57909   5.63464   5.67622
 Alpha virt. eigenvalues --    5.70942   5.72743   5.82987   5.86858   5.90552
 Alpha virt. eigenvalues --    6.00856   6.02506   6.32060   6.43450   6.58271
 Alpha virt. eigenvalues --    6.79770   9.95032  10.34412  10.40250  10.67634
 Alpha virt. eigenvalues --   10.84920  11.01665  11.20084  11.26620  11.42182
 Alpha virt. eigenvalues --   11.66609  11.72216  11.84864  12.11135  12.31954
 Alpha virt. eigenvalues --   13.01675  17.83622
          Condensed to atoms (all electrons):
               1          2          3          4          5          6
     1  C    4.973455   0.387040  -0.019510   0.000272  -0.000081   0.000002
     2  C    0.387040   4.848418   0.292737  -0.043516   0.002065  -0.000065
     3  N   -0.019510   0.292737   6.509458   0.366503  -0.004677   0.002446
     4  C    0.000272  -0.043516   0.366503   4.933213   0.542587  -0.034825
     5  C   -0.000081   0.002065  -0.004677   0.542587   4.490058   0.436323
     6  C    0.000002  -0.000065   0.002446  -0.034825   0.436323   5.020546
     7  C    0.000000  -0.000004   0.000081  -0.005956  -0.002530   0.579593
     8  C    0.000000  -0.000000   0.000002  -0.000090   0.003164  -0.010772
     9  C   -0.000000  -0.000000  -0.000000  -0.000010  -0.000296   0.001554
    10  C    0.000000  -0.000000   0.000000  -0.000001   0.000241  -0.002578
    11  C   -0.000000   0.000000  -0.000001  -0.000005  -0.000867   0.001528
    12  C    0.000000   0.000000   0.000574   0.003401  -0.029971  -0.005225
    13  C   -0.000007   0.001325  -0.055410  -0.025293   0.427648  -0.051368
    14  C    0.000085  -0.007294   0.234751  -0.064878  -0.030188   0.001930
    15  O   -0.000307   0.002201  -0.059476   0.001173   0.000555  -0.000033
    16  H    0.365803  -0.016822   0.001438  -0.000041   0.000001  -0.000000
    17  H    0.380461  -0.026701  -0.000341   0.000403  -0.000027  -0.000000
    18  H    0.383630  -0.025457  -0.002404   0.000033   0.000008  -0.000000
    19  H   -0.043767   0.371427  -0.016779  -0.001607   0.000579  -0.000021
    20  H   -0.043578   0.376161  -0.019066   0.001444  -0.000134   0.000003
    21  H    0.000327  -0.005128  -0.034849   0.352513  -0.023636  -0.009106
    22  H    0.000000   0.000001  -0.000009  -0.004043  -0.040506   0.357504
    23  H   -0.000000   0.000000   0.000104  -0.000812  -0.029520  -0.048409
    24  H   -0.000000  -0.000000  -0.000000   0.000002  -0.000109  -0.007353
    25  H   -0.000000  -0.000000   0.000000  -0.000009  -0.000076   0.000829
    26  H   -0.000000  -0.000000  -0.000000  -0.000000  -0.000008  -0.000026
    27  H    0.000000  -0.000000   0.000000   0.000000   0.000001  -0.000036
    28  H   -0.000000  -0.000000   0.000008  -0.000101   0.001571   0.000165
               7          8          9         10         11         12
     1  C    0.000000   0.000000  -0.000000   0.000000  -0.000000   0.000000
     2  C   -0.000004  -0.000000  -0.000000  -0.000000   0.000000   0.000000
     3  N    0.000081   0.000002  -0.000000   0.000000  -0.000001   0.000574
     4  C   -0.005956  -0.000090  -0.000010  -0.000001  -0.000005   0.003401
     5  C   -0.002530   0.003164  -0.000296   0.000241  -0.000867  -0.029971
     6  C    0.579593  -0.010772   0.001554  -0.002578   0.001528  -0.005225
     7  C    4.706052   0.447577  -0.028709  -0.004832  -0.003004   0.001477
     8  C    0.447577   4.970338   0.544663  -0.037087  -0.021637  -0.006563
     9  C   -0.028709   0.544663   5.153210   0.302312  -0.057484  -0.005705
    10  C   -0.004832  -0.037087   0.302312   5.155928   0.561104  -0.033961
    11  C   -0.003004  -0.021637  -0.057484   0.561104   5.226734   0.300409
    12  C    0.001477  -0.006563  -0.005705  -0.033961   0.300409   5.254754
    13  C   -0.031440   0.002331  -0.000254  -0.000502  -0.008362   0.472801
    14  C    0.000554  -0.000019  -0.000004  -0.000005   0.000059  -0.013167
    15  O    0.000000   0.000000   0.000000  -0.000000  -0.000002  -0.000451
    16  H    0.000000  -0.000000   0.000000  -0.000000   0.000000  -0.000000
    17  H    0.000000  -0.000000   0.000000   0.000000   0.000000   0.000000
    18  H    0.000000  -0.000000  -0.000000   0.000000   0.000000   0.000000
    19  H    0.000000   0.000000   0.000000   0.000000  -0.000000   0.000000
    20  H    0.000000  -0.000000   0.000000   0.000000  -0.000000  -0.000000
    21  H    0.000123   0.000007   0.000000  -0.000000  -0.000000  -0.000051
    22  H   -0.043211  -0.004885  -0.000130  -0.000041  -0.000027  -0.000071
    23  H    0.402065  -0.066879  -0.015892   0.003478  -0.005828  -0.001212
    24  H   -0.031655   0.350550  -0.049427  -0.000840  -0.001460  -0.000273
    25  H   -0.029188  -0.021298   0.369108  -0.075848  -0.008604   0.003674
    26  H   -0.000823  -0.004335  -0.068640   0.351874  -0.015895   0.000785
    27  H   -0.000331   0.002793   0.006298  -0.044526   0.310913  -0.025151
    28  H    0.000123   0.000187   0.000193   0.001801  -0.028750   0.332796
              13         14         15         16         17         18
     1  C   -0.000007   0.000085  -0.000307   0.365803   0.380461   0.383630
     2  C    0.001325  -0.007294   0.002201  -0.016822  -0.026701  -0.025457
     3  N   -0.055410   0.234751  -0.059476   0.001438  -0.000341  -0.002404
     4  C   -0.025293  -0.064878   0.001173  -0.000041   0.000403   0.000033
     5  C    0.427648  -0.030188   0.000555   0.000001  -0.000027   0.000008
     6  C   -0.051368   0.001930  -0.000033  -0.000000  -0.000000  -0.000000
     7  C   -0.031440   0.000554   0.000000   0.000000   0.000000   0.000000
     8  C    0.002331  -0.000019   0.000000  -0.000000  -0.000000  -0.000000
     9  C   -0.000254  -0.000004   0.000000   0.000000   0.000000  -0.000000
    10  C   -0.000502  -0.000005  -0.000000  -0.000000   0.000000   0.000000
    11  C   -0.008362   0.000059  -0.000002   0.000000   0.000000   0.000000
    12  C    0.472801  -0.013167  -0.000451  -0.000000   0.000000   0.000000
    13  C    5.217524   0.274207  -0.045130   0.000000   0.000000   0.000004
    14  C    0.274207   4.599297   0.730203  -0.000003   0.000024   0.000770
    15  O   -0.045130   0.730203   7.646096   0.000007  -0.000024   0.001199
    16  H    0.000000  -0.000003   0.000007   0.575615  -0.033376  -0.028791
    17  H    0.000000   0.000024  -0.000024  -0.033376   0.569797  -0.026987
    18  H    0.000004   0.000770   0.001199  -0.028791  -0.026987   0.538064
    19  H   -0.000024   0.000754  -0.000007  -0.000545  -0.004235   0.004437
    20  H   -0.000007  -0.000138   0.000067  -0.001570   0.004680  -0.003038
    21  H    0.003541   0.003482  -0.000062  -0.000027   0.000076   0.000003
    22  H    0.003591  -0.000043   0.000000  -0.000000  -0.000000  -0.000000
    23  H    0.005473   0.000172  -0.000037   0.000000   0.000000   0.000000
    24  H   -0.000071  -0.000000   0.000000   0.000000   0.000000  -0.000000
    25  H    0.000324  -0.000004  -0.000000   0.000000   0.000000  -0.000000
    26  H    0.000007   0.000000  -0.000000   0.000000   0.000000   0.000000
    27  H    0.000616  -0.000002   0.000000  -0.000000   0.000000  -0.000000
    28  H   -0.028201  -0.000491   0.000135  -0.000000   0.000000  -0.000000
              19         20         21         22         23         24
     1  C   -0.043767  -0.043578   0.000327   0.000000  -0.000000  -0.000000
     2  C    0.371427   0.376161  -0.005128   0.000001   0.000000  -0.000000
     3  N   -0.016779  -0.019066  -0.034849  -0.000009   0.000104  -0.000000
     4  C   -0.001607   0.001444   0.352513  -0.004043  -0.000812   0.000002
     5  C    0.000579  -0.000134  -0.023636  -0.040506  -0.029520  -0.000109
     6  C   -0.000021   0.000003  -0.009106   0.357504  -0.048409  -0.007353
     7  C    0.000000   0.000000   0.000123  -0.043211   0.402065  -0.031655
     8  C    0.000000  -0.000000   0.000007  -0.004885  -0.066879   0.350550
     9  C    0.000000   0.000000   0.000000  -0.000130  -0.015892  -0.049427
    10  C    0.000000   0.000000  -0.000000  -0.000041   0.003478  -0.000840
    11  C   -0.000000  -0.000000  -0.000000  -0.000027  -0.005828  -0.001460
    12  C    0.000000  -0.000000  -0.000051  -0.000071  -0.001212  -0.000273
    13  C   -0.000024  -0.000007   0.003541   0.003591   0.005473  -0.000071
    14  C    0.000754  -0.000138   0.003482  -0.000043   0.000172  -0.000000
    15  O   -0.000007   0.000067  -0.000062   0.000000  -0.000037   0.000000
    16  H   -0.000545  -0.001570  -0.000027  -0.000000   0.000000   0.000000
    17  H   -0.004235   0.004680   0.000076  -0.000000   0.000000   0.000000
    18  H    0.004437  -0.003038   0.000003  -0.000000   0.000000  -0.000000
    19  H    0.575165  -0.037055   0.004067  -0.000002   0.000000   0.000000
    20  H   -0.037055   0.565127   0.000037  -0.000000   0.000000   0.000000
    21  H    0.004067   0.000037   0.574763   0.003697  -0.000063   0.000000
    22  H   -0.000002  -0.000000   0.003697   0.623368   0.006463   0.002303
    23  H    0.000000   0.000000  -0.000063   0.006463   0.614774   0.005864
    24  H    0.000000   0.000000   0.000000   0.002303   0.005864   0.613643
    25  H    0.000000   0.000000  -0.000000  -0.000038   0.004224   0.005738
    26  H   -0.000000   0.000000  -0.000000  -0.000010   0.000189   0.006181
    27  H    0.000000   0.000000  -0.000000   0.000000   0.000104   0.000062
    28  H    0.000000   0.000000   0.000001   0.000006   0.001326   0.000006
              25         26         27         28
     1  C   -0.000000  -0.000000   0.000000  -0.000000
     2  C   -0.000000  -0.000000  -0.000000  -0.000000
     3  N    0.000000  -0.000000   0.000000   0.000008
     4  C   -0.000009  -0.000000   0.000000  -0.000101
     5  C   -0.000076  -0.000008   0.000001   0.001571
     6  C    0.000829  -0.000026  -0.000036   0.000165
     7  C   -0.029188  -0.000823  -0.000331   0.000123
     8  C   -0.021298  -0.004335   0.002793   0.000187
     9  C    0.369108  -0.068640   0.006298   0.000193
    10  C   -0.075848   0.351874  -0.044526   0.001801
    11  C   -0.008604  -0.015895   0.310913  -0.028750
    12  C    0.003674   0.000785  -0.025151   0.332796
    13  C    0.000324   0.000007   0.000616  -0.028201
    14  C   -0.000004   0.000000  -0.000002  -0.000491
    15  O   -0.000000  -0.000000   0.000000   0.000135
    16  H    0.000000   0.000000  -0.000000  -0.000000
    17  H    0.000000   0.000000   0.000000   0.000000
    18  H   -0.000000   0.000000  -0.000000  -0.000000
    19  H    0.000000  -0.000000   0.000000   0.000000
    20  H    0.000000   0.000000   0.000000   0.000000
    21  H   -0.000000  -0.000000  -0.000000   0.000001
    22  H   -0.000038  -0.000010   0.000000   0.000006
    23  H    0.004224   0.000189   0.000104   0.001326
    24  H    0.005738   0.006181   0.000062   0.000006
    25  H    0.621298   0.010478   0.004044  -0.000013
    26  H    0.010478   0.490508   0.003635  -0.000033
    27  H    0.004044   0.003635   0.591114   0.000580
    28  H   -0.000013  -0.000033   0.000580   0.576016
 Mulliken charges:
               1
     1  C   -0.383824
     2  C   -0.156389
     3  N   -0.195582
     4  C   -0.020356
     5  C    0.257822
     6  C   -0.232606
     7  C    0.044036
     8  C   -0.148047
     9  C   -0.150789
    10  C   -0.176515
    11  C   -0.248821
    12  C   -0.248870
    13  C   -0.163324
    14  C    0.269949
    15  O   -0.276108
    16  H    0.138310
    17  H    0.136249
    18  H    0.158528
    19  H    0.147612
    20  H    0.157067
    21  H    0.130284
    22  H    0.096083
    23  H    0.124414
    24  H    0.106841
    25  H    0.115361
    26  H    0.226114
    27  H    0.149889
    28  H    0.142676
 Sum of Mulliken charges =  -0.00000
 Mulliken charges with hydrogens summed into heavy atoms:
               1
     1  C    0.049263
     2  C    0.148290
     3  N   -0.195582
     4  C    0.109929
     5  C    0.257822
     6  C   -0.136523
     7  C    0.168449
     8  C   -0.041207
     9  C   -0.035428
    10  C    0.049598
    11  C   -0.098933
    12  C   -0.106195
    13  C   -0.163324
    14  C    0.269949
    15  O   -0.276108
 Electronic spatial extent (au):  <R**2>=           4215.3294
 Charge=             -0.0000 electrons
 Dipole moment (field-independent basis, Debye):
    X=              3.2307    Y=             -4.4040    Z=             -0.4214  Tot=              5.4781
 Quadrupole moment (field-independent basis, Debye-Ang):
   XX=            -69.3364   YY=            -87.6566   ZZ=            -92.8133
   XY=             -6.4453   XZ=             -5.6800   YZ=              1.9391
 Traceless Quadrupole moment (field-independent basis, Debye-Ang):
   XX=             13.9324   YY=             -4.3878   ZZ=             -9.5445
   XY=             -6.4453   XZ=             -5.6800   YZ=              1.9391
 Octapole moment (field-independent basis, Debye-Ang**2):
  XXX=            114.7264  YYY=            -17.6570  ZZZ=              6.8313  XYY=             -3.5610
  XXY=            -38.9568  XXZ=             -0.7320  XZZ=             24.4742  YZZ=             -1.1607
  YYZ=             -7.5373  XYZ=            -12.5974
 Hexadecapole moment (field-independent basis, Debye-Ang**3):
 XXXX=          -4176.8715 YYYY=           -810.8092 ZZZZ=           -241.1028 XXXY=             -6.0375
 XXXZ=            -61.5789 YYYX=            -27.5459 YYYZ=             14.4881 ZZZX=             -5.9946
 ZZZY=             14.0024 XXYY=           -899.8928 XXZZ=           -868.9255 YYZZ=           -185.3326
 XXYZ=             29.2613 YYXZ=             -8.0635 ZZXY=              6.7113
 N-N= 8.787875088937D+02 E-N=-3.226316132773D+03  KE= 6.267765279573D+02
 PrsmSu:  requested number of processors reduced to:  13 ShMem   1 Linda.
 Calling FoFJK, ICntrl=      2127 FMM=F ISym2X=0 I1Cent= 0 IOpClX= 0 NMat=1 NMatS=1 NMatT=0.
 ***** Axes restored to original set *****
 -------------------------------------------------------------------
 Center     Atomic                   Forces (Hartrees/Bohr)
 Number     Number              X              Y              Z
 -------------------------------------------------------------------
      1        6           0.001642484    0.005011158   -0.009476410
      2        6           0.003910183    0.009959120   -0.000155440
      3        7          -0.011184528   -0.012910268    0.012324216
      4        6          -0.009878419    0.010853471    0.022968605
      5        6           0.021648975    0.031676732   -0.010972221
      6        6          -0.001602387   -0.009992304    0.027052652
      7        6          -0.022088590   -0.001951608   -0.062150013
      8        6           0.001735089   -0.014236465    0.022085561
      9        6          -0.049487989    0.038250961   -0.013142400
     10        6          -0.016723232   -0.077599485   -0.024127461
     11        6           0.015946751    0.050196377    0.006614906
     12        6          -0.035218162   -0.019448075    0.019493941
     13        6           0.011570380   -0.050924032   -0.012194324
     14        6          -0.029167223    0.042780235    0.010546632
     15        8           0.041822372   -0.029069239   -0.006461312
     16        1           0.015744670    0.004372842   -0.007783268
     17        1           0.000707674    0.004145476   -0.004403324
     18        1          -0.003011588    0.001821310   -0.004714580
     19        1           0.008691008    0.014941715   -0.020682473
     20        1           0.004410102    0.006196783   -0.013263361
     21        1           0.003370902    0.003324141   -0.000803417
     22        1           0.006921067   -0.007331499    0.008716739
     23        1          -0.000193542   -0.014526994    0.002059905
     24        1           0.001205935   -0.003448721   -0.008545202
     25        1          -0.006723172   -0.027297763   -0.006539258
     26        1           0.051843495    0.047402632    0.017126501
     27        1          -0.010851926    0.011287522    0.052158640
     28        1           0.004959670   -0.013484022    0.004266165
 -------------------------------------------------------------------
 Cartesian Forces:  Max     0.077599485 RMS     0.022911645

 GradGradGradGradGradGradGradGradGradGradGradGradGradGradGradGradGradGrad
 Berny optimization.
 FormGI is forming the generalized inverse of G from B-inverse, IUseBI=4.
 Internal  Forces:  Max     0.227097041 RMS     0.058908679
 Search for a local minimum.
 Step number   1 out of a maximum of  127
 All quantities printed in internal units (Hartrees-Bohrs-Radians)
 Mixed Optimization -- RFO/linear search
 Second derivative matrix not updated -- first step.
 ITU=  0
     Eigenvalues ---    0.00230   0.00230   0.00230   0.00230   0.00333
     Eigenvalues ---    0.00627   0.00714   0.01198   0.01898   0.01934
     Eigenvalues ---    0.02060   0.02123   0.02149   0.02461   0.02633
     Eigenvalues ---    0.02706   0.02781   0.02813   0.02895   0.03365
     Eigenvalues ---    0.03608   0.03881   0.05113   0.05117   0.05325
     Eigenvalues ---    0.06504   0.10788   0.12982   0.13642   0.13780
     Eigenvalues ---    0.15857   0.15961   0.15979   0.16000   0.16000
     Eigenvalues ---    0.16000   0.16000   0.16000   0.18443   0.20982
     Eigenvalues ---    0.22003   0.22007   0.22009   0.22078   0.22430
     Eigenvalues ---    0.22716   0.23584   0.24901   0.24946   0.24979
     Eigenvalues ---    0.24995   0.25000   0.25000   0.27027   0.27037
     Eigenvalues ---    0.28228   0.30371   0.31843   0.31891   0.32092
     Eigenvalues ---    0.32371   0.32833   0.33538   0.34354   0.34946
     Eigenvalues ---    0.34996   0.35040   0.35044   0.36064   0.37117
     Eigenvalues ---    0.43740   0.45265   0.46054   0.51869   0.54323
     Eigenvalues ---    0.55513   0.66229   0.95207
 RFO step:  Lambda=-5.48999883D-01 EMin= 2.30000000D-03
 Linear search not attempted -- first point.
 Maximum step size (   0.300) exceeded in Quadratic search.
    -- Step size scaled by   0.400
 Iteration  1 RMS(Cart)=  0.21376629 RMS(Int)=  0.01975206
 Iteration  2 RMS(Cart)=  0.23517609 RMS(Int)=  0.01040267
 Iteration  3 RMS(Cart)=  0.05976279 RMS(Int)=  0.00053813
 Iteration  4 RMS(Cart)=  0.00103323 RMS(Int)=  0.00017552
 Iteration  5 RMS(Cart)=  0.00000053 RMS(Int)=  0.00017552
 Variable       Old X    -DE/DX   Delta X   Delta X   Delta X     New X
                                 (Linear)    (Quad)   (Total)
    R1        2.94316  -0.01926   0.00000  -0.00941  -0.00941   2.93375
    R2        2.11043  -0.01264   0.00000  -0.00583  -0.00583   2.10460
    R3        2.06738  -0.00018   0.00000  -0.00008  -0.00008   2.06730
    R4        2.05603   0.00336   0.00000   0.00149   0.00149   2.05752
    R5        3.19561  -0.08083   0.00000  -0.04413  -0.04413   3.15147
    R6        2.11132  -0.01442   0.00000  -0.00666  -0.00666   2.10467
    R7        2.08117  -0.00576   0.00000  -0.00261  -0.00261   2.07857
    R8        2.58025  -0.01282   0.00000  -0.00481  -0.00481   2.57544
    R9        2.83975   0.01015   0.00000   0.00467   0.00467   2.84443
   R10        2.55738  -0.05480   0.00000  -0.02009  -0.02009   2.53729
   R11        2.05609  -0.00354   0.00000  -0.00157  -0.00157   2.05452
   R12        2.66767  -0.02063   0.00000  -0.00838  -0.00838   2.65929
   R13        2.94292  -0.08415   0.00000  -0.04113  -0.04113   2.90180
   R14        2.46327   0.01696   0.00000   0.00561   0.00561   2.46888
   R15        2.02370   0.01079   0.00000   0.00469   0.00469   2.02840
   R16        2.64969  -0.04771   0.00000  -0.01907  -0.01907   2.63062
   R17        2.05763  -0.01200   0.00000  -0.00535  -0.00535   2.05228
   R18        2.54679   0.01852   0.00000   0.00672   0.00672   2.55350
   R19        2.05681   0.00174   0.00000   0.00078   0.00078   2.05758
   R20        2.77281   0.05745   0.00000   0.02529   0.02529   2.79810
   R21        2.10170  -0.01216   0.00000  -0.00558  -0.00558   2.09612
   R22        2.64071   0.07692   0.00000   0.03051   0.03051   2.67122
   R23        2.13929  -0.02636   0.00000  -0.01238  -0.01238   2.12692
   R24        2.18342  -0.02468   0.00000  -0.01189  -0.01189   2.17154
   R25        3.02950  -0.04852   0.00000  -0.02475  -0.02475   3.00475
   R26        2.09346  -0.01416   0.00000  -0.00646  -0.00646   2.08700
   R27        2.30622  -0.05070   0.00000  -0.01353  -0.01353   2.29269
    A1        1.97174  -0.01822   0.00000  -0.01027  -0.01027   1.96146
    A2        1.96483   0.00018   0.00000   0.00009   0.00008   1.96492
    A3        1.93369   0.00449   0.00000   0.00253   0.00253   1.93623
    A4        1.81937   0.00986   0.00000   0.00558   0.00557   1.82494
    A5        1.83792   0.00733   0.00000   0.00417   0.00418   1.84209
    A6        1.92945  -0.00320   0.00000  -0.00184  -0.00184   1.92761
    A7        2.13862  -0.02732   0.00000  -0.01439  -0.01438   2.12424
    A8        1.81638   0.02478   0.00000   0.01409   0.01402   1.83041
    A9        1.85197   0.01599   0.00000   0.00902   0.00897   1.86094
   A10        1.92437  -0.00977   0.00000  -0.00662  -0.00658   1.91779
   A11        1.89959   0.00012   0.00000  -0.00080  -0.00077   1.89882
   A12        1.80363   0.00141   0.00000   0.00176   0.00166   1.80530
   A13        2.03935   0.03473   0.00000   0.01743   0.01742   2.05677
   A14        2.41644  -0.01403   0.00000  -0.00702  -0.00702   2.40942
   A15        1.82674  -0.02043   0.00000  -0.01022  -0.01022   1.81652
   A16        2.02636  -0.15953   0.00000  -0.08306  -0.08306   1.94330
   A17        2.07640   0.08326   0.00000   0.04352   0.04352   2.11992
   A18        2.17714   0.07603   0.00000   0.03944   0.03944   2.21658
   A19        2.04312   0.22710   0.00000   0.11387   0.11387   2.15699
   A20        2.10730  -0.11526   0.00000  -0.05783  -0.05781   2.04950
   A21        2.12753  -0.11199   0.00000  -0.05619  -0.05617   2.07137
   A22        1.90690  -0.21798   0.00000  -0.11337  -0.11366   1.79324
   A23        2.21106   0.10709   0.00000   0.05582   0.05553   2.26659
   A24        2.16372   0.11416   0.00000   0.05985   0.05956   2.22328
   A25        2.29949   0.11962   0.00000   0.06177   0.06170   2.36119
   A26        2.01987  -0.06349   0.00000  -0.03383  -0.03390   1.98597
   A27        1.94330  -0.06534   0.00000  -0.03477  -0.03485   1.90844
   A28        1.86949  -0.22235   0.00000  -0.11687  -0.11758   1.75191
   A29        2.05048   0.07031   0.00000   0.03274   0.03213   2.08260
   A30        2.14231   0.07619   0.00000   0.03660   0.03560   2.17791
   A31        1.94080  -0.06130   0.00000  -0.03303  -0.03344   1.90736
   A32        2.15254  -0.01379   0.00000  -0.01123  -0.01161   2.14093
   A33        1.85193   0.01545   0.00000   0.00564   0.00507   1.85700
   A34        1.70553  -0.01578   0.00000  -0.00529  -0.00529   1.70024
   A35        1.36926   0.07991   0.00000   0.04808   0.04808   1.41734
   A36        1.53887   0.10382   0.00000   0.05864   0.05864   1.59751
   A37        1.96576  -0.00324   0.00000  -0.00183  -0.00183   1.96392
   A38        2.18677  -0.02485   0.00000  -0.01245  -0.01245   2.17431
   A39        2.10933   0.01388   0.00000   0.00696   0.00696   2.11629
   A40        3.07479   0.06413   0.00000   0.04279   0.04279   3.11758
   A41        3.32256   0.02379   0.00000   0.01713   0.01713   3.33968
    D1       -3.09043  -0.00173   0.00000  -0.00109  -0.00109  -3.09153
    D2        0.99917   0.00909   0.00000   0.00571   0.00576   1.00494
    D3       -0.89734  -0.00790   0.00000  -0.00499  -0.00503  -0.90238
    D4        1.13760  -0.00192   0.00000  -0.00122  -0.00123   1.13637
    D5       -1.05598   0.00890   0.00000   0.00557   0.00563  -1.05035
    D6       -2.95250  -0.00809   0.00000  -0.00512  -0.00517  -2.95766
    D7       -1.03303  -0.00129   0.00000  -0.00079  -0.00080  -1.03384
    D8        3.05657   0.00953   0.00000   0.00600   0.00605   3.06263
    D9        1.16005  -0.00746   0.00000  -0.00470  -0.00474   1.15531
   D10       -1.97463  -0.00561   0.00000  -0.00388  -0.00390  -1.97852
   D11        1.12075   0.00358   0.00000   0.00277   0.00276   1.12351
   D12        0.16998  -0.00245   0.00000  -0.00218  -0.00214   0.16784
   D13       -3.01782   0.00674   0.00000   0.00447   0.00451  -3.01331
   D14        2.13685  -0.00583   0.00000  -0.00399  -0.00402   2.13283
   D15       -1.05096   0.00336   0.00000   0.00265   0.00264  -1.04832
   D16       -3.04301  -0.01080   0.00000  -0.00743  -0.00742  -3.05043
   D17        0.18155  -0.01130   0.00000  -0.00788  -0.00787   0.17368
   D18        0.13025  -0.01676   0.00000  -0.01182  -0.01183   0.11842
   D19       -2.92837  -0.01727   0.00000  -0.01227  -0.01228  -2.94065
   D20       -0.37163   0.00059   0.00000   0.00055   0.00058  -0.37105
   D21        2.72734   0.01004   0.00000   0.00717   0.00714   2.73448
   D22       -2.97444  -0.01024   0.00000  -0.00766  -0.00760  -2.98204
   D23        0.05950  -0.01815   0.00000  -0.01230  -0.01237   0.04714
   D24        0.07880  -0.01028   0.00000  -0.00747  -0.00740   0.07140
   D25        3.11275  -0.01820   0.00000  -0.01211  -0.01217   3.10058
   D26        2.59496   0.03027   0.00000   0.02160   0.02156   2.61652
   D27       -0.48928  -0.03429   0.00000  -0.02351  -0.02359  -0.51286
   D28       -0.43764   0.03815   0.00000   0.02623   0.02631  -0.41133
   D29        2.76130  -0.02640   0.00000  -0.01888  -0.01884   2.74247
   D30        3.02652   0.00851   0.00000   0.00796   0.00770   3.03422
   D31       -0.22801   0.02126   0.00000   0.01366   0.01392  -0.21409
   D32        2.70024  -0.12554   0.00000  -0.08704  -0.08699   2.61324
   D33       -0.20276  -0.05971   0.00000  -0.04097  -0.04099  -0.24375
   D34       -0.49681  -0.06296   0.00000  -0.04334  -0.04333  -0.54014
   D35        2.88337   0.00287   0.00000   0.00272   0.00268   2.88605
   D36       -2.69991   0.08484   0.00000   0.05834   0.05803  -2.64188
   D37       -0.20491   0.01199   0.00000   0.00932   0.00969  -0.19523
   D38        0.21106   0.02010   0.00000   0.01324   0.01287   0.22394
   D39        2.70606  -0.05275   0.00000  -0.03579  -0.03547   2.67059
   D40        1.77083  -0.12039   0.00000  -0.08127  -0.08110   1.68973
   D41       -0.45762  -0.06140   0.00000  -0.04150  -0.04170  -0.49932
   D42       -0.68215  -0.03074   0.00000  -0.02247  -0.02228  -0.70443
   D43       -2.91060   0.02824   0.00000   0.01730   0.01713  -2.89347
   D44       -1.64007   0.06334   0.00000   0.04413   0.04411  -1.59596
   D45        1.32056   0.03956   0.00000   0.02700   0.02698   1.34754
   D46        0.74243   0.00728   0.00000   0.00643   0.00645   0.74888
   D47       -2.58013  -0.01650   0.00000  -0.01069  -0.01068  -2.59080
   D48       -2.04783  -0.02134   0.00000  -0.01499  -0.01499  -2.06282
   D49        3.13098   0.00902   0.00000   0.00655   0.00655   3.13753
         Item               Value     Threshold  Converged?
 Maximum Force            0.227097     0.000450     NO 
 RMS     Force            0.058909     0.000300     NO 
 Maximum Displacement     2.212904     0.001800     NO 
 RMS     Displacement     0.499681     0.001200     NO 
 Predicted change in Energy=-2.091354D-01
 GradGradGradGradGradGradGradGradGradGradGradGradGradGradGradGradGradGrad

                          Input orientation:                          
 ---------------------------------------------------------------------
 Center     Atomic      Atomic             Coordinates (Angstroms)
 Number     Number       Type             X           Y           Z
 ---------------------------------------------------------------------
      1          6           0        1.249703    0.400420   -0.292104
      2          6           0        2.796021    0.383607   -0.429159
      3          7           0        3.551011    0.708992   -1.880124
      4          6           0        4.230339   -0.305455   -2.485771
      5          6           0        4.878191    0.125232   -3.580111
      6          6           0        5.505176   -0.733439   -4.502003
      7          6           0        5.403544   -0.074043   -5.625275
      8          6           0        6.160794    0.019215   -6.789626
      9          6           0        5.853225    1.275757   -7.180007
     10          6           0        6.910562    2.203846   -6.718340
     11          6           0        6.324280    2.546131   -5.478488
     12          6           0        5.610162    2.338618   -5.071010
     13          6           0        4.799237    1.623990   -3.904841
     14          6           0        3.698412    1.866949   -2.830413
     15          8           0        2.903521    2.783512   -2.833902
     16          1           0        0.914510    0.212324    0.753176
     17          1           0        0.767197   -0.385007   -0.881216
     18          1           0        0.846232    1.376462   -0.556725
     19          1           0        3.105036   -0.620010   -0.058102
     20          1           0        3.187218    1.070466    0.335717
     21          1           0        4.152939   -1.330674   -2.132290
     22          1           0        5.951630   -1.697731   -4.350457
     23          1           0        4.701663    0.753732   -5.585329
     24          1           0        7.160936   -0.410660   -6.811146
     25          1           0        4.884683    1.758269   -6.936131
     26          1           0        7.449897    1.751885   -7.596767
     27          1           0        6.247393    3.650989   -5.784872
     28          1           0        5.400469    3.421301   -5.130204
 ---------------------------------------------------------------------
                    Distance matrix (angstroms):
                    1          2          3          4          5
     1  C    0.000000
     2  C    1.552471   0.000000
     3  N    2.813013   1.667688   0.000000
     4  C    3.767576   2.600332   1.362863   0.000000
     5  C    4.904350   3.785590   2.234309   1.342677   0.000000
     6  C    6.092449   5.017506   3.574019   2.423545   1.407235
     7  C    6.776594   5.831659   4.251021   3.359531   2.120944
     8  C    8.153645   7.204861   5.602675   4.728132   3.457933
     9  C    8.330776   7.464340   5.806046   5.212469   3.903031
    10  C    8.751810   7.732820   6.076965   5.603108   4.277809
    11  C    7.566637   6.528465   4.900442   4.633841   3.399377
    12  C    6.753381   5.769596   4.132498   3.946960   2.767244
    13  C    5.210392   4.199022   2.548484   2.461739   1.535565
    14  C    3.819672   2.963214   1.505205   2.262977   2.233273
    15  O    3.856809   3.399102   2.373304   3.379846   3.394497
    16  H    1.113708   2.228752   3.759266   4.664075   5.873306
    17  H    1.093966   2.216135   3.153454   3.817628   4.944154
    18  H    1.088794   2.191738   3.084272   4.242905   5.192604
    19  H    2.130327   1.113742   2.298892   2.694222   4.012980
    20  H    2.144081   1.099930   2.274415   3.307878   4.368818
    21  H    3.848603   2.771397   2.141527   1.087205   2.177576
    22  H    6.555958   5.446689   4.202122   2.894535   2.251421
    23  H    6.329225   5.509497   3.880019   3.309272   2.108809
    24  H    8.837332   7.772587   6.212903   5.225738   3.992204
    25  H    7.694149   6.970861   5.333186   4.949023   3.732255
    26  H    9.676102   8.654787   6.997781   6.381259   5.039166
    27  H    8.106392   7.160406   5.583268   5.532270   4.377973
    28  H    7.054203   6.173375   4.619538   4.717090   3.679625
                    6          7          8          9         10
     6  C    0.000000
     7  C    1.306474   0.000000
     8  C    2.495905   1.392062   0.000000
     9  C    3.365964   2.107454   1.351256   0.000000
    10  C    3.938896   2.941882   2.310811   1.480692   0.000000
    11  C    3.518528   2.781117   2.851511   2.175066   1.413548
    12  C    3.126072   2.484116   2.938786   2.374157   2.103069
    13  C    2.532276   2.491665   3.570871   3.458159   3.565067
    14  C    3.580591   3.806072   5.015258   4.889958   5.054441
    15  O    4.681892   4.712484   5.822278   5.464678   5.610815
    16  H    7.041703   7.805003   9.189921   9.405168   9.784801
    17  H    5.973270   6.640672   8.010219   8.264417   8.860875
    18  H    6.459308   6.968735   8.302755   8.303492   8.684823
    19  H    5.051910   6.047697   7.420221   7.865622   8.174042
    20  H    5.659553   6.461845   7.792163   7.977208   8.056523
    21  H    2.792987   3.917153   5.248282   5.929916   6.413203
    22  H    1.073381   2.135866   2.990184   4.105809   4.663553
    23  H    2.007712   1.086021   2.029509   2.035092   2.875026
    24  H    2.859698   2.146632   1.088825   2.165680   2.628106
    25  H    3.538164   2.311910   2.161997   1.109219   2.085703
    26  H    4.419993   3.377625   2.305517   1.717483   1.125515
    27  H    4.628158   3.822749   3.769192   2.782714   1.845367
    28  H    4.203269   3.530232   3.860825   3.001673   2.506942
                   11         12         13         14         15
    11  C    0.000000
    12  C    0.847977   0.000000
    13  C    2.377492   1.590045   0.000000
    14  C    3.790616   2.982873   1.557318   0.000000
    15  O    4.330333   3.539561   2.466808   1.213240   0.000000
    16  H    8.575891   7.777623   6.227441   4.830114   4.840899
    17  H    7.785092   6.958938   5.425470   4.178840   4.291431
    18  H    7.456600   6.633215   5.186270   3.680376   3.376057
    19  H    7.054684   6.337064   4.764793   3.771309   4.396549
    20  H    6.769323   6.059007   4.570266   3.304555   3.614070
    21  H    5.562498   4.921715   3.505663   3.304355   4.356585
    22  H    4.407005   4.114354   3.544067   4.482686   5.627828
    23  H    2.420123   1.897830   1.894970   3.136133   3.863118
    24  H    3.349416   3.604373   4.261928   5.746548   6.644305
    25  H    2.194969   2.083698   3.035466   4.275041   4.669519
    26  H    2.526845   3.179359   4.546721   6.066713   6.664733
    27  H    1.149127   1.624186   3.120961   4.290562   4.543371
    28  H    1.319338   1.104391   2.256839   3.256078   3.451742
                   16         17         18         19         20
    16  H    0.000000
    17  H    1.746351   0.000000
    18  H    1.753774   1.792851   0.000000
    19  H    2.479789   2.489626   3.055605   0.000000
    20  H    2.464930   3.075033   2.523946   1.737687   0.000000
    21  H    4.603713   3.731316   4.554701   2.430103   3.576192
    22  H    7.420779   6.374734   7.064571   5.262024   6.104517
    23  H    7.403533   6.237423   6.367025   5.914950   6.119858
    24  H    9.829797   8.720358   9.065709   7.880213   8.310345
    25  H    8.790772   7.629504   7.559874   7.492039   7.498950
    26  H   10.714619   9.712024   9.659789   9.018601   9.031006
    27  H    9.110989   8.388543   7.853631   7.804597   7.313370
    28  H    8.064460   7.349088   6.770461   6.879493   6.348322
                   21         22         23         24         25
    21  H    0.000000
    22  H    2.879286   0.000000
    23  H    4.070544   3.016123   0.000000
    24  H    5.637923   3.028856   2.984369   0.000000
    25  H    5.757943   4.446125   1.693298   3.146618   0.000000
    26  H    7.087497   4.968217   3.548940   2.318900   2.648924
    27  H    6.522657   5.545613   3.289863   4.287749   2.600916
    28  H    5.755440   5.207329   2.794888   4.539685   2.508602
                   26         27         28
    26  H    0.000000
    27  H    2.887140   0.000000
    28  H    3.615389   1.094818   0.000000
 Stoichiometry    C13H13NO
 Framework group  C1[X(C13H13NO)]
 Deg. of freedom    78
 Full point group                 C1      NOp   1
 Largest Abelian subgroup         C1      NOp   1
 Largest concise Abelian subgroup C1      NOp   1
                         Standard orientation:                         
 ---------------------------------------------------------------------
 Center     Atomic      Atomic             Coordinates (Angstroms)
 Number     Number       Type             X           Y           Z
 ---------------------------------------------------------------------
      1          6           0        4.864370   -0.028397    0.666100
      2          6           0        3.870904   -0.299746   -0.495607
      3          7           0        2.224869   -0.113775   -0.302812
      4          6           0        1.446305   -1.230545   -0.366519
      5          6           0        0.141247   -0.920391   -0.308121
      6          6           0       -0.880747   -1.877336   -0.166366
      7          6           0       -1.804303   -1.218827    0.481928
      8          6           0       -3.194681   -1.260004    0.536594
      9          6           0       -3.464236    0.026944    0.848036
     10          6           0       -3.786491    0.772482   -0.390017
     11          6           0       -2.476465    1.215814   -0.682261
     12          6           0       -1.715541    1.131410   -0.317657
     13          6           0       -0.230024    0.568477   -0.249910
     14          6           0        1.249356    0.996989   -0.019580
     15          8           0        1.607798    2.031499    0.503163
     16          1           0        5.926232   -0.150932    0.353404
     17          1           0        4.739919   -0.728502    1.497440
     18          1           0        4.780464    0.998561    1.017937
     19          1           0        4.098257   -1.337591   -0.829687
     20          1           0        4.200661    0.319459   -1.342773
     21          1           0        1.882329   -2.226431   -0.376889
     22          1           0       -0.914680   -2.900622   -0.488671
     23          1           0       -1.454632   -0.286828    0.916152
     24          1           0       -3.740104   -1.848305   -0.199583
     25          1           0       -2.761120    0.663687    1.422974
     26          1           0       -4.764232    0.231437   -0.255568
     27          1           0       -2.794047    2.315932   -0.585449
     28          1           0       -1.753681    2.233341   -0.254624
 ---------------------------------------------------------------------
 Rotational constants (GHZ):           1.6158396           0.3501371           0.3053893
 Standard basis: 6-31G(2df,p) (6D, 7F)
 There are   530 symmetry adapted cartesian basis functions of A   symmetry.
 There are   485 symmetry adapted basis functions of A   symmetry.
   485 basis functions,   751 primitive gaussians,   530 cartesian basis functions
    53 alpha electrons       53 beta electrons
       nuclear repulsion energy       938.6122111548 Hartrees.
 NAtoms=   28 NActive=   28 NUniq=   28 SFac= 1.00D+00 NAtFMM=   60 NAOKFM=F Big=F
 Integral buffers will be    131072 words long.
 Raffenetti 2 integral format.
 Two-electron integral symmetry is turned on.
 One-electron integrals computed using PRISM.
 PrsmSu:  requested number of processors reduced to:  12 ShMem   1 Linda.
 NBasis=   485 RedAO= T EigKep=  4.09D-05  NBF=   485
 NBsUse=   485 1.00D-06 EigRej= -1.00D+00 NBFU=   485
 Initial guess from the checkpoint file:  "CCN1CdC2CdCCdCCdCCdC2C1dO.chk"
 B after Tr=     0.000000   -0.000000    0.000000
         Rot=    0.999392    0.034473    0.005080    0.001037 Ang=   4.00 deg.
 ExpMin= 1.61D-01 ExpMax= 5.48D+03 ExpMxC= 8.25D+02 IAcc=2 IRadAn=         4 AccDes= 0.00D+00
 Harris functional with IExCor=  402 and IRadAn=       4 diagonalized for initial guess.
 HarFok:  IExCor=  402 AccDes= 0.00D+00 IRadAn=         4 IDoV= 1 UseB2=F ITyADJ=14
 ICtDFT=  3500011 ScaDFX=  1.000000  1.000000  1.000000  1.000000
 FoFCou: FMM=F IPFlag=           0 FMFlag=      100000 FMFlg1=           0
         NFxFlg=           0 DoJE=T BraDBF=F KetDBF=T FulRan=T
         wScrn=  0.000000 ICntrl=       500 IOpCl=  0 I1Cent=   200000004 NGrid=           0
         NMat0=    1 NMatS0=      1 NMatT0=    0 NMatD0=    1 NMtDS0=    0 NMtDT0=    0
 Petite list used in FoFCou.
 Requested convergence on RMS density matrix=1.00D-08 within 128 cycles.
 Requested convergence on MAX density matrix=1.00D-06.
 Requested convergence on             energy=1.00D-06.
 No special actions if energy rises.
 Integral accuracy reduced to 1.0D-05 until final iterations.
 EnCoef did     5 forward-backward iterations
[...]
    A7        1.97734   0.00002  -0.00006  -0.00001  -0.00007   1.97726
    A8        1.93109  -0.00011  -0.00023  -0.00110  -0.00133   1.92976
    A9        1.92337   0.00009   0.00042   0.00112   0.00154   1.92490
   A10        1.89432   0.00007   0.00062   0.00215   0.00277   1.89709
   A11        1.85138  -0.00009  -0.00094  -0.00233  -0.00327   1.84811
   A12        1.88242   0.00003   0.00019   0.00015   0.00035   1.88277
   A13        2.21284   0.00052   0.00010  -0.00068  -0.00070   2.21214
   A14        2.15663   0.00108   0.00032   0.00147   0.00167   2.15830
   A15        1.91223  -0.00159   0.00003   0.00013   0.00004   1.91227
   A16        1.96801  -0.00229  -0.00016  -0.00026  -0.00042   1.96760
   A17        2.08773   0.00118   0.00000   0.00023   0.00023   2.08797
   A18        2.22720   0.00112   0.00012  -0.00000   0.00012   2.22731
   A19        2.28743  -0.00047   0.00032   0.00188   0.00220   2.28963
   A20        1.86619  -0.00275   0.00004  -0.00020  -0.00017   1.86603
   A21        2.12935   0.00322  -0.00039  -0.00170  -0.00210   2.12726
   A22        2.01921   0.00105   0.00089  -0.00183  -0.00094   2.01827
   A23        2.04868  -0.00016  -0.00055   0.00118   0.00064   2.04931
   A24        2.07219  -0.00027  -0.00018   0.00044   0.00027   2.07246
   A25        2.00693   0.00114   0.00021   0.00121   0.00142   2.00835
   A26        2.06048  -0.00058  -0.00012  -0.00046  -0.00059   2.05989
   A27        2.02417  -0.00014   0.00015   0.00070   0.00085   2.02502
   A28        1.92968   0.00078  -0.00019   0.00022   0.00003   1.92971
   A29        2.06452  -0.00030   0.00014  -0.00066  -0.00051   2.06400
   A30        2.09719  -0.00031  -0.00035   0.00024  -0.00011   2.09708
   A31        2.05104  -0.00088  -0.00025  -0.00089  -0.00114   2.04990
   A32        2.04922  -0.00002   0.00005  -0.00060  -0.00055   2.04867
   A33        2.00105   0.00058   0.00049   0.00036   0.00085   2.00190
   A34        2.06726  -0.00022  -0.00034   0.00135   0.00100   2.06827
   A35        2.14553  -0.00005   0.00050  -0.00054  -0.00004   2.14549
   A36        2.01156   0.00036   0.00027   0.00028   0.00055   2.01211
   A37        1.89640  -0.00016   0.00043   0.00095   0.00138   1.89778
   A38        2.44790   0.00244  -0.00047  -0.00116  -0.00164   2.44626
   A39        2.17517   0.00042   0.00019   0.00123   0.00142   2.17659
   A40        4.21279  -0.00027   0.00016   0.00081   0.00096   4.21376
   A41        3.17804   0.00039   0.00086   0.00353   0.00439   3.18243
    D1       -3.13954  -0.00000  -0.00010  -0.00063  -0.00073  -3.14027
    D2        1.01181  -0.00003  -0.00069  -0.00261  -0.00330   1.00851
    D3       -1.06848  -0.00005  -0.00105  -0.00282  -0.00387  -1.07235
    D4        1.05049   0.00003   0.00004   0.00026   0.00030   1.05080
    D5       -1.08134   0.00000  -0.00055  -0.00171  -0.00226  -1.08360
    D6        3.12155  -0.00002  -0.00090  -0.00192  -0.00283   3.11872
    D7       -1.05137   0.00004   0.00002   0.00039   0.00041  -1.05097
    D8        3.09998   0.00001  -0.00057  -0.00159  -0.00216   3.09782
    D9        1.01968  -0.00001  -0.00092  -0.00180  -0.00273   1.01696
   D10       -1.37496   0.00004   0.00887   0.02083   0.02970  -1.34526
   D11        1.70201   0.00009   0.01693   0.04089   0.05783   1.75984
   D12        0.77724  -0.00004   0.00899   0.02099   0.02998   0.80722
   D13       -2.42897   0.00002   0.01705   0.04105   0.05811  -2.37087
   D14        2.79604  -0.00002   0.00903   0.02102   0.03004   2.82608
   D15       -0.41017   0.00004   0.01709   0.04108   0.05817  -0.35200
   D16        3.08996   0.00002   0.00594   0.01390   0.01982   3.10978
   D17       -0.02988   0.00001   0.00774   0.01498   0.02270  -0.00718
   D18        0.00549  -0.00010  -0.00120  -0.00389  -0.00508   0.00042
   D19       -3.11435  -0.00011   0.00060  -0.00281  -0.00220  -3.11655
   D20        0.05810  -0.00009  -0.00498  -0.01149  -0.01648   0.04162
   D21       -3.13840   0.00000   0.00187   0.00552   0.00740  -3.13100
   D22       -3.10900  -0.00019   0.00271   0.00096   0.00367  -3.10533
   D23        0.01037  -0.00003   0.00087  -0.00036   0.00051   0.01087
   D24        0.00872  -0.00018   0.00074  -0.00022   0.00052   0.00924
   D25        3.12809  -0.00003  -0.00110  -0.00154  -0.00265   3.12544
   D26        2.04967  -0.00098  -0.00204  -0.00920  -0.01123   2.03844
   D27       -1.64703   0.00004  -0.00180  -0.00943  -0.01123  -1.65825
   D28       -1.06685  -0.00108   0.00003  -0.00773  -0.00769  -1.07455
   D29        1.51964  -0.00007   0.00027  -0.00796  -0.00769   1.51195
   D30        3.02449  -0.00036  -0.00017   0.00796   0.00778   3.03227
   D31       -0.13686  -0.00027  -0.00180   0.00683   0.00504  -0.13182
   D32        1.99754   0.00145   0.00057   0.00299   0.00356   2.00110
   D33       -0.49389   0.00086   0.00015   0.00056   0.00071  -0.49318
   D34       -0.58111   0.00038   0.00045   0.00299   0.00344  -0.57767
   D35       -3.07254  -0.00021   0.00002   0.00057   0.00059  -3.07195
   D36       -1.86966  -0.00011   0.00268  -0.00066   0.00202  -1.86764
   D37        0.64746   0.00004   0.00198  -0.00083   0.00115   0.64861
   D38        0.63564   0.00029   0.00299   0.00127   0.00426   0.63990
   D39       -3.13042   0.00044   0.00228   0.00110   0.00339  -3.12703
   D40        1.98699   0.00017  -0.00035  -0.00250  -0.00285   1.98414
   D41       -0.51100   0.00045  -0.00097  -0.00087  -0.00185  -0.51285
   D42       -0.51677   0.00001   0.00016  -0.00196  -0.00180  -0.51857
   D43       -3.01476   0.00029  -0.00046  -0.00034  -0.00079  -3.01556
   D44       -1.51986   0.00078  -0.00246   0.00737   0.00491  -1.51495
   D45        1.58529   0.00039  -0.00332   0.00384   0.00052   1.58581
   D46        0.99547   0.00031  -0.00200   0.00546   0.00345   0.99893
   D47       -2.18256  -0.00009  -0.00287   0.00193  -0.00094  -2.18350
   D48       -3.05583   0.00039  -0.00028  -0.00171  -0.00199  -3.05782
   D49       -3.03232   0.00007  -0.00083  -0.00101  -0.00184  -3.03416
         Item               Value     Threshold  Converged?
 Maximum Force            0.003218     0.000450     NO 
 RMS     Force            0.000660     0.000300     NO 
 Maximum Displacement     0.108448     0.001800     NO 
 RMS     Displacement     0.024907     0.001200     NO 
 Predicted change in Energy=-1.751869D-05
 GradGradGradGradGradGradGradGradGradGradGradGradGradGradGradGradGradGrad

                          Input orientation:                          
 ---------------------------------------------------------------------
 Center     Atomic      Atomic             Coordinates (Angstroms)
 Number     Number       Type             X           Y           Z
 ---------------------------------------------------------------------
      1          6           0        1.384687    0.373708   -0.866919
      2          6           0        2.855457    0.696925   -0.590737
      3          7           0        3.673513    0.718019   -1.789957
      4          6           0        4.150900   -0.382892   -2.489806
      5          6           0        4.855142   -0.036510   -3.592636
      6          6           0        5.496341   -0.858537   -4.630082
      7          6           0        5.001860   -0.712770   -5.881316
      8          6           0        5.925852   -0.137954   -6.845936
      9          6           0        5.575075    1.134984   -7.139674
     10          6           0        6.493530    2.205202   -6.721344
     11          6           0        6.368216    2.712347   -5.473305
     12          6           0        5.436554    2.465430   -4.362666
     13          6           0        4.873288    1.447628   -3.645283
     14          6           0        4.063767    1.886578   -2.436997
     15          8           0        3.802775    3.010139   -2.053757
     16          1           0        0.816040    0.372343    0.068195
     17          1           0        1.272434   -0.610650   -1.332637
     18          1           0        0.946923    1.120898   -1.534674
     19          1           0        3.282956   -0.026119    0.113528
     20          1           0        2.948136    1.691650   -0.147813
     21          1           0        3.920489   -1.379593   -2.140085
     22          1           0        6.556217   -1.084191   -4.508072
     23          1           0        3.958841   -0.422852   -5.988109
     24          1           0        6.975954   -0.414266   -6.781111
     25          1           0        4.518514    1.390948   -7.075073
     26          1           0        7.291877    2.581019   -7.356948
     27          1           0        7.020033    3.557517   -5.246007
     28          1           0        5.178611    3.415681   -3.886299
 ---------------------------------------------------------------------
                    Distance matrix (angstroms):
                    1          2          3          4          5
     1  C    0.000000
     2  C    1.530984   0.000000
     3  N    2.491841   1.451822   0.000000
     4  C    3.295169   2.539811   1.389133   0.000000
     5  C    4.431915   3.680769   2.283684   1.353577   0.000000
     6  C    5.708373   5.070507   3.724855   2.572398   1.470768
     7  C    6.277623   5.880859   4.533308   3.512163   2.391006
     8  C    7.525465   7.017967   5.600772   4.710235   3.426467
     9  C    7.581975   7.104702   5.692915   5.094457   3.804232
    10  C    7.983040   7.286618   5.872205   5.485622   4.183109
    11  C    7.177992   6.343569   4.980544   4.837174   3.658213
    12  C    5.745709   4.900726   3.574996   3.643275   2.681547
    13  C    4.587259   3.737037   2.326806   2.282054   1.485182
    14  C    3.454184   2.506783   1.391578   2.271755   2.379085
    15  O    3.769151   2.896342   2.310869   3.438602   3.571791
    16  H    1.094440   2.167664   3.425984   4.270250   5.466552
    17  H    1.094740   2.183147   2.782028   3.110704   4.274696
    18  H    1.093538   2.171008   2.767991   3.665942   4.566068
    19  H    2.173606   1.096146   2.080752   2.767302   4.025857
    20  H    2.167592   1.092817   2.042245   3.351909   4.300002
    21  H    3.335463   2.801196   2.140925   1.081114   2.188001
    22  H    6.490623   5.675694   4.352711   3.217261   2.197570
    23  H    5.786827   5.621653   4.359757   3.503799   2.586679
    24  H    8.176848   7.518908   6.090962   5.137822   3.847976
    25  H    7.028288   6.730085   5.394379   4.930144   3.778668
    26  H    9.049176   8.307420   6.895993   6.506886   5.192223
    27  H    7.814741   6.870096   5.586254   5.599588   4.509703
    28  H    5.723995   4.863066   3.733277   4.175588   3.479726
                    6          7          8          9         10
     6  C    0.000000
     7  C    1.353272   0.000000
     8  C    2.369330   1.454189   0.000000
     9  C    3.205990   2.307863   1.352663   0.000000
    10  C    3.841127   3.383088   2.414159   1.471029   0.000000
    11  C    3.771260   3.710097   3.194373   2.427743   1.352960
    12  C    3.335243   3.549114   3.630930   3.082378   2.597745
    13  C    2.583877   3.111863   3.723727   3.577851   3.558265
    14  C    3.794410   4.415876   5.196618   4.996411   4.935676
    15  O    4.946945   5.472482   6.114157   5.702964   5.447426
    16  H    6.744931   7.354947   8.612537   8.670837   9.038313
    17  H    5.364325   5.882987   7.230091   7.435162   8.014177
    18  H    5.847814   6.220784   7.388096   7.268839   7.670862
    19  H    5.300361   6.274095   7.445236   7.694863   7.874138
    20  H    5.752177   6.547677   7.555071   7.489780   7.486312
    21  H    2.992473   3.951054   5.263856   5.835807   6.360756
    22  H    1.090478   2.107078   2.599679   3.579484   3.965175
    23  H    2.097133   1.087817   2.164756   2.522928   3.724104
    24  H    2.648312   2.189928   1.087780   2.119246   2.664191
    25  H    3.463280   2.466639   2.090610   1.089041   2.165369
    26  H    4.742393   4.274425   3.085446   2.255136   1.087469
    27  H    4.711956   4.765709   4.172950   3.397433   2.069440
    28  H    4.350069   4.588620   4.684671   3.992895   3.351380
                   11         12         13         14         15
    11  C    0.000000
    12  C    1.470537   0.000000
    13  C    2.678803   1.366686   0.000000
    14  C    3.900198   2.434711   1.519196   0.000000
    15  O    4.285262   2.880451   2.473943   1.215475   0.000000
    16  H    8.185993   6.735183   5.604232   4.372256   4.514558
    17  H    7.358969   5.998604   4.748788   3.904779   4.475797
    18  H    6.887376   5.473765   4.469650   3.333943   3.463319
    19  H    6.944834   5.557168   4.339325   3.282263   3.766457
    20  H    6.410899   4.955396   3.999757   2.554015   2.470110
    21  H    5.817705   4.692816   3.341650   3.282767   4.392158
    22  H    3.921826   3.724863   3.160184   4.396263   5.510775
    23  H    3.987428   3.628758   3.134285   4.237320   5.223879
    24  H    3.443169   4.063408   4.209664   5.713672   6.644056
    25  H    2.780855   3.058507   3.448556   4.686598   5.324253
    26  H    2.102025   3.524387   4.572811   5.925273   6.362531
    27  H    1.091257   2.116684   3.409174   4.407050   4.565176
    28  H    2.104382   1.093817   2.006127   2.383592   2.327144
                   16         17         18         19         20
    16  H    0.000000
    17  H    1.771130   0.000000
    18  H    1.773880   1.773424   0.000000
    19  H    2.499300   2.544654   3.080465   0.000000
    20  H    2.516558   3.084213   2.500799   1.769501   0.000000
    21  H    4.193255   2.873229   3.932058   2.705016   3.787764
    22  H    7.484206   6.182717   6.720692   5.761331   6.303602
    23  H    6.869378   5.378241   5.593559   6.151763   6.292989
    24  H    9.245339   7.890158   8.138247   7.831025   8.041073
    25  H    8.110003   6.893403   6.597365   7.430388   7.109391
    26  H   10.096903   9.094656   8.734373   8.869984   8.463491
    27  H    8.767873   8.106971   7.522884   7.452034   6.786265
    28  H    6.628118   6.163664   5.357552   5.606970   4.682262
                   21         22         23         24         25
    21  H    0.000000
    22  H    3.555514   0.000000
    23  H    3.965364   3.061739   0.000000
    24  H    5.639756   2.406593   3.119599   0.000000
    25  H    5.691014   4.107073   2.187373   3.063368   0.000000
    26  H    7.366706   4.700112   4.691065   3.066452   3.031050
    27  H    6.605223   4.722830   5.075919   4.258350   3.781151
    28  H    5.256119   4.746920   4.543103   5.126292   3.834521
                   26         27         28
    26  H    0.000000
    27  H    2.341691   0.000000
    28  H    4.148247   2.293417   0.000000
 Stoichiometry    C13H13NO
 Framework group  C1[X(C13H13NO)]
 Deg. of freedom    78
 Full point group                 C1      NOp   1
 Largest Abelian subgroup         C1      NOp   1
 Largest concise Abelian subgroup C1      NOp   1
                         Standard orientation:                         
 ---------------------------------------------------------------------
 Center     Atomic      Atomic             Coordinates (Angstroms)
 Number     Number       Type             X           Y           Z
 ---------------------------------------------------------------------
      1          6           0        4.212192   -0.626631    1.031090
      2          6           0        3.644648   -0.066788   -0.275961
      3          7           0        2.194379   -0.101478   -0.333431
      4          6           0        1.398811   -1.212968   -0.581126
      5          6           0        0.075876   -0.931011   -0.530996
      6          6           0       -1.104889   -1.793936   -0.686926
      7          6           0       -1.903393   -1.895891    0.400889
      8          6           0       -3.237519   -1.340049    0.240222
      9          6           0       -3.356071   -0.182291    0.929599
     10          6           0       -3.542583    1.053177    0.153223
     11          6           0       -2.445370    1.708690   -0.290544
     12          6           0       -0.998860    1.493774   -0.135958
     13          6           0       -0.045956    0.518930   -0.233350
     14          6           0        1.386420    1.007043   -0.099180
     15          8           0        1.798094    2.126177    0.136281
     16          1           0        5.305376   -0.575186    1.021067
     17          1           0        3.923996   -1.672725    1.176300
     18          1           0        3.848422   -0.048991    1.885389
     19          1           0        4.043619   -0.617043   -1.135948
     20          1           0        3.923592    0.983542   -0.391060
     21          1           0        1.862572   -2.172714   -0.761737
     22          1           0       -1.557959   -1.850864   -1.677193
     23          1           0       -1.449418   -1.771486    1.381591
     24          1           0       -3.731322   -1.456044   -0.722050
     25          1           0       -2.748649   -0.068909    1.826368
     26          1           0       -4.522792    1.442851   -0.111224
     27          1           0       -2.640376    2.659645   -0.789043
     28          1           0       -0.502306    2.456558    0.015426
 ---------------------------------------------------------------------
 Rotational constants (GHZ):           1.2838020           0.3883799           0.3213591
 Standard basis: 6-31G(2df,p) (6D, 7F)
 There are   530 symmetry adapted cartesian basis functions of A   symmetry.
 There are   485 symmetry adapted basis functions of A   symmetry.
   485 basis functions,   751 primitive gaussians,   530 cartesian basis functions
    53 alpha electrons       53 beta electrons
       nuclear repulsion energy       925.9060300147 Hartrees.
 NAtoms=   28 NActive=   28 NUniq=   28 SFac= 1.00D+00 NAtFMM=   60 NAOKFM=F Big=F
 Integral buffers will be    131072 words long.
 Raffenetti 2 integral format.
 Two-electron integral symmetry is turned on.
 One-electron integrals computed using PRISM.
 PrsmSu:  requested number of processors reduced to:  12 ShMem   1 Linda.
 NBasis=   485 RedAO= T EigKep=  1.55D-04  NBF=   485
 NBsUse=   485 1.00D-06 EigRej= -1.00D+00 NBFU=   485
 Initial guess from the checkpoint file:  "CCN1CdC2CdCCdCCdCCdC2C1dO.chk"
 B after Tr=     0.000000   -0.000000    0.000000
         Rot=    0.999992   -0.003751   -0.000212   -0.001005 Ang=  -0.45 deg.
 ExpMin= 1.61D-01 ExpMax= 5.48D+03 ExpMxC= 8.25D+02 IAcc=2 IRadAn=         4 AccDes= 0.00D+00
 Harris functional with IExCor=  402 and IRadAn=       4 diagonalized for initial guess.
 HarFok:  IExCor=  402 AccDes= 0.00D+00 IRadAn=         4 IDoV= 1 UseB2=F ITyADJ=14
 ICtDFT=  3500011 ScaDFX=  1.000000  1.000000  1.000000  1.000000
 FoFCou: FMM=F IPFlag=           0 FMFlag=      100000 FMFlg1=           0
         NFxFlg=           0 DoJE=T BraDBF=F KetDBF=T FulRan=T
         wScrn=  0.000000 ICntrl=       500 IOpCl=  0 I1Cent=   200000004 NGrid=           0
         NMat0=    1 NMatS0=      1 NMatT0=    0 NMatD0=    1 NMtDS0=    0 NMtDT0=    0
 Petite list used in FoFCou.
 Requested convergence on RMS density matrix=1.00D-08 within 128 cycles.
 Requested convergence on MAX density matrix=1.00D-06.
 Requested convergence on             energy=1.00D-06.
 No special actions if energy rises.
 Integral accuracy reduced to 1.0D-05 until final iterations.
 Initial convergence to 1.0D-05 achieved.  Increase integral accuracy.
 SCF Done:  E(RB3LYP) =  -633.074479431     A.U. after   10 cycles
            NFock= 10  Conv=0.82D-08     -V/T= 2.0080
 PrsmSu:  requested number of processors reduced to:  13 ShMem   1 Linda.
 Calling FoFJK, ICntrl=      2127 FMM=F ISym2X=0 I1Cent= 0 IOpClX= 0 NMat=1 NMatS=1 NMatT=0.
slurmstepd: error: *** JOB 27449304 ON lewis4-r630-hpc4-node234 CANCELLED AT 2023-05-20T20:26:30 ***
