### Starting Gaussian ###
 Entering Gaussian System, Link 0=g16
 Initial command:
 /cluster/software/gaussian/gaussian-16-A.03/avx2/g16/l1.exe "/local/scratch/cz9n3/Gau-13782.inp" -scrdir="/local/scratch/cz9n3/"
 Entering Link 1 = /cluster/software/gaussian/gaussian-16-A.03/avx2/g16/l1.exe PID=     13783.
  
 Copyright (c) 1988,1990,1992,1993,1995,1998,2003,2009,2016,
            Gaussian, Inc.  All Rights Reserved.
  
 This is part of the Gaussian(R) 16 program.  It is based on
 the Gaussian(R) 09 system (copyright 2009, Gaussian, Inc.),
 the Gaussian(R) 03 system (copyright 2003, Gaussian, Inc.),
 the Gaussian(R) 98 system (copyright 1998, Gaussian, Inc.),
 the Gaussian(R) 94 system (copyright 1995, Gaussian, Inc.),
 the Gaussian 92(TM) system (copyright 1992, Gaussian, Inc.),
 the Gaussian 90(TM) system (copyright 1990, Gaussian, Inc.),
 the Gaussian 88(TM) system (copyright 1988, Gaussian, Inc.),
 the Gaussian 86(TM) system (copyright 1986, Carnegie Mellon
 University), and the Gaussian 82(TM) system (copyright 1983,
 Carnegie Mellon University). Gaussian is a federally registered
 trademark of Gaussian, Inc.
  
 This software contains proprietary and confidential information,
 including trade secrets, belonging to Gaussian, Inc.
  
 This software is provided under written license and may be
 used, copied, transmitted, or stored only in accord with that
 written license.
  
 The following legend is applicable only to US Government
 contracts under FAR:
  
                    RESTRICTED RIGHTS LEGEND
  
 Use, reproduction and disclosure by the US Government is
 subject to restrictions as set forth in subparagraphs (a)
 and (c) of the Commercial Computer Software - Restricted
 Rights clause in FAR 52.227-19.
  
 Gaussian, Inc.
 340 Quinnipiac St., Bldg. 40, Wallingford CT 06492
  
  
 ---------------------------------------------------------------
 Warning -- This program may not be used in any manner that
 competes with the business of Gaussian, Inc. or will provide
 assistance to any competitor of Gaussian, Inc.  The licensee
 of this program is prohibited from giving any competitor of
 Gaussian, Inc. access to this program.  By using this program,
 the user acknowledges that Gaussian, Inc. is engaged in the
 business of creating and licensing software in the field of
 computational chemistry and represents and warrants to the
 licensee that it is not a competitor of Gaussian, Inc. and that
 it will not use this program in any manner prohibited above.
 ---------------------------------------------------------------
  

 Cite this work as:
 Gaussian 16, Revision A.03,
 M. J. Frisch, G. W. Trucks, H. B. Schlegel, G. E. Scuseria, 
 M. A. Robb, J. R. Cheeseman, G. Scalmani, V. Barone, 
 G. A. Petersson, H. Nakatsuji, X. Li, M. Caricato, A. V. Marenich, 
 J. Bloino, B. G. Janesko, R. Gomperts, B. Mennucci, H. P. Hratchian, 
 J. V. Ortiz, A. F. Izmaylov, J. L. Sonnenberg, D. Williams-Young, 
 F. Ding, F. Lipparini, F. Egidi, J. Goings, B. Peng, A. Petrone, 
 T. Henderson, D. Ranasinghe, V. G. Zakrzewski, J. Gao, N. Rega, 
 G. Zheng, W. Liang, M. Hada, M. Ehara, K. Toyota, R. Fukuda, 
 J. Hasegawa, M. Ishida, T. Nakajima, Y. Honda, O. Kitao, H. Nakai, 
 T. Vreven, K. Throssell, J. A. Montgomery, Jr., J. E. Peralta, 
 F. Ogliaro, M. J. Bearpark, J. J. Heyd, E. N. Brothers, K. N. Kudin, 
 V. N. Staroverov, T. A. Keith, R. Kobayashi, J. Normand, 
 K. Raghavachari, A. P. Rendell, J. C. Burant, S. S. Iyengar, 
 J. Tomasi, M. Cossi, J. M. Millam, M. Klene, C. Adamo, R. Cammi, 
 J. W. Ochterski, R. L. Martin, K. Morokuma, O. Farkas, 
 J. B. Foresman, and D. J. Fox, Gaussian, Inc., Wallingford CT, 2016.
 
 ******************************************
 Gaussian 16:  ES64L-G16RevA.03 25-Dec-2016
                17-May-2023 
 ******************************************
 %chk=CCN[C]CdCCdCCCdCNCdS.chk
 %NProcShared=20
 Will use up to   20 processors via shared memory.
 -----------------------------
 # opt freq b3lyp/6-31g(2df,p)
 -----------------------------
 1/18=20,19=15,26=3,38=1/1,3;
 2/9=110,12=2,17=6,18=5,40=1/2;
 3/5=1,6=6,7=104,11=2,25=1,30=1,71=1,74=-5/1,2,3;
 4//1;
 5/5=2,38=5/2;
 6/7=2,8=2,9=2,10=2,28=1/1;
 7//1,2,3,16;
 1/18=20,19=15,26=3/3(2);
 2/9=110/2;
 99//99;
 2/9=110/2;
 3/5=1,6=6,7=104,11=2,25=1,30=1,71=1,74=-5/1,2,3;
 4/5=5,16=3,69=1/1;
 5/5=2,38=5/2;
 7//1,2,3,16;
 1/18=20,19=15,26=3/3(-5);
 2/9=110/2;
 6/7=2,8=2,9=2,10=2,19=2,28=1/1;
 99/9=1/99;
 -------------------
 Title Card Required
 -------------------
 Symbolic Z-matrix:
 Charge =  0 Multiplicity = 1
 C                     0.96724  -0.11462  -0.05526 
 C                     2.49604  -0.11765  -0.04462 
 N                     2.84222   0.62906   1.13721 
 C                     4.21621   0.92121   1.43086 
 C                     4.99482   1.57378   2.40107 
 C                     6.32367   1.64819   2.54615 
 C                     6.84343   2.39723   3.675 
 C                     8.15181   2.56124   3.92314 
 C                     8.66897   3.3523    5.09629 
 C                     10.17505   3.38672   5.1466 
 C                     10.85624   4.03127   6.10409 
 N                     12.22613   4.05325   6.1365 
 C                     12.9688   4.69718   7.09332 
 S                     14.63334   4.67601   7.06222 
 H                     0.57649  -0.6789   -0.90376 
 H                     0.57781   0.91029  -0.11526 
 H                     0.56439  -0.56112   0.86379 
 H                     2.8695    0.35309  -0.95982 
 H                     2.86587  -1.14675   0.0065 
 H                     2.42375   0.19698   1.9578 
 H                     4.36416   2.06656   3.13258 
 H                     7.00724   1.17377   1.85209 
 H                     6.11565   2.85126   4.34942 
 H                     8.86737   2.1082    3.24559 
 H                     8.2901    2.90503   6.02427 
 H                     8.29002   4.38038   5.02936 
 H                     10.71761   2.86156   4.36522 
 H                     10.33954   4.56557   6.89801 
 H                     12.75192   3.56785   5.41474 
 H                     12.37285   5.2147    7.8623 
 

 GradGradGradGradGradGradGradGradGradGradGradGradGradGradGradGradGradGrad
 Berny optimization.
 Initialization pass.
                           ----------------------------
                           !    Initial Parameters    !
                           ! (Angstroms and Degrees)  !
 --------------------------                            --------------------------
 ! Name  Definition              Value          Derivative Info.                !
 --------------------------------------------------------------------------------
 ! R1    R(1,2)                  1.5288         estimate D2E/DX2                !
 ! R2    R(1,15)                 1.0914         estimate D2E/DX2                !
 ! R3    R(1,16)                 1.098          estimate D2E/DX2                !
 ! R4    R(1,17)                 1.0983         estimate D2E/DX2                !
 ! R5    R(2,3)                  1.4402         estimate D2E/DX2                !
 ! R6    R(2,18)                 1.0948         estimate D2E/DX2                !
 ! R7    R(2,19)                 1.0947         estimate D2E/DX2                !
 ! R8    R(3,4)                  1.4351         estimate D2E/DX2                !
 ! R9    R(3,20)                 1.0174         estimate D2E/DX2                !
 ! R10   R(4,5)                  1.4048         estimate D2E/DX2                !
 ! R11   R(5,6)                  1.3388         estimate D2E/DX2                !
 ! R12   R(5,21)                 1.0843         estimate D2E/DX2                !
 ! R13   R(6,7)                  1.451          estimate D2E/DX2                !
 ! R14   R(6,22)                 1.0835         estimate D2E/DX2                !
 ! R15   R(7,8)                  1.3418         estimate D2E/DX2                !
 ! R16   R(7,23)                 1.0912         estimate D2E/DX2                !
 ! R17   R(8,9)                  1.5065         estimate D2E/DX2                !
 ! R18   R(8,24)                 1.0846         estimate D2E/DX2                !
 ! R19   R(9,10)                 1.5073         estimate D2E/DX2                !
 ! R20   R(9,25)                 1.0976         estimate D2E/DX2                !
 ! R21   R(9,26)                 1.0977         estimate D2E/DX2                !
 ! R22   R(10,11)                1.3402         estimate D2E/DX2                !
 ! R23   R(10,27)                1.0866         estimate D2E/DX2                !
 ! R24   R(11,12)                1.3704         estimate D2E/DX2                !
 ! R25   R(11,28)                1.0875         estimate D2E/DX2                !
 ! R26   R(12,13)                1.3718         estimate D2E/DX2                !
 ! R27   R(12,29)                1.0164         estimate D2E/DX2                !
 ! R28   R(13,14)                1.665          estimate D2E/DX2                !
 ! R29   R(13,30)                1.102          estimate D2E/DX2                !
 ! A1    A(2,1,15)             111.2488         estimate D2E/DX2                !
 ! A2    A(2,1,16)             110.9087         estimate D2E/DX2                !
 ! A3    A(2,1,17)             111.1094         estimate D2E/DX2                !
 ! A4    A(15,1,16)            108.2488         estimate D2E/DX2                !
 ! A5    A(15,1,17)            108.0023         estimate D2E/DX2                !
 ! A6    A(16,1,17)            107.1632         estimate D2E/DX2                !
 ! A7    A(1,2,3)              104.1847         estimate D2E/DX2                !
 ! A8    A(1,2,18)             109.538          estimate D2E/DX2                !
 ! A9    A(1,2,19)             109.8773         estimate D2E/DX2                !
 ! A10   A(3,2,18)             112.3985         estimate D2E/DX2                !
 ! A11   A(3,2,19)             111.5846         estimate D2E/DX2                !
 ! A12   A(18,2,19)            109.1466         estimate D2E/DX2                !
 ! A13   A(2,3,4)              120.239          estimate D2E/DX2                !
 ! A14   A(2,3,20)             110.0471         estimate D2E/DX2                !
 ! A15   A(4,3,20)             108.3736         estimate D2E/DX2                !
 ! A16   A(3,4,5)              140.0462         estimate D2E/DX2                !
 ! A17   A(4,5,6)              130.6016         estimate D2E/DX2                !
 ! A18   A(4,5,21)             110.7744         estimate D2E/DX2                !
 ! A19   A(6,5,21)             118.6162         estimate D2E/DX2                !
 ! A20   A(5,6,7)              117.9386         estimate D2E/DX2                !
 ! A21   A(5,6,22)             122.1693         estimate D2E/DX2                !
 ! A22   A(7,6,22)             119.8918         estimate D2E/DX2                !
 ! A23   A(6,7,8)              123.7974         estimate D2E/DX2                !
 ! A24   A(6,7,23)             117.1755         estimate D2E/DX2                !
 ! A25   A(8,7,23)             119.0265         estimate D2E/DX2                !
 ! A26   A(7,8,9)              122.8845         estimate D2E/DX2                !
 ! A27   A(7,8,24)             118.4731         estimate D2E/DX2                !
 ! A28   A(9,8,24)             118.6416         estimate D2E/DX2                !
 ! A29   A(8,9,10)             112.395          estimate D2E/DX2                !
 ! A30   A(8,9,25)             109.0208         estimate D2E/DX2                !
 ! A31   A(8,9,26)             109.0137         estimate D2E/DX2                !
 ! A32   A(10,9,25)            109.0251         estimate D2E/DX2                !
 ! A33   A(10,9,26)            109.0005         estimate D2E/DX2                !
 ! A34   A(25,9,26)            108.3021         estimate D2E/DX2                !
 ! A35   A(9,10,11)            122.8656         estimate D2E/DX2                !
 ! A36   A(9,10,27)            117.637          estimate D2E/DX2                !
 ! A37   A(11,10,27)           119.4974         estimate D2E/DX2                !
 ! A38   A(10,11,12)           122.1853         estimate D2E/DX2                !
 ! A39   A(10,11,28)           121.0859         estimate D2E/DX2                !
 ! A40   A(12,11,28)           116.7287         estimate D2E/DX2                !
 ! A41   A(11,12,13)           124.4165         estimate D2E/DX2                !
 ! A42   A(11,12,29)           119.5154         estimate D2E/DX2                !
 ! A43   A(13,12,29)           116.0681         estimate D2E/DX2                !
 ! A44   A(12,13,14)           121.4844         estimate D2E/DX2                !
 ! A45   A(12,13,30)           114.4821         estimate D2E/DX2                !
 ! A46   A(14,13,30)           124.0335         estimate D2E/DX2                !
 ! D1    D(15,1,2,3)          -178.616          estimate D2E/DX2                !
 ! D2    D(15,1,2,18)           60.9373         estimate D2E/DX2                !
 ! D3    D(15,1,2,19)          -58.9552         estimate D2E/DX2                !
 ! D4    D(16,1,2,3)            60.8382         estimate D2E/DX2                !
 ! D5    D(16,1,2,18)          -59.6085         estimate D2E/DX2                !
 ! D6    D(16,1,2,19)         -179.501          estimate D2E/DX2                !
 ! D7    D(17,1,2,3)           -58.2468         estimate D2E/DX2                !
 ! D8    D(17,1,2,18)         -178.6935         estimate D2E/DX2                !
 ! D9    D(17,1,2,19)           61.414          estimate D2E/DX2                !
 ! D10   D(1,2,3,4)           -175.5123         estimate D2E/DX2                !
 ! D11   D(1,2,3,20)            57.539          estimate D2E/DX2                !
 ! D12   D(18,2,3,4)           -57.0052         estimate D2E/DX2                !
 ! D13   D(18,2,3,20)          176.0461         estimate D2E/DX2                !
 ! D14   D(19,2,3,4)            65.9889         estimate D2E/DX2                !
 ! D15   D(19,2,3,20)          -60.9599         estimate D2E/DX2                !
 ! D16   D(2,3,4,5)           -179.9264         estimate D2E/DX2                !
 ! D17   D(20,3,4,5)           -52.2131         estimate D2E/DX2                !
 ! D18   D(3,4,5,6)            174.0279         estimate D2E/DX2                !
 ! D19   D(3,4,5,21)            -4.924          estimate D2E/DX2                !
 ! D20   D(4,5,6,7)           -179.3515         estimate D2E/DX2                !
 ! D21   D(4,5,6,22)             0.8295         estimate D2E/DX2                !
 ! D22   D(21,5,6,7)            -0.4679         estimate D2E/DX2                !
 ! D23   D(21,5,6,22)          179.7132         estimate D2E/DX2                !
 ! D24   D(5,6,7,8)           -179.1452         estimate D2E/DX2                !
 ! D25   D(5,6,7,23)             0.5614         estimate D2E/DX2                !
 ! D26   D(22,6,7,8)             0.678          estimate D2E/DX2                !
 ! D27   D(22,6,7,23)         -179.6153         estimate D2E/DX2                !
 ! D28   D(6,7,8,9)            179.5241         estimate D2E/DX2                !
 ! D29   D(6,7,8,24)            -0.1454         estimate D2E/DX2                !
 ! D30   D(23,7,8,9)            -0.1774         estimate D2E/DX2                !
 ! D31   D(23,7,8,24)         -179.847          estimate D2E/DX2                !
 ! D32   D(7,8,9,10)          -179.8435         estimate D2E/DX2                !
 ! D33   D(7,8,9,25)            59.1597         estimate D2E/DX2                !
 ! D34   D(7,8,9,26)           -58.8827         estimate D2E/DX2                !
 ! D35   D(24,8,9,10)           -0.1745         estimate D2E/DX2                !
 ! D36   D(24,8,9,25)         -121.1713         estimate D2E/DX2                !
 ! D37   D(24,8,9,26)          120.7863         estimate D2E/DX2                !
 ! D38   D(8,9,10,11)         -179.9504         estimate D2E/DX2                !
 ! D39   D(8,9,10,27)            0.0706         estimate D2E/DX2                !
 ! D40   D(25,9,10,11)         -58.956          estimate D2E/DX2                !
 ! D41   D(25,9,10,27)         121.065          estimate D2E/DX2                !
 ! D42   D(26,9,10,11)          59.0812         estimate D2E/DX2                !
 ! D43   D(26,9,10,27)        -120.8978         estimate D2E/DX2                !
 ! D44   D(9,10,11,12)         179.9859         estimate D2E/DX2                !
 ! D45   D(9,10,11,28)          -0.0136         estimate D2E/DX2                !
 ! D46   D(27,10,11,12)         -0.0355         estimate D2E/DX2                !
 ! D47   D(27,10,11,28)        179.965          estimate D2E/DX2                !
 ! D48   D(10,11,12,13)       -179.9926         estimate D2E/DX2                !
 ! D49   D(10,11,12,29)          0.0182         estimate D2E/DX2                !
 ! D50   D(28,11,12,13)          0.0069         estimate D2E/DX2                !
 ! D51   D(28,11,12,29)       -179.9823         estimate D2E/DX2                !
 ! D52   D(11,12,13,14)        179.9849         estimate D2E/DX2                !
 ! D53   D(11,12,13,30)         -0.0073         estimate D2E/DX2                !
 ! D54   D(29,12,13,14)         -0.0256         estimate D2E/DX2                !
 ! D55   D(29,12,13,30)        179.9822         estimate D2E/DX2                !
 --------------------------------------------------------------------------------
 Trust Radius=3.00D-01 FncErr=1.00D-07 GrdErr=1.00D-06 EigMax=2.50D+02 EigMin=1.00D-04
 Number of steps in this run=    140 maximum allowed number of steps=    180.
 GradGradGradGradGradGradGradGradGradGradGradGradGradGradGradGradGradGrad

                          Input orientation:                          
 ---------------------------------------------------------------------
 Center     Atomic      Atomic             Coordinates (Angstroms)
 Number     Number       Type             X           Y           Z
 ---------------------------------------------------------------------
      1          6           0        0.967240   -0.114620   -0.055260
      2          6           0        2.496040   -0.117650   -0.044620
      3          7           0        2.842220    0.629060    1.137210
      4          6           0        4.216210    0.921210    1.430860
      5          6           0        4.994820    1.573780    2.401070
      6          6           0        6.323670    1.648190    2.546150
      7          6           0        6.843430    2.397230    3.675000
      8          6           0        8.151810    2.561240    3.923140
      9          6           0        8.668970    3.352300    5.096290
     10          6           0       10.175050    3.386720    5.146600
     11          6           0       10.856240    4.031270    6.104090
     12          7           0       12.226130    4.053250    6.136500
     13          6           0       12.968800    4.697180    7.093320
     14         16           0       14.633340    4.676010    7.062220
     15          1           0        0.576490   -0.678900   -0.903760
     16          1           0        0.577810    0.910290   -0.115260
     17          1           0        0.564390   -0.561120    0.863790
     18          1           0        2.869500    0.353090   -0.959820
     19          1           0        2.865870   -1.146750    0.006500
     20          1           0        2.423750    0.196980    1.957800
     21          1           0        4.364160    2.066560    3.132580
     22          1           0        7.007240    1.173770    1.852090
     23          1           0        6.115650    2.851260    4.349420
     24          1           0        8.867370    2.108200    3.245590
     25          1           0        8.290100    2.905030    6.024270
     26          1           0        8.290020    4.380380    5.029360
     27          1           0       10.717610    2.861560    4.365220
     28          1           0       10.339540    4.565570    6.898010
     29          1           0       12.751920    3.567850    5.414740
     30          1           0       12.372850    5.214700    7.862300
 ---------------------------------------------------------------------
                    Distance matrix (angstroms):
                    1          2          3          4          5
     1  C    0.000000
     2  C    1.528840   0.000000
     3  N    2.343202   1.440187   0.000000
     4  C    3.719852   2.493042   1.435072   0.000000
     5  C    5.010554   3.884100   2.668993   1.404773   0.000000
     6  C    6.210167   4.947831   3.891559   2.492741   1.338816
     7  C    7.399584   6.249800   5.057320   3.757271   2.391302
     8  C    8.637473   7.409946   6.299720   4.938634   3.641203
     9  C    9.893162   8.750690   7.552573   6.258806   4.891495
    10  C   11.140130   9.909418   8.800585   7.442663   6.136731
    11  C   12.366015  11.176454  10.023445   8.694915   7.355804
    12  N   13.508206  12.258764  11.170306   9.803649   8.508411
    13  C   14.774744  13.557709  12.432718  11.087346   9.765101
    14  S   16.136014  14.859354  13.802683  12.422855  11.146803
    15  H    1.091352   2.176648   3.318109   4.610679   5.959707
    16  H    1.098042   2.177443   2.602945   3.953297   5.126608
    17  H    1.098318   2.180171   2.584530   3.981791   5.152644
    18  H    2.157678   1.094833   2.115287   2.802095   4.159646
    19  H    2.161921   1.094730   2.105366   2.851084   4.203294
    20  H    2.504182   2.028276   1.017437   2.003768   2.949994
    21  H    5.143825   4.284302   2.892094   2.056591   1.084284
    22  H    6.463709   5.061245   4.260887   2.833914   2.123964
    23  H    7.396200   6.420560   5.096254   3.981326   2.585398
    24  H    8.845824   7.508245   6.552523   5.131811   3.999433
    25  H    9.985151   8.918472   7.664385   6.452251   5.075300
    26  H    9.984062   8.918955   7.674618   6.442902   5.063917
    27  H   11.111616   9.793702   8.799197   7.392133   6.185999
    28  H   12.573470  11.474021  10.241715   8.981440   7.598639
    29  H   13.504080  12.188954  11.186416   9.784393   8.557518
    30  H   14.872032  13.729702  12.533469  11.239584   9.875052
                    6          7          8          9         10
     6  C    0.000000
     7  C    1.451039   0.000000
     8  C    2.464114   1.341764   0.000000
     9  C    3.861041   2.502962   1.506490   0.000000
    10  C    4.961648   3.774174   2.504351   1.507313   0.000000
    11  C    6.235559   4.967213   3.772462   2.502161   1.340243
    12  N    7.315324   6.146124   4.870846   3.771837   2.372993
    13  C    8.609927   7.382062   6.149445   4.928019   3.648570
    14  S    9.930418   8.794816   7.505752   6.418006   5.020779
    15  H    7.095583   8.348782   9.548976  10.850779  12.052737
    16  H    6.375148   7.472286   8.740697   9.929277  11.221715
    17  H    6.393801   7.488730   8.756580   9.945508  11.238002
    18  H    5.089244   6.438337   7.524761   8.905368   9.993114
    19  H    5.120341   6.468282   7.551849   8.934393  10.019835
    20  H    4.202564   5.227183   6.500997   7.668698   8.968029
    21  H    2.087729   2.559364   3.900767   4.903129   6.290115
    22  H    1.083541   2.201520   2.743057   4.246431   5.077988
    23  H    2.177713   1.091169   2.100422   2.707083   4.171444
    24  H    2.677916   2.089082   1.084595   2.238803   2.637893
    25  H    4.188533   2.805314   2.133556   1.097606   2.134330
    26  H    4.183028   2.803533   2.133564   1.097739   2.134114
    27  H    4.907952   3.962484   2.620869   2.229846   1.086609
    28  H    6.601288   5.226115   4.201589   2.740260   2.117589
    29  H    7.296321   6.269553   4.939549   4.101019   2.597107
    30  H    8.807612   7.486395   6.354133   4.983781   3.942951
                   11         12         13         14         15
    11  C    0.000000
    12  N    1.370450   0.000000
    13  C    2.425886   1.371754   0.000000
    14  S    3.949707   2.653196   1.664965   0.000000
    15  H   13.302967  14.410851  15.697926  17.021367   0.000000
    16  H   12.412371  13.588453  14.827029  16.225128   1.774052
    17  H   12.428715  13.604781  14.843387  16.241411   1.771511
    18  H   11.279000  12.312411  13.627914  14.880480   2.515162
    19  H   11.306569  12.338208  13.654440  14.905069   2.507732
    20  H   10.148911  11.332211  12.562780  13.971074   3.516825
    21  H    7.405205   8.647603   9.830944  11.300768   6.178676
    22  H    6.407777   7.340599   8.684763   9.877679   7.237516
    23  H    5.190808   6.478920   7.609341   9.123598   8.410721
    24  H    3.978043   4.839612   6.191088   7.376091   9.681101
    25  H    2.803545   4.101626   5.122978   6.667114  10.970047
    26  H    2.803998   4.101918   5.123600   6.667655  10.967989
    27  H    2.100264   2.614037   3.984958   5.089104  11.964085
    28  H    1.087550   2.097997   2.639787   4.298358  13.553200
    29  H    2.069677   1.016369   2.034712   2.735315  14.359646
    30  H    2.606130   2.085396   1.101959   2.457668  15.834533
                   16         17         18         19         20
    16  H    0.000000
    17  H    1.767418   0.000000
    18  H    2.505114   3.078127   0.000000
    19  H    3.079198   2.524821   1.784183   0.000000
    20  H    2.865987   2.286655   2.955600   2.410115   0.000000
    21  H    5.120730   5.146879   4.681637   4.726797   2.939495
    22  H    6.728853   6.745139   5.069640   5.093325   4.687609
    23  H    7.373493   7.389888   6.705697   6.738405   5.137623
    24  H    9.024805   9.040891   7.532618   7.556746   6.843347
    25  H   10.057447   9.916216   9.201783   9.058297   7.634381
    26  H    9.898829  10.072525   9.026150   9.230368   7.832525
    27  H   11.256007  11.272206   9.810265   9.834369   9.037907
    28  H   12.563375  12.579679  11.631508  11.661014  10.302911
    29  H   13.632772  13.649008  12.191469  12.215175  11.401065
    30  H   14.875899  14.892245  13.848419  13.876754  12.610520
                   21         22         23         24         25
    21  H    0.000000
    22  H    3.069625   0.000000
    23  H    2.272481   3.137764   0.000000
    24  H    4.504820   2.505012   3.056557   0.000000
    25  H    4.947515   4.695751   2.745222   2.947752   0.000000
    26  H    4.935982   4.692858   2.743795   2.945840   1.779467
    27  H    6.520564   4.788664   4.601999   2.290090   2.940602
    28  H    7.491908   6.933242   5.222587   4.641780   2.778672
    29  H    8.821374   7.171153   6.759326   4.682469   4.551779
    30  H    9.819376   9.013407   7.555046   6.576682   5.038033
                   26         27         28         29         30
    26  H    0.000000
    27  H    2.939573   0.000000
    28  H    2.779691   3.075973   0.000000
    29  H    4.551623   2.395570   3.002518   0.000000
    30  H    5.038962   4.528428   2.342130   2.974283   0.000000
 Stoichiometry    C11H16N2S
 Framework group  C1[X(C11H16N2S)]
 Deg. of freedom    84
 Full point group                 C1      NOp   1
 Largest Abelian subgroup         C1      NOp   1
 Largest concise Abelian subgroup C1      NOp   1
                         Standard orientation:                         
 ---------------------------------------------------------------------
 Center     Atomic      Atomic             Coordinates (Angstroms)
 Number     Number       Type             X           Y           Z
 ---------------------------------------------------------------------
      1          6           0       -8.512760    0.073463   -0.024689
      2          6           0       -7.249112   -0.786718    0.000496
      3          7           0       -6.172080    0.169019    0.027105
      4          6           0       -4.809367   -0.275687   -0.041297
      5          6           0       -3.505243    0.246439   -0.047111
      6          6           0       -2.318653   -0.372768   -0.015256
      7          6           0       -1.122713    0.448959   -0.017710
      8          6           0        0.123846   -0.047276   -0.004574
      9          6           0        1.351785    0.825362   -0.017938
     10          6           0        2.627230    0.022245   -0.002599
     11          6           0        3.842571    0.587178   -0.009744
     12          7           0        4.993453   -0.156726    0.004697
     13          6           0        6.258937    0.372632   -0.001620
     14         16           0        7.609078   -0.601467    0.017367
     15          1           0       -9.412149   -0.544712   -0.021788
     16          1           0       -8.535829    0.709869   -0.919201
     17          1           0       -8.555590    0.739135    0.847864
     18          1           0       -7.220983   -1.422255   -0.890548
     19          1           0       -7.247689   -1.420040    0.893433
     20          1           0       -6.269377    0.781769    0.833485
     21          1           0       -3.525033    1.330385   -0.065530
     22          1           0       -2.231863   -1.452558    0.008903
     23          1           0       -1.261625    1.531094   -0.036058
     24          1           0        0.251536   -1.124214    0.011097
     25          1           0        1.332657    1.483291    0.860415
     26          1           0        1.335108    1.452444   -0.918783
     27          1           0        2.540744   -1.060780    0.014617
     28          1           0        3.959152    1.668316   -0.027452
     29          1           0        4.933759   -1.171208    0.021130
     30          1           0        6.293188    1.473908   -0.019826
 ---------------------------------------------------------------------
 Rotational constants (GHZ):           7.1714546           0.0844798           0.0836500
 Standard basis: 6-31G(2df,p) (6D, 7F)
 There are   518 symmetry adapted cartesian basis functions of A   symmetry.
 There are   476 symmetry adapted basis functions of A   symmetry.
   476 basis functions,   752 primitive gaussians,   518 cartesian basis functions
    56 alpha electrons       56 beta electrons
       nuclear repulsion energy       774.4601788212 Hartrees.
 NAtoms=   30 NActive=   30 NUniq=   30 SFac= 1.00D+00 NAtFMM=   60 NAOKFM=F Big=F
 Integral buffers will be    131072 words long.
 Raffenetti 2 integral format.
 Two-electron integral symmetry is turned on.
 One-electron integrals computed using PRISM.
 PrsmSu:  requested number of processors reduced to:  12 ShMem   1 Linda.
 NBasis=   476 RedAO= T EigKep=  2.58D-04  NBF=   476
 NBsUse=   476 1.00D-06 EigRej= -1.00D+00 NBFU=   476
 ExpMin= 1.17D-01 ExpMax= 2.19D+04 ExpMxC= 3.30D+03 IAcc=3 IRadAn=         5 AccDes= 0.00D+00
 Harris functional with IExCor=  402 and IRadAn=       5 diagonalized for initial guess.
 HarFok:  IExCor=  402 AccDes= 0.00D+00 IRadAn=         5 IDoV= 1 UseB2=F ITyADJ=14
 ICtDFT=  3500011 ScaDFX=  1.000000  1.000000  1.000000  1.000000
 FoFCou: FMM=F IPFlag=           0 FMFlag=      100000 FMFlg1=           0
         NFxFlg=           0 DoJE=T BraDBF=F KetDBF=T FulRan=T
         wScrn=  0.000000 ICntrl=       500 IOpCl=  0 I1Cent=   200000004 NGrid=           0
         NMat0=    1 NMatS0=      1 NMatT0=    0 NMatD0=    1 NMtDS0=    0 NMtDT0=    0
 Petite list used in FoFCou.
 Requested convergence on RMS density matrix=1.00D-08 within 128 cycles.
 Requested convergence on MAX density matrix=1.00D-06.
 Requested convergence on             energy=1.00D-06.
 No special actions if energy rises.
 Integral accuracy reduced to 1.0D-05 until final iterations.
 Initial convergence to 1.0D-05 achieved.  Increase integral accuracy.
 SCF Done:  E(RB3LYP) =  -936.353829757     A.U. after   19 cycles
            NFock= 19  Conv=0.32D-08     -V/T= 2.0061

 **********************************************************************

            Population analysis using the SCF density.

 **********************************************************************

 Orbital symmetries:
       Occupied  (A) (A) (A) (A) (A) (A) (A) (A) (A) (A) (A) (A)
                 (A) (A) (A) (A) (A) (A) (A) (A) (A) (A) (A) (A)
                 (A) (A) (A) (A) (A) (A) (A) (A) (A) (A) (A) (A)
                 (A) (A) (A) (A) (A) (A) (A) (A) (A) (A) (A) (A)
                 (A) (A) (A) (A) (A) (A) (A) (A)
       Virtual   (A) (A) (A) (A) (A) (A) (A) (A) (A) (A) (A) (A)
                 (A) (A) (A) (A) (A) (A) (A) (A) (A) (A) (A) (A)
                 (A) (A) (A) (A) (A) (A) (A) (A) (A) (A) (A) (A)
                 (A) (A) (A) (A) (A) (A) (A) (A) (A) (A) (A) (A)
                 (A) (A) (A) (A) (A) (A) (A) (A) (A) (A) (A) (A)
                 (A) (A) (A) (A) (A) (A) (A) (A) (A) (A) (A) (A)
                 (A) (A) (A) (A) (A) (A) (A) (A) (A) (A) (A) (A)
                 (A) (A) (A) (A) (A) (A) (A) (A) (A) (A) (A) (A)
                 (A) (A) (A) (A) (A) (A) (A) (A) (A) (A) (A) (A)
                 (A) (A) (A) (A) (A) (A) (A) (A) (A) (A) (A) (A)
                 (A) (A) (A) (A) (A) (A) (A) (A) (A) (A) (A) (A)
                 (A) (A) (A) (A) (A) (A) (A) (A) (A) (A) (A) (A)
                 (A) (A) (A) (A) (A) (A) (A) (A) (A) (A) (A) (A)
                 (A) (A) (A) (A) (A) (A) (A) (A) (A) (A) (A) (A)
                 (A) (A) (A) (A) (A) (A) (A) (A) (A) (A) (A) (A)
                 (A) (A) (A) (A) (A) (A) (A) (A) (A) (A) (A) (A)
                 (A) (A) (A) (A) (A) (A) (A) (A) (A) (A) (A) (A)
                 (A) (A) (A) (A) (A) (A) (A) (A) (A) (A) (A) (A)
                 (A) (A) (A) (A) (A) (A) (A) (A) (A) (A) (A) (A)
                 (A) (A) (A) (A) (A) (A) (A) (A) (A) (A) (A) (A)
                 (A) (A) (A) (A) (A) (A) (A) (A) (A) (A) (A) (A)
                 (A) (A) (A) (A) (A) (A) (A) (A) (A) (A) (A) (A)
                 (A) (A) (A) (A) (A) (A) (A) (A) (A) (A) (A) (A)
                 (A) (A) (A) (A) (A) (A) (A) (A) (A) (A) (A) (A)
                 (A) (A) (A) (A) (A) (A) (A) (A) (A) (A) (A) (A)
                 (A) (A) (A) (A) (A) (A) (A) (A) (A) (A) (A) (A)
                 (A) (A) (A) (A) (A) (A) (A) (A) (A) (A) (A) (A)
                 (A) (A) (A) (A) (A) (A) (A) (A) (A) (A) (A) (A)
                 (A) (A) (A) (A) (A) (A) (A) (A) (A) (A) (A) (A)
                 (A) (A) (A) (A) (A) (A) (A) (A) (A) (A) (A) (A)
                 (A) (A) (A) (A) (A) (A) (A) (A) (A) (A) (A) (A)
                 (A) (A) (A) (A) (A) (A) (A) (A) (A) (A) (A) (A)
                 (A) (A) (A) (A) (A) (A) (A) (A) (A) (A) (A) (A)
                 (A) (A) (A) (A) (A) (A) (A) (A) (A) (A) (A) (A)
                 (A) (A) (A) (A) (A) (A) (A) (A) (A) (A) (A) (A)
 The electronic state is 1-A.
 Alpha  occ. eigenvalues --  -88.83435 -14.39980 -14.37564 -10.27986 -10.23773
 Alpha  occ. eigenvalues --  -10.21905 -10.20471 -10.19855 -10.19433 -10.19334
 Alpha  occ. eigenvalues --  -10.19120 -10.18875 -10.18465 -10.18400  -7.89955
 Alpha  occ. eigenvalues --   -5.86342  -5.86080  -5.85543  -0.98439  -0.92853
 Alpha  occ. eigenvalues --   -0.83032  -0.80812  -0.77647  -0.75381  -0.73192
 Alpha  occ. eigenvalues --   -0.68729  -0.64167  -0.63632  -0.61454  -0.58688
 Alpha  occ. eigenvalues --   -0.56576  -0.54415  -0.52425  -0.49659  -0.49077
 Alpha  occ. eigenvalues --   -0.47378  -0.45646  -0.44815  -0.44768  -0.43462
 Alpha  occ. eigenvalues --   -0.41496  -0.39855  -0.39119  -0.38394  -0.37922
 Alpha  occ. eigenvalues --   -0.37583  -0.36652  -0.36113  -0.35171  -0.33420
 Alpha  occ. eigenvalues --   -0.29779  -0.28780  -0.24006  -0.21648  -0.21416
 Alpha  occ. eigenvalues --   -0.14427
 Alpha virt. eigenvalues --   -0.07641  -0.05366   0.01273   0.03756   0.06446
 Alpha virt. eigenvalues --    0.07651   0.08229   0.09564   0.09992   0.11560
 Alpha virt. eigenvalues --    0.11637   0.12002   0.13152   0.13881   0.14472
 Alpha virt. eigenvalues --    0.15403   0.15897   0.16094   0.17441   0.18515
 Alpha virt. eigenvalues --    0.18825   0.19160   0.19844   0.21422   0.22311
 Alpha virt. eigenvalues --    0.22926   0.24964   0.26182   0.28922   0.29761
 Alpha virt. eigenvalues --    0.31845   0.33749   0.35021   0.37206   0.37885
 Alpha virt. eigenvalues --    0.38270   0.40842   0.41830   0.42587   0.42901
 Alpha virt. eigenvalues --    0.43682   0.44294   0.45372   0.46230   0.46738
 Alpha virt. eigenvalues --    0.46995   0.48013   0.48355   0.49531   0.49897
 Alpha virt. eigenvalues --    0.50067   0.50808   0.52761   0.53004   0.54357
 Alpha virt. eigenvalues --    0.54600   0.55433   0.56250   0.56353   0.57069
 Alpha virt. eigenvalues --    0.57740   0.58826   0.60585   0.61066   0.63359
 Alpha virt. eigenvalues --    0.65758   0.66046   0.67193   0.68333   0.68460
 Alpha virt. eigenvalues --    0.69482   0.69900   0.70769   0.71555   0.72486
 Alpha virt. eigenvalues --    0.72793   0.73424   0.73787   0.73901   0.74456
 Alpha virt. eigenvalues --    0.74930   0.75253   0.76525   0.77898   0.78359
 Alpha virt. eigenvalues --    0.79059   0.79858   0.80664   0.80975   0.81695
 Alpha virt. eigenvalues --    0.81842   0.82087   0.82614   0.83160   0.84012
 Alpha virt. eigenvalues --    0.84230   0.85388   0.85812   0.87267   0.88172
 Alpha virt. eigenvalues --    0.89297   0.90573   0.92599   0.92876   0.94700
 Alpha virt. eigenvalues --    0.94980   0.96924   0.99921   1.01473   1.03706
 Alpha virt. eigenvalues --    1.04408   1.06315   1.06526   1.08170   1.11324
 Alpha virt. eigenvalues --    1.13515   1.15075   1.16686   1.18890   1.21010
 Alpha virt. eigenvalues --    1.21597   1.23034   1.23359   1.25042   1.27824
 Alpha virt. eigenvalues --    1.29540   1.30718   1.31753   1.32501   1.33273
 Alpha virt. eigenvalues --    1.36044   1.36755   1.39311   1.40476   1.41015
 Alpha virt. eigenvalues --    1.42928   1.43353   1.44900   1.46037   1.47363
 Alpha virt. eigenvalues --    1.48244   1.49440   1.50033   1.51511   1.52992
 Alpha virt. eigenvalues --    1.54568   1.55098   1.56053   1.58009   1.60123
 Alpha virt. eigenvalues --    1.61384   1.62098   1.63614   1.65899   1.66937
 Alpha virt. eigenvalues --    1.68404   1.69329   1.69723   1.71615   1.72940
 Alpha virt. eigenvalues --    1.74919   1.77271   1.78386   1.82655   1.83447
 Alpha virt. eigenvalues --    1.84575   1.85306   1.87035   1.88008   1.88607
 Alpha virt. eigenvalues --    1.89083   1.91192   1.92244   1.94663   1.97193
 Alpha virt. eigenvalues --    1.98791   2.02117   2.02740   2.03577   2.05971
 Alpha virt. eigenvalues --    2.07931   2.09956   2.11344   2.12041   2.13524
 Alpha virt. eigenvalues --    2.14705   2.15771   2.16216   2.19365   2.20302
 Alpha virt. eigenvalues --    2.20482   2.23298   2.26517   2.27355   2.29315
 Alpha virt. eigenvalues --    2.31354   2.32411   2.33263   2.33970   2.35175
 Alpha virt. eigenvalues --    2.35238   2.36613   2.41078   2.42389   2.44640
 Alpha virt. eigenvalues --    2.46147   2.49553   2.50294   2.51860   2.58955
 Alpha virt. eigenvalues --    2.60138   2.60576   2.61370   2.61461   2.62189
 Alpha virt. eigenvalues --    2.68806   2.69456   2.72046   2.73371   2.74856
 Alpha virt. eigenvalues --    2.76362   2.77187   2.78564   2.79154   2.80454
 Alpha virt. eigenvalues --    2.81533   2.82739   2.83851   2.85043   2.85157
 Alpha virt. eigenvalues --    2.86536   2.89053   2.89337   2.91107   2.91500
 Alpha virt. eigenvalues --    2.93252   2.94412   2.95333   2.95989   2.97316
 Alpha virt. eigenvalues --    2.97553   2.99079   2.99848   3.00203   3.01218
 Alpha virt. eigenvalues --    3.03958   3.05040   3.05845   3.06278   3.07709
 Alpha virt. eigenvalues --    3.07999   3.09579   3.10958   3.12559   3.13830
 Alpha virt. eigenvalues --    3.17522   3.20097   3.21968   3.23750   3.25461
 Alpha virt. eigenvalues --    3.25789   3.27117   3.28400   3.29390   3.29635
 Alpha virt. eigenvalues --    3.30970   3.31428   3.32975   3.35036   3.36214
 Alpha virt. eigenvalues --    3.37032   3.38667   3.39954   3.40837   3.41750
 Alpha virt. eigenvalues --    3.43651   3.44364   3.46151   3.46697   3.48402
 Alpha virt. eigenvalues --    3.48782   3.51354   3.51782   3.53119   3.55453
 Alpha virt. eigenvalues --    3.57149   3.57920   3.58887   3.60287   3.61992
 Alpha virt. eigenvalues --    3.64402   3.65816   3.65865   3.69924   3.71393
 Alpha virt. eigenvalues --    3.71831   3.74452   3.77082   3.79176   3.81005
 Alpha virt. eigenvalues --    3.82273   3.83718   3.87713   3.89244   3.92180
 Alpha virt. eigenvalues --    3.93671   3.97822   4.02013   4.03812   4.05865
 Alpha virt. eigenvalues --    4.08990   4.09579   4.10664   4.13557   4.15833
 Alpha virt. eigenvalues --    4.16975   4.17774   4.18541   4.20112   4.24370
 Alpha virt. eigenvalues --    4.25469   4.25670   4.26966   4.31037   4.31517
 Alpha virt. eigenvalues --    4.33277   4.34466   4.35635   4.38146   4.38551
 Alpha virt. eigenvalues --    4.38751   4.39385   4.40897   4.43555   4.44568
 Alpha virt. eigenvalues --    4.45140   4.45939   4.47437   4.47746   4.48741
 Alpha virt. eigenvalues --    4.50619   4.51662   4.52940   4.53197   4.53277
 Alpha virt. eigenvalues --    4.56907   4.57029   4.58306   4.58517   4.59725
 Alpha virt. eigenvalues --    4.60776   4.62150   4.62744   4.64755   4.65523
 Alpha virt. eigenvalues --    4.67078   4.67332   4.68355   4.71390   4.72422
 Alpha virt. eigenvalues --    4.73067   4.74657   4.75276   4.77264   4.79179
 Alpha virt. eigenvalues --    4.80898   4.81440   4.81953   4.83174   4.84841
 Alpha virt. eigenvalues --    4.86862   4.88417   4.89741   4.91167   4.92988
 Alpha virt. eigenvalues --    4.94178   4.96404   4.97518   5.03938   5.09714
 Alpha virt. eigenvalues --    5.10292   5.12662   5.14768   5.16974   5.18851
 Alpha virt. eigenvalues --    5.23963   5.26192   5.29693   5.32213   5.35657
 Alpha virt. eigenvalues --    5.37273   5.43165   5.44965   5.47927   5.52583
 Alpha virt. eigenvalues --    5.55310   5.57410   5.60452   5.65787   5.73774
 Alpha virt. eigenvalues --    5.79444   5.90665   5.94999   6.16398   6.49047
 Alpha virt. eigenvalues --    9.87477  10.14085  10.25371  10.63437  10.76337
 Alpha virt. eigenvalues --   11.04599  11.27744  11.34006  11.41580  11.58490
 Alpha virt. eigenvalues --   11.78016  11.89846  12.24073  14.26320  15.53730
          Condensed to atoms (all electrons):
               1          2          3          4          5          6
     1  C    4.999499   0.369047  -0.052812   0.006284  -0.000151  -0.000000
     2  C    0.369047   4.827287   0.397685  -0.069409   0.000853  -0.000053
     3  N   -0.052812   0.397685   6.226403   0.436756  -0.011410   0.000477
     4  C    0.006284  -0.069409   0.436756   5.344569   0.516843  -0.009227
     5  C   -0.000151   0.000853  -0.011410   0.516843   4.688068   0.581070
     6  C   -0.000000  -0.000053   0.000477  -0.009227   0.581070   4.873117
     7  C    0.000000  -0.000000  -0.000071   0.003050   0.004740   0.422231
     8  C    0.000000  -0.000000   0.000000  -0.000209  -0.000748  -0.006916
     9  C   -0.000000   0.000000  -0.000000   0.000002  -0.000201   0.003591
    10  C    0.000000  -0.000000  -0.000000  -0.000000   0.000002  -0.000131
    11  C   -0.000000   0.000000  -0.000000   0.000000  -0.000000   0.000002
    12  N    0.000000  -0.000000   0.000000  -0.000000  -0.000000  -0.000000
    13  C    0.000000   0.000000   0.000000  -0.000000   0.000000   0.000000
    14  S    0.000000   0.000000   0.000000  -0.000000  -0.000000  -0.000000
    15  H    0.369983  -0.024832   0.003417  -0.000101   0.000002   0.000000
    16  H    0.377509  -0.028144   0.002751   0.000451   0.000003   0.000000
    17  H    0.378435  -0.032107  -0.004769   0.000009   0.000001  -0.000000
    18  H   -0.022876   0.356364  -0.022649   0.008678   0.000052  -0.000009
    19  H   -0.039635   0.369829  -0.033483   0.001584   0.000029   0.000033
    20  H    0.006800  -0.072566   0.317130  -0.053604  -0.001999  -0.000146
    21  H    0.000042  -0.000225  -0.006606  -0.078169   0.344682  -0.066506
    22  H    0.000000  -0.000005  -0.000067  -0.004101  -0.028364   0.341598
    23  H    0.000000   0.000000  -0.000002  -0.000131  -0.006096  -0.049844
    24  H   -0.000000  -0.000000  -0.000000  -0.000008   0.000819  -0.014111
    25  H    0.000000  -0.000000  -0.000000  -0.000000   0.000016  -0.000199
    26  H   -0.000000  -0.000000   0.000000   0.000000   0.000012   0.000178
    27  H   -0.000000  -0.000000  -0.000000  -0.000000   0.000000  -0.000019
    28  H   -0.000000  -0.000000  -0.000000  -0.000000   0.000000  -0.000000
    29  H    0.000000  -0.000000  -0.000000  -0.000000   0.000000  -0.000000
    30  H    0.000000   0.000000   0.000000  -0.000000   0.000000  -0.000000
               7          8          9         10         11         12
     1  C    0.000000   0.000000  -0.000000   0.000000  -0.000000   0.000000
     2  C   -0.000000  -0.000000   0.000000  -0.000000   0.000000  -0.000000
     3  N   -0.000071   0.000000  -0.000000  -0.000000  -0.000000   0.000000
     4  C    0.003050  -0.000209   0.000002  -0.000000   0.000000  -0.000000
     5  C    0.004740  -0.000748  -0.000201   0.000002  -0.000000  -0.000000
     6  C    0.422231  -0.006916   0.003591  -0.000131   0.000002  -0.000000
     7  C    4.721645   0.646006  -0.013597   0.000824  -0.000159   0.000001
     8  C    0.646006   4.794956   0.396594  -0.016410   0.000493  -0.000059
     9  C   -0.013597   0.396594   4.951208   0.391364  -0.009159   0.001885
    10  C    0.000824  -0.016410   0.391364   4.866298   0.632664  -0.009787
    11  C   -0.000159   0.000493  -0.009159   0.632664   4.726932   0.383947
    12  N    0.000001  -0.000059   0.001885  -0.009787   0.383947   6.189019
    13  C   -0.000000   0.000001  -0.000146   0.004039  -0.061037   0.497679
    14  S   -0.000000  -0.000000   0.000007  -0.000395   0.008407  -0.062916
    15  H    0.000000   0.000000   0.000000  -0.000000   0.000000   0.000000
    16  H    0.000000   0.000000   0.000000   0.000000  -0.000000   0.000000
    17  H    0.000000   0.000000  -0.000000   0.000000  -0.000000   0.000000
    18  H    0.000000   0.000000  -0.000000   0.000000  -0.000000  -0.000000
    19  H    0.000000  -0.000000   0.000000  -0.000000   0.000000   0.000000
    20  H    0.000045   0.000000   0.000000   0.000000  -0.000000  -0.000000
    21  H   -0.007692   0.001433  -0.000025   0.000000   0.000000  -0.000000
    22  H   -0.041912  -0.004694  -0.000032   0.000003   0.000000   0.000000
    23  H    0.355726  -0.042025  -0.013136   0.000393  -0.000000  -0.000000
    24  H   -0.028696   0.364340  -0.069067  -0.002793   0.000685  -0.000014
    25  H   -0.008779  -0.020467   0.352066  -0.027557  -0.006994  -0.000004
    26  H   -0.004900  -0.024830   0.353151  -0.028283  -0.006788  -0.000003
    27  H    0.000684  -0.003003  -0.057505   0.367499  -0.037800  -0.011824
    28  H    0.000001   0.000264  -0.010175  -0.024698   0.353117  -0.039710
    29  H    0.000000   0.000011  -0.000242   0.000511  -0.035712   0.327605
    30  H    0.000000   0.000000  -0.000020   0.001046  -0.001622  -0.047939
              13         14         15         16         17         18
     1  C    0.000000   0.000000   0.369983   0.377509   0.378435  -0.022876
     2  C    0.000000   0.000000  -0.024832  -0.028144  -0.032107   0.356364
     3  N    0.000000   0.000000   0.003417   0.002751  -0.004769  -0.022649
     4  C   -0.000000  -0.000000  -0.000101   0.000451   0.000009   0.008678
     5  C    0.000000  -0.000000   0.000002   0.000003   0.000001   0.000052
     6  C    0.000000  -0.000000   0.000000   0.000000  -0.000000  -0.000009
     7  C   -0.000000  -0.000000   0.000000   0.000000   0.000000   0.000000
     8  C    0.000001  -0.000000   0.000000   0.000000   0.000000   0.000000
     9  C   -0.000146   0.000007   0.000000   0.000000  -0.000000  -0.000000
    10  C    0.004039  -0.000395  -0.000000   0.000000   0.000000   0.000000
    11  C   -0.061037   0.008407   0.000000  -0.000000  -0.000000  -0.000000
    12  N    0.497679  -0.062916   0.000000   0.000000   0.000000  -0.000000
    13  C    4.679396   0.489198   0.000000   0.000000   0.000000   0.000000
    14  S    0.489198  15.989046   0.000000   0.000000   0.000000   0.000000
    15  H    0.000000   0.000000   0.591432  -0.027995  -0.029281  -0.000810
    16  H    0.000000   0.000000  -0.027995   0.577295  -0.033799  -0.004749
    17  H    0.000000   0.000000  -0.029281  -0.033799   0.600349   0.004974
    18  H    0.000000   0.000000  -0.000810  -0.004749   0.004974   0.584735
    19  H    0.000000   0.000000   0.000720   0.005511  -0.004619  -0.039816
    20  H    0.000000  -0.000000  -0.000044   0.000027   0.008516   0.007445
    21  H    0.000000   0.000000   0.000000   0.000003   0.000004   0.000049
    22  H   -0.000000  -0.000000   0.000000   0.000000   0.000000   0.000006
    23  H    0.000000  -0.000000   0.000000   0.000000   0.000000   0.000000
    24  H    0.000000  -0.000000  -0.000000   0.000000   0.000000  -0.000000
    25  H    0.000006  -0.000001   0.000000   0.000000   0.000000   0.000000
    26  H    0.000006  -0.000001  -0.000000  -0.000000  -0.000000  -0.000000
    27  H    0.000114  -0.000056  -0.000000   0.000000  -0.000000  -0.000000
    28  H   -0.004434   0.000208   0.000000   0.000000   0.000000   0.000000
    29  H   -0.031500   0.013569   0.000000   0.000000   0.000000   0.000000
    30  H    0.362325  -0.053454   0.000000   0.000000   0.000000   0.000000
              19         20         21         22         23         24
     1  C   -0.039635   0.006800   0.000042   0.000000   0.000000  -0.000000
     2  C    0.369829  -0.072566  -0.000225  -0.000005   0.000000  -0.000000
     3  N   -0.033483   0.317130  -0.006606  -0.000067  -0.000002  -0.000000
     4  C    0.001584  -0.053604  -0.078169  -0.004101  -0.000131  -0.000008
     5  C    0.000029  -0.001999   0.344682  -0.028364  -0.006096   0.000819
     6  C    0.000033  -0.000146  -0.066506   0.341598  -0.049844  -0.014111
     7  C    0.000000   0.000045  -0.007692  -0.041912   0.355726  -0.028696
     8  C   -0.000000   0.000000   0.001433  -0.004694  -0.042025   0.364340
     9  C    0.000000   0.000000  -0.000025  -0.000032  -0.013136  -0.069067
    10  C   -0.000000   0.000000   0.000000   0.000003   0.000393  -0.002793
    11  C    0.000000  -0.000000   0.000000   0.000000  -0.000000   0.000685
    12  N    0.000000  -0.000000  -0.000000   0.000000  -0.000000  -0.000014
    13  C    0.000000   0.000000   0.000000  -0.000000   0.000000   0.000000
    14  S    0.000000  -0.000000   0.000000  -0.000000  -0.000000  -0.000000
    15  H    0.000720  -0.000044   0.000000   0.000000   0.000000  -0.000000
    16  H    0.005511   0.000027   0.000003   0.000000   0.000000   0.000000
    17  H   -0.004619   0.008516   0.000004   0.000000   0.000000   0.000000
    18  H   -0.039816   0.007445   0.000049   0.000006   0.000000  -0.000000
    19  H    0.630270  -0.000920   0.000019   0.000002   0.000000  -0.000000
    20  H   -0.000920   0.559613   0.005929   0.000044   0.000006  -0.000000
    21  H    0.000019   0.005929   0.727336   0.008313   0.009578   0.000024
    22  H    0.000002   0.000044   0.008313   0.616910   0.005233   0.004452
    23  H    0.000000   0.000006   0.009578   0.005233   0.644611   0.007516
    24  H   -0.000000  -0.000000   0.000024   0.004452   0.007516   0.632897
    25  H    0.000000   0.000000   0.000016   0.000015   0.002497   0.004006
    26  H   -0.000000  -0.000000  -0.000018  -0.000009   0.001676   0.004015
    27  H   -0.000000  -0.000000  -0.000000  -0.000002   0.000023   0.005832
    28  H    0.000000   0.000000   0.000000  -0.000000   0.000002   0.000018
    29  H    0.000000   0.000000   0.000000  -0.000000  -0.000000  -0.000002
    30  H    0.000000   0.000000   0.000000  -0.000000  -0.000000  -0.000000
              25         26         27         28         29         30
     1  C    0.000000  -0.000000  -0.000000  -0.000000   0.000000   0.000000
     2  C   -0.000000  -0.000000  -0.000000  -0.000000  -0.000000   0.000000
     3  N   -0.000000   0.000000  -0.000000  -0.000000  -0.000000   0.000000
     4  C   -0.000000   0.000000  -0.000000  -0.000000  -0.000000  -0.000000
     5  C    0.000016   0.000012   0.000000   0.000000   0.000000   0.000000
     6  C   -0.000199   0.000178  -0.000019  -0.000000  -0.000000  -0.000000
     7  C   -0.008779  -0.004900   0.000684   0.000001   0.000000   0.000000
     8  C   -0.020467  -0.024830  -0.003003   0.000264   0.000011   0.000000
     9  C    0.352066   0.353151  -0.057505  -0.010175  -0.000242  -0.000020
    10  C   -0.027557  -0.028283   0.367499  -0.024698   0.000511   0.001046
    11  C   -0.006994  -0.006788  -0.037800   0.353117  -0.035712  -0.001622
    12  N   -0.000004  -0.000003  -0.011824  -0.039710   0.327605  -0.047939
    13  C    0.000006   0.000006   0.000114  -0.004434  -0.031500   0.362325
    14  S   -0.000001  -0.000001  -0.000056   0.000208   0.013569  -0.053454
    15  H    0.000000  -0.000000  -0.000000   0.000000   0.000000   0.000000
    16  H    0.000000  -0.000000   0.000000   0.000000   0.000000   0.000000
    17  H    0.000000  -0.000000  -0.000000   0.000000   0.000000   0.000000
    18  H    0.000000  -0.000000  -0.000000   0.000000   0.000000   0.000000
    19  H    0.000000  -0.000000  -0.000000   0.000000   0.000000   0.000000
    20  H    0.000000  -0.000000  -0.000000   0.000000   0.000000   0.000000
    21  H    0.000016  -0.000018  -0.000000   0.000000   0.000000   0.000000
    22  H    0.000015  -0.000009  -0.000002  -0.000000  -0.000000  -0.000000
    23  H    0.002497   0.001676   0.000023   0.000002  -0.000000  -0.000000
    24  H    0.004006   0.004015   0.005832   0.000018  -0.000002  -0.000000
    25  H    0.603613  -0.036546   0.003997   0.001923   0.000009  -0.000001
    26  H   -0.036546   0.603298   0.004019   0.001893   0.000009  -0.000001
    27  H    0.003997   0.004019   0.624720   0.006461   0.005628   0.000007
    28  H    0.001923   0.001893   0.006461   0.583238   0.004703   0.005218
    29  H    0.000009   0.000009   0.005628   0.004703   0.429925   0.006076
    30  H   -0.000001  -0.000001   0.000007   0.005218   0.006076   0.584325
 Mulliken charges:
               1
     1  C   -0.392126
     2  C   -0.093726
     3  N   -0.252751
     4  C   -0.103265
     5  C   -0.088222
     6  C   -0.075137
     7  C   -0.049148
     8  C   -0.084738
     9  C   -0.276563
    10  C   -0.154587
    11  C    0.053025
    12  N   -0.227880
    13  C    0.064354
    14  S   -0.383613
    15  H    0.117508
    16  H    0.131137
    17  H    0.112287
    18  H    0.128605
    19  H    0.110475
    20  H    0.223724
    21  H    0.061814
    22  H    0.102610
    23  H    0.083974
    24  H    0.090086
    25  H    0.132383
    26  H    0.133122
    27  H    0.091226
    28  H    0.121973
    29  H    0.279411
    30  H    0.144041
 Sum of Mulliken charges =  -0.00000
 Mulliken charges with hydrogens summed into heavy atoms:
               1
     1  C   -0.031193
     2  C    0.145355
     3  N   -0.029026
     4  C   -0.103265
     5  C   -0.026409
     6  C    0.027474
     7  C    0.034826
     8  C    0.005348
     9  C   -0.011058
    10  C   -0.063361
    11  C    0.174997
    12  N    0.051531
    13  C    0.208395
    14  S   -0.383613
 Electronic spatial extent (au):  <R**2>=          11952.6828
 Charge=             -0.0000 electrons
 Dipole moment (field-independent basis, Debye):
    X=             -5.3330    Y=              2.0606    Z=              1.2243  Tot=              5.8469
 Quadrupole moment (field-independent basis, Debye-Ang):
   XX=           -122.3762   YY=            -86.4958   ZZ=            -94.5057
   XY=              5.7390   XZ=             -7.1996   YZ=              0.1366
 Traceless Quadrupole moment (field-independent basis, Debye-Ang):
   XX=            -21.2503   YY=             14.6301   ZZ=              6.6202
   XY=              5.7390   XZ=             -7.1996   YZ=              0.1366
 Octapole moment (field-independent basis, Debye-Ang**2):
  XXX=           -657.5883  YYY=              5.9362  ZZZ=              1.6391  XYY=             12.1569
  XXY=             62.3107  XXZ=             36.4158  XZZ=            -12.4799  YZZ=              1.7143
  YYZ=              1.2095  XYZ=             -3.1426
 Hexadecapole moment (field-independent basis, Debye-Ang**3):
 XXXX=         -18400.4397 YYYY=           -297.1465 ZZZZ=           -122.1379 XXXY=            426.4056
 XXXZ=           -215.5955 YYYX=             15.9428 YYYZ=              0.4202 ZZZX=             -9.0799
 ZZZY=              0.5119 XXYY=          -2623.3668 XXZZ=          -2688.8269 YYZZ=            -69.9193
 XXYZ=             22.1947 YYXZ=             -7.0649 ZZXY=             -2.4941
 N-N= 7.744601788212D+02 E-N=-3.742594590437D+03  KE= 9.306644995785D+02
 PrsmSu:  requested number of processors reduced to:  13 ShMem   1 Linda.
 Calling FoFJK, ICntrl=      2127 FMM=F ISym2X=0 I1Cent= 0 IOpClX= 0 NMat=1 NMatS=1 NMatT=0.
 ***** Axes restored to original set *****
 -------------------------------------------------------------------
 Center     Atomic                   Forces (Hartrees/Bohr)
 Number     Number              X              Y              Z
 -------------------------------------------------------------------
      1        6          -0.006906494   -0.002490163   -0.006128098
      2        6          -0.020410943   -0.000729491   -0.009439561
      3        7           0.106295446    0.007273184    0.070607578
      4        6          -0.025048637   -0.001064788   -0.077898313
      5        6          -0.079184847   -0.022831465   -0.000269885
      6        6           0.020969186    0.010503292    0.016783568
      7        6           0.004091239   -0.008351881   -0.011862402
      8        6          -0.003955902    0.002205040    0.003690320
      9        6           0.007388190   -0.003813374   -0.007210212
     10        6          -0.001069603    0.005574056    0.008282510
     11        6          -0.017446047   -0.009832049   -0.014606170
     12        7           0.019931337    0.017867194    0.026518777
     13        6           0.010551004   -0.012539453   -0.018613156
     14       16          -0.013491310    0.003550705    0.005276590
     15        1          -0.001279528   -0.001268538   -0.000961225
     16        1           0.001949172   -0.002096326   -0.000287667
     17        1           0.000572564   -0.000589166   -0.001869224
     18        1           0.005515594    0.001586457    0.006076536
     19        1           0.002800623   -0.000310455   -0.001744376
     20        1          -0.018843638    0.004906042    0.002164928
     21        1           0.003267989    0.016696521    0.012679094
     22        1           0.000243052   -0.002214171   -0.000183429
     23        1          -0.000302270   -0.001375708   -0.002459579
     24        1           0.003119342   -0.001291847    0.000406736
     25        1          -0.002870788    0.002992649    0.000961985
     26        1          -0.002891281   -0.000125194    0.003371338
     27        1           0.000843650   -0.000184200   -0.000246980
     28        1           0.004154649    0.000124938    0.000200053
     29        1          -0.001198324    0.002041973    0.003028822
     30        1           0.003206573   -0.004213784   -0.006268556
 -------------------------------------------------------------------
 Cartesian Forces:  Max     0.106295446 RMS     0.019917561

 GradGradGradGradGradGradGradGradGradGradGradGradGradGradGradGradGradGrad
 Berny optimization.
 FormGI is forming the generalized inverse of G from B-inverse, IUseBI=4.
 Internal  Forces:  Max     0.079958880 RMS     0.012048419
 Search for a local minimum.
 Step number   1 out of a maximum of  140
 All quantities printed in internal units (Hartrees-Bohrs-Radians)
 Mixed Optimization -- RFO/linear search
 Second derivative matrix not updated -- first step.
 ITU=  0
     Eigenvalues ---    0.00384   0.00669   0.00680   0.01160   0.01228
     Eigenvalues ---    0.01414   0.01550   0.01572   0.02026   0.02065
     Eigenvalues ---    0.02065   0.02074   0.02083   0.02149   0.02174
     Eigenvalues ---    0.02498   0.02632   0.02859   0.02879   0.02898
     Eigenvalues ---    0.03019   0.05013   0.05208   0.05481   0.05557
     Eigenvalues ---    0.05806   0.06519   0.08184   0.09913   0.11933
     Eigenvalues ---    0.13240   0.14022   0.15999   0.16000   0.16000
     Eigenvalues ---    0.16000   0.16000   0.16000   0.16000   0.16000
     Eigenvalues ---    0.16000   0.16000   0.16000   0.21839   0.22000
     Eigenvalues ---    0.22000   0.22000   0.22000   0.22000   0.22000
     Eigenvalues ---    0.22000   0.22000   0.22040   0.23225   0.25000
     Eigenvalues ---    0.29531   0.31622   0.31706   0.33466   0.33869
     Eigenvalues ---    0.33900   0.33933   0.33948   0.34260   0.34272
     Eigenvalues ---    0.34657   0.34678   0.35097   0.35207   0.35445
     Eigenvalues ---    0.35482   0.35570   0.38109   0.39560   0.40269
     Eigenvalues ---    0.40460   0.44749   0.44839   0.44922   0.50641
     Eigenvalues ---    0.50890   0.56811   0.57151   0.57471
 RFO step:  Lambda=-5.90020540D-02 EMin= 3.84449248D-03
 Linear search not attempted -- first point.
 Maximum step size (   0.300) exceeded in Quadratic search.
    -- Step size scaled by   0.761
 Iteration  1 RMS(Cart)=  0.07990888 RMS(Int)=  0.00404698
 Iteration  2 RMS(Cart)=  0.01194150 RMS(Int)=  0.00026428
 Iteration  3 RMS(Cart)=  0.00013956 RMS(Int)=  0.00026184
 Iteration  4 RMS(Cart)=  0.00000002 RMS(Int)=  0.00026184
 Variable       Old X    -DE/DX   Delta X   Delta X   Delta X     New X
                                 (Linear)    (Quad)   (Total)
    R1        2.88909   0.00572   0.00000   0.01228   0.01228   2.90137
    R2        2.06236   0.00186   0.00000   0.00349   0.00349   2.06585
    R3        2.07500  -0.00263   0.00000  -0.00504  -0.00504   2.06996
    R4        2.07552  -0.00153   0.00000  -0.00294  -0.00294   2.07258
    R5        2.72156   0.01911   0.00000   0.03200   0.03200   2.75356
    R6        2.06893  -0.00252   0.00000  -0.00477  -0.00477   2.06416
    R7        2.06874   0.00116   0.00000   0.00219   0.00219   2.07093
    R8        2.71189  -0.07996   0.00000  -0.13186  -0.13186   2.58003
    R9        1.92268   0.00741   0.00000   0.01114   0.01114   1.93382
   R10        2.65464  -0.01371   0.00000  -0.02058  -0.02058   2.63406
   R11        2.52999   0.03186   0.00000   0.03828   0.03828   2.56827
   R12        2.04900   0.01424   0.00000   0.02620   0.02620   2.07520
   R13        2.74207  -0.00762   0.00000  -0.01318  -0.01318   2.72889
   R14        2.04760   0.00124   0.00000   0.00228   0.00228   2.04987
   R15        2.53557   0.00729   0.00000   0.00885   0.00885   2.54442
   R16        2.06201  -0.00189   0.00000  -0.00355  -0.00355   2.05846
   R17        2.84685   0.00374   0.00000   0.00757   0.00757   2.85442
   R18        2.04959   0.00234   0.00000   0.00432   0.00432   2.05390
   R19        2.84841   0.00565   0.00000   0.01147   0.01147   2.85988
   R20        2.07418   0.00058   0.00000   0.00112   0.00112   2.07529
   R21        2.07443   0.00068   0.00000   0.00129   0.00129   2.07572
   R22        2.53269  -0.00173   0.00000  -0.00209  -0.00209   2.53060
   R23        2.05339   0.00069   0.00000   0.00127   0.00127   2.05467
   R24        2.58977   0.01933   0.00000   0.02592   0.02592   2.61570
   R25        2.05517  -0.00177   0.00000  -0.00328  -0.00328   2.05189
   R26        2.59224  -0.01973   0.00000  -0.02657  -0.02657   2.56567
   R27        1.92066  -0.00375   0.00000  -0.00561  -0.00561   1.91505
   R28        3.14633  -0.01363   0.00000  -0.02239  -0.02239   3.12394
   R29        2.08240  -0.00809   0.00000  -0.01564  -0.01564   2.06676
    A1        1.94166   0.00102   0.00000   0.00313   0.00313   1.94479
    A2        1.93572  -0.00154   0.00000  -0.00495  -0.00495   1.93077
    A3        1.93922   0.00007   0.00000   0.00027   0.00027   1.93949
    A4        1.88930   0.00027   0.00000   0.00090   0.00091   1.89020
    A5        1.88500  -0.00088   0.00000  -0.00383  -0.00383   1.88117
    A6        1.87035   0.00108   0.00000   0.00457   0.00457   1.87492
    A7        1.81837   0.02529   0.00000   0.07424   0.07417   1.89253
    A8        1.91180  -0.00214   0.00000   0.00463   0.00558   1.91738
    A9        1.91772  -0.00581   0.00000  -0.00616  -0.00634   1.91138
   A10        1.96172  -0.01321   0.00000  -0.04987  -0.05065   1.91108
   A11        1.94752  -0.00587   0.00000  -0.01177  -0.01276   1.93476
   A12        1.90497   0.00239   0.00000  -0.00743  -0.00821   1.89676
   A13        2.09857  -0.01158   0.00000  -0.01949  -0.02015   2.07842
   A14        1.92068   0.00128   0.00000   0.01803   0.01706   1.93774
   A15        1.89148   0.01521   0.00000   0.07442   0.07373   1.96520
   A16        2.44427  -0.06727   0.00000  -0.16575  -0.16575   2.27852
   A17        2.27943  -0.02636   0.00000  -0.07188  -0.07192   2.20751
   A18        1.93338   0.02774   0.00000   0.08664   0.08661   2.01999
   A19        2.07024  -0.00136   0.00000  -0.01452  -0.01456   2.05569
   A20        2.05842   0.02042   0.00000   0.05572   0.05570   2.11412
   A21        2.13226  -0.01088   0.00000  -0.03020  -0.03022   2.10204
   A22        2.09251  -0.00953   0.00000  -0.02549  -0.02551   2.06700
   A23        2.16067   0.00363   0.00000   0.00991   0.00991   2.17059
   A24        2.04510  -0.00399   0.00000  -0.01250  -0.01250   2.03259
   A25        2.07740   0.00035   0.00000   0.00258   0.00258   2.07999
   A26        2.14474   0.00561   0.00000   0.01532   0.01532   2.16006
   A27        2.06775  -0.00066   0.00000  -0.00020  -0.00020   2.06755
   A28        2.07069  -0.00495   0.00000  -0.01512  -0.01512   2.05557
   A29        1.96166   0.00370   0.00000   0.01314   0.01308   1.97475
   A30        1.90277  -0.00103   0.00000  -0.00242  -0.00249   1.90028
   A31        1.90265  -0.00078   0.00000  -0.00117  -0.00124   1.90141
   A32        1.90285   0.00026   0.00000   0.00365   0.00363   1.90647
   A33        1.90242   0.00020   0.00000   0.00365   0.00362   1.90604
   A34        1.89023  -0.00259   0.00000  -0.01807  -0.01808   1.87214
   A35        2.14441   0.00470   0.00000   0.01281   0.01281   2.15722
   A36        2.05315  -0.00175   0.00000  -0.00435  -0.00435   2.04881
   A37        2.08562  -0.00294   0.00000  -0.00847  -0.00847   2.07716
   A38        2.13254   0.01041   0.00000   0.02840   0.02840   2.16094
   A39        2.11335  -0.00133   0.00000  -0.00074  -0.00074   2.11261
   A40        2.03730  -0.00908   0.00000  -0.02766  -0.02766   2.00964
   A41        2.17148   0.00732   0.00000   0.01999   0.01999   2.19147
   A42        2.08594  -0.00283   0.00000  -0.00711  -0.00711   2.07883
   A43        2.02577  -0.00449   0.00000  -0.01288  -0.01288   2.01289
   A44        2.12030   0.01366   0.00000   0.03728   0.03728   2.15758
   A45        1.99809  -0.00828   0.00000  -0.02366  -0.02366   1.97443
   A46        2.16479  -0.00539   0.00000  -0.01362  -0.01362   2.15118
    D1       -3.11744  -0.00223   0.00000  -0.01334  -0.01323  -3.13067
    D2        1.06356   0.00018   0.00000   0.00129   0.00099   1.06454
    D3       -1.02896   0.00216   0.00000   0.01135   0.01153  -1.01743
    D4        1.06183  -0.00222   0.00000  -0.01324  -0.01312   1.04870
    D5       -1.04036   0.00020   0.00000   0.00139   0.00110  -1.03927
    D6       -3.13288   0.00217   0.00000   0.01146   0.01164  -3.12124
    D7       -1.01660  -0.00262   0.00000  -0.01590  -0.01579  -1.03239
    D8       -3.11879  -0.00020   0.00000  -0.00127  -0.00157  -3.12036
    D9        1.07188   0.00177   0.00000   0.00879   0.00897   1.08085
   D10       -3.06327   0.00658   0.00000   0.06004   0.06058  -3.00268
   D11        1.00424  -0.00660   0.00000  -0.04951  -0.04896   0.95529
   D12       -0.99493   0.01260   0.00000   0.08509   0.08416  -0.91077
   D13        3.07258  -0.00059   0.00000  -0.02446  -0.02538   3.04721
   D14        1.15172   0.00157   0.00000   0.02967   0.03004   1.18176
   D15       -1.06395  -0.01162   0.00000  -0.07988  -0.07950  -1.14345
   D16       -3.14031  -0.00228   0.00000  -0.02916  -0.02978   3.11309
   D17       -0.91129   0.00461   0.00000   0.05395   0.05458  -0.85671
   D18        3.03736  -0.01188   0.00000  -0.11422  -0.11398   2.92338
   D19       -0.08594  -0.01362   0.00000  -0.13070  -0.13094  -0.21688
   D20       -3.13027  -0.00175   0.00000  -0.01492  -0.01482   3.13810
   D21        0.01448  -0.00297   0.00000  -0.02641  -0.02628  -0.01181
   D22       -0.00817   0.00032   0.00000   0.00344   0.00331  -0.00486
   D23        3.13659  -0.00090   0.00000  -0.00806  -0.00816   3.12843
   D24       -3.12667  -0.00155   0.00000  -0.01560  -0.01562   3.14089
   D25        0.00980  -0.00169   0.00000  -0.01697  -0.01698  -0.00718
   D26        0.01183  -0.00036   0.00000  -0.00440  -0.00439   0.00745
   D27       -3.13488  -0.00050   0.00000  -0.00576  -0.00574  -3.14062
   D28        3.13329  -0.00097   0.00000  -0.00833  -0.00832   3.12496
   D29       -0.00254  -0.00110   0.00000  -0.00974  -0.00974  -0.01228
   D30       -0.00310  -0.00081   0.00000  -0.00690  -0.00689  -0.00999
   D31       -3.13892  -0.00095   0.00000  -0.00831  -0.00831   3.13595
   D32       -3.13886  -0.00007   0.00000  -0.00066  -0.00066  -3.13952
   D33        1.03253  -0.00210   0.00000  -0.01213  -0.01212   1.02041
   D34       -1.02770   0.00205   0.00000   0.01167   0.01167  -1.01603
   D35       -0.00305   0.00008   0.00000   0.00080   0.00079  -0.00225
   D36       -2.11484  -0.00196   0.00000  -0.01067  -0.01066  -2.12550
   D37        2.10812   0.00219   0.00000   0.01314   0.01312   2.12124
   D38       -3.14073   0.00009   0.00000   0.00054   0.00054  -3.14018
   D39        0.00123   0.00009   0.00000   0.00049   0.00049   0.00172
   D40       -1.02898   0.00138   0.00000   0.00853   0.00856  -1.02042
   D41        2.11298   0.00138   0.00000   0.00848   0.00851   2.12149
   D42        1.03116  -0.00147   0.00000  -0.00902  -0.00905   1.02211
   D43       -2.11006  -0.00147   0.00000  -0.00907  -0.00910  -2.11917
   D44        3.14135   0.00000   0.00000   0.00002   0.00002   3.14136
   D45       -0.00024   0.00001   0.00000   0.00005   0.00005  -0.00019
   D46       -0.00062   0.00001   0.00000   0.00007   0.00007  -0.00055
   D47        3.14098   0.00001   0.00000   0.00010   0.00010   3.14108
   D48       -3.14146   0.00001   0.00000   0.00006   0.00006  -3.14140
   D49        0.00032   0.00000   0.00000   0.00003   0.00003   0.00034
   D50        0.00012   0.00000   0.00000   0.00003   0.00003   0.00015
   D51       -3.14128  -0.00000   0.00000  -0.00000  -0.00000  -3.14129
   D52        3.14133  -0.00001   0.00000  -0.00005  -0.00005   3.14128
   D53       -0.00013  -0.00001   0.00000  -0.00006  -0.00006  -0.00019
   D54       -0.00045  -0.00000   0.00000  -0.00001  -0.00001  -0.00046
   D55        3.14128  -0.00000   0.00000  -0.00002  -0.00002   3.14126
         Item               Value     Threshold  Converged?
 Maximum Force            0.079959     0.000450     NO 
 RMS     Force            0.012048     0.000300     NO 
 Maximum Displacement     0.278489     0.001800     NO 
 RMS     Displacement     0.082475     0.001200     NO 
 Predicted change in Energy=-3.218761D-02
 GradGradGradGradGradGradGradGradGradGradGradGradGradGradGradGradGradGrad

                          Input orientation:                          
 ---------------------------------------------------------------------
 Center     Atomic      Atomic             Coordinates (Angstroms)
 Number     Number       Type             X           Y           Z
 ---------------------------------------------------------------------
      1          6           0        0.992380   -0.175433   -0.043933
      2          6           0        2.525544   -0.095184   -0.028597
      3          7           0        2.938485    0.599210    1.184042
      4          6           0        4.251991    0.937114    1.340733
      5          6           0        4.895328    1.619495    2.371938
      6          6           0        6.237284    1.710617    2.566670
      7          6           0        6.781574    2.455573    3.677579
      8          6           0        8.097072    2.587784    3.932351
      9          6           0        8.652247    3.387796    5.087062
     10          6           0       10.164452    3.376853    5.145706
     11          6           0       10.874322    4.016124    6.084165
     12          7           0       12.257255    4.008873    6.142147
     13          6           0       13.011744    4.643015    7.075928
     14         16           0       14.664173    4.601642    7.099712
     15          1           0        0.628739   -0.699443   -0.931777
     16          1           0        0.553348    0.828051   -0.032867
     17          1           0        0.615630   -0.708490    0.837430
     18          1           0        2.876929    0.457489   -0.902794
     19          1           0        2.945411   -1.106935   -0.060984
     20          1           0        2.545956    0.150527    2.015797
     21          1           0        4.238200    2.127457    3.090332
     22          1           0        6.925617    1.215313    1.890249
     23          1           0        6.061803    2.939163    4.336840
     24          1           0        8.804899    2.096020    3.270193
     25          1           0        8.250883    2.982622    6.025560
     26          1           0        8.301339    4.425292    5.003407
     27          1           0       10.690736    2.815540    4.377502
     28          1           0       10.382754    4.586703    6.866336
     29          1           0       12.777386    3.494715    5.440660
     30          1           0       12.414758    5.186135    7.814012
 ---------------------------------------------------------------------
                    Distance matrix (angstroms):
                    1          2          3          4          5
     1  C    0.000000
     2  C    1.535340   0.000000
     3  N    2.428028   1.457120   0.000000
     4  C    3.712159   2.433377   1.365294   0.000000
     5  C    4.928611   3.783989   2.506254   1.393883   0.000000
     6  C    6.154792   4.875792   3.745526   2.458174   1.359070
     7  C    7.367946   6.193214   4.942990   3.763690   2.441649
     8  C    8.597840   7.343661   6.174030   4.921975   3.691021
     9  C    9.884193   8.708479   7.460352   6.277187   4.961172
    10  C   11.121062   9.858062   8.696245   7.442268   6.208524
    11  C   12.360240  11.134218   9.932976   8.708371   7.434570
    12  N   13.515673  12.232235  11.092704   9.827183   8.609389
    13  C   14.777516  13.523506  12.350596  11.106730   9.856237
    14  S   16.148376  14.839788  13.729762  12.450227  11.255016
    15  H    1.093201   2.186032   3.390888   4.579365   5.873312
    16  H    1.095377   2.177599   2.687399   3.946977   5.026158
    17  H    1.096764   2.184930   2.688099   4.022989   5.107841
    18  H    2.165585   1.092309   2.092548   2.674743   4.018465
    19  H    2.163866   1.095890   2.112124   2.801803   4.141824
    20  H    2.600449   2.059208   1.023334   1.996243   2.793609
    21  H    5.065794   4.195360   2.767443   2.116176   1.098149
    22  H    6.393633   4.975943   4.095794   2.743654   2.125432
    23  H    7.388568   6.385094   5.017034   4.032403   2.638755
    24  H    8.785123   7.423859   6.403692   5.078863   4.039639
    25  H    9.974865   8.882861   7.572484   6.490211   5.144591
    26  H   10.003159   8.894694   7.614897   6.479181   5.137902
    27  H   11.070372   9.724011   8.672237   7.362601   6.248165
    28  H   12.594002  11.454078  10.178688   9.024303   7.688678
    29  H   13.506929  12.161432  11.104356   9.799648   8.663738
    30  H   14.864873  13.681937  12.441709  11.251146   9.943788
                    6          7          8          9         10
     6  C    0.000000
     7  C    1.444067   0.000000
     8  C    2.468464   1.346448   0.000000
     9  C    3.872641   2.520932   1.510496   0.000000
    10  C    4.985019   3.801055   2.523673   1.513382   0.000000
    11  C    6.260212   4.997756   3.792569   2.515279   1.339137
    12  N    7.369264   6.202412   4.920347   3.807233   2.402533
    13  C    8.650183   7.426217   6.185472   4.953421   3.665514
    14  S    9.995947   8.857312   7.564035   6.455032   5.056257
    15  H    7.035859   8.310095   9.499558  10.830911  12.020060
    16  H    6.312183   7.430144   8.702148   9.917567  11.211037
    17  H    6.359666   7.489767   8.741620   9.971266  11.244166
    18  H    4.989940   6.341799   7.427427   8.821529   9.910350
    19  H    5.067504   6.433076   7.492482   8.903536   9.966370
    20  H    4.045151   5.100512   6.358324   7.563027   8.845733
    21  H    2.108155   2.630832   3.976404   5.005917   6.395782
    22  H    1.084746   2.180262   2.725099   4.233267   5.075462
    23  H    2.161855   1.089291   2.104614   2.733954   4.204470
    24  H    2.690004   2.095014   1.086878   2.234503   2.646974
    25  H    4.199582   2.819514   2.135668   1.098198   2.142734
    26  H    4.191356   2.819095   2.136661   1.098422   2.142583
    27  H    4.932869   3.987608   2.641425   2.233023   1.087283
    28  H    6.629020   5.261024   4.222356   2.756419   2.114701
    29  H    7.363135   6.335458   5.000286   4.141647   2.632169
    30  H    8.819013   7.503253   6.360907   4.982647   3.931569
                   11         12         13         14         15
    11  C    0.000000
    12  N    1.384167   0.000000
    13  C    2.438270   1.357696   0.000000
    14  S    3.967006   2.657360   1.653118   0.000000
    15  H   13.282771  14.402466  15.684516  17.017631   0.000000
    16  H   12.413880  13.609918  14.842525  16.255124   1.773967
    17  H   12.453552  13.635283  14.873503  16.271916   1.769280
    18  H   11.199990  12.256999  13.560719  14.837562   2.528575
    19  H   11.263935  12.302876  13.613541  14.872552   2.508247
    20  H   10.042716  11.234898  12.462749  13.874791   3.617508
    21  H    7.521185   8.783994   9.959322  11.441051   6.098929
    22  H    6.405135   7.369463   8.699503   9.924263   7.161061
    23  H    5.231953   6.541180   7.662076   9.186843   8.397379
    24  H    3.985945   4.881178   6.218389   7.434680   9.608369
    25  H    2.820283   4.137366   5.150338   6.701144  10.957154
    26  H    2.820585   4.137560   5.150793   6.701586  10.970785
    27  H    2.094709   2.644238   4.001031   5.137002  11.907449
    28  H    1.085814   2.090955   2.637933   4.287802  13.560779
    29  H    2.075480   1.013399   2.011869   2.745488  14.345333
    30  H    2.595041   2.050826   1.093682   2.431404  15.812625
                   16         17         18         19         20
    16  H    0.000000
    17  H    1.766990   0.000000
    18  H    2.508608   3.082427   0.000000
    19  H    3.076837   2.528593   1.777851   0.000000
    20  H    2.937099   2.419218   2.953293   2.460445   0.000000
    21  H    5.002096   5.122613   4.537279   4.697168   2.815416
    22  H    6.667395   6.680223   4.976671   5.004216   4.508987
    23  H    7.341268   7.430480   6.614823   6.739708   5.052218
    24  H    8.978086   8.991536   7.432323   7.462523   6.673291
    25  H   10.029893   9.941734   9.124569   9.050885   7.526297
    26  H    9.916429  10.138106   8.947116   9.216266   7.766844
    27  H   11.232458  11.245384   9.720983   9.750694   8.889173
    28  H   12.583469  12.640549  11.564912  11.649864  10.228528
    29  H   13.656416  13.666198  12.144266  12.170087  11.295816
    30  H   14.874793  14.921082  13.759105  13.830648  12.504795
                   21         22         23         24         25
    21  H    0.000000
    22  H    3.081301   0.000000
    23  H    2.353333   3.115067   0.000000
    24  H    4.570348   2.492306   3.061568   0.000000
[...]
 ! D14   D(19,2,3,4)           126.885          calculate D2E/DX2 analytically  !
 ! D15   D(19,2,3,20)          -55.0897         calculate D2E/DX2 analytically  !
 ! D16   D(2,3,4,5)            178.6166         calculate D2E/DX2 analytically  !
 ! D17   D(20,3,4,5)             0.7635         calculate D2E/DX2 analytically  !
 ! D18   D(3,4,5,6)            179.7654         calculate D2E/DX2 analytically  !
 ! D19   D(3,4,5,21)            -0.215          calculate D2E/DX2 analytically  !
 ! D20   D(4,5,6,7)            179.9717         calculate D2E/DX2 analytically  !
 ! D21   D(4,5,6,22)             0.0019         calculate D2E/DX2 analytically  !
 ! D22   D(21,5,6,7)            -0.0474         calculate D2E/DX2 analytically  !
 ! D23   D(21,5,6,22)          179.9828         calculate D2E/DX2 analytically  !
 ! D24   D(5,6,7,8)           -179.6425         calculate D2E/DX2 analytically  !
 ! D25   D(5,6,7,23)             0.124          calculate D2E/DX2 analytically  !
 ! D26   D(22,6,7,8)             0.3272         calculate D2E/DX2 analytically  !
 ! D27   D(22,6,7,23)         -179.9063         calculate D2E/DX2 analytically  !
 ! D28   D(6,7,8,9)            179.9184         calculate D2E/DX2 analytically  !
 ! D29   D(6,7,8,24)            -0.4444         calculate D2E/DX2 analytically  !
 ! D30   D(23,7,8,9)             0.1573         calculate D2E/DX2 analytically  !
 ! D31   D(23,7,8,24)          179.7944         calculate D2E/DX2 analytically  !
 ! D32   D(7,8,9,10)           121.494          calculate D2E/DX2 analytically  !
 ! D33   D(7,8,9,25)            -1.4738         calculate D2E/DX2 analytically  !
 ! D34   D(7,8,9,26)          -117.9803         calculate D2E/DX2 analytically  !
 ! D35   D(24,8,9,10)          -58.152          calculate D2E/DX2 analytically  !
 ! D36   D(24,8,9,25)          178.8802         calculate D2E/DX2 analytically  !
 ! D37   D(24,8,9,26)           62.3737         calculate D2E/DX2 analytically  !
 ! D38   D(8,9,10,11)         -118.9001         calculate D2E/DX2 analytically  !
 ! D39   D(8,9,10,27)           60.2684         calculate D2E/DX2 analytically  !
 ! D40   D(25,9,10,11)           4.0081         calculate D2E/DX2 analytically  !
 ! D41   D(25,9,10,27)        -176.8235         calculate D2E/DX2 analytically  !
 ! D42   D(26,9,10,11)         120.5798         calculate D2E/DX2 analytically  !
 ! D43   D(26,9,10,27)         -60.2517         calculate D2E/DX2 analytically  !
 ! D44   D(9,10,11,12)         179.7099         calculate D2E/DX2 analytically  !
 ! D45   D(9,10,11,28)          -0.5286         calculate D2E/DX2 analytically  !
 ! D46   D(27,10,11,12)          0.5626         calculate D2E/DX2 analytically  !
 ! D47   D(27,10,11,28)       -179.6759         calculate D2E/DX2 analytically  !
 ! D48   D(10,11,12,13)        179.477          calculate D2E/DX2 analytically  !
 ! D49   D(10,11,12,29)         -0.4442         calculate D2E/DX2 analytically  !
 ! D50   D(28,11,12,13)         -0.3019         calculate D2E/DX2 analytically  !
 ! D51   D(28,11,12,29)        179.7769         calculate D2E/DX2 analytically  !
 ! D52   D(11,12,13,14)       -179.8678         calculate D2E/DX2 analytically  !
 ! D53   D(11,12,13,30)          0.1229         calculate D2E/DX2 analytically  !
 ! D54   D(29,12,13,14)          0.0552         calculate D2E/DX2 analytically  !
 ! D55   D(29,12,13,30)       -179.9541         calculate D2E/DX2 analytically  !
 --------------------------------------------------------------------------------
 Trust Radius=3.00D-01 FncErr=1.00D-07 GrdErr=1.00D-07 EigMax=2.50D+02 EigMin=1.00D-04
 Number of steps in this run=      2 maximum allowed number of steps=      2.
 GradGradGradGradGradGradGradGradGradGradGradGradGradGradGradGradGradGrad

                          Input orientation:                          
 ---------------------------------------------------------------------
 Center     Atomic      Atomic             Coordinates (Angstroms)
 Number     Number       Type             X           Y           Z
 ---------------------------------------------------------------------
      1          6           0        1.519301   -0.223125    0.310868
      2          6           0        2.983435   -0.659021    0.383236
      3          7           0        3.710183    0.029561    1.445605
      4          6           0        4.652408    0.921060    1.228217
      5          6           0        5.174404    1.461180    2.479413
      6          6           0        6.154103    2.389054    2.475350
      7          6           0        6.740582    2.988361    3.652572
      8          6           0        7.709568    3.914507    3.617747
      9          6           0        8.337874    4.557250    4.825396
     10          6           0        9.828502    4.338803    4.878774
     11          6           0       10.449304    3.694015    5.867579
     12          7           0       11.826014    3.478154    5.929734
     13          6           0       12.479741    2.839989    6.919615
     14         16           0       14.101806    2.591088    6.989478
     15          1           0        0.997455   -0.768988   -0.480917
     16          1           0        1.449773    0.847868    0.099910
     17          1           0        0.996343   -0.420292    1.253288
     18          1           0        3.510911   -0.424250   -0.542909
     19          1           0        3.047972   -1.741826    0.552843
     20          1           0        3.394844   -0.223396    2.391672
     21          1           0        4.781146    1.123739    3.452783
     22          1           0        6.530884    2.710651    1.506523
     23          1           0        6.355804    2.656819    4.616758
     24          1           0        8.091546    4.238483    2.649914
     25          1           0        7.868793    4.176329    5.738883
     26          1           0        8.138266    5.640077    4.795673
     27          1           0       10.410740    4.727022    4.044585
     28          1           0        9.906822    3.286595    6.715197
     29          1           0       12.402678    3.826039    5.172488
     30          1           0       11.807039    2.487896    7.705125
 ---------------------------------------------------------------------
                    Distance matrix (angstroms):
                    1          2          3          4          5
     1  C    0.000000
     2  C    1.529357   0.000000
     3  N    2.480210   1.459772   0.000000
     4  C    3.459342   2.448697   1.315225   0.000000
     5  C    4.571570   3.699940   2.293957   1.459351   0.000000
     6  C    5.743679   4.870404   3.549694   2.442425   1.349361
     7  C    6.981576   6.173177   4.775827   3.809423   2.482236
     8  C    8.147077   7.329090   5.983819   4.900695   3.706976
     9  C    9.472375   8.695533   7.303320   6.304304   5.009673
    10  C   10.522346   9.593907   8.233471   7.197186   5.974803
    11  C   11.223456  10.235533   8.854255   7.925716   6.655057
    12  N   12.308511  11.228137   9.892771   8.950063   7.759949
    13  C   13.160146  12.047703  10.713003   9.866177   8.659356
    14  S   14.520436  13.335059  12.053290  11.192509  10.065579
    15  H    1.094172   2.168634   3.421704   4.374480   5.584274
    16  H    1.093784   2.168665   2.754990   3.396366   4.462182
    17  H    1.095680   2.182320   2.757586   3.894440   4.743366
    18  H    2.176211   1.091372   2.049351   2.499952   3.931474
    19  H    2.168372   1.097905   2.091257   3.181399   4.300306
    20  H    2.801322   2.095911   1.028819   2.060309   2.452006
    21  H    4.724965   3.978959   2.524470   2.237487   1.102709
    22  H    5.928962   5.020045   3.892083   2.609361   2.085121
    23  H    7.087067   6.347470   4.894692   4.170927   2.719099
    24  H    8.280790   7.430759   6.193685   4.985398   4.031401
    25  H    9.441111   8.713798   7.274748   6.425575   5.025525
    26  H    9.914702   9.258537   7.893590   6.866373   5.622518
    27  H   10.839848   9.878249   8.585937   7.454910   6.366687
    28  H   11.121334  10.178158   8.762146   7.956857   6.608311
    29  H   12.588843  11.479322  10.191289   9.168581   8.068033
    30  H   12.956165  11.889874  10.525402   9.777222   8.506118
                    6          7          8          9         10
     6  C    0.000000
     7  C    1.445330   0.000000
     8  C    2.459990   1.340856   0.000000
     9  C    3.872034   2.527503   1.505424   0.000000
    10  C    4.804079   3.586435   2.502018   1.507494   0.000000
    11  C    5.626623   4.377079   3.551973   2.507878   1.333747
    12  N    6.729746   5.593477   4.741394   3.814595   2.415634
    13  C    7.743935   6.605568   5.900124   4.948717   3.666135
    14  S    9.142437   8.091995   7.347157   6.463123   5.076486
    15  H    6.730807   8.011674   9.153504  10.507499  11.524028
    16  H    5.490782   6.722781   7.807976   9.139785  10.258034
    17  H    5.999029   7.097307   8.333579   9.562111  10.667716
    18  H    4.900105   6.299107   7.332435   8.771181   9.591313
    19  H    5.514367   6.754136   7.944697   9.269095  10.082822
    20  H    3.800711   4.806164   6.102651   7.294597   8.269903
    21  H    2.107465   2.712217   4.048612   5.130632   6.151902
    22  H    1.088124   2.174080   2.701080   4.205955   4.989714
    23  H    2.167489   1.089783   2.100590   2.753865   3.867474
    24  H    2.684129   2.096004   1.089756   2.212467   2.827525
    25  H    4.096969   2.652700   2.143156   1.095261   2.146309
    26  H    4.459815   3.208083   2.132811   1.101472   2.134741
    27  H    5.103681   4.080034   2.852841   2.221545   1.088847
    28  H    5.732781   4.415166   3.849207   2.765413   2.117953
    29  H    6.955873   5.922092   4.944727   4.144607   2.641132
    30  H    7.701688   6.507121   5.960800   4.960864   3.915191
                   11         12         13         14         15
    11  C    0.000000
    12  N    1.394916   0.000000
    13  C    2.441069   1.347025   0.000000
    14  S    3.976918   2.662550   1.642537   0.000000
    15  H   12.229442  13.281278  14.129242  15.453832   0.000000
    16  H   11.061560  12.188996  13.120104  14.511337   1.776562
    17  H   11.295029  12.423719  13.213823  14.619352   1.768914
    18  H   10.305133  11.236761  12.115463  13.341521   2.537745
    19  H   10.610113  11.541800  12.267317  13.505245   2.493932
    20  H    8.785980   9.864278  10.602922  11.987501   3.781126
    21  H    6.675745   7.829989   8.615847  10.076509   5.776913
    22  H    5.944731   6.942064   8.044078   9.348580   6.832030
    23  H    4.404210   5.685217   6.545174   8.101523   8.150727
    24  H    4.026020   5.028078   6.280317   7.594008   9.230547
    25  H    2.628350   4.022868   4.943761   6.551903  10.505111
    26  H    3.205782   4.422612   5.585699   7.047902  10.950328
    27  H    2.095685   2.667669   4.013409   5.182526  11.802383
    28  H    1.085695   2.082534   2.619381   4.261086  12.149429
    29  H    2.077559   1.013403   2.007656   2.777335  13.533454
    30  H    2.583552   2.032974   1.092485   2.405984  13.945095
                   16         17         18         19         20
    16  H    0.000000
    17  H    1.773164   0.000000
    18  H    2.505950   3.090209   0.000000
    19  H    3.076670   2.538948   1.775103   0.000000
    20  H    3.191094   2.662235   2.943736   2.409822   0.000000
    21  H    4.734544   4.641825   4.469375   4.430011   2.205121
    22  H    5.591619   6.363810   4.811238   5.732776   4.384845
    23  H    6.909657   7.036005   6.648952   6.841435   4.691900
    24  H    7.881113   8.602131   7.274436   8.099348   6.483368
    25  H    9.169541   9.406384   8.922856   9.228211   7.111794
    26  H    9.473721  10.014171   9.310689   9.919938   7.915781
    27  H   10.531251  11.086797   9.756452  10.404259   8.744230
    28  H   11.010499  11.089188  10.361378  10.502544   8.568475
    29  H   12.432485  12.786553  11.392728  11.825936  10.260211
    30  H   12.953839  12.921103  12.055554  12.073397  10.312560
                   21         22         23         24         25
    21  H    0.000000
    22  H    3.060686   0.000000
    23  H    2.486910   3.115623   0.000000
    24  H    4.615732   2.465214   3.063158   0.000000
    25  H    4.906947   4.674514   2.420167   3.097613   0.000000
    26  H    5.785406   4.688680   3.479800   2.563382   1.762050
    27  H    6.710158   5.055769   4.588642   2.749989   3.104094
    28  H    6.449330   6.233695   4.172504   4.552784   2.428658
    29  H    8.267259   7.011516   6.183898   5.011921   4.582534
    30  H    8.325053   8.143101   6.267576   6.513417   4.714519
                   26         27         28         29         30
    26  H    0.000000
    27  H    2.561629   0.000000
    28  H    3.514433   3.075863   0.000000
    29  H    4.649509   2.460031   2.983328   0.000000
    30  H    5.644560   4.512525   2.286635   2.925690   0.000000
 Stoichiometry    C11H16N2S
 Framework group  C1[X(C11H16N2S)]
 Deg. of freedom    84
 Full point group                 C1      NOp   1
 Largest Abelian subgroup         C1      NOp   1
 Largest concise Abelian subgroup C1      NOp   1
                         Standard orientation:                         
 ---------------------------------------------------------------------
 Center     Atomic      Atomic             Coordinates (Angstroms)
 Number     Number       Type             X           Y           Z
 ---------------------------------------------------------------------
      1          6           0       -7.743721   -0.460264    0.260572
      2          6           0       -6.603393   -1.317889   -0.289941
      3          7           0       -5.299522   -0.876350    0.195750
      4          6           0       -4.387883   -0.312237   -0.566161
      5          6           0       -3.201153    0.050501    0.201821
      6          6           0       -2.144659    0.638921   -0.396809
      7          6           0       -0.924866    1.038260    0.267730
      8          6           0        0.107240    1.628132   -0.352514
      9          6           0        1.388076    2.056375    0.312595
     10          6           0        2.598086    1.397940   -0.299677
     11          6           0        3.428967    0.600142    0.372661
     12          7           0        4.549089   -0.021365   -0.179466
     13          6           0        5.409642   -0.822793    0.477527
     14         16           0        6.729167   -1.549902   -0.176762
     15          1           0       -8.707559   -0.826460   -0.105665
     16          1           0       -7.624374    0.580713   -0.053256
     17          1           0       -7.770670   -0.485954    1.355619
     18          1           0       -6.554900   -1.257644   -1.378569
     19          1           0       -6.750173   -2.368801   -0.008100
     20          1           0       -5.166422   -1.017945    1.206049
     21          1           0       -3.141707   -0.147959    1.284894
     22          1           0       -2.219753    0.827276   -1.465873
     23          1           0       -0.861299    0.842821    1.337959
     24          1           0        0.037581    1.817191   -1.423482
     25          1           0        1.343783    1.839111    1.385177
     26          1           0        1.490686    3.148753    0.215528
     27          1           0        2.777215    1.588321   -1.356680
     28          1           0        3.284471    0.379504    1.425835
     29          1           0        4.750585    0.132598   -1.160629
     30          1           0        5.140881   -0.951619    1.528571
 ---------------------------------------------------------------------
 Rotational constants (GHZ):           1.5752186           0.1046974           0.0997806
 Standard basis: 6-31G(2df,p) (6D, 7F)
 There are   518 symmetry adapted cartesian basis functions of A   symmetry.
 There are   476 symmetry adapted basis functions of A   symmetry.
   476 basis functions,   752 primitive gaussians,   518 cartesian basis functions
    56 alpha electrons       56 beta electrons
       nuclear repulsion energy       791.9698578191 Hartrees.
 NAtoms=   30 NActive=   30 NUniq=   30 SFac= 1.00D+00 NAtFMM=   60 NAOKFM=F Big=F
 Integral buffers will be    131072 words long.
 Raffenetti 2 integral format.
 Two-electron integral symmetry is turned on.
 One-electron integrals computed using PRISM.
 PrsmSu:  requested number of processors reduced to:  12 ShMem   1 Linda.
 NBasis=   476 RedAO= T EigKep=  2.81D-04  NBF=   476
 NBsUse=   476 1.00D-06 EigRej= -1.00D+00 NBFU=   476
 Initial guess from the checkpoint file:  "CCN[C]CdCCdCCCdCNCdS.chk"
 B after Tr=     0.000000    0.000000   -0.000000
         Rot=    1.000000    0.000000    0.000000    0.000000 Ang=   0.00 deg.
 Requested convergence on RMS density matrix=1.00D-08 within 128 cycles.
 Requested convergence on MAX density matrix=1.00D-06.
 Requested convergence on             energy=1.00D-06.
 No special actions if energy rises.
 SCF Done:  E(RB3LYP) =  -936.429598696     A.U. after    1 cycles
            NFock=  1  Conv=0.48D-08     -V/T= 2.0060
 DoSCS=F DFT=T ScalE2(SS,OS)=  1.000000  1.000000
 Range of M.O.s used for correlation:     1   476
 NBasis=   476 NAE=    56 NBE=    56 NFC=     0 NFV=     0
 NROrb=    476 NOA=    56 NOB=    56 NVA=   420 NVB=   420

 **** Warning!!: The largest alpha MO coefficient is  0.43816834D+02

 PrsmSu:  requested number of processors reduced to:  12 ShMem   1 Linda.
 PrsmSu:  requested number of processors reduced to:   6 ShMem   1 Linda.
 Symmetrizing basis deriv contribution to polar:
 IMax=3 JMax=2 DiffMx= 0.00D+00
 G2DrvN: will do     2 centers at a time, making   16 passes.
 Calling FoFCou, ICntrl=  3107 FMM=F I1Cent=   0 AccDes= 0.00D+00.
 Calling FoFCou, ICntrl=  3107 FMM=F I1Cent=   0 AccDes= 0.00D+00.
 Calling FoFCou, ICntrl=  3107 FMM=F I1Cent=   0 AccDes= 0.00D+00.
 Calling FoFCou, ICntrl=  3107 FMM=F I1Cent=   0 AccDes= 0.00D+00.
 Calling FoFCou, ICntrl=  3107 FMM=F I1Cent=   0 AccDes= 0.00D+00.
 Calling FoFCou, ICntrl=  3107 FMM=F I1Cent=   0 AccDes= 0.00D+00.
 Calling FoFCou, ICntrl=  3107 FMM=F I1Cent=   0 AccDes= 0.00D+00.
 Calling FoFCou, ICntrl=  3107 FMM=F I1Cent=   0 AccDes= 0.00D+00.
 Calling FoFCou, ICntrl=  3107 FMM=F I1Cent=   0 AccDes= 0.00D+00.
 Calling FoFCou, ICntrl=  3107 FMM=F I1Cent=   0 AccDes= 0.00D+00.
 Calling FoFCou, ICntrl=  3107 FMM=F I1Cent=   0 AccDes= 0.00D+00.
 Calling FoFCou, ICntrl=  3107 FMM=F I1Cent=   0 AccDes= 0.00D+00.
 Calling FoFCou, ICntrl=  3107 FMM=F I1Cent=   0 AccDes= 0.00D+00.
 Calling FoFCou, ICntrl=  3107 FMM=F I1Cent=   0 AccDes= 0.00D+00.
 Calling FoFCou, ICntrl=  3107 FMM=F I1Cent=   0 AccDes= 0.00D+00.
 Calling FoFCou, ICntrl=  3107 FMM=F I1Cent=   0 AccDes= 0.00D+00.
 End of G2Drv F.D. properties file   721 does not exist.
 End of G2Drv F.D. properties file   722 does not exist.
 End of G2Drv F.D. properties file   788 does not exist.
          IDoAtm=111111111111111111111111111111
          Differentiating once with respect to electric field.
                with respect to dipole field.
          Differentiating once with respect to nuclear coordinates.
 CalDSu exits because no D1Ps are significant.
          There are    93 degrees of freedom in the 1st order CPHF.  IDoFFX=6 NUNeed=     3.
     93 vectors produced by pass  0 Test12= 2.53D-14 1.08D-09 XBig12= 4.46D+02 1.25D+01.
 AX will form     8 AO Fock derivatives at one time.
     93 vectors produced by pass  1 Test12= 2.53D-14 1.08D-09 XBig12= 7.76D+01 1.65D+00.
     90 vectors produced by pass  2 Test12= 2.53D-14 1.08D-09 XBig12= 9.04D-01 1.16D-01.
     90 vectors produced by pass  3 Test12= 2.53D-14 1.08D-09 XBig12= 3.39D-03 4.57D-03.
slurmstepd: error: *** JOB 27447258 ON lewis4-r630-hpc4-node303 CANCELLED AT 2023-05-18T07:16:03 DUE TO TIME LIMIT ***
