### Starting Gaussian ###
 Entering Gaussian System, Link 0=g16
 Initial command:
 /cluster/software/gaussian/gaussian-16-A.03/avx2/g16/l1.exe "/local/scratch/yxie/Gau-1398.inp" -scrdir="/local/scratch/yxie/"
 Entering Link 1 = /cluster/software/gaussian/gaussian-16-A.03/avx2/g16/l1.exe PID=      1400.
  
 Copyright (c) 1988,1990,1992,1993,1995,1998,2003,2009,2016,
            Gaussian, Inc.  All Rights Reserved.
  
 This is part of the Gaussian(R) 16 program.  It is based on
 the Gaussian(R) 09 system (copyright 2009, Gaussian, Inc.),
 the Gaussian(R) 03 system (copyright 2003, Gaussian, Inc.),
 the Gaussian(R) 98 system (copyright 1998, Gaussian, Inc.),
 the Gaussian(R) 94 system (copyright 1995, Gaussian, Inc.),
 the Gaussian 92(TM) system (copyright 1992, Gaussian, Inc.),
 the Gaussian 90(TM) system (copyright 1990, Gaussian, Inc.),
 the Gaussian 88(TM) system (copyright 1988, Gaussian, Inc.),
 the Gaussian 86(TM) system (copyright 1986, Carnegie Mellon
 University), and the Gaussian 82(TM) system (copyright 1983,
 Carnegie Mellon University). Gaussian is a federally registered
 trademark of Gaussian, Inc.
  
 This software contains proprietary and confidential information,
 including trade secrets, belonging to Gaussian, Inc.
  
 This software is provided under written license and may be
 used, copied, transmitted, or stored only in accord with that
 written license.
  
 The following legend is applicable only to US Government
 contracts under FAR:
  
                    RESTRICTED RIGHTS LEGEND
  
 Use, reproduction and disclosure by the US Government is
 subject to restrictions as set forth in subparagraphs (a)
 and (c) of the Commercial Computer Software - Restricted
 Rights clause in FAR 52.227-19.
  
 Gaussian, Inc.
 340 Quinnipiac St., Bldg. 40, Wallingford CT 06492
  
  
 ---------------------------------------------------------------
 Warning -- This program may not be used in any manner that
 competes with the business of Gaussian, Inc. or will provide
 assistance to any competitor of Gaussian, Inc.  The licensee
 of this program is prohibited from giving any competitor of
 Gaussian, Inc. access to this program.  By using this program,
 the user acknowledges that Gaussian, Inc. is engaged in the
 business of creating and licensing software in the field of
 computational chemistry and represents and warrants to the
 licensee that it is not a competitor of Gaussian, Inc. and that
 it will not use this program in any manner prohibited above.
 ---------------------------------------------------------------
  

 Cite this work as:
 Gaussian 16, Revision A.03,
 M. J. Frisch, G. W. Trucks, H. B. Schlegel, G. E. Scuseria, 
 M. A. Robb, J. R. Cheeseman, G. Scalmani, V. Barone, 
 G. A. Petersson, H. Nakatsuji, X. Li, M. Caricato, A. V. Marenich, 
 J. Bloino, B. G. Janesko, R. Gomperts, B. Mennucci, H. P. Hratchian, 
 J. V. Ortiz, A. F. Izmaylov, J. L. Sonnenberg, D. Williams-Young, 
 F. Ding, F. Lipparini, F. Egidi, J. Goings, B. Peng, A. Petrone, 
 T. Henderson, D. Ranasinghe, V. G. Zakrzewski, J. Gao, N. Rega, 
 G. Zheng, W. Liang, M. Hada, M. Ehara, K. Toyota, R. Fukuda, 
 J. Hasegawa, M. Ishida, T. Nakajima, Y. Honda, O. Kitao, H. Nakai, 
 T. Vreven, K. Throssell, J. A. Montgomery, Jr., J. E. Peralta, 
 F. Ogliaro, M. J. Bearpark, J. J. Heyd, E. N. Brothers, K. N. Kudin, 
 V. N. Staroverov, T. A. Keith, R. Kobayashi, J. Normand, 
 K. Raghavachari, A. P. Rendell, J. C. Burant, S. S. Iyengar, 
 J. Tomasi, M. Cossi, J. M. Millam, M. Klene, C. Adamo, R. Cammi, 
 J. W. Ochterski, R. L. Martin, K. Morokuma, O. Farkas, 
 J. B. Foresman, and D. J. Fox, Gaussian, Inc., Wallingford CT, 2016.
 
 ******************************************
 Gaussian 16:  ES64L-G16RevA.03 25-Dec-2016
                19-May-2023 
 ******************************************
 %chk=CCNNC1dCCdCSCdCdC1CCdS.chk
 %NProcShared=20
 Will use up to   20 processors via shared memory.
 -----------------------------
 # opt freq b3lyp/6-31g(2df,p)
 -----------------------------
 1/18=20,19=15,26=3,38=1/1,3;
 2/9=110,12=2,17=6,18=5,40=1/2;
 3/5=1,6=6,7=104,11=2,25=1,30=1,71=1,74=-5/1,2,3;
 4//1;
 5/5=2,38=5/2;
 6/7=2,8=2,9=2,10=2,28=1/1;
 7//1,2,3,16;
 1/18=20,19=15,26=3/3(2);
 2/9=110/2;
 99//99;
 2/9=110/2;
 3/5=1,6=6,7=104,11=2,25=1,30=1,71=1,74=-5/1,2,3;
 4/5=5,16=3,69=1/1;
 5/5=2,38=5/2;
 7//1,2,3,16;
 1/18=20,19=15,26=3/3(-5);
 2/9=110/2;
 6/7=2,8=2,9=2,10=2,19=2,28=1/1;
 99/9=1/99;
 -------------------
 Title Card Required
 -------------------
 Symbolic Z-matrix:
 Charge =  0 Multiplicity = 1
 C                     1.08593   0.0741    0.02284 
 C                     2.61921   0.07695   0.00744 
 N                     3.13618   0.59685  -1.28737 
 N                     4.69335   0.66429  -1.3979 
 C                     5.37242   1.15676  -2.69288 
 C                     6.66612   1.0248   -2.3392 
 C                     7.59944   1.42889  -3.27603 
 C                     8.97068   1.39803  -3.26561 
 S                     9.07299   2.28566  -5.4893 
 C                     9.9438    1.85328  -4.40616 
 C                     8.14779   1.92521  -4.71569 
 C                     6.16568   1.68466  -4.10127 
 C                     4.11336   1.70724  -4.06117 
 C                     2.76711   2.11422  -5.07238 
 S                     1.02435   2.13397  -5.10748 
 H                     0.70224  -0.30842   0.97767 
 H                     0.69279  -0.56159  -0.77559 
 H                     0.69267   1.08593  -0.11409 
 H                     2.9548   -0.94698   0.17596 
 H                     2.95484   0.70405   0.83809 
 H                     2.74201   1.53944  -1.37166 
 H                     5.10578   0.29162  -0.53533 
 H                     7.10503   0.66718  -1.45415 
 H                     6.96324   2.128    -4.93365 
 H                     9.64065   1.0774   -2.47918 
 H                     11.24021   1.6886   -4.00868 
 H                     3.31067   2.19781  -3.09902 
 H                     3.30943   0.69139  -3.67954 
 H                     3.18596   2.47135  -5.9524 
 
 Add virtual bond connecting atoms H27        and C13        Dist= 2.54D+00.
 Add virtual bond connecting atoms H28        and C13        Dist= 2.55D+00.
 Add virtual bond connecting atoms H26        and C10        Dist= 2.58D+00.
 Add virtual bond connecting atoms C13        and C5         Dist= 3.66D+00.
 Add virtual bond connecting atoms C13        and C12        Dist= 3.88D+00.
 Add virtual bond connecting atoms H27        and H21        Dist= 3.65D+00.

 GradGradGradGradGradGradGradGradGradGradGradGradGradGradGradGradGradGrad
 Berny optimization.
 Initialization pass.
                           ----------------------------
                           !    Initial Parameters    !
                           ! (Angstroms and Degrees)  !
 --------------------------                            --------------------------
 ! Name  Definition              Value          Derivative Info.                !
 --------------------------------------------------------------------------------
 ! R1    R(1,2)                  1.5334         estimate D2E/DX2                !
 ! R2    R(1,16)                 1.0978         estimate D2E/DX2                !
 ! R3    R(1,17)                 1.0937         estimate D2E/DX2                !
 ! R4    R(1,18)                 1.0942         estimate D2E/DX2                !
 ! R5    R(2,3)                  1.488          estimate D2E/DX2                !
 ! R6    R(2,19)                 1.0906         estimate D2E/DX2                !
 ! R7    R(2,20)                 1.0936         estimate D2E/DX2                !
 ! R8    R(3,4)                  1.5625         estimate D2E/DX2                !
 ! R9    R(3,21)                 1.0252         estimate D2E/DX2                !
 ! R10   R(4,5)                  1.5429         estimate D2E/DX2                !
 ! R11   R(4,22)                 1.0262         estimate D2E/DX2                !
 ! R12   R(5,6)                  1.3477         estimate D2E/DX2                !
 ! R13   R(5,12)                 1.7004         estimate D2E/DX2                !
 ! R14   R(5,13)                 1.9392         estimate D2E/DX2                !
 ! R15   R(6,7)                  1.3828         estimate D2E/DX2                !
 ! R16   R(6,23)                 1.0506         estimate D2E/DX2                !
 ! R17   R(7,8)                  1.3716         estimate D2E/DX2                !
 ! R18   R(7,11)                 1.6185         estimate D2E/DX2                !
 ! R19   R(7,12)                 1.6739         estimate D2E/DX2                !
 ! R20   R(8,10)                 1.5669         estimate D2E/DX2                !
 ! R21   R(8,11)                 1.7487         estimate D2E/DX2                !
 ! R22   R(8,25)                 1.0817         estimate D2E/DX2                !
 ! R23   R(9,10)                 1.4555         estimate D2E/DX2                !
 ! R24   R(9,11)                 1.2587         estimate D2E/DX2                !
 ! R25   R(10,11)                1.8239         estimate D2E/DX2                !
 ! R26   R(10,26)                1.3659         estimate D2E/DX2                !
 ! R27   R(11,24)                1.2214         estimate D2E/DX2                !
 ! R28   R(12,13)                2.0528         estimate D2E/DX2                !
 ! R29   R(12,24)                1.2351         estimate D2E/DX2                !
 ! R30   R(13,14)                1.7322         estimate D2E/DX2                !
 ! R31   R(13,27)                1.3456         estimate D2E/DX2                !
 ! R32   R(13,28)                1.3505         estimate D2E/DX2                !
 ! R33   R(14,15)                1.7432         estimate D2E/DX2                !
 ! R34   R(14,29)                1.038          estimate D2E/DX2                !
 ! R35   R(21,27)                1.9341         estimate D2E/DX2                !
 ! A1    A(2,1,16)             111.0303         estimate D2E/DX2                !
 ! A2    A(2,1,17)             110.6827         estimate D2E/DX2                !
 ! A3    A(2,1,18)             110.8805         estimate D2E/DX2                !
 ! A4    A(16,1,17)            107.8658         estimate D2E/DX2                !
 ! A5    A(16,1,18)            107.7847         estimate D2E/DX2                !
 ! A6    A(17,1,18)            108.478          estimate D2E/DX2                !
 ! A7    A(1,2,3)              110.9039         estimate D2E/DX2                !
 ! A8    A(1,2,19)             107.7216         estimate D2E/DX2                !
 ! A9    A(1,2,20)             107.4777         estimate D2E/DX2                !
 ! A10   A(3,2,19)             110.8294         estimate D2E/DX2                !
 ! A11   A(3,2,20)             110.7308         estimate D2E/DX2                !
 ! A12   A(19,2,20)            109.0609         estimate D2E/DX2                !
 ! A13   A(2,3,4)              115.0159         estimate D2E/DX2                !
 ! A14   A(2,3,21)             105.0238         estimate D2E/DX2                !
 ! A15   A(4,3,21)             109.7352         estimate D2E/DX2                !
 ! A16   A(3,4,5)              120.7804         estimate D2E/DX2                !
 ! A17   A(3,4,22)             108.9897         estimate D2E/DX2                !
 ! A18   A(5,4,22)             130.1299         estimate D2E/DX2                !
 ! A19   A(4,5,6)               99.8446         estimate D2E/DX2                !
 ! A20   A(4,5,13)             113.3943         estimate D2E/DX2                !
 ! A21   A(6,5,12)              78.4595         estimate D2E/DX2                !
 ! A22   A(6,5,13)             146.7464         estimate D2E/DX2                !
 ! A23   A(5,6,7)              116.2013         estimate D2E/DX2                !
 ! A24   A(5,6,23)             130.9529         estimate D2E/DX2                !
 ! A25   A(7,6,23)             112.8441         estimate D2E/DX2                !
 ! A26   A(6,7,8)              131.5334         estimate D2E/DX2                !
 ! A27   A(6,7,11)             157.0613         estimate D2E/DX2                !
 ! A28   A(6,7,12)              78.4944         estimate D2E/DX2                !
 ! A29   A(8,7,12)             149.7067         estimate D2E/DX2                !
 ! A30   A(11,7,12)             78.7448         estimate D2E/DX2                !
 ! A31   A(7,8,10)             127.5042         estimate D2E/DX2                !
 ! A32   A(7,8,25)             129.1512         estimate D2E/DX2                !
 ! A33   A(10,8,25)            103.3365         estimate D2E/DX2                !
 ! A34   A(8,10,9)             104.8586         estimate D2E/DX2                !
 ! A35   A(8,10,26)            110.0353         estimate D2E/DX2                !
 ! A36   A(9,10,26)            145.1052         estimate D2E/DX2                !
 ! A37   A(7,11,9)             152.0689         estimate D2E/DX2                !
 ! A38   A(7,11,10)             99.8208         estimate D2E/DX2                !
 ! A39   A(7,11,24)             83.1695         estimate D2E/DX2                !
 ! A40   A(8,11,9)             104.4832         estimate D2E/DX2                !
 ! A41   A(8,11,24)            130.8763         estimate D2E/DX2                !
 ! A42   A(9,11,24)            123.7547         estimate D2E/DX2                !
 ! A43   A(5,12,7)              86.779          estimate D2E/DX2                !
 ! A44   A(7,12,13)            148.0325         estimate D2E/DX2                !
 ! A45   A(7,12,24)             80.4448         estimate D2E/DX2                !
 ! A46   A(13,12,24)           130.9038         estimate D2E/DX2                !
 ! A47   A(5,13,27)             89.2135         estimate D2E/DX2                !
 ! A48   A(5,13,28)             88.4861         estimate D2E/DX2                !
 ! A49   A(12,13,14)           140.1898         estimate D2E/DX2                !
 ! A50   A(12,13,27)           127.9044         estimate D2E/DX2                !
 ! A51   A(12,13,28)           126.3255         estimate D2E/DX2                !
 ! A52   A(14,13,27)            82.4233         estimate D2E/DX2                !
 ! A53   A(14,13,28)            83.053          estimate D2E/DX2                !
 ! A54   A(27,13,28)            73.5655         estimate D2E/DX2                !
 ! A55   A(13,14,15)           142.3159         estimate D2E/DX2                !
 ! A56   A(13,14,29)           105.1978         estimate D2E/DX2                !
 ! A57   A(15,14,29)           112.4853         estimate D2E/DX2                !
 ! A58   A(3,21,27)            105.8651         estimate D2E/DX2                !
 ! A59   A(11,24,12)           116.513          estimate D2E/DX2                !
 ! A60   A(13,27,21)           133.6216         estimate D2E/DX2                !
 ! A61   L(4,5,12,6,-1)        178.3041         estimate D2E/DX2                !
 ! A62   L(11,8,25,1,-1)       190.1847         estimate D2E/DX2                !
 ! A63   L(11,10,26,25,-1)     171.5575         estimate D2E/DX2                !
 ! A64   L(10,11,24,7,-1)      182.9904         estimate D2E/DX2                !
 ! A65   L(5,12,24,7,-1)       167.2238         estimate D2E/DX2                !
 ! A66   L(5,13,14,27,-1)      171.6368         estimate D2E/DX2                !
 ! A67   L(4,5,12,6,-2)        179.7494         estimate D2E/DX2                !
 ! A68   L(11,8,25,1,-2)       178.0715         estimate D2E/DX2                !
 ! A69   L(11,10,26,25,-2)     178.2802         estimate D2E/DX2                !
 ! A70   L(10,11,24,7,-2)      173.2407         estimate D2E/DX2                !
 ! A71   L(5,12,24,7,-2)       185.4109         estimate D2E/DX2                !
 ! A72   L(5,13,14,27,-2)      186.3938         estimate D2E/DX2                !
 ! D1    D(16,1,2,3)          -179.9552         estimate D2E/DX2                !
 ! D2    D(16,1,2,19)           58.6016         estimate D2E/DX2                !
 ! D3    D(16,1,2,20)          -58.7891         estimate D2E/DX2                !
 ! D4    D(17,1,2,3)            60.278          estimate D2E/DX2                !
 ! D5    D(17,1,2,19)          -61.1652         estimate D2E/DX2                !
 ! D6    D(17,1,2,20)         -178.5559         estimate D2E/DX2                !
 ! D7    D(18,1,2,3)           -60.1597         estimate D2E/DX2                !
 ! D8    D(18,1,2,19)          178.397          estimate D2E/DX2                !
 ! D9    D(18,1,2,20)           61.0064         estimate D2E/DX2                !
 ! D10   D(1,2,3,4)            179.0103         estimate D2E/DX2                !
 ! D11   D(1,2,3,21)            58.2757         estimate D2E/DX2                !
 ! D12   D(19,2,3,4)           -61.3902         estimate D2E/DX2                !
 ! D13   D(19,2,3,21)          177.8752         estimate D2E/DX2                !
 ! D14   D(20,2,3,4)            59.7807         estimate D2E/DX2                !
 ! D15   D(20,2,3,21)          -60.9539         estimate D2E/DX2                !
 ! D16   D(2,3,4,5)            178.7955         estimate D2E/DX2                !
 ! D17   D(2,3,4,22)             2.0792         estimate D2E/DX2                !
 ! D18   D(21,3,4,5)           -63.085          estimate D2E/DX2                !
 ! D19   D(21,3,4,22)          120.1987         estimate D2E/DX2                !
 ! D20   D(2,3,21,27)         -176.6138         estimate D2E/DX2                !
 ! D21   D(4,3,21,27)           59.2306         estimate D2E/DX2                !
 ! D22   D(3,4,5,6)           -179.0889         estimate D2E/DX2                !
 ! D23   D(3,4,5,13)             1.9203         estimate D2E/DX2                !
 ! D24   D(22,4,5,6)            -3.1511         estimate D2E/DX2                !
 ! D25   D(22,4,5,13)          177.8581         estimate D2E/DX2                !
 ! D26   D(3,4,12,7)           179.2481         estimate D2E/DX2                !
 ! D27   D(22,4,12,7)           -4.9668         estimate D2E/DX2                !
 ! D28   D(3,4,24,11)         -173.9808         estimate D2E/DX2                !
 ! D29   D(22,4,24,11)           4.129          estimate D2E/DX2                !
 ! D30   D(4,5,6,7)           -177.9675         estimate D2E/DX2                !
 ! D31   D(4,5,6,23)             1.5256         estimate D2E/DX2                !
 ! D32   D(12,5,6,7)             2.283          estimate D2E/DX2                !
 ! D33   D(12,5,6,23)         -178.2239         estimate D2E/DX2                !
 ! D34   D(13,5,6,7)             0.3432         estimate D2E/DX2                !
 ! D35   D(13,5,6,23)          179.8363         estimate D2E/DX2                !
 ! D36   D(6,5,12,7)            -1.6946         estimate D2E/DX2                !
 ! D37   D(4,5,13,27)           36.1694         estimate D2E/DX2                !
 ! D38   D(4,5,13,28)          -37.4103         estimate D2E/DX2                !
 ! D39   D(6,5,13,27)         -142.0171         estimate D2E/DX2                !
 ! D40   D(6,5,13,28)          144.4033         estimate D2E/DX2                !
 ! D41   D(4,5,14,15)           -0.7883         estimate D2E/DX2                !
 ! D42   D(4,5,14,29)          178.7954         estimate D2E/DX2                !
 ! D43   D(6,5,14,15)         -178.888          estimate D2E/DX2                !
 ! D44   D(6,5,14,29)            0.6957         estimate D2E/DX2                !
 ! D45   D(6,5,24,11)            5.8273         estimate D2E/DX2                !
 ! D46   D(5,6,7,8)           -177.7528         estimate D2E/DX2                !
 ! D47   D(5,6,7,11)            -9.5584         estimate D2E/DX2                !
 ! D48   D(5,6,7,12)            -2.3189         estimate D2E/DX2                !
 ! D49   D(23,6,7,8)             2.6626         estimate D2E/DX2                !
 ! D50   D(23,6,7,11)          170.857          estimate D2E/DX2                !
 ! D51   D(23,6,7,12)          178.0965         estimate D2E/DX2                !
 ! D52   D(6,7,8,10)           178.3262         estimate D2E/DX2                !
 ! D53   D(6,7,8,25)            -2.8857         estimate D2E/DX2                !
 ! D54   D(12,7,8,10)            7.2227         estimate D2E/DX2                !
 ! D55   D(12,7,8,25)         -173.9892         estimate D2E/DX2                !
 ! D56   D(6,7,11,9)           179.5354         estimate D2E/DX2                !
 ! D57   D(6,7,11,10)         -172.8673         estimate D2E/DX2                !
 ! D58   D(6,7,11,24)           13.8921         estimate D2E/DX2                !
 ! D59   D(12,7,11,9)          172.3023         estimate D2E/DX2                !
 ! D60   D(12,7,11,10)         179.8996         estimate D2E/DX2                !
 ! D61   D(12,7,11,24)           6.6589         estimate D2E/DX2                !
 ! D62   D(6,7,12,5)             1.6513         estimate D2E/DX2                !
 ! D63   D(6,7,12,13)            6.3618         estimate D2E/DX2                !
 ! D64   D(6,7,12,24)          176.2404         estimate D2E/DX2                !
 ! D65   D(8,7,12,5)           174.8666         estimate D2E/DX2                !
 ! D66   D(8,7,12,13)          179.577          estimate D2E/DX2                !
 ! D67   D(8,7,12,24)          -10.5443         estimate D2E/DX2                !
 ! D68   D(11,7,12,5)          178.7809         estimate D2E/DX2                !
 ! D69   D(11,7,12,13)        -176.5087         estimate D2E/DX2                !
 ! D70   D(11,7,12,24)          -6.6301         estimate D2E/DX2                !
 ! D71   D(7,8,10,9)            -1.3042         estimate D2E/DX2                !
 ! D72   D(7,8,10,26)          178.944          estimate D2E/DX2                !
 ! D73   D(25,8,10,9)          179.6616         estimate D2E/DX2                !
 ! D74   D(25,8,10,26)          -0.0902         estimate D2E/DX2                !
 ! D75   D(7,11,24,12)          -9.9188         estimate D2E/DX2                !
 ! D76   D(8,11,24,12)         -14.4042         estimate D2E/DX2                !
 ! D77   D(9,11,24,12)         178.1114         estimate D2E/DX2                !
 ! D78   D(7,12,13,14)         175.0038         estimate D2E/DX2                !
 ! D79   D(7,12,13,27)          42.6918         estimate D2E/DX2                !
 ! D80   D(7,12,13,28)         -54.6288         estimate D2E/DX2                !
 ! D81   D(24,12,13,14)          8.2588         estimate D2E/DX2                !
 ! D82   D(24,12,13,27)       -124.0532         estimate D2E/DX2                !
 ! D83   D(24,12,13,28)        138.6261         estimate D2E/DX2                !
 ! D84   D(7,12,24,11)           9.6537         estimate D2E/DX2                !
 ! D85   D(13,12,24,11)       -177.4173         estimate D2E/DX2                !
 ! D86   D(12,13,14,15)        178.7145         estimate D2E/DX2                !
 ! D87   D(12,13,14,29)         -1.7226         estimate D2E/DX2                !
 ! D88   D(27,13,14,15)        -37.3449         estimate D2E/DX2                !
 ! D89   D(27,13,14,29)        142.218          estimate D2E/DX2                !
 ! D90   D(28,13,14,15)         36.9125         estimate D2E/DX2                !
 ! D91   D(28,13,14,29)       -143.5245         estimate D2E/DX2                !
 ! D92   D(5,13,27,21)         -43.3398         estimate D2E/DX2                !
 ! D93   D(12,13,27,21)        -78.264          estimate D2E/DX2                !
 ! D94   D(14,13,27,21)        130.2664         estimate D2E/DX2                !
 ! D95   D(28,13,27,21)         45.3137         estimate D2E/DX2                !
 ! D96   D(3,21,27,13)          -4.3046         estimate D2E/DX2                !
 --------------------------------------------------------------------------------
 Trust Radius=3.00D-01 FncErr=1.00D-07 GrdErr=1.00D-06 EigMax=2.50D+02 EigMin=1.00D-04
 Number of steps in this run=    174 maximum allowed number of steps=    174.
 GradGradGradGradGradGradGradGradGradGradGradGradGradGradGradGradGradGrad

                          Input orientation:                          
 ---------------------------------------------------------------------
 Center     Atomic      Atomic             Coordinates (Angstroms)
 Number     Number       Type             X           Y           Z
 ---------------------------------------------------------------------
      1          6           0        1.085930    0.074100    0.022840
      2          6           0        2.619210    0.076950    0.007440
      3          7           0        3.136180    0.596850   -1.287370
      4          7           0        4.693350    0.664290   -1.397900
      5          6           0        5.372420    1.156760   -2.692880
      6          6           0        6.666120    1.024800   -2.339200
      7          6           0        7.599440    1.428890   -3.276030
      8          6           0        8.970680    1.398030   -3.265610
      9         16           0        9.072990    2.285660   -5.489300
     10          6           0        9.943800    1.853280   -4.406160
     11          6           0        8.147790    1.925210   -4.715690
     12          6           0        6.165680    1.684660   -4.101270
     13          6           0        4.113360    1.707240   -4.061170
     14          6           0        2.767110    2.114220   -5.072380
     15         16           0        1.024350    2.133970   -5.107480
     16          1           0        0.702240   -0.308420    0.977670
     17          1           0        0.692790   -0.561590   -0.775590
     18          1           0        0.692670    1.085930   -0.114090
     19          1           0        2.954800   -0.946980    0.175960
     20          1           0        2.954840    0.704050    0.838090
     21          1           0        2.742010    1.539440   -1.371660
     22          1           0        5.105780    0.291620   -0.535330
     23          1           0        7.105030    0.667180   -1.454150
     24          1           0        6.963240    2.128000   -4.933650
     25          1           0        9.640650    1.077400   -2.479180
     26          1           0       11.240210    1.688600   -4.008680
     27          1           0        3.310670    2.197810   -3.099020
     28          1           0        3.309430    0.691390   -3.679540
     29          1           0        3.185960    2.471350   -5.952400
 ---------------------------------------------------------------------
                    Distance matrix (angstroms):
                    1          2          3          4          5
     1  C    0.000000
     2  C    1.533360   0.000000
     3  N    2.488663   1.487981   0.000000
     4  N    3.921773   2.573326   1.562544   0.000000
     5  C    5.188572   4.004733   2.699949   1.542931   0.000000
     6  C    6.133644   4.773114   3.708094   2.215363   1.347651
     7  C    7.425888   6.116503   4.956586   3.543634   2.318132
     8  C    8.644997   7.266311   6.212625   4.724645   3.651535
     9  S    9.953281   8.760355   7.466861   6.208836   4.773740
    10  C   10.061977   8.734119   7.592704   6.166891   4.931327
    11  C    8.703456   7.502614   6.215638   4.952858   3.519226
    12  C    6.738401   5.660714   4.275422   3.243011   1.700442
    13  C    5.339627   4.630758   3.143535   2.918414   1.939195
    14  C    5.740185   5.475118   4.094499   4.394827   3.656007
    15  S    5.528747   5.739104   4.627721   5.420563   5.068624
    16  H    1.097834   2.182803   3.445865   4.745362   6.118028
    17  H    1.093687   2.175308   2.752100   4.230193   5.341130
    18  H    1.094168   2.178157   2.754365   4.222723   5.343710
    19  H    2.135117   1.090620   2.134864   2.845309   4.301262
    20  H    2.134079   1.093564   2.135874   2.832605   4.303184
    21  H    2.614279   2.013920   1.025159   2.138762   2.968354
    22  H    4.064242   2.554156   2.130271   1.026162   2.339783
    23  H    6.225978   4.754703   3.972975   2.412338   2.185424
    24  H    7.957894   6.891428   5.503287   4.449312   2.914630
    25  H    8.969390   7.515637   6.630194   5.080906   4.274313
    26  H   11.043965   9.646153   8.618164   7.122272   6.036981
    27  H    4.382422   3.824429   2.423963   2.675312   2.345111
    28  H    4.362639   3.801021   2.400298   2.668679   2.333666
    29  H    6.772033   6.447794   5.027796   5.126515   4.139230
                    6          7          8          9         10
     6  C    0.000000
     7  C    1.382760   0.000000
     8  C    2.511679   1.371627   0.000000
     9  S    4.160039   2.793558   2.396487   0.000000
    10  C    3.962561   2.636916   1.566866   1.455491   0.000000
    11  C    2.941732   1.618531   1.748656   1.258726   1.823906
    12  C    1.946984   1.673950   2.940835   3.277237   3.794151
    13  C    3.153964   3.584226   4.931743   5.193463   5.842463
    14  C    4.884607   5.200766   6.500894   6.321973   7.212269
    15  S    6.381473   6.861717   8.190131   8.059119   8.951381
    16  H    6.953198   8.287556   9.449047  10.891300  10.911691
    17  H    6.375122   7.610258   8.863621  10.027644  10.227112
    18  H    6.374712   7.603878   8.863122  10.028061  10.227126
    19  H    4.897738   6.255691   7.316713   8.943007   8.813819
    20  H    4.896085   6.246894   7.315210   8.942545   8.812971
    21  H    4.074264   5.218570   6.511787   7.589013   7.821283
    22  H    2.495228   3.875972   4.859632   6.652576   6.389722
    23  H    1.050641   2.035655   2.701144   4.772293   4.263779
    24  H    2.834872   1.908195   2.710171   2.187384   3.039318
    25  H    2.978286   2.219246   1.081728   3.292864   2.099319
    26  H    4.914274   3.722826   2.405691   2.691758   1.365939
    27  H    3.634876   4.360747   5.718664   6.239029   6.769470
    28  H    3.629744   4.371603   5.720177   6.247844   6.774425
    29  H    5.221038   5.265784   6.467909   5.908135   6.959976
                   11         12         13         14         15
    11  C    0.000000
    12  C    2.089052   0.000000
    13  C    4.092986   2.052836   0.000000
    14  C    5.395801   3.560597   1.732215   0.000000
    15  S    7.137260   5.258100   3.289201   1.743225   0.000000
    16  H    9.635334   7.721216   6.410034   6.836372   6.564912
    17  H    8.791222   6.786627   5.257654   5.470390   5.112851
    18  H    8.801019   6.797788   5.259904   5.472232   5.112958
    19  H    7.690570   5.960703   5.132291   6.078754   6.413550
    20  H    7.700807   5.972300   5.133352   6.079266   6.412586
    21  H    6.368188   4.381025   3.023611   3.745174   4.154536
    22  H    5.421979   3.972389   3.926885   5.419970   6.399756
    23  H    3.647963   2.987455   4.102239   5.831215   7.243822
    24  H    1.221388   1.235115   3.009996   4.198445   5.941436
    25  H    2.819466   3.882700   5.783626   7.419248   9.070001
    26  H    3.181023   5.075376   7.127068   8.550207  10.284431
    27  H    5.107413   3.069024   1.345624   2.048559   3.043887
    28  H    5.099573   3.053294   1.350517   2.063628   3.056410
    29  H    5.142711   3.595038   2.240689   1.037985   2.345266
                   16         17         18         19         20
    16  H    0.000000
    17  H    1.771470   0.000000
    18  H    1.770944   1.775360   0.000000
    19  H    2.474778   2.484082   3.055173   0.000000
    20  H    2.473618   3.053306   2.483927   1.778852   0.000000
    21  H    3.618646   2.994817   2.446824   2.936442   2.371954
    22  H    4.694718   4.501130   4.503766   2.582011   2.585135
    23  H    6.918184   6.564080   6.564257   4.742065   4.741287
    24  H    8.948741   7.990113   7.977100   7.185486   7.169929
    25  H    9.683258   9.254875   9.255273   7.473184   7.472866
    26  H   11.827958  11.258965  11.259735   9.649120   9.649242
    27  H    5.450183   4.457119   4.123107   4.554321   4.225964
    28  H    5.430162   4.104837   4.440217   4.204153   4.531542
    29  H    7.869044   6.497229   6.497826   7.021055   7.020507
                   21         22         23         24         25
    21  H    0.000000
    22  H    2.800698   0.000000
    23  H    4.450122   2.232101   0.000000
    24  H    5.554544   5.115434   3.776377   0.000000
    25  H    7.002236   4.996103   2.765562   3.781099   0.000000
    26  H    8.899187   7.186581   4.966753   4.397853   2.295981
    27  H    1.934063   3.664490   4.409716   4.088032   6.458186
    28  H    2.523384   3.643178   4.399946   4.121525   6.455557
    29  H    4.695607   6.146672   6.232848   3.927287   7.461191
                   26         27         28         29
    26  H    0.000000
    27  H    7.997773   0.000000
    28  H    8.000002   1.614406   0.000000
    29  H    8.322361   2.869173   2.889532   0.000000
 Stoichiometry    C11H14N2S2
 Framework group  C1[X(C11H14N2S2)]
 Deg. of freedom    81
 Full point group                 C1      NOp   1
 Largest Abelian subgroup         C1      NOp   1
 Largest concise Abelian subgroup C1      NOp   1
                         Standard orientation:                         
 ---------------------------------------------------------------------
 Center     Atomic      Atomic             Coordinates (Angstroms)
 Number     Number       Type             X           Y           Z
 ---------------------------------------------------------------------
      1          6           0       -5.114121   -1.977486   -0.022225
      2          6           0       -3.667442   -2.485730   -0.023380
      3          7           0       -2.705801   -1.350257   -0.017642
      4          7           0       -1.198424   -1.761102    0.006136
      5          6           0       -0.087762   -0.690270   -0.013481
      6          6           0        0.999779   -1.486087   -0.003945
      7          6           0        2.224816   -0.845492    0.026849
      8          6           0        3.506763   -1.332765    0.003700
      9         16           0        4.419144    0.883244    0.007722
     10          6           0        4.840227   -0.510005    0.006872
     11          6           0        3.258966    0.397621   -0.042769
     12          6           0        1.170649    0.453013   -0.041903
     13          6           0       -0.768642    1.125455   -0.008633
     14          6           0       -1.662675    2.609120   -0.005415
     15         16           0       -3.287445    3.240741   -0.002159
     16          1           0       -5.825468   -2.813676   -0.025653
     17          1           0       -5.309750   -1.366914   -0.908274
     18          1           0       -5.314119   -1.372216    0.867073
     19          1           0       -3.533191   -3.103140   -0.912331
     20          1           0       -3.537171   -3.107827    0.866511
     21          1           0       -2.931995   -0.814718    0.826744
     22          1           0       -1.130841   -2.784670   -0.021223
     23          1           0        1.087003   -2.533090   -0.008985
     24          1           0        2.239820    1.062288    0.063765
     25          1           0        3.847108   -2.359534   -0.003092
     26          1           0        5.912338   -1.356376    0.002174
     27          1           0       -1.767260    0.729094    0.801528
     28          1           0       -1.772252    0.713152   -0.812791
     29          1           0       -0.945174    3.359153    0.002081
 ---------------------------------------------------------------------
 Rotational constants (GHZ):           0.6414355           0.2065698           0.1567607
 Standard basis: 6-31G(2df,p) (6D, 7F)
 There are   543 symmetry adapted cartesian basis functions of A   symmetry.
 There are   498 symmetry adapted basis functions of A   symmetry.
   498 basis functions,   806 primitive gaussians,   543 cartesian basis functions
    63 alpha electrons       63 beta electrons
       nuclear repulsion energy      1093.3554217058 Hartrees.
 NAtoms=   29 NActive=   29 NUniq=   29 SFac= 1.00D+00 NAtFMM=   60 NAOKFM=F Big=F
 Integral buffers will be    131072 words long.
 Raffenetti 2 integral format.
 Two-electron integral symmetry is turned on.
 One-electron integrals computed using PRISM.
 PrsmSu:  requested number of processors reduced to:  12 ShMem   1 Linda.
 NBasis=   498 RedAO= T EigKep=  1.86D-04  NBF=   498
 NBsUse=   498 1.00D-06 EigRej= -1.00D+00 NBFU=   498
 ExpMin= 1.17D-01 ExpMax= 2.19D+04 ExpMxC= 3.30D+03 IAcc=3 IRadAn=         5 AccDes= 0.00D+00
 Harris functional with IExCor=  402 and IRadAn=       5 diagonalized for initial guess.
 HarFok:  IExCor=  402 AccDes= 0.00D+00 IRadAn=         5 IDoV= 1 UseB2=F ITyADJ=14
 ICtDFT=  3500011 ScaDFX=  1.000000  1.000000  1.000000  1.000000
 FoFCou: FMM=F IPFlag=           0 FMFlag=      100000 FMFlg1=           0
         NFxFlg=           0 DoJE=T BraDBF=F KetDBF=T FulRan=T
         wScrn=  0.000000 ICntrl=       500 IOpCl=  0 I1Cent=   200000004 NGrid=           0
         NMat0=    1 NMatS0=      1 NMatT0=    0 NMatD0=    1 NMtDS0=    0 NMtDT0=    0
 Petite list used in FoFCou.
 Requested convergence on RMS density matrix=1.00D-08 within 128 cycles.
 Requested convergence on MAX density matrix=1.00D-06.
 Requested convergence on             energy=1.00D-06.
 No special actions if energy rises.
 Integral accuracy reduced to 1.0D-05 until final iterations.
 EnCoef did     2 forward-backward iterations
 EnCoef did     2 forward-backward iterations
 EnCoef did     4 forward-backward iterations
 EnCoef did     2 forward-backward iterations
 Problem detected with inexpensive integrals.
 Switching to full accuracy and repeating last cycle.
 SCF Done:  E(RB3LYP) =  -1332.22273659     A.U. after   34 cycles
            NFock= 34  Conv=0.35D-08     -V/T= 2.0031

 **********************************************************************

            Population analysis using the SCF density.

 **********************************************************************

 Orbital symmetries:
       Occupied  (A) (A) (A) (A) (A) (A) (A) (A) (A) (A) (A) (A)
                 (A) (A) (A) (A) (A) (A) (A) (A) (A) (A) (A) (A)
                 (A) (A) (A) (A) (A) (A) (A) (A) (A) (A) (A) (A)
                 (A) (A) (A) (A) (A) (A) (A) (A) (A) (A) (A) (A)
                 (A) (A) (A) (A) (A) (A) (A) (A) (A) (A) (A) (A)
                 (A) (A) (A)
       Virtual   (A) (A) (A) (A) (A) (A) (A) (A) (A) (A) (A) (A)
                 (A) (A) (A) (A) (A) (A) (A) (A) (A) (A) (A) (A)
                 (A) (A) (A) (A) (A) (A) (A) (A) (A) (A) (A) (A)
                 (A) (A) (A) (A) (A) (A) (A) (A) (A) (A) (A) (A)
                 (A) (A) (A) (A) (A) (A) (A) (A) (A) (A) (A) (A)
                 (A) (A) (A) (A) (A) (A) (A) (A) (A) (A) (A) (A)
                 (A) (A) (A) (A) (A) (A) (A) (A) (A) (A) (A) (A)
                 (A) (A) (A) (A) (A) (A) (A) (A) (A) (A) (A) (A)
                 (A) (A) (A) (A) (A) (A) (A) (A) (A) (A) (A) (A)
                 (A) (A) (A) (A) (A) (A) (A) (A) (A) (A) (A) (A)
                 (A) (A) (A) (A) (A) (A) (A) (A) (A) (A) (A) (A)
                 (A) (A) (A) (A) (A) (A) (A) (A) (A) (A) (A) (A)
                 (A) (A) (A) (A) (A) (A) (A) (A) (A) (A) (A) (A)
                 (A) (A) (A) (A) (A) (A) (A) (A) (A) (A) (A) (A)
                 (A) (A) (A) (A) (A) (A) (A) (A) (A) (A) (A) (A)
                 (A) (A) (A) (A) (A) (A) (A) (A) (A) (A) (A) (A)
                 (A) (A) (A) (A) (A) (A) (A) (A) (A) (A) (A) (A)
                 (A) (A) (A) (A) (A) (A) (A) (A) (A) (A) (A) (A)
                 (A) (A) (A) (A) (A) (A) (A) (A) (A) (A) (A) (A)
                 (A) (A) (A) (A) (A) (A) (A) (A) (A) (A) (A) (A)
                 (A) (A) (A) (A) (A) (A) (A) (A) (A) (A) (A) (A)
                 (A) (A) (A) (A) (A) (A) (A) (A) (A) (A) (A) (A)
                 (A) (A) (A) (A) (A) (A) (A) (A) (A) (A) (A) (A)
                 (A) (A) (A) (A) (A) (A) (A) (A) (A) (A) (A) (A)
                 (A) (A) (A) (A) (A) (A) (A) (A) (A) (A) (A) (A)
                 (A) (A) (A) (A) (A) (A) (A) (A) (A) (A) (A) (A)
                 (A) (A) (A) (A) (A) (A) (A) (A) (A) (A) (A) (A)
                 (A) (A) (A) (A) (A) (A) (A) (A) (A) (A) (A) (A)
                 (A) (A) (A) (A) (A) (A) (A) (A) (A) (A) (A) (A)
                 (A) (A) (A) (A) (A) (A) (A) (A) (A) (A) (A) (A)
                 (A) (A) (A) (A) (A) (A) (A) (A) (A) (A) (A) (A)
                 (A) (A) (A) (A) (A) (A) (A) (A) (A) (A) (A) (A)
                 (A) (A) (A) (A) (A) (A) (A) (A) (A) (A) (A) (A)
                 (A) (A) (A) (A) (A) (A) (A) (A) (A) (A) (A) (A)
                 (A) (A) (A) (A) (A) (A) (A) (A) (A) (A) (A) (A)
                 (A) (A) (A) (A) (A) (A) (A) (A) (A) (A) (A) (A)
                 (A) (A) (A)
 The electronic state is 1-A.
 Alpha  occ. eigenvalues --  -88.92701 -88.82735 -14.39606 -14.36459 -10.30091
 Alpha  occ. eigenvalues --  -10.27593 -10.25241 -10.23006 -10.22909 -10.22692
 Alpha  occ. eigenvalues --  -10.22660 -10.22647 -10.21677 -10.20907 -10.18846
 Alpha  occ. eigenvalues --   -8.01371  -7.88978  -5.97501  -5.97148  -5.97081
 Alpha  occ. eigenvalues --   -5.85333  -5.85202  -5.84553  -1.04262  -0.94893
 Alpha  occ. eigenvalues --   -0.91208  -0.83775  -0.79100  -0.74791  -0.72933
 Alpha  occ. eigenvalues --   -0.72384  -0.68095  -0.64394  -0.62207  -0.61478
 Alpha  occ. eigenvalues --   -0.56935  -0.55698  -0.54859  -0.52250  -0.50433
 Alpha  occ. eigenvalues --   -0.49405  -0.48585  -0.46746  -0.44301  -0.43663
 Alpha  occ. eigenvalues --   -0.41479  -0.40722  -0.38209  -0.37801  -0.36659
 Alpha  occ. eigenvalues --   -0.36362  -0.35066  -0.33116  -0.32685  -0.30574
 Alpha  occ. eigenvalues --   -0.28613  -0.26854  -0.24223  -0.23054  -0.22849
 Alpha  occ. eigenvalues --   -0.20569  -0.19738  -0.16254
 Alpha virt. eigenvalues --   -0.13205  -0.06641  -0.05908  -0.03924  -0.03106
 Alpha virt. eigenvalues --   -0.00519   0.04177   0.04692   0.05507   0.07100
 Alpha virt. eigenvalues --    0.08235   0.08849   0.09734   0.10344   0.10958
 Alpha virt. eigenvalues --    0.11230   0.13238   0.14512   0.14828   0.15027
 Alpha virt. eigenvalues --    0.16264   0.16933   0.17749   0.18329   0.19395
 Alpha virt. eigenvalues --    0.19917   0.20280   0.21267   0.22629   0.23772
 Alpha virt. eigenvalues --    0.24076   0.26542   0.27004   0.29897   0.34603
 Alpha virt. eigenvalues --    0.35237   0.36355   0.38278   0.39691   0.39981
 Alpha virt. eigenvalues --    0.40758   0.41355   0.42825   0.43686   0.44362
 Alpha virt. eigenvalues --    0.44889   0.45356   0.45716   0.46873   0.47471
 Alpha virt. eigenvalues --    0.47977   0.49261   0.49738   0.50588   0.50791
 Alpha virt. eigenvalues --    0.50944   0.51744   0.51957   0.53465   0.53876
 Alpha virt. eigenvalues --    0.54409   0.55872   0.56779   0.58488   0.58983
 Alpha virt. eigenvalues --    0.59239   0.60747   0.61855   0.62498   0.62886
 Alpha virt. eigenvalues --    0.63907   0.65026   0.65776   0.67541   0.68946
 Alpha virt. eigenvalues --    0.69192   0.69521   0.70090   0.71276   0.72107
 Alpha virt. eigenvalues --    0.73113   0.73186   0.73562   0.73891   0.75326
 Alpha virt. eigenvalues --    0.75806   0.76592   0.77015   0.77600   0.78412
 Alpha virt. eigenvalues --    0.78932   0.79877   0.80706   0.80868   0.80955
 Alpha virt. eigenvalues --    0.82204   0.83288   0.84597   0.85259   0.86736
 Alpha virt. eigenvalues --    0.87225   0.88601   0.89592   0.90105   0.91917
 Alpha virt. eigenvalues --    0.93421   0.93563   0.94565   0.95817   0.98167
 Alpha virt. eigenvalues --    0.99762   1.01278   1.02564   1.03291   1.05563
 Alpha virt. eigenvalues --    1.06535   1.07621   1.09942   1.10376   1.11669
 Alpha virt. eigenvalues --    1.12992   1.15597   1.17596   1.18148   1.19700
 Alpha virt. eigenvalues --    1.19839   1.20598   1.20802   1.22825   1.23881
 Alpha virt. eigenvalues --    1.24441   1.26071   1.26676   1.27581   1.28130
 Alpha virt. eigenvalues --    1.28349   1.31746   1.32338   1.34792   1.36727
 Alpha virt. eigenvalues --    1.38554   1.39717   1.42482   1.42827   1.43769
 Alpha virt. eigenvalues --    1.45106   1.46579   1.48217   1.49980   1.50976
 Alpha virt. eigenvalues --    1.53476   1.54622   1.55348   1.56882   1.57506
 Alpha virt. eigenvalues --    1.58671   1.60185   1.60813   1.62614   1.63269
 Alpha virt. eigenvalues --    1.64124   1.65908   1.66213   1.66793   1.69033
 Alpha virt. eigenvalues --    1.69788   1.70119   1.70522   1.71016   1.71925
 Alpha virt. eigenvalues --    1.73054   1.73348   1.74967   1.78426   1.80974
 Alpha virt. eigenvalues --    1.83621   1.84069   1.86662   1.87241   1.87636
 Alpha virt. eigenvalues --    1.89338   1.89832   1.92678   1.94308   1.94728
 Alpha virt. eigenvalues --    1.95812   1.97100   1.99723   2.02229   2.03156
 Alpha virt. eigenvalues --    2.03908   2.06461   2.07131   2.08818   2.10062
 Alpha virt. eigenvalues --    2.10349   2.12572   2.16761   2.17014   2.17742
 Alpha virt. eigenvalues --    2.18902   2.19626   2.20459   2.22170   2.24310
 Alpha virt. eigenvalues --    2.25155   2.25480   2.26905   2.28471   2.30350
 Alpha virt. eigenvalues --    2.31908   2.32802   2.34448   2.35933   2.36691
 Alpha virt. eigenvalues --    2.37249   2.39430   2.41261   2.42527   2.44141
 Alpha virt. eigenvalues --    2.44564   2.47495   2.49856   2.50626   2.51304
 Alpha virt. eigenvalues --    2.52440   2.54605   2.55452   2.56678   2.58855
 Alpha virt. eigenvalues --    2.60288   2.62616   2.65167   2.65514   2.68550
 Alpha virt. eigenvalues --    2.69297   2.70211   2.72086   2.73910   2.74974
 Alpha virt. eigenvalues --    2.76547   2.77504   2.78721   2.79754   2.81836
 Alpha virt. eigenvalues --    2.83047   2.83843   2.85077   2.86426   2.87022
 Alpha virt. eigenvalues --    2.89803   2.90666   2.91400   2.92241   2.94081
 Alpha virt. eigenvalues --    2.96398   2.97545   2.97945   2.98997   2.99144
 Alpha virt. eigenvalues --    3.01128   3.01950   3.03368   3.04583   3.06010
 Alpha virt. eigenvalues --    3.07998   3.08724   3.09707   3.11497   3.13752
 Alpha virt. eigenvalues --    3.14752   3.18418   3.19418   3.20690   3.21837
 Alpha virt. eigenvalues --    3.22723   3.24992   3.26690   3.27853   3.28293
 Alpha virt. eigenvalues --    3.30057   3.31033   3.32596   3.34166   3.35757
 Alpha virt. eigenvalues --    3.35956   3.37426   3.38569   3.39722   3.41684
 Alpha virt. eigenvalues --    3.42458   3.44995   3.46442   3.47932   3.48577
 Alpha virt. eigenvalues --    3.50474   3.52011   3.52573   3.53407   3.55355
 Alpha virt. eigenvalues --    3.56404   3.59203   3.59836   3.61398   3.61605
 Alpha virt. eigenvalues --    3.62642   3.63464   3.65177   3.67402   3.69986
 Alpha virt. eigenvalues --    3.72327   3.73614   3.75618   3.75861   3.78160
 Alpha virt. eigenvalues --    3.79262   3.81436   3.81960   3.83753   3.85593
 Alpha virt. eigenvalues --    3.89381   3.91271   3.91323   3.92632   3.95960
 Alpha virt. eigenvalues --    3.99902   4.01991   4.03836   4.07016   4.08831
 Alpha virt. eigenvalues --    4.09279   4.11881   4.13908   4.15628   4.17152
 Alpha virt. eigenvalues --    4.21158   4.24345   4.25334   4.26947   4.28981
 Alpha virt. eigenvalues --    4.31202   4.31808   4.32203   4.33378   4.34508
 Alpha virt. eigenvalues --    4.36495   4.38196   4.39516   4.40198   4.41607
 Alpha virt. eigenvalues --    4.42405   4.43149   4.44128   4.45301   4.46740
 Alpha virt. eigenvalues --    4.47864   4.49704   4.50508   4.50777   4.52652
 Alpha virt. eigenvalues --    4.53465   4.54783   4.55491   4.57292   4.58025
 Alpha virt. eigenvalues --    4.59553   4.60167   4.61035   4.62778   4.65601
 Alpha virt. eigenvalues --    4.66451   4.68227   4.68612   4.68828   4.70661
 Alpha virt. eigenvalues --    4.71373   4.72224   4.74117   4.76367   4.77766
 Alpha virt. eigenvalues --    4.78134   4.78877   4.80092   4.80671   4.82060
 Alpha virt. eigenvalues --    4.82690   4.85239   4.86739   4.87516   4.88735
 Alpha virt. eigenvalues --    4.89654   4.92483   4.94929   4.97446   5.00429
 Alpha virt. eigenvalues --    5.02646   5.04857   5.06795   5.11105   5.14096
 Alpha virt. eigenvalues --    5.16796   5.18190   5.24422   5.26764   5.28797
 Alpha virt. eigenvalues --    5.34700   5.36402   5.40925   5.44172   5.45832
 Alpha virt. eigenvalues --    5.49131   5.53487   5.57982   5.65555   5.68340
 Alpha virt. eigenvalues --    5.73016   5.78381   6.02607   6.11306   6.24953
 Alpha virt. eigenvalues --    9.24646  10.04612  10.47305  10.61708  10.94345
 Alpha virt. eigenvalues --   10.99727  11.18562  11.39105  11.44460  11.50021
 Alpha virt. eigenvalues --   11.61258  11.92661  12.02137  12.35693  17.14466
          Condensed to atoms (all electrons):
               1          2          3          4          5          6
     1  C    4.938650   0.414713  -0.035281   0.001778  -0.000068   0.000002
     2  C    0.414713   4.792516   0.342916  -0.034691   0.002155  -0.000074
     3  N   -0.035281   0.342916   6.530071   0.250192  -0.031434   0.000726
     4  N    0.001778  -0.034691   0.250192   6.640553   0.313068  -0.036677
     5  C   -0.000068   0.002155  -0.031434   0.313068   5.065809   0.360254
     6  C    0.000002  -0.000074   0.000726  -0.036677   0.360254   5.298821
     7  C   -0.000000  -0.000001   0.000018   0.002303  -0.064577   0.494912
     8  C   -0.000000   0.000000   0.000000  -0.000053   0.017283  -0.107017
     9  S   -0.000000  -0.000000  -0.000000  -0.000001   0.000521  -0.001117
    10  C   -0.000000   0.000000  -0.000000   0.000000  -0.000111   0.007773
    11  C    0.000000  -0.000000  -0.000000  -0.000061   0.000892  -0.005781
    12  C   -0.000000  -0.000007  -0.000050  -0.009059   0.149226  -0.184450
    13  C   -0.000001   0.000579  -0.010061  -0.019998   0.044736   0.021953
    14  C   -0.000003  -0.000014  -0.000680   0.001120   0.001295  -0.001005
    15  S    0.000001  -0.000048   0.000077  -0.000040  -0.000133   0.000011
    16  H    0.372166  -0.020740   0.002697  -0.000057   0.000001  -0.000000
    17  H    0.380149  -0.027934   0.003497   0.000044  -0.000001   0.000000
    18  H    0.382090  -0.029711  -0.003725   0.000036  -0.000002  -0.000000
    19  H   -0.027264   0.367694  -0.028329   0.000083   0.000075  -0.000038
    20  H   -0.040483   0.353869  -0.034637   0.001596   0.000020   0.000029
    21  H    0.000176  -0.038483   0.312914  -0.035723  -0.000020  -0.000059
    22  H   -0.000343  -0.000517  -0.037302   0.341418  -0.033558  -0.001233
    23  H   -0.000000  -0.000040  -0.000294  -0.004739  -0.046675   0.261948
    24  H    0.000000   0.000000   0.000001  -0.000308   0.008963   0.019480
    25  H    0.000000  -0.000000   0.000000   0.000002  -0.000361  -0.012135
    26  H   -0.000000   0.000000   0.000000   0.000000  -0.000003  -0.000208
    27  H    0.000011   0.000414  -0.001368  -0.007645  -0.005487   0.001031
    28  H    0.000016   0.000120   0.017835  -0.008013  -0.008108   0.000851
    29  H    0.000000   0.000000  -0.000005  -0.000023   0.000082   0.000064
               7          8          9         10         11         12
     1  C   -0.000000  -0.000000  -0.000000  -0.000000   0.000000  -0.000000
     2  C   -0.000001   0.000000  -0.000000   0.000000  -0.000000  -0.000007
     3  N    0.000018   0.000000  -0.000000  -0.000000  -0.000000  -0.000050
     4  N    0.002303  -0.000053  -0.000001   0.000000  -0.000061  -0.009059
     5  C   -0.064577   0.017283   0.000521  -0.000111   0.000892   0.149226
     6  C    0.494912  -0.107017  -0.001117   0.007773  -0.005781  -0.184450
     7  C    4.671521   0.405829  -0.080924   0.015947   0.381145   0.083965
     8  C    0.405829   5.304179  -0.036096   0.494163  -0.054801  -0.004708
     9  S   -0.080924  -0.036096  14.782765   0.450426   0.647184  -0.014223
    10  C    0.015947   0.494163   0.450426   5.346352  -0.262301  -0.001674
    11  C    0.381145  -0.054801   0.647184  -0.262301   5.353740  -0.264581
    12  C    0.083965  -0.004708  -0.014223  -0.001674  -0.264581   6.270017
    13  C    0.011389  -0.000677  -0.000456  -0.000022   0.002981  -0.015791
    14  C   -0.000126   0.000002   0.000013   0.000000   0.000073  -0.006836
    15  S    0.000006  -0.000000  -0.000000  -0.000000  -0.000000   0.000279
    16  H    0.000000  -0.000000   0.000000   0.000000   0.000000   0.000000
    17  H    0.000000  -0.000000   0.000000  -0.000000   0.000000   0.000000
    18  H    0.000000   0.000000  -0.000000  -0.000000  -0.000000  -0.000000
    19  H   -0.000000   0.000000  -0.000000  -0.000000   0.000000  -0.000000
    20  H    0.000001  -0.000000   0.000000  -0.000000   0.000000   0.000001
    21  H   -0.000013   0.000000   0.000000   0.000000  -0.000000   0.000038
    22  H   -0.000200  -0.000012   0.000001   0.000000   0.000012   0.000743
    23  H   -0.050055  -0.005557   0.000140  -0.000062   0.000970   0.036988
    24  H   -0.124027   0.008527  -0.024575   0.019921   0.193955   0.012886
    25  H   -0.047006   0.302055   0.015492  -0.084586   0.018655  -0.000091
    26  H    0.000486  -0.034519  -0.009681   0.266174   0.010259   0.000043
    27  H   -0.000171   0.000007  -0.000001   0.000000  -0.000091   0.002536
    28  H    0.000139   0.000008  -0.000002   0.000000  -0.000072   0.002707
    29  H   -0.000008  -0.000000  -0.000009  -0.000000  -0.000061   0.001346
              13         14         15         16         17         18
     1  C   -0.000001  -0.000003   0.000001   0.372166   0.380149   0.382090
     2  C    0.000579  -0.000014  -0.000048  -0.020740  -0.027934  -0.029711
     3  N   -0.010061  -0.000680   0.000077   0.002697   0.003497  -0.003725
     4  N   -0.019998   0.001120  -0.000040  -0.000057   0.000044   0.000036
     5  C    0.044736   0.001295  -0.000133   0.000001  -0.000001  -0.000002
     6  C    0.021953  -0.001005   0.000011  -0.000000   0.000000  -0.000000
     7  C    0.011389  -0.000126   0.000006   0.000000   0.000000   0.000000
     8  C   -0.000677   0.000002  -0.000000  -0.000000  -0.000000   0.000000
     9  S   -0.000456   0.000013  -0.000000   0.000000   0.000000  -0.000000
    10  C   -0.000022   0.000000  -0.000000   0.000000  -0.000000  -0.000000
    11  C    0.002981   0.000073  -0.000000   0.000000   0.000000  -0.000000
    12  C   -0.015791  -0.006836   0.000279   0.000000   0.000000  -0.000000
    13  C    5.717873   0.203174  -0.022223  -0.000000  -0.000010  -0.000001
    14  C    0.203174   5.176771   0.450933   0.000000  -0.000002   0.000000
    15  S   -0.022223   0.450933  15.975978   0.000000   0.000067   0.000052
    16  H   -0.000000   0.000000   0.000000   0.582311  -0.028801  -0.030163
    17  H   -0.000010  -0.000002   0.000067  -0.028801   0.556567  -0.030148
    18  H   -0.000001   0.000000   0.000052  -0.030163  -0.030148   0.576920
    19  H    0.000002   0.000001  -0.000001  -0.002548  -0.005456   0.005255
    20  H   -0.000030  -0.000000   0.000000   0.000140   0.006083  -0.005573
    21  H    0.000787  -0.000183   0.000775  -0.000383  -0.000816   0.005546
    22  H    0.000087   0.000003   0.000001   0.000016   0.000037   0.000017
    23  H   -0.001126   0.000012  -0.000001   0.000000  -0.000000  -0.000000
    24  H   -0.005056   0.000171  -0.000010  -0.000000   0.000000  -0.000000
    25  H    0.000015  -0.000000   0.000000  -0.000000   0.000000   0.000000
    26  H    0.000000  -0.000000   0.000000  -0.000000  -0.000000   0.000000
    27  H    0.243718  -0.045740   0.000419   0.000000   0.000009  -0.000028
    28  H    0.258817  -0.043768   0.002651   0.000000   0.000074  -0.000010
    29  H   -0.040141   0.326435  -0.067303  -0.000000   0.000000   0.000000
              19         20         21         22         23         24
     1  C   -0.027264  -0.040483   0.000176  -0.000343  -0.000000   0.000000
     2  C    0.367694   0.353869  -0.038483  -0.000517  -0.000040   0.000000
     3  N   -0.028329  -0.034637   0.312914  -0.037302  -0.000294   0.000001
     4  N    0.000083   0.001596  -0.035723   0.341418  -0.004739  -0.000308
     5  C    0.000075   0.000020  -0.000020  -0.033558  -0.046675   0.008963
     6  C   -0.000038   0.000029  -0.000059  -0.001233   0.261948   0.019480
     7  C   -0.000000   0.000001  -0.000013  -0.000200  -0.050055  -0.124027
     8  C    0.000000  -0.000000   0.000000  -0.000012  -0.005557   0.008527
     9  S   -0.000000   0.000000   0.000000   0.000001   0.000140  -0.024575
    10  C   -0.000000  -0.000000   0.000000   0.000000  -0.000062   0.019921
    11  C    0.000000   0.000000  -0.000000   0.000012   0.000970   0.193955
    12  C   -0.000000   0.000001   0.000038   0.000743   0.036988   0.012886
    13  C    0.000002  -0.000030   0.000787   0.000087  -0.001126  -0.005056
    14  C    0.000001  -0.000000  -0.000183   0.000003   0.000012   0.000171
    15  S   -0.000001   0.000000   0.000775   0.000001  -0.000001  -0.000010
    16  H   -0.002548   0.000140  -0.000383   0.000016   0.000000  -0.000000
    17  H   -0.005456   0.006083  -0.000816   0.000037  -0.000000   0.000000
    18  H    0.005255  -0.005573   0.005546   0.000017  -0.000000  -0.000000
    19  H    0.619106  -0.052924   0.006445   0.001841  -0.000001  -0.000000
    20  H   -0.052924   0.683025  -0.009693   0.005157   0.000004   0.000000
    21  H    0.006445  -0.009693   0.499787   0.002345   0.000004   0.000000
    22  H    0.001841   0.005157   0.002345   0.444654   0.006996   0.000009
    23  H   -0.000001   0.000004   0.000004   0.006996   0.728506  -0.001605
    24  H   -0.000000   0.000000   0.000000   0.000009  -0.001605   0.734795
    25  H   -0.000000  -0.000000  -0.000000  -0.000010   0.002827  -0.002339
    26  H   -0.000000  -0.000000   0.000000  -0.000000  -0.000004  -0.000394
    27  H   -0.000024   0.000033   0.009260   0.000150   0.000001   0.000066
    28  H   -0.000069   0.000052  -0.001833   0.000312  -0.000024   0.000028
    29  H   -0.000000  -0.000000   0.000025   0.000000  -0.000000   0.000140
              25         26         27         28         29
     1  C    0.000000  -0.000000   0.000011   0.000016   0.000000
     2  C   -0.000000   0.000000   0.000414   0.000120   0.000000
     3  N    0.000000   0.000000  -0.001368   0.017835  -0.000005
     4  N    0.000002   0.000000  -0.007645  -0.008013  -0.000023
     5  C   -0.000361  -0.000003  -0.005487  -0.008108   0.000082
     6  C   -0.012135  -0.000208   0.001031   0.000851   0.000064
     7  C   -0.047006   0.000486  -0.000171   0.000139  -0.000008
     8  C    0.302055  -0.034519   0.000007   0.000008  -0.000000
     9  S    0.015492  -0.009681  -0.000001  -0.000002  -0.000009
    10  C   -0.084586   0.266174   0.000000   0.000000  -0.000000
    11  C    0.018655   0.010259  -0.000091  -0.000072  -0.000061
    12  C   -0.000091   0.000043   0.002536   0.002707   0.001346
    13  C    0.000015   0.000000   0.243718   0.258817  -0.040141
    14  C   -0.000000  -0.000000  -0.045740  -0.043768   0.326435
    15  S    0.000000   0.000000   0.000419   0.002651  -0.067303
    16  H   -0.000000  -0.000000   0.000000   0.000000  -0.000000
    17  H    0.000000  -0.000000   0.000009   0.000074   0.000000
    18  H    0.000000   0.000000  -0.000028  -0.000010   0.000000
    19  H   -0.000000  -0.000000  -0.000024  -0.000069  -0.000000
    20  H   -0.000000  -0.000000   0.000033   0.000052  -0.000000
    21  H   -0.000000   0.000000   0.009260  -0.001833   0.000025
    22  H   -0.000010  -0.000000   0.000150   0.000312   0.000000
    23  H    0.002827  -0.000004   0.000001  -0.000024  -0.000000
    24  H   -0.002339  -0.000394   0.000066   0.000028   0.000140
    25  H    0.711056   0.010505  -0.000000  -0.000000   0.000000
    26  H    0.010505   0.681263   0.000000   0.000000   0.000000
    27  H   -0.000000   0.000000   0.718009  -0.024501   0.005389
    28  H   -0.000000   0.000000  -0.024501   0.639137   0.005202
    29  H    0.000000   0.000000   0.005389   0.005202   0.634385
 Mulliken charges:
               1
     1  C   -0.386310
     2  C   -0.122718
     3  N   -0.277778
     4  N   -0.395105
     5  C    0.226160
     6  C   -0.118061
     7  C    0.299448
     8  C   -0.288614
     9  S    0.270543
    10  C   -0.252001
    11  C   -0.022114
    12  C   -0.059307
    13  C   -0.390517
    14  C   -0.061645
    15  S   -0.341491
    16  H    0.125362
    17  H    0.146644
    18  H    0.129443
    19  H    0.116153
    20  H    0.093330
    21  H    0.249106
    22  H    0.269377
    23  H    0.071786
    24  H    0.159370
    25  H    0.085923
    26  H    0.076079
    27  H    0.104002
    28  H    0.158451
    29  H    0.134483
 Sum of Mulliken charges =  -0.00000
 Mulliken charges with hydrogens summed into heavy atoms:
               1
     1  C    0.015140
     2  C    0.086765
     3  N   -0.028672
     4  N   -0.125729
     5  C    0.226160
     6  C   -0.046275
     7  C    0.299448
     8  C   -0.202691
     9  S    0.270543
    10  C   -0.175921
    11  C    0.137256
    12  C   -0.059307
    13  C   -0.128064
    14  C    0.072838
    15  S   -0.341491
 Electronic spatial extent (au):  <R**2>=           6464.2120
 Charge=             -0.0000 electrons
 Dipole moment (field-independent basis, Debye):
    X=              4.5578    Y=             -6.4990    Z=              0.7624  Tot=              7.9744
 Quadrupole moment (field-independent basis, Debye-Ang):
   XX=            -97.1336   YY=           -107.6597   ZZ=           -106.0751
   XY=             22.7736   XZ=             -2.2832   YZ=             -0.0645
 Traceless Quadrupole moment (field-independent basis, Debye-Ang):
   XX=              6.4893   YY=             -4.0369   ZZ=             -2.4523
   XY=             22.7736   XZ=             -2.2832   YZ=             -0.0645
 Octapole moment (field-independent basis, Debye-Ang**2):
  XXX=             58.5585  YYY=            -88.9367  ZZZ=              0.7008  XYY=             38.1595
  XXY=            -61.8458  XXZ=              6.4589  XZZ=             -5.1960  YZZ=             -1.8022
  YYZ=             -2.1648  XYZ=              0.6036
 Hexadecapole moment (field-independent basis, Debye-Ang**3):
 XXXX=          -6118.9920 YYYY=          -2316.1860 ZZZZ=           -136.2934 XXXY=            348.2624
 XXXZ=            -15.8667 YYYX=            264.7984 YYYZ=              7.4307 ZZZX=             -1.7555
 ZZZY=              0.2530 XXYY=          -1497.6364 XXZZ=          -1120.1172 YYZZ=           -398.9776
 XXYZ=              2.3309 YYXZ=              6.2415 ZZXY=             30.7506
 N-N= 1.093355421706D+03 E-N=-5.323582245311D+03  KE= 1.328047393196D+03
 PrsmSu:  requested number of processors reduced to:  13 ShMem   1 Linda.
 Calling FoFJK, ICntrl=      2127 FMM=F ISym2X=0 I1Cent= 0 IOpClX= 0 NMat=1 NMatS=1 NMatT=0.
 ***** Axes restored to original set *****
 -------------------------------------------------------------------
 Center     Atomic                   Forces (Hartrees/Bohr)
 Number     Number              X              Y              Z
 -------------------------------------------------------------------
      1        6           0.000363646    0.000106087   -0.006450927
      2        6           0.007319073    0.004423243   -0.004164038
      3        7           0.027121223   -0.007235225   -0.002407286
      4        7          -0.079556026    0.030305259   -0.051452701
      5        6           0.029251770   -0.045920830    0.096491934
      6        6           0.033074729   -0.022006347    0.050168693
      7        6           0.106919559    0.015190075   -0.064983959
      8        6           0.104524010   -0.007592556    0.034049866
      9       16           0.431794765    0.264052780   -0.600907926
     10        6           0.240144137   -0.099821932    0.262797807
     11        6          -0.715282902   -0.169664793    0.367453286
     12        6          -0.151430850   -0.002294383    0.017415911
     13        6          -0.184926523   -0.007274952    0.020145924
     14        6          -0.024442656   -0.006307162    0.018987777
     15       16           0.060879423   -0.005520348    0.013795543
     16        1           0.003983017    0.001457416   -0.001257252
     17        1          -0.000067677    0.001385295   -0.000626745
     18        1          -0.001279360    0.000170089   -0.000439308
     19        1           0.006251498   -0.001647731   -0.002174685
     20        1           0.005130068   -0.000468523    0.006620225
     21        1           0.013321521   -0.001808293   -0.001090388
     22        1           0.008780802    0.007088209   -0.019440027
     23        1           0.007141347   -0.012554993    0.040445652
     24        1           0.026324552    0.022006808   -0.062422220
     25        1          -0.003494782   -0.008574682    0.019782036
     26        1          -0.074573763    0.014349460   -0.034629334
     27        1           0.054134529   -0.007944878   -0.037111592
     28        1           0.054957433    0.030758563   -0.018361628
     29        1           0.013637438    0.015344342   -0.040234637
 -------------------------------------------------------------------
 Cartesian Forces:  Max     0.715282902 RMS     0.134478105

 GradGradGradGradGradGradGradGradGradGradGradGradGradGradGradGradGradGrad
 Berny optimization.
 FormGI is forming the generalized inverse of G from B-inverse, IUseBI=4.
 Internal  Forces:  Max     0.633386120 RMS     0.054518513
 Search for a local minimum.
 Step number   1 out of a maximum of  174
 All quantities printed in internal units (Hartrees-Bohrs-Radians)
 Mixed Optimization -- RFO/linear search
 Second derivative matrix not updated -- first step.
 ITU=  0
     Eigenvalues ---    0.00230   0.00230   0.00230   0.00233   0.00270
     Eigenvalues ---    0.00283   0.00303   0.00325   0.00366   0.00528
     Eigenvalues ---    0.00603   0.00780   0.00834   0.00978   0.01213
     Eigenvalues ---    0.01363   0.01593   0.01626   0.01664   0.02421
     Eigenvalues ---    0.02597   0.03543   0.03720   0.04335   0.05512
     Eigenvalues ---    0.05529   0.05582   0.08832   0.08869   0.09829
     Eigenvalues ---    0.10545   0.10649   0.10897   0.11349   0.12292
     Eigenvalues ---    0.12570   0.13187   0.14640   0.15123   0.15610
     Eigenvalues ---    0.15652   0.15974   0.15999   0.16000   0.16000
     Eigenvalues ---    0.16000   0.16000   0.16282   0.16329   0.16545
     Eigenvalues ---    0.17434   0.18446   0.19172   0.19684   0.21923
     Eigenvalues ---    0.22000   0.22004   0.22209   0.22988   0.23403
     Eigenvalues ---    0.24689   0.25420   0.27239   0.29115   0.31153
     Eigenvalues ---    0.33672   0.33923   0.34335   0.34390   0.34404
     Eigenvalues ---    0.34741   0.35786   0.39788   0.41242   0.41588
     Eigenvalues ---    0.42484   0.43369   0.43642   0.50412   0.75881
     Eigenvalues ---    2.37210
 RFO step:  Lambda=-3.61220156D-01 EMin= 2.30000000D-03
 Linear search not attempted -- first point.
 Maximum step size (   0.300) exceeded in Quadratic search.
    -- Step size scaled by   0.498
 Iteration  1 RMS(Cart)=  0.02298277 RMS(Int)=  0.00029074
 Iteration  2 RMS(Cart)=  0.00039188 RMS(Int)=  0.00011567
 Iteration  3 RMS(Cart)=  0.00000010 RMS(Int)=  0.00011567
 Variable       Old X    -DE/DX   Delta X   Delta X   Delta X     New X
                                 (Linear)    (Quad)   (Total)
    R1        2.89763  -0.00309   0.00000  -0.00236  -0.00236   2.89527
    R2        2.07461  -0.00299   0.00000  -0.00213  -0.00213   2.07248
    R3        2.06677  -0.00032   0.00000  -0.00023  -0.00023   2.06654
    R4        2.06768   0.00067   0.00000   0.00048   0.00048   2.06815
    R5        2.81188  -0.01683   0.00000  -0.01201  -0.01201   2.79987
    R6        2.06097   0.00313   0.00000   0.00220   0.00220   2.06318
    R7        2.06654   0.00633   0.00000   0.00447   0.00447   2.07101
    R8        2.95278  -0.06048   0.00000  -0.04859  -0.04841   2.90437
    R9        1.93727  -0.00777   0.00000  -0.00433  -0.00434   1.93293
   R10        2.91572  -0.07236   0.00000  -0.05729  -0.05718   2.85854
   R11        1.93917  -0.01539   0.00000  -0.00964  -0.00964   1.92952
   R12        2.54669   0.05686   0.00000   0.03270   0.03279   2.57948
   R13        3.21337   0.00052   0.00000  -0.00312  -0.00299   3.21038
   R14        3.66455   0.06134   0.00000   0.06663   0.06646   3.73101
   R15        2.61304   0.05412   0.00000   0.03398   0.03409   2.64713
   R16        1.98542   0.04133   0.00000   0.02712   0.02712   2.01255
   R17        2.59200   0.00914   0.00000   0.01011   0.01006   2.60206
   R18        3.05858  -0.02352   0.00000  -0.00974  -0.00969   3.04889
   R19        3.16331   0.07062   0.00000   0.06479   0.06473   3.22804
   R20        2.96095  -0.01118   0.00000  -0.02707  -0.02749   2.93346
   R21        3.30448   0.04569   0.00000   0.06468   0.06492   3.36940
   R22        2.04417   0.01475   0.00000   0.01022   0.01022   2.05439
   R23        2.75048   0.22104   0.00000   0.08697   0.08692   2.83740
   R24        2.37865   0.63339   0.00000   0.11445   0.11482   2.49347
   R25        3.44668   0.16836   0.00000   0.08562   0.08542   3.53211
   R26        2.58125  -0.08258   0.00000  -0.07946  -0.07946   2.50179
   R27        2.30809   0.01427   0.00000   0.00952   0.00953   2.31762
   R28        3.87930  -0.02271   0.00000  -0.02630  -0.02640   3.85290
   R29        2.33403   0.04881   0.00000   0.04381   0.04392   2.37794
   R30        3.27341  -0.03374   0.00000  -0.03191  -0.03191   3.24150
   R31        2.54286  -0.06466   0.00000  -0.06038  -0.06046   2.48240
   R32        2.55211  -0.06104   0.00000  -0.05802  -0.05802   2.49408
   R33        3.29422  -0.06120   0.00000  -0.04532  -0.04532   3.24890
   R34        1.96151   0.04489   0.00000   0.02878   0.02878   1.99029
   R35        3.65485  -0.00414   0.00000  -0.00312  -0.00320   3.65164
    A1        1.93784  -0.00482   0.00000  -0.00463  -0.00463   1.93321
    A2        1.93178   0.00087   0.00000   0.00088   0.00088   1.93265
    A3        1.93523   0.00211   0.00000   0.00200   0.00200   1.93723
    A4        1.88261   0.00225   0.00000   0.00219   0.00219   1.88480
    A5        1.88120   0.00097   0.00000   0.00084   0.00084   1.88204
    A6        1.89330  -0.00131   0.00000  -0.00120  -0.00121   1.89209
    A7        1.93564  -0.01180   0.00000  -0.01005  -0.01004   1.92560
    A8        1.88010   0.00766   0.00000   0.00711   0.00709   1.88719
    A9        1.87584   0.00485   0.00000   0.00475   0.00476   1.88060
   A10        1.93434  -0.00190   0.00000  -0.00298  -0.00296   1.93137
   A11        1.93262   0.00505   0.00000   0.00468   0.00470   1.93732
   A12        1.90347  -0.00355   0.00000  -0.00319  -0.00321   1.90026
   A13        2.00741  -0.01865   0.00000  -0.01833  -0.01837   1.98904
   A14        1.83301   0.01288   0.00000   0.01259   0.01250   1.84551
   A15        1.91524  -0.00372   0.00000  -0.00470  -0.00457   1.91067
   A16        2.10802   0.02511   0.00000   0.02073   0.02086   2.12888
   A17        1.90223   0.00335   0.00000   0.00481   0.00474   1.90697
   A18        2.27120  -0.02858   0.00000  -0.02567  -0.02574   2.24546
   A19        1.74262   0.01835   0.00000   0.02012   0.02017   1.76279
   A20        1.97910  -0.02154   0.00000  -0.02218  -0.02230   1.95680
   A21        1.36938   0.02521   0.00000   0.02593   0.02590   1.39528
   A22        2.56121   0.00320   0.00000   0.00206   0.00212   2.56333
   A23        2.02810  -0.02965   0.00000  -0.02206  -0.02193   2.00616
   A24        2.28556   0.00380   0.00000   0.00050   0.00043   2.28599
   A25        1.96950   0.02584   0.00000   0.02156   0.02149   1.99100
   A26        2.29569  -0.02953   0.00000  -0.02910  -0.02923   2.26646
   A27        2.74124   0.00459   0.00000   0.00009   0.00001   2.74125
   A28        1.36999   0.00221   0.00000   0.00286   0.00296   1.37294
   A29        2.61287   0.02764   0.00000   0.02655   0.02658   2.63945
   A30        1.37436   0.00243   0.00000  -0.00275  -0.00292   1.37144
   A31        2.22537   0.03252   0.00000  -0.00050  -0.00072   2.22464
   A32        2.25411  -0.01401   0.00000  -0.00549  -0.00545   2.24866
   A33        1.80356  -0.01854   0.00000   0.00597   0.00616   1.80972
   A34        1.83013   0.16597   0.00000   0.02792   0.02723   1.85736
   A35        1.92048  -0.03833   0.00000  -0.00146  -0.00114   1.91934
   A36        2.53256  -0.12759   0.00000  -0.02645  -0.02609   2.50648
   A37        2.65410  -0.02356   0.00000  -0.03128  -0.03139   2.62271
   A38        1.74220  -0.03802   0.00000  -0.03714  -0.03682   1.70538
   A39        1.45158   0.02847   0.00000   0.02706   0.02705   1.47863
   A40        1.82358  -0.02194   0.00000  -0.02539  -0.02520   1.79837
   A41        2.28422   0.02643   0.00000   0.02068   0.02035   2.30458
   A42        2.15993  -0.00496   0.00000   0.00420   0.00437   2.16430
   A43        1.51458   0.00231   0.00000  -0.00666  -0.00685   1.50773
   A44        2.58365   0.02763   0.00000   0.02165   0.02158   2.60524
   A45        1.40403  -0.01683   0.00000  -0.01072  -0.01058   1.39345
   A46        2.28470  -0.01024   0.00000  -0.01043  -0.01050   2.27420
   A47        1.55707  -0.00499   0.00000  -0.00356  -0.00360   1.55347
   A48        1.54437  -0.00727   0.00000  -0.00615  -0.00612   1.53825
   A49        2.44677  -0.01458   0.00000  -0.01493  -0.01479   2.43199
   A50        2.23235  -0.01186   0.00000  -0.01139  -0.01163   2.22072
   A51        2.20480  -0.01112   0.00000  -0.01156  -0.01164   2.19316
   A52        1.43856   0.02143   0.00000   0.02109   0.02116   1.45972
   A53        1.44955   0.02088   0.00000   0.02118   0.02110   1.47064
   A54        1.28396   0.01477   0.00000   0.01574   0.01578   1.29974
   A55        2.48388  -0.03277   0.00000  -0.02808  -0.02808   2.45580
   A56        1.83605   0.02118   0.00000   0.01863   0.01863   1.85468
   A57        1.96324   0.01158   0.00000   0.00945   0.00945   1.97269
   A58        1.84769  -0.00274   0.00000  -0.00134  -0.00138   1.84632
   A59        2.03353  -0.01351   0.00000  -0.01304  -0.01300   2.02054
   A60        2.33214  -0.00334   0.00000  -0.00290  -0.00302   2.32911
   A61        3.11199   0.04356   0.00000   0.04605   0.04608   3.15807
   A62        3.31935  -0.03731   0.00000  -0.02848  -0.02833   3.29102
   A63        2.99424  -0.05806   0.00000   0.00692   0.00696   3.00120
   A64        3.19378  -0.00956   0.00000  -0.01007  -0.00977   3.18401
   A65        2.91861  -0.01452   0.00000  -0.01737  -0.01743   2.90118
   A66        2.99563   0.01643   0.00000   0.01752   0.01756   3.01319
   A67        3.13722   0.00068   0.00000   0.00075   0.00073   3.13795
   A68        3.10793  -0.00001   0.00000   0.00081   0.00081   3.10874
   A69        3.11158   0.00019   0.00000   0.00031   0.00035   3.11193
   A70        3.02362  -0.00097   0.00000  -0.00089  -0.00086   3.02276
   A71        3.23603  -0.00226   0.00000  -0.00260  -0.00264   3.23339
   A72        3.25319  -0.00799   0.00000  -0.00904  -0.00914   3.24405
    D1       -3.14081  -0.00203   0.00000  -0.00238  -0.00238   3.13999
    D2        1.02279   0.00255   0.00000   0.00283   0.00284   1.02563
    D3       -1.02606   0.00019   0.00000   0.00038   0.00037  -1.02570
    D4        1.05205  -0.00228   0.00000  -0.00267  -0.00267   1.04938
    D5       -1.06753   0.00231   0.00000   0.00254   0.00255  -1.06498
    D6       -3.11639  -0.00006   0.00000   0.00009   0.00008  -3.11631
    D7       -1.04999  -0.00260   0.00000  -0.00305  -0.00306  -1.05304
    D8        3.11362   0.00199   0.00000   0.00215   0.00216   3.11578
    D9        1.06476  -0.00038   0.00000  -0.00030  -0.00031   1.06445
   D10        3.12432  -0.00325   0.00000  -0.00362  -0.00363   3.12069
   D11        1.01710   0.00336   0.00000   0.00423   0.00422   1.02132
   D12       -1.07146  -0.00261   0.00000  -0.00322  -0.00321  -1.07467
   D13        3.10451   0.00400   0.00000   0.00463   0.00465   3.10915
   D14        1.04337  -0.00496   0.00000  -0.00610  -0.00610   1.03727
   D15       -1.06385   0.00164   0.00000   0.00175   0.00175  -1.06209
   D16        3.12057  -0.00563   0.00000  -0.00529  -0.00536   3.11521
   D17        0.03629  -0.00255   0.00000  -0.00210  -0.00211   0.03418
   D18       -1.10104  -0.00402   0.00000  -0.00454  -0.00455  -1.10559
   D19        2.09786  -0.00093   0.00000  -0.00135  -0.00129   2.09657
   D20       -3.08249  -0.00932   0.00000  -0.00696  -0.00697  -3.08946
   D21        1.03377   0.00732   0.00000   0.01004   0.01010   1.04387
   D22       -3.12569   0.00139   0.00000   0.00147   0.00156  -3.12413
   D23        0.03352   0.00107   0.00000   0.00148   0.00156   0.03507
   D24       -0.05500  -0.00064   0.00000  -0.00082  -0.00078  -0.05577
   D25        3.10421  -0.00096   0.00000  -0.00080  -0.00078   3.10343
   D26        3.12847   0.00215   0.00000   0.00218   0.00223   3.13070
   D27       -0.08669  -0.00025   0.00000  -0.00046  -0.00044  -0.08713
   D28       -3.03654   0.00069   0.00000   0.00099   0.00101  -3.03553
   D29        0.07206  -0.00175   0.00000  -0.00187  -0.00191   0.07015
   D30       -3.10612  -0.00103   0.00000  -0.00061  -0.00062  -3.10673
   D31        0.02663  -0.00142   0.00000  -0.00139  -0.00139   0.02524
   D32        0.03985  -0.00171   0.00000  -0.00136  -0.00135   0.03850
   D33       -3.11059  -0.00210   0.00000  -0.00213  -0.00212  -3.11272
   D34        0.00599  -0.00091   0.00000  -0.00101  -0.00098   0.00501
   D35        3.13874  -0.00130   0.00000  -0.00179  -0.00175   3.13698
   D36       -0.02958   0.00089   0.00000   0.00090   0.00090  -0.02868
   D37        0.63127   0.00989   0.00000   0.00974   0.00988   0.64116
   D38       -0.65293  -0.00505   0.00000  -0.00613  -0.00604  -0.65897
   D39       -2.47867   0.00936   0.00000   0.00975   0.00986  -2.46881
   D40        2.52031  -0.00557   0.00000  -0.00611  -0.00607   2.51424
   D41       -0.01376   0.00135   0.00000   0.00100   0.00105  -0.01270
   D42        3.12057   0.00268   0.00000   0.00232   0.00239   3.12296
   D43       -3.12218  -0.00152   0.00000  -0.00111  -0.00110  -3.12328
   D44        0.01214  -0.00019   0.00000   0.00021   0.00024   0.01238
   D45        0.10171  -0.00077   0.00000  -0.00083  -0.00085   0.10086
   D46       -3.10237  -0.00330   0.00000  -0.00347  -0.00340  -3.10577
   D47       -0.16683   0.00067   0.00000   0.00158   0.00157  -0.16525
   D48       -0.04047   0.00244   0.00000   0.00206   0.00202  -0.03845
   D49        0.04647  -0.00292   0.00000  -0.00277  -0.00269   0.04378
   D50        2.98202   0.00105   0.00000   0.00228   0.00228   2.98430
   D51        3.10837   0.00282   0.00000   0.00276   0.00273   3.11110
   D52        3.11238   0.00707   0.00000   0.00430   0.00413   3.11651
   D53       -0.05036   0.00477   0.00000   0.00319   0.00307  -0.04730
   D54        0.12606   0.00329   0.00000   0.00067   0.00061   0.12667
   D55       -3.03668   0.00100   0.00000  -0.00044  -0.00045  -3.03713
   D56        3.13348   0.00654   0.00000   0.00818   0.00805   3.14154
   D57       -3.01710   0.00034   0.00000  -0.00081  -0.00082  -3.01792
   D58        0.24246   0.00130   0.00000   0.00008   0.00004   0.24250
   D59        3.00724   0.00477   0.00000   0.00756   0.00746   3.01470
   D60        3.13984  -0.00143   0.00000  -0.00144  -0.00142   3.13842
   D61        0.11622  -0.00046   0.00000  -0.00054  -0.00056   0.11566
   D62        0.02882  -0.00068   0.00000  -0.00074  -0.00076   0.02806
   D63        0.11103   0.00198   0.00000   0.00178   0.00179   0.11282
   D64        3.07598   0.00158   0.00000   0.00186   0.00189   3.07786
   D65        3.05200  -0.00087   0.00000  -0.00098  -0.00097   3.05103
   D66        3.13421   0.00179   0.00000   0.00154   0.00157   3.13578
   D67       -0.18403   0.00139   0.00000   0.00163   0.00167  -0.18236
   D68        3.12031  -0.00081   0.00000  -0.00095  -0.00096   3.11935
   D69       -3.08066   0.00185   0.00000   0.00157   0.00158  -3.07907
[...]
 -0.00000337,-0.00000055,-0.00000843,-0.00000526,-0.00004658,-0.0000101
 6,0.00004575,0.00005810,-0.00000558,0.00003932,-0.00005960,-0.00104614
 ,0.00003943,0.00180752,0.09503833,0.00001973,-0.00009820,0.00003221,-0
 .00030788,0.00008907,-0.00008296,-0.00015241,-0.00081619,0.00038279,-0
 .00016180,-0.00282845,0.00072927,0.01209485,0.00929550,-0.00016030,-0.
 01704526,-0.05451417,-0.04845860,-0.00403039,0.00520043,-0.00120388,-0
 .00010647,-0.00184325,-0.00057816,-0.00133110,-0.00040447,0.00029549,0
 .00018041,0.00026945,0.00077047,0.00097134,0.00302511,-0.00211972,-0.0
 0460106,0.00894961,-0.00922417,-0.00156278,-0.00294488,0.00096166,-0.0
 0001748,-0.00062427,0.00027911,0.00006760,0.00009121,0.00008779,-0.000
 02125,-0.00001520,0.00000418,0.00001820,0.00000739,0.00000547,0.000028
 09,0.00000108,-0.00000592,-0.00001075,-0.00004559,-0.00008884,0.000003
 25,0.00004593,0.00007461,0.00007908,0.00005665,0.00012416,0.00008429,0
 .00072894,0.00042290,0.01637856,0.03597050,-0.00002183,-0.00000151,0.0
 0000043,0.00000344,0.00003492,-0.00007062,0.00000621,-0.00028137,0.000
 30998,0.00269453,0.00118377,0.00051420,-0.00158791,-0.00362657,-0.0067
 7948,-0.07948030,-0.04849768,-0.27379046,-0.00686920,-0.00537523,-0.02
 159391,-0.00196476,0.00168614,0.00087668,0.00071483,0.00039502,-0.0005
 5195,0.00034111,-0.00021800,-0.00022400,0.00273428,-0.00196089,0.00018
 756,-0.00171403,-0.00203380,0.00272503,0.00041946,0.00089590,-0.000622
 13,-0.00013687,0.00013463,0.00008755,-0.00004595,0.00006941,-0.0001267
 0,0.00000658,0.00000573,-0.00000528,0.00001833,0.00000453,0.00000638,0
 .00000898,0.00000087,-0.00000030,-0.00001699,-0.00001137,-0.00003232,0
 .00001074,0.00003099,0.00006496,0.00004644,0.00000579,0.00011005,-0.00
 049028,-0.00000620,0.00101455,0.08431222,0.05805197,0.29743609,0.00001
 244,-0.00000750,0.00000969,-0.00002277,-0.00001596,-0.00000647,0.00013
 726,-0.00005796,-0.00003928,-0.00058478,0.00066160,-0.00011030,-0.0003
 2474,-0.00139303,-0.00071308,0.00089128,-0.00138421,-0.00152708,0.0037
 9404,-0.00122772,0.00389363,0.00166491,0.00085733,0.00079424,-0.011172
 21,0.00141272,-0.00745821,-0.00147484,0.00000417,0.00295406,-0.2429891
 0,0.05867353,-0.14903967,-0.00191391,0.00253598,0.00067253,-0.00100616
 ,-0.00080010,-0.00001848,-0.00015722,0.00038833,0.00023336,0.00006035,
 -0.00018439,0.00003146,-0.00000438,0.00000259,-0.00000302,-0.00000452,
 -0.00000260,0.00000036,0.00000334,-0.00000138,-0.00000189,0.00000109,-
 0.00000889,0.00000644,-0.00000482,0.00000375,-0.00000786,0.00000705,-0
 .00000382,-0.00000624,0.00004381,0.00008000,-0.00021692,0.00000277,-0.
 00003356,-0.00007018,0.25259626,0.00000070,-0.00000431,0.00001006,-0.0
 0001036,0.00002081,0.00003376,0.00011454,-0.00003266,-0.00011789,-0.00
 013056,0.00080926,0.00009287,0.00221218,-0.00026926,0.00375713,-0.0049
 2739,-0.00320534,0.00093159,0.00183837,0.00319365,-0.00552163,-0.00026
 324,0.00379577,-0.00030215,0.00208356,-0.00304733,0.00542925,0.0019570
 8,0.00035789,-0.00183972,0.05800245,-0.04095898,0.03318623,-0.00133941
 ,0.00078092,-0.00274845,-0.00010890,-0.00100410,0.00022097,0.00005328,
 0.00034193,-0.00018415,0.00001733,-0.00022344,0.00015302,-0.00000140,0
 .00000139,0.00000082,-0.00000898,0.00000015,-0.00000089,0.00000631,-0.
 00000232,-0.00000676,0.00001858,-0.00001334,0.00001523,0.00000402,-0.0
 0001042,-0.00001350,0.00000138,-0.00000993,-0.00000952,-0.00007458,0.0
 0014548,-0.00004869,-0.00002412,-0.00001055,0.00000595,-0.06015864,0.0
 3589975,0.00000962,0.00000168,0.00000592,-0.00001065,-0.00000069,-0.00
 001737,-0.00002542,-0.00003965,0.00005108,-0.00007124,-0.00003007,-0.0
 0015106,0.00181153,0.00066886,-0.00080817,-0.00072392,0.00013385,0.002
 07755,-0.02398055,0.00661595,-0.00615847,-0.00000237,-0.00048700,-0.00
 557995,0.01267940,-0.00316272,0.00780549,0.00450481,-0.00137217,-0.002
 74651,-0.14256839,0.03256867,-0.14733648,-0.00201742,-0.00280672,-0.00
 029186,0.00047687,0.00145669,0.00039040,-0.00011948,0.00004067,0.00025
 745,-0.00000971,0.00009459,-0.00020072,-0.00000357,-0.00000679,0.00000
 284,0.00000044,0.00000074,-0.00000344,-0.00000787,0.00000130,0.0000027
 8,0.00000007,0.00001866,-0.00000117,0.00000012,-0.00000333,0.00000612,
 0.00000525,0.00000299,0.00001377,0.00004337,-0.00008646,0.00002012,-0.
 00002624,-0.00018566,0.00001822,0.15121925,-0.03360731,0.15161343,-0.0
 0000337,-0.00000404,0.00000204,-0.00001392,0.00000666,-0.00001610,0.00
 001467,0.00001343,0.00002812,-0.00010655,-0.00001504,0.00000716,0.0002
 0682,0.00027673,0.00039998,0.00160915,-0.00117234,-0.00189378,-0.00057
 122,-0.00084485,-0.02453462,-0.07322095,0.00638177,-0.07097331,-0.0002
 2494,0.00207374,0.00424019,0.00793778,0.00004820,0.01951727,-0.0058488
 2,0.00176310,-0.00163605,-0.00018109,-0.00017533,-0.00001514,0.0000752
 4,0.00008193,0.00005266,-0.00001438,-0.00001398,-0.00005345,0.00000958
 ,-0.00001700,0.00002637,-0.00000037,0.00000213,-0.00000121,0.00000570,
 0.00000120,0.00000270,0.00000702,-0.00000114,-0.00000159,-0.00000473,-
 0.00000878,-0.00001413,-0.00000064,0.00000807,0.00001529,-0.00000469,0
 .00000098,-0.00000572,-0.00002484,0.00000143,0.00004160,-0.00029642,0.
 00027486,0.00086918,0.00040026,0.00016655,-0.00144320,0.07005874,0.000
 00246,-0.00000710,0.00000061,-0.00002216,0.00003935,0.00000350,-0.0000
 0166,-0.00000363,-0.00000835,-0.00000001,-0.00002157,-0.00000591,0.000
 23344,0.00003433,0.00001185,-0.00105710,-0.00152957,0.00072381,0.00067
 284,0.00115625,0.00606344,0.00647971,-0.03303455,0.00306557,0.00230577
 ,0.00634190,-0.00160226,-0.00158015,0.00387018,-0.00685893,0.00187357,
 0.00096707,0.00072661,-0.00017743,0.00006498,-0.00023952,-0.00002059,-
 0.00002355,-0.00001394,-0.00001775,0.00000689,-0.00000438,0.00000400,-
 0.00001288,0.00000650,-0.00000495,-0.00000379,0.00000411,-0.00000012,0
 .00000227,0.00000057,0.00000632,-0.00000173,-0.00000267,0.00000095,-0.
 00000561,-0.00001351,0.00000062,-0.00000130,0.00000599,-0.00000268,-0.
 00000645,0.00000243,0.00001608,0.00002532,-0.00002726,0.00006460,0.000
 15651,-0.00044279,0.00001784,0.00109203,0.00035672,-0.00769711,0.02475
 803,0.00000742,-0.00000969,0.00000172,-0.00002531,0.00002998,-0.000025
 71,0.00003151,-0.00000921,0.00004653,-0.00010654,0.00007053,0.00005503
 ,-0.00032090,0.00005986,-0.00000861,0.00103448,-0.00012821,-0.00004189
 ,0.00290279,-0.00084184,-0.00308427,-0.07141161,0.00233877,-0.32222656
 ,0.00053273,-0.00071341,-0.00182630,-0.00867880,0.00142306,-0.01509023
 ,-0.00022683,-0.00019652,-0.00076081,0.00011671,-0.00007811,0.00018147
 ,-0.00004440,-0.00001263,0.00004956,0.00002197,-0.00003808,0.00003957,
 -0.00002201,0.00003587,-0.00001992,-0.00000534,-0.00000416,0.00000260,
 0.00000150,0.00000319,0.00000116,0.00000099,0.00000005,-0.00000100,-0.
 00000130,0.00000013,-0.00000965,0.00000326,-0.00000076,0.00001428,-0.0
 0000456,-0.00000888,0.00000240,-0.00001262,-0.00001558,0.00002286,-0.0
 0036341,0.00012687,0.00055701,0.00009472,0.00001577,-0.00014689,0.0762
 4184,-0.00227100,0.34157818,0.00000660,-0.00000588,0.00000391,-0.00002
 194,0.00002632,-0.00000932,-0.00000038,-0.00001733,0.00003612,-0.00005
 438,-0.00000372,-0.00001179,-0.00006378,-0.00005634,0.00006926,-0.0004
 4352,0.00030155,-0.00038221,-0.00002806,0.00174967,0.00265149,-0.00848
 874,0.00207880,-0.00697667,-0.00432780,0.00020566,0.00149566,-0.337320
 30,0.08117745,-0.01437376,0.00030657,-0.00003530,-0.00075982,0.0000360
 5,0.00007646,0.00004905,-0.00004703,-0.00007450,0.00001721,0.00001457,
 -0.00000297,0.00002925,-0.00001194,0.00001508,-0.00001575,-0.00000400,
 -0.00000440,0.00000275,-0.00000033,0.00000225,0.00000050,0.00000025,-0
 .00000037,-0.00000066,0.00000277,0.00000184,-0.00000375,0.00000302,-0.
 00000305,0.00000532,-0.00000325,-0.00001059,0.00000451,-0.00000610,-0.
 00000051,-0.00000301,-0.00001075,0.00002769,-0.00000115,0.00033039,0.0
 0069353,0.00016139,0.00018798,-0.00110155,0.00025915,0.34996255,0.0000
 0035,-0.00000461,0.00000157,-0.00001631,0.00001424,0.00000563,-0.00000
 130,-0.00003830,0.00002923,0.00003687,-0.00005557,0.00002138,-0.000280
 58,-0.00034386,-0.00022571,0.00088415,0.00077622,0.00013167,0.00158027
 ,0.00596821,-0.00137151,0.00387995,0.00038602,0.00274902,-0.00084532,-
 0.00342037,-0.00021241,0.08065725,-0.04406750,0.00168513,-0.00051893,0
 .00038304,-0.00029329,0.00029247,0.00018083,0.00018235,-0.00006013,-0.
 00016550,-0.00006421,-0.00000658,0.00002758,-0.00001765,0.00000356,-0.
 00002212,0.00001580,-0.00000240,-0.00000187,0.00000204,-0.00000074,0.0
 0000105,-0.00000026,0.00000278,-0.00000136,-0.00000148,0.00000313,-0.0
 0000130,-0.00000636,0.00000100,-0.00000110,0.00000173,0.00000320,0.000
 00450,0.00000268,-0.00001489,0.00002832,0.00000470,-0.00004255,0.00006
 944,-0.00004609,0.00064660,0.00256314,-0.00010151,-0.00116026,-0.00385
 736,0.00018407,-0.08504705,0.04158876,-0.00000279,0.00000272,-0.000003
 06,0.00000970,-0.00001146,0.00000229,0.00003890,-0.00001356,-0.0000244
 4,0.00006095,0.00007805,0.00008367,0.00037901,0.00008014,-0.00025382,0
 .00082574,-0.00023991,0.00113150,0.00232850,-0.00133992,-0.00349422,0.
 02159524,-0.00514879,0.00896106,-0.02050546,0.00534994,-0.00026747,-0.
 01822352,0.00295666,-0.05012318,-0.00247630,0.00029026,-0.00688354,-0.
 00046741,-0.00036947,0.00002899,0.00009418,0.00018437,0.00004716,0.000
 00266,-0.00002668,-0.00003208,-0.00000531,0.00000396,0.00000555,0.0000
 0194,0.00000126,0.00000006,0.00000054,-0.00000035,-0.00000018,-0.00000
 051,0.00000044,0.00000087,-0.00000206,-0.00000077,0.00000127,-0.000001
 02,0.00000153,-0.00000154,0.00000881,0.00001123,-0.00001116,-0.0000053
 4,-0.00000719,0.00001547,-0.00004012,-0.00002375,0.00001393,-0.0005595
 0,0.00037152,0.00138313,-0.00083615,0.00052156,0.00072724,0.01775598,-
 0.00268082,0.04870438,0.00000413,-0.00001704,0.00000069,-0.00008965,-0
 .00018076,0.00001070,0.00015442,0.00058988,-0.00050937,0.00063385,-0.0
 0036077,-0.00104239,0.00229560,0.00126922,0.00468037,-0.00083120,-0.00
 075154,0.00044060,0.00018981,-0.00002988,-0.00044910,-0.00009459,-0.00
 006650,0.00001144,-0.00001694,-0.00004583,-0.00011933,-0.00019383,0.00
 005440,-0.00014564,-0.00006991,-0.00010381,0.00058095,-0.01516346,0.02
 179524,0.01113426,-0.04853663,0.04644093,0.02364330,0.00099681,-0.0062
 6313,-0.00251928,-0.00079838,-0.00017416,0.00047619,-0.00001158,0.0000
 0469,0.00000194,0.00001212,-0.00000572,-0.00000694,-0.00000323,0.00000
 112,0.00001857,-0.00002974,0.00001042,0.00000747,-0.00002746,0.0000386
 4,-0.00006369,0.00010933,0.00000163,0.00010845,0.00013322,-0.00037074,
 -0.00035469,-0.00025869,0.00017865,-0.00017739,0.00022022,0.00016589,-
 0.00036775,-0.00001947,0.00001130,-0.00001241,0.00000534,0.00005402,-0
 .00004101,0.05514399,0.00000113,-0.00003955,-0.00000550,-0.00028903,-0
 .00047377,-0.00005760,-0.00039745,-0.00010442,-0.00003233,-0.00113786,
 0.00106269,0.00149184,0.00044085,-0.00069873,-0.00144723,-0.00096401,0
 .00037436,-0.00000359,0.00029856,-0.00013509,-0.00037367,-0.00014074,0
 .00002659,-0.00001050,0.00013201,0.00010020,0.00017419,0.00020857,-0.0
 0003513,-0.00009100,0.00005447,0.00008252,-0.00006581,0.00759700,-0.00
 611219,-0.00541327,0.03769486,-0.21013714,-0.11165423,-0.00014870,0.00
 232345,0.00505840,-0.00111244,0.00168146,-0.00001832,-0.00001413,0.000
 01426,-0.00001170,0.00001528,-0.00002858,-0.00000044,-0.00000724,0.000
 00058,0.00003538,-0.00004190,0.00008293,-0.00003388,-0.00005541,0.0001
 7264,-0.00015362,0.00011452,-0.00020486,0.00069510,-0.00020836,0.00006
 877,0.00035515,0.00012191,0.00001405,0.00009450,-0.00016789,-0.0002348
 4,0.00025643,0.00001811,-0.00000309,0.00001970,-0.00000198,-0.00002869
 ,0.00003055,-0.04742166,0.22929213,0.00001265,-0.00003139,-0.00000139,
 -0.00008185,0.00001904,0.00007540,0.00012711,0.00074353,-0.00017359,-0
 .00004094,0.00023123,0.00054647,-0.00254624,0.00322230,-0.00205318,0.0
 0232162,-0.00076147,-0.00020912,-0.00055535,0.00023856,0.00062757,0.00
 026405,0.00000181,0.00000222,-0.00015422,-0.00013188,-0.00020863,-0.00
 020946,0.00002676,0.00016353,-0.00006114,-0.00001456,-0.00000862,0.004
 30609,-0.00120554,0.00835365,0.01838514,-0.10286110,-0.12015425,0.0051
 6474,-0.02744283,-0.01897729,0.00059170,0.00099150,0.00215006,-0.00000
 841,-0.00000931,0.00000492,-0.00001107,-0.00000473,0.00000176,0.000004
 42,0.00000650,-0.00000571,0.00000372,-0.00002404,-0.00000835,0.0000012
 5,-0.00000504,-0.00000228,0.00006268,0.00001688,-0.00018963,0.00014842
 ,-0.00071765,0.00022151,-0.00010528,0.00015382,-0.00013465,0.00006563,
 0.00015040,-0.00024551,-0.00001679,0.00000253,-0.00001370,0.00000489,0
 .00001479,-0.00001920,-0.02572006,0.12053030,0.13219539,0.00007489,0.0
 0001597,0.00002184,-0.00008075,0.00071058,-0.00036748,0.00004805,0.000
 35913,0.00192959,-0.00009451,-0.00182168,-0.00004351,-0.00377221,0.000
 99395,-0.00284424,0.00176324,0.00095727,-0.00058020,-0.00021775,0.0002
 4990,0.00099642,0.00036500,0.00004972,0.00021732,-0.00091922,0.0006586
 4,0.00067488,0.00024672,-0.00006329,0.00036691,0.00072886,-0.00037592,
 -0.00180862,-0.01777106,-0.00768505,0.00500214,-0.12509950,-0.12052098
 ,0.05724965,0.00523010,0.00466193,-0.00247988,-0.00174095,0.00105509,-
 0.00133659,-0.00004459,-0.00003289,-0.00000064,0.00002603,-0.00003108,
 -0.00001611,0.00000292,0.00001406,0.00002807,-0.00003291,-0.00008313,-
 0.00006926,0.00010019,-0.00014099,0.00021735,0.00021873,-0.00001104,0.
 00040619,-0.00025802,0.00018500,0.00070359,0.00056697,-0.00104139,0.00
 038008,-0.00040805,-0.00029810,0.00047874,0.00001889,-0.00001037,-0.00
 001775,-0.00002427,-0.00004773,0.00006198,0.00467974,0.00416570,-0.000
 80650,0.13637056,0.00007104,0.00008989,0.00014184,0.00017076,0.0000173
 2,0.00032143,0.00034750,-0.00085802,0.00210021,-0.00139437,-0.00024042
 ,-0.00040511,0.00291637,0.00090172,0.00106186,-0.00132886,0.00015067,0
 .00060057,0.00020445,-0.00005525,-0.00071443,-0.00025511,-0.00001356,-
 0.00013295,0.00057743,-0.00025815,-0.00029572,-0.00004404,0.00003663,-
 0.00028012,-0.00042200,0.00015072,0.00094523,-0.00542291,-0.00163494,-
 0.00259651,-0.09608093,-0.13846813,0.05203075,-0.00134067,-0.00624454,
 0.00595137,0.00003434,0.00179023,0.00037430,-0.00001650,-0.00000797,-0
 .00006256,-0.00011316,-0.00011071,0.00000020,-0.00000889,-0.00001614,-
 0.00004891,0.00004590,0.00001290,0.00004538,0.00000616,-0.00009428,-0.
 00001859,-0.00024047,0.00003583,-0.00050781,-0.00002257,-0.00036012,-0
 .00030375,-0.00027171,0.00017076,-0.00010397,0.00024743,0.00002202,-0.
 00021450,-0.00001311,-0.00000069,0.00001764,0.00001107,0.00001517,-0.0
 0002578,-0.01642730,-0.01775509,0.00612637,0.11838004,0.16252885,0.000
 09237,-0.00007982,-0.00004603,0.00020021,0.00175667,-0.00007062,0.0001
 1526,-0.00027773,-0.00256169,0.00079053,-0.00098194,-0.00040145,-0.003
 98622,0.00184047,-0.00088813,0.00301072,-0.00037807,-0.00079735,-0.000
 58598,0.00027032,0.00105224,0.00038529,-0.00000707,0.00005935,-0.00048
 200,0.00011149,0.00006133,-0.00008029,0.00001030,0.00033084,0.00026183
 ,-0.00013173,-0.00080001,0.00511385,-0.00413115,0.00316693,0.04918343,
 0.05917695,-0.05426398,0.01601595,0.02221565,-0.01668378,-0.00170795,-
 0.00160328,-0.00062855,-0.00001927,-0.00006165,0.00007508,0.00003193,0
 .00015481,-0.00000824,0.00000700,0.00002368,-0.00002996,0.00012075,-0.
 00023053,-0.00000807,0.00021973,-0.00046356,0.00052587,0.00016536,-0.0
 0012867,-0.00043725,0.00059478,0.00047342,0.00019275,0.00009239,-0.000
 38853,0.00000163,-0.00005286,0.00004789,0.00003257,-0.00001115,-0.0000
 0212,-0.00002597,-0.00000754,-0.00000808,0.00000058,-0.00838254,-0.010
 67669,0.00344186,-0.05905473,-0.06444721,0.06772891,0.00001307,-0.0000
 0200,0.00002406,-0.00002889,-0.00004237,-0.00001993,-0.00006185,0.0000
 1357,-0.00016474,0.00005017,0.00005812,-0.00012117,0.00011818,0.000013
 15,-0.00015153,0.00003808,0.00001500,0.00007451,-0.00002436,0.00000891
 ,0.00001914,0.00000764,-0.00000028,-0.00001048,0.00000341,-0.00001365,
 -0.00000963,0.00002354,-0.00000683,0.00001981,-0.00009311,-0.00000706,
 0.00000213,0.00206801,-0.00179808,0.00091153,0.00862088,0.00134181,-0.
 00565712,-0.06464342,0.05539963,0.04730540,0.00525981,0.01483139,0.001
 78161,-0.00000732,-0.00000247,-0.00000321,-0.00000406,-0.00000694,-0.0
 0000495,-0.00000354,-0.00000159,0.00000114,0.00000094,0.00001345,0.000
 00226,-0.00000768,0.00002215,-0.00001830,0.00000581,0.00000055,0.00002
 160,-0.00002481,0.00004873,0.00000590,0.00003645,0.00001698,0.00001042
 ,-0.00009798,0.00000994,-0.00001310,0.00000459,0.00000413,0.00000473,0
 .00000048,-0.00000081,0.00000237,0.00156620,0.00124583,-0.00114680,0.0
 0002290,0.00039012,-0.00203086,0.04715686,0.00000242,-0.00000440,-0.00
 000244,-0.00002600,-0.00005513,-0.00000398,0.00001567,0.00008120,-0.00
 014939,0.00015309,0.00008330,0.00022162,-0.00023774,0.00008156,0.00001
 317,0.00000323,-0.00004479,-0.00006602,0.00004850,0.00000161,0.0000249
 9,0.00002470,0.00000112,0.00002931,-0.00006977,0.00002576,0.00002480,-
 0.00000359,-0.00000082,0.00001718,-0.00009081,-0.00001000,-0.00001174,
 0.00008711,-0.00025500,0.00101647,0.00455755,0.00622007,0.00311097,0.0
 5305421,-0.20224572,-0.12713451,0.01282036,-0.01553852,-0.00427192,-0.
 00000177,-0.00000011,-0.00000045,0.00000143,-0.00000318,-0.00000033,-0
 .00000241,0.00000160,0.00000607,-0.00000403,0.00000766,0.00000036,-0.0
 0000665,0.00001685,-0.00001666,0.00000799,-0.00001050,0.00001058,-0.00
 000784,-0.00006880,0.00004727,-0.00000176,0.00000360,0.00000532,-0.000
 08422,0.00000263,-0.00011322,0.00000410,-0.00000223,0.00000262,-0.0000
 0184,0.00000300,0.00000426,0.00160280,0.00069454,0.00073323,-0.0002933
 3,0.00019531,-0.00208383,-0.07155140,0.21081940,-0.00001588,0.00000384
 ,-0.00001952,-0.00001878,-0.00013995,0.00000554,-0.00007565,-0.0000333
 5,-0.00006878,-0.00016982,0.00042284,0.00033230,-0.00045295,0.00011394
 ,-0.00002850,0.00001105,-0.00001548,-0.00011289,0.00001333,-0.00002576
 ,0.00002182,0.00001886,0.00001033,0.00001191,-0.00003936,0.00001266,0.
 00003319,0.00002380,-0.00000648,0.00003494,-0.00007750,0.00000208,-0.0
 0004836,0.00278934,-0.00012841,0.00238758,0.00549420,-0.02608320,-0.01
 707504,0.04146488,-0.11880486,-0.14472995,-0.00742712,0.01427080,0.008
 28652,0.00000551,0.00000744,-0.00000355,0.00001031,-0.00000591,0.00000
 215,-0.00000115,0.00000099,0.00001047,-0.00001927,0.00001952,-0.000009
 74,-0.00001427,0.00004691,-0.00003330,0.00001427,-0.00004416,0.0001214
 7,-0.00004366,0.00005099,0.00014364,-0.00000542,0.00001773,0.00000758,
 -0.00014432,-0.00002181,0.00000672,0.00000796,-0.00000312,0.00000191,-
 0.00000099,-0.00000242,0.00000675,-0.00120334,0.00130785,-0.00537924,0
 .00069076,0.00044075,0.00098113,-0.04083480,0.12858625,0.15511324\\0.0
 0000046,0.00000030,-0.00000154,0.00000429,-0.00000700,0.00000759,-0.00
 000993,0.00000101,-0.00000596,0.00000882,0.00000983,0.00000034,0.00000
 014,-0.00000921,0.00001229,-0.00001144,0.00000321,-0.00003569,-0.00002
 263,-0.00000035,0.00001487,0.00000112,0.00000719,0.00000608,0.00003678
 ,-0.00000898,-0.00004274,0.00001525,-0.00000479,0.00001377,-0.00002027
 ,0.00000568,0.00000296,0.00000145,0.00000257,0.00001096,0.00002758,0.0
 0002695,0.00000217,-0.00000380,-0.00000893,0.00000447,0.00000175,-0.00
 000051,-0.00000068,0.00000030,-0.00000015,0.00000045,0.00000022,-0.000
 00025,0.00000075,0.00000021,-0.00000029,-0.00000010,-0.00000051,0.0000
 0070,0.00000011,-0.00000178,0.00000040,-0.00000293,-0.00000190,-0.0000
 0373,0.00000394,-0.00000005,-0.00000113,-0.00000048,-0.00000069,0.0000
 0046,-0.00000271,-0.00000935,0.00000010,0.00002060,-0.00000183,0.00000
 005,0.00000043,0.00000141,-0.00000015,-0.00000126,-0.00000963,-0.00000
 641,-0.00001639,-0.00000378,-0.00001471,0.00000315,-0.00000220,0.00000
 815,0.00000554\\\@


 Sometimes the fool who rushes in gets the job done.
                                    -- Al Bernstein
 Job cpu time:       0 days  6 hours 51 minutes 23.8 seconds.
 Elapsed time:       0 days  1 hours 42 minutes 51.8 seconds.
 File lengths (MBytes):  RWF=    567 Int=      0 D2E=      0 Chk=     21 Scr=      1
 Normal termination of Gaussian 16 at Fri May 19 15:48:18 2023.
### All Done ###
