### Starting Gaussian ###
 Entering Gaussian System, Link 0=g16
 Initial command:
 /cluster/software/gaussian/gaussian-16-A.03/avx2/g16/l1.exe "/local/scratch/linjian/Gau-17960.inp" -scrdir="/local/scratch/linjian/"
 Entering Link 1 = /cluster/software/gaussian/gaussian-16-A.03/avx2/g16/l1.exe PID=     17961.
  
 Copyright (c) 1988,1990,1992,1993,1995,1998,2003,2009,2016,
            Gaussian, Inc.  All Rights Reserved.
  
 This is part of the Gaussian(R) 16 program.  It is based on
 the Gaussian(R) 09 system (copyright 2009, Gaussian, Inc.),
 the Gaussian(R) 03 system (copyright 2003, Gaussian, Inc.),
 the Gaussian(R) 98 system (copyright 1998, Gaussian, Inc.),
 the Gaussian(R) 94 system (copyright 1995, Gaussian, Inc.),
 the Gaussian 92(TM) system (copyright 1992, Gaussian, Inc.),
 the Gaussian 90(TM) system (copyright 1990, Gaussian, Inc.),
 the Gaussian 88(TM) system (copyright 1988, Gaussian, Inc.),
 the Gaussian 86(TM) system (copyright 1986, Carnegie Mellon
 University), and the Gaussian 82(TM) system (copyright 1983,
 Carnegie Mellon University). Gaussian is a federally registered
 trademark of Gaussian, Inc.
  
 This software contains proprietary and confidential information,
 including trade secrets, belonging to Gaussian, Inc.
  
 This software is provided under written license and may be
 used, copied, transmitted, or stored only in accord with that
 written license.
  
 The following legend is applicable only to US Government
 contracts under FAR:
  
                    RESTRICTED RIGHTS LEGEND
  
 Use, reproduction and disclosure by the US Government is
 subject to restrictions as set forth in subparagraphs (a)
 and (c) of the Commercial Computer Software - Restricted
 Rights clause in FAR 52.227-19.
  
 Gaussian, Inc.
 340 Quinnipiac St., Bldg. 40, Wallingford CT 06492
  
  
 ---------------------------------------------------------------
 Warning -- This program may not be used in any manner that
 competes with the business of Gaussian, Inc. or will provide
 assistance to any competitor of Gaussian, Inc.  The licensee
 of this program is prohibited from giving any competitor of
 Gaussian, Inc. access to this program.  By using this program,
 the user acknowledges that Gaussian, Inc. is engaged in the
 business of creating and licensing software in the field of
 computational chemistry and represents and warrants to the
 licensee that it is not a competitor of Gaussian, Inc. and that
 it will not use this program in any manner prohibited above.
 ---------------------------------------------------------------
  

 Cite this work as:
 Gaussian 16, Revision A.03,
 M. J. Frisch, G. W. Trucks, H. B. Schlegel, G. E. Scuseria, 
 M. A. Robb, J. R. Cheeseman, G. Scalmani, V. Barone, 
 G. A. Petersson, H. Nakatsuji, X. Li, M. Caricato, A. V. Marenich, 
 J. Bloino, B. G. Janesko, R. Gomperts, B. Mennucci, H. P. Hratchian, 
 J. V. Ortiz, A. F. Izmaylov, J. L. Sonnenberg, D. Williams-Young, 
 F. Ding, F. Lipparini, F. Egidi, J. Goings, B. Peng, A. Petrone, 
 T. Henderson, D. Ranasinghe, V. G. Zakrzewski, J. Gao, N. Rega, 
 G. Zheng, W. Liang, M. Hada, M. Ehara, K. Toyota, R. Fukuda, 
 J. Hasegawa, M. Ishida, T. Nakajima, Y. Honda, O. Kitao, H. Nakai, 
 T. Vreven, K. Throssell, J. A. Montgomery, Jr., J. E. Peralta, 
 F. Ogliaro, M. J. Bearpark, J. J. Heyd, E. N. Brothers, K. N. Kudin, 
 V. N. Staroverov, T. A. Keith, R. Kobayashi, J. Normand, 
 K. Raghavachari, A. P. Rendell, J. C. Burant, S. S. Iyengar, 
 J. Tomasi, M. Cossi, J. M. Millam, M. Klene, C. Adamo, R. Cammi, 
 J. W. Ochterski, R. L. Martin, K. Morokuma, O. Farkas, 
 J. B. Foresman, and D. J. Fox, Gaussian, Inc., Wallingford CT, 2016.
 
 ******************************************
 Gaussian 16:  ES64L-G16RevA.03 25-Dec-2016
                20-May-2023 
 ******************************************
 %chk=CCqCdOrdCC1dCCdCC2dCCqdCC2rCdCNdCCdC1.chk
 %NProcShared=20
 Will use up to   20 processors via shared memory.
 -----------------------------
 # opt freq b3lyp/6-31g(2df,p)
 -----------------------------
 1/18=20,19=15,26=3,38=1/1,3;
 2/9=110,12=2,17=6,18=5,40=1/2;
 3/5=1,6=6,7=104,11=2,25=1,30=1,71=1,74=-5/1,2,3;
 4//1;
 5/5=2,38=5/2;
 6/7=2,8=2,9=2,10=2,28=1/1;
 7//1,2,3,16;
 1/18=20,19=15,26=3/3(2);
 2/9=110/2;
 99//99;
 2/9=110/2;
 3/5=1,6=6,7=104,11=2,25=1,30=1,71=1,74=-5/1,2,3;
 4/5=5,16=3,69=1/1;
 5/5=2,38=5/2;
 7//1,2,3,16;
 1/18=20,19=15,26=3/3(-5);
 2/9=110/2;
 6/7=2,8=2,9=2,10=2,19=2,28=1/1;
 99/9=1/99;
 -------------------
 Title Card Required
 -------------------
 Symbolic Z-matrix:
 Charge =  0 Multiplicity = 1
 C                     1.40299  -0.03742  -0.10141 
 C                     3.21347  -0.31272  -0.22073 
 C                     3.47662  -1.38913   0.70301 
 O                     2.64599  -2.10325   1.23485 
 C                     4.47798   0.11198  -0.88117 
 C                     6.37596  -0.00301  -1.34315 
 C                     6.15638   1.38217  -1.49259 
 C                     7.29813   2.05507  -1.17337 
 C                     7.75989   3.04744  -1.89279 
 C                     9.16646   2.98333  -1.91522 
 C                     9.98445   1.95149  -2.14929 
 C                     11.37707   2.39847  -2.01899 
 C                     11.32886   3.68368  -1.68642 
 C                     9.93737   4.16056  -1.57233 
 C                     12.62869   1.68403  -2.17248 
 C                     12.40765   0.43143  -2.46429 
 N                     12.88801  -0.78095  -2.56438 
 C                     11.70554  -1.48768  -2.54771 
 C                     9.88935  -1.19439  -1.8142 
 C                     8.18148  -0.77064  -1.34761 
 H                     0.87422  -0.88001   0.44651 
 H                     0.85423  -0.0933   -1.06382 
 H                     0.93512   0.82579   0.45044 
 H                     4.54091  -1.46841   0.85129 
 H                     3.91514   1.10619  -1.19014 
 H                     5.2685    2.1083   -1.53807 
 H                     7.91257   1.41947  -0.57041 
 H                     7.1409    3.7405   -2.44392 
 H                     9.63201   0.96986  -2.4151 
 H                     12.16228   4.3257   -1.52607 
 H                     9.71516   4.91155  -2.31993 
 H                     9.71473   4.44686  -0.54581 
 H                     13.59838   2.09911  -1.99154 
 H                     11.41518   0.32881  -2.80807 
 H                     12.07875  -2.41943  -3.1179 
 H                     10.77915  -1.87852  -1.22199 
 H                     7.94696  -1.20328  -0.36722 
 
 Add virtual bond connecting atoms H36        and C18        Dist= 3.14D+00.
 Add virtual bond connecting atoms H26        and H25        Dist= 3.25D+00.
 Add virtual bond connecting atoms C2         and C1         Dist= 3.47D+00.

 GradGradGradGradGradGradGradGradGradGradGradGradGradGradGradGradGradGrad
 Berny optimization.
 Initialization pass.
                           ----------------------------
                           !    Initial Parameters    !
                           ! (Angstroms and Degrees)  !
 --------------------------                            --------------------------
 ! Name  Definition              Value          Derivative Info.                !
 --------------------------------------------------------------------------------
 ! R1    R(1,2)                  1.8352         estimate D2E/DX2                !
 ! R2    R(1,21)                 1.1357         estimate D2E/DX2                !
 ! R3    R(1,22)                 1.1093         estimate D2E/DX2                !
 ! R4    R(1,23)                 1.1263         estimate D2E/DX2                !
 ! R5    R(2,3)                  1.4426         estimate D2E/DX2                !
 ! R6    R(2,5)                  1.4885         estimate D2E/DX2                !
 ! R7    R(3,4)                  1.2177         estimate D2E/DX2                !
 ! R8    R(3,24)                 1.0775         estimate D2E/DX2                !
 ! R9    R(5,25)                 1.1835         estimate D2E/DX2                !
 ! R10   R(6,7)                  1.4104         estimate D2E/DX2                !
 ! R11   R(7,8)                  1.3632         estimate D2E/DX2                !
 ! R12   R(7,26)                 1.1479         estimate D2E/DX2                !
 ! R13   R(8,9)                  1.3098         estimate D2E/DX2                !
 ! R14   R(8,27)                 1.0701         estimate D2E/DX2                !
 ! R15   R(9,10)                 1.4082         estimate D2E/DX2                !
 ! R16   R(9,28)                 1.0804         estimate D2E/DX2                !
 ! R17   R(10,11)                1.3374         estimate D2E/DX2                !
 ! R18   R(10,14)                1.4484         estimate D2E/DX2                !
 ! R19   R(11,12)                1.4684         estimate D2E/DX2                !
 ! R20   R(11,29)                1.0763         estimate D2E/DX2                !
 ! R21   R(12,13)                1.3284         estimate D2E/DX2                !
 ! R22   R(12,15)                1.4493         estimate D2E/DX2                !
 ! R23   R(13,14)                1.4754         estimate D2E/DX2                !
 ! R24   R(13,30)                1.0642         estimate D2E/DX2                !
 ! R25   R(14,31)                1.0827         estimate D2E/DX2                !
 ! R26   R(14,32)                1.0887         estimate D2E/DX2                !
 ! R27   R(15,16)                1.305          estimate D2E/DX2                !
 ! R28   R(15,33)                1.0702         estimate D2E/DX2                !
 ! R29   R(16,17)                1.3079         estimate D2E/DX2                !
 ! R30   R(16,34)                1.0553         estimate D2E/DX2                !
 ! R31   R(17,18)                1.3777         estimate D2E/DX2                !
 ! R32   R(18,35)                1.1544         estimate D2E/DX2                !
 ! R33   R(18,36)                1.6639         estimate D2E/DX2                !
 ! R34   R(19,20)                1.8205         estimate D2E/DX2                !
 ! R35   R(19,36)                1.2691         estimate D2E/DX2                !
 ! R36   R(20,37)                1.097          estimate D2E/DX2                !
 ! R37   R(25,26)                1.7196         estimate D2E/DX2                !
 ! A1    A(2,1,21)             112.2967         estimate D2E/DX2                !
 ! A2    A(2,1,22)             115.0923         estimate D2E/DX2                !
 ! A3    A(2,1,23)             123.8237         estimate D2E/DX2                !
 ! A4    A(21,1,22)             98.6777         estimate D2E/DX2                !
 ! A5    A(21,1,23)             97.9795         estimate D2E/DX2                !
 ! A6    A(22,1,23)            104.9634         estimate D2E/DX2                !
 ! A7    A(1,2,3)              104.4925         estimate D2E/DX2                !
 ! A8    A(1,2,5)              145.5027         estimate D2E/DX2                !
 ! A9    A(3,2,5)              110.0012         estimate D2E/DX2                !
 ! A10   A(2,3,4)              126.357          estimate D2E/DX2                !
 ! A11   A(2,3,24)             108.856          estimate D2E/DX2                !
 ! A12   A(4,3,24)             124.7867         estimate D2E/DX2                !
 ! A13   A(2,5,25)              87.2207         estimate D2E/DX2                !
 ! A14   A(6,7,8)              109.2435         estimate D2E/DX2                !
 ! A15   A(6,7,26)             138.2343         estimate D2E/DX2                !
 ! A16   A(8,7,26)             110.1735         estimate D2E/DX2                !
 ! A17   A(7,8,9)              122.7275         estimate D2E/DX2                !
 ! A18   A(7,8,27)             108.6432         estimate D2E/DX2                !
 ! A19   A(9,8,27)             123.8543         estimate D2E/DX2                !
 ! A20   A(8,9,10)             109.0496         estimate D2E/DX2                !
 ! A21   A(8,9,28)             124.3491         estimate D2E/DX2                !
 ! A22   A(10,9,28)            126.395          estimate D2E/DX2                !
 ! A23   A(9,10,11)            130.4539         estimate D2E/DX2                !
 ! A24   A(9,10,14)            119.3978         estimate D2E/DX2                !
 ! A25   A(11,10,14)           110.0592         estimate D2E/DX2                !
 ! A26   A(10,11,12)           109.2498         estimate D2E/DX2                !
 ! A27   A(10,11,29)           123.1344         estimate D2E/DX2                !
 ! A28   A(12,11,29)           127.596          estimate D2E/DX2                !
 ! A29   A(11,12,13)           106.3974         estimate D2E/DX2                !
 ! A30   A(11,12,15)           131.2677         estimate D2E/DX2                !
 ! A31   A(13,12,15)           122.3282         estimate D2E/DX2                !
 ! A32   A(12,13,14)           111.4879         estimate D2E/DX2                !
 ! A33   A(12,13,30)           126.3684         estimate D2E/DX2                !
 ! A34   A(14,13,30)           122.1393         estimate D2E/DX2                !
 ! A35   A(10,14,13)           102.7665         estimate D2E/DX2                !
 ! A36   A(10,14,31)           106.9219         estimate D2E/DX2                !
 ! A37   A(10,14,32)           109.1546         estimate D2E/DX2                !
 ! A38   A(13,14,31)           111.3689         estimate D2E/DX2                !
 ! A39   A(13,14,32)           110.5356         estimate D2E/DX2                !
 ! A40   A(31,14,32)           115.2567         estimate D2E/DX2                !
 ! A41   A(12,15,16)           110.5217         estimate D2E/DX2                !
 ! A42   A(12,15,33)           124.9868         estimate D2E/DX2                !
 ! A43   A(16,15,33)           124.3022         estimate D2E/DX2                !
 ! A44   A(15,16,17)           147.6339         estimate D2E/DX2                !
 ! A45   A(15,16,34)           108.994          estimate D2E/DX2                !
 ! A46   A(17,16,34)           103.3166         estimate D2E/DX2                !
 ! A47   A(16,17,18)            99.1697         estimate D2E/DX2                !
 ! A48   A(17,18,35)            97.5036         estimate D2E/DX2                !
 ! A49   A(17,18,36)           127.4463         estimate D2E/DX2                !
 ! A50   A(35,18,36)           112.5793         estimate D2E/DX2                !
 ! A51   A(20,19,36)           131.5801         estimate D2E/DX2                !
 ! A52   A(19,20,37)           109.7445         estimate D2E/DX2                !
 ! A53   A(5,25,26)             99.6768         estimate D2E/DX2                !
 ! A54   A(7,26,25)            103.4208         estimate D2E/DX2                !
 ! A55   A(18,36,19)            83.7961         estimate D2E/DX2                !
 ! D1    D(21,1,2,3)           -13.0877         estimate D2E/DX2                !
 ! D2    D(21,1,2,5)           166.0733         estimate D2E/DX2                !
 ! D3    D(22,1,2,3)          -124.9318         estimate D2E/DX2                !
 ! D4    D(22,1,2,5)            54.2292         estimate D2E/DX2                !
 ! D5    D(23,1,2,3)           104.0004         estimate D2E/DX2                !
 ! D6    D(23,1,2,5)           -76.8386         estimate D2E/DX2                !
 ! D7    D(1,2,3,4)             12.3286         estimate D2E/DX2                !
 ! D8    D(1,2,3,24)          -167.8411         estimate D2E/DX2                !
 ! D9    D(5,2,3,4)           -167.1657         estimate D2E/DX2                !
 ! D10   D(5,2,3,24)            12.6646         estimate D2E/DX2                !
 ! D11   D(1,2,5,25)            17.9227         estimate D2E/DX2                !
 ! D12   D(3,2,5,25)          -162.9418         estimate D2E/DX2                !
 ! D13   D(2,5,25,26)          161.3357         estimate D2E/DX2                !
 ! D14   D(6,7,8,9)            135.7805         estimate D2E/DX2                !
 ! D15   D(6,7,8,27)           -20.5248         estimate D2E/DX2                !
 ! D16   D(26,7,8,9)           -58.312          estimate D2E/DX2                !
 ! D17   D(26,7,8,27)          145.3827         estimate D2E/DX2                !
 ! D18   D(6,7,26,25)            5.9789         estimate D2E/DX2                !
 ! D19   D(8,7,26,25)         -153.8316         estimate D2E/DX2                !
 ! D20   D(7,8,9,10)          -142.8638         estimate D2E/DX2                !
 ! D21   D(7,8,9,28)            32.2008         estimate D2E/DX2                !
 ! D22   D(27,8,9,10)            9.8449         estimate D2E/DX2                !
 ! D23   D(27,8,9,28)         -175.0905         estimate D2E/DX2                !
 ! D24   D(8,9,10,11)           47.6463         estimate D2E/DX2                !
 ! D25   D(8,9,10,14)         -128.55           estimate D2E/DX2                !
 ! D26   D(28,9,10,11)        -127.2912         estimate D2E/DX2                !
 ! D27   D(28,9,10,14)          56.5124         estimate D2E/DX2                !
 ! D28   D(9,10,11,12)        -178.4236         estimate D2E/DX2                !
 ! D29   D(9,10,11,29)           3.0861         estimate D2E/DX2                !
 ! D30   D(14,10,11,12)         -1.9512         estimate D2E/DX2                !
 ! D31   D(14,10,11,29)        179.5586         estimate D2E/DX2                !
 ! D32   D(9,10,14,13)         178.883          estimate D2E/DX2                !
 ! D33   D(9,10,14,31)         -63.7654         estimate D2E/DX2                !
 ! D34   D(9,10,14,32)          61.5305         estimate D2E/DX2                !
 ! D35   D(11,10,14,13)          1.9634         estimate D2E/DX2                !
 ! D36   D(11,10,14,31)        119.315          estimate D2E/DX2                !
 ! D37   D(11,10,14,32)       -115.389          estimate D2E/DX2                !
 ! D38   D(10,11,12,13)          1.0913         estimate D2E/DX2                !
 ! D39   D(10,11,12,15)       -179.8589         estimate D2E/DX2                !
 ! D40   D(29,11,12,13)        179.4957         estimate D2E/DX2                !
 ! D41   D(29,11,12,15)         -1.4545         estimate D2E/DX2                !
 ! D42   D(11,12,13,14)          0.2001         estimate D2E/DX2                !
 ! D43   D(11,12,13,30)       -179.0493         estimate D2E/DX2                !
 ! D44   D(15,12,13,14)       -178.9546         estimate D2E/DX2                !
 ! D45   D(15,12,13,30)          1.796          estimate D2E/DX2                !
 ! D46   D(11,12,15,16)         -0.6991         estimate D2E/DX2                !
 ! D47   D(11,12,15,33)       -175.8667         estimate D2E/DX2                !
 ! D48   D(13,12,15,16)        178.2221         estimate D2E/DX2                !
 ! D49   D(13,12,15,33)          3.0545         estimate D2E/DX2                !
 ! D50   D(12,13,14,10)         -1.2855         estimate D2E/DX2                !
 ! D51   D(12,13,14,31)       -115.4357         estimate D2E/DX2                !
 ! D52   D(12,13,14,32)        115.0828         estimate D2E/DX2                !
 ! D53   D(30,13,14,10)        178.0007         estimate D2E/DX2                !
 ! D54   D(30,13,14,31)         63.8505         estimate D2E/DX2                !
 ! D55   D(30,13,14,32)        -65.631          estimate D2E/DX2                !
 ! D56   D(12,15,16,17)       -165.8388         estimate D2E/DX2                !
 ! D57   D(12,15,16,34)         17.6594         estimate D2E/DX2                !
 ! D58   D(33,15,16,17)          9.3686         estimate D2E/DX2                !
 ! D59   D(33,15,16,34)       -167.1332         estimate D2E/DX2                !
 ! D60   D(15,16,17,18)        161.258          estimate D2E/DX2                !
 ! D61   D(34,16,17,18)        -22.141          estimate D2E/DX2                !
 ! D62   D(16,17,18,35)        154.5691         estimate D2E/DX2                !
 ! D63   D(16,17,18,36)        -79.3676         estimate D2E/DX2                !
 ! D64   D(17,18,36,19)        119.2222         estimate D2E/DX2                !
 ! D65   D(35,18,36,19)       -121.0022         estimate D2E/DX2                !
 ! D66   D(36,19,20,37)          0.8003         estimate D2E/DX2                !
 ! D67   D(20,19,36,18)       -179.2655         estimate D2E/DX2                !
 ! D68   D(5,25,26,7)            8.388          estimate D2E/DX2                !
 --------------------------------------------------------------------------------
 Trust Radius=3.00D-01 FncErr=1.00D-07 GrdErr=1.00D-06 EigMax=2.50D+02 EigMin=1.00D-04
 Number of steps in this run=    170 maximum allowed number of steps=    222.
 GradGradGradGradGradGradGradGradGradGradGradGradGradGradGradGradGradGrad

                          Input orientation:                          
 ---------------------------------------------------------------------
 Center     Atomic      Atomic             Coordinates (Angstroms)
 Number     Number       Type             X           Y           Z
 ---------------------------------------------------------------------
      1          6           0        1.402990   -0.037420   -0.101410
      2          6           0        3.213470   -0.312720   -0.220730
      3          6           0        3.476620   -1.389130    0.703010
      4          8           0        2.645990   -2.103250    1.234850
      5          6           0        4.477980    0.111980   -0.881170
      6          6           0        6.375960   -0.003010   -1.343150
      7          6           0        6.156380    1.382170   -1.492590
      8          6           0        7.298130    2.055070   -1.173370
      9          6           0        7.759890    3.047440   -1.892790
     10          6           0        9.166460    2.983330   -1.915220
     11          6           0        9.984450    1.951490   -2.149290
     12          6           0       11.377070    2.398470   -2.018990
     13          6           0       11.328860    3.683680   -1.686420
     14          6           0        9.937370    4.160560   -1.572330
     15          6           0       12.628690    1.684030   -2.172480
     16          6           0       12.407650    0.431430   -2.464290
     17          7           0       12.888010   -0.780950   -2.564380
     18          6           0       11.705540   -1.487680   -2.547710
     19          6           0        9.889350   -1.194390   -1.814200
     20          6           0        8.181480   -0.770640   -1.347610
     21          1           0        0.874220   -0.880010    0.446510
     22          1           0        0.854230   -0.093300   -1.063820
     23          1           0        0.935120    0.825790    0.450440
     24          1           0        4.540910   -1.468410    0.851290
     25          1           0        3.915140    1.106190   -1.190140
     26          1           0        5.268500    2.108300   -1.538070
     27          1           0        7.912570    1.419470   -0.570410
     28          1           0        7.140900    3.740500   -2.443920
     29          1           0        9.632010    0.969860   -2.415100
     30          1           0       12.162280    4.325700   -1.526070
     31          1           0        9.715160    4.911550   -2.319930
     32          1           0        9.714730    4.446860   -0.545810
     33          1           0       13.598380    2.099110   -1.991540
     34          1           0       11.415180    0.328810   -2.808070
     35          1           0       12.078750   -2.419430   -3.117900
     36          1           0       10.779150   -1.878520   -1.221990
     37          1           0        7.946960   -1.203280   -0.367220
 ---------------------------------------------------------------------
                    Distance matrix (angstroms):
                    1          2          3          4          5
     1  C    0.000000
     2  C    1.835174   0.000000
     3  C    2.602720   1.442637   0.000000
     4  O    2.756500   2.376288   1.217689   0.000000
     5  C    3.175832   1.488468   2.401183   3.569450   0.000000
     6  C    5.125771   3.370028   3.809760   4.996976   1.956777
     7  C    5.152216   3.626431   4.436426   5.648887   2.191858
     8  C    6.346675   4.816472   5.476062   6.688315   3.437183
     9  C    7.289416   5.895455   6.690869   7.903399   4.517879
    10  C    8.525626   7.012370   7.638574   8.849450   5.594261
    11  C    9.043839   7.395415   7.851574   9.041367   5.942486
    12  C   10.444757   8.787984   9.174547  10.348175   7.356637
    13  C   10.718290   9.164006   9.648857  10.835802   7.767884
    14  C    9.624047   8.188277   8.815754  10.013980   6.831811
    15  C   11.544222   9.820525  10.073388  11.207484   8.400768
    16  C   11.265237   9.493169   9.649328  10.742358   8.092465
    17  N   11.769653   9.965373   9.980981  11.003708   8.623174
    18  C   10.687852   8.883165   8.848278   9.836775   7.587746
    19  C    8.734445   6.919817   6.891834   7.911321   5.644473
    20  C    6.930985   5.114750   5.169456   6.251928   3.835687
    21  H    1.135681   2.497823   2.664110   2.292807   3.966594
    22  H    1.109276   2.514947   3.417279   3.540365   3.634153
    23  H    1.126309   2.633923   3.380663   3.481616   3.851567
    24  H    3.577976   2.060811   1.077490   2.034911   2.345850
    25  H    2.967166   1.856179   3.162742   4.218035   1.183514
    26  H    4.648685   3.438004   4.523858   5.683643   2.245380
    27  H    6.687086   5.020388   5.402544   6.588276   3.688158
    28  H    7.258350   6.065960   7.045795   8.239355   4.764398
    29  H    8.607238   6.903472   7.292206   8.459942   5.445450
    30  H   11.697384  10.163663  10.633380  11.811598   8.787480
    31  H    9.925034   8.600675   9.367823  10.574358   7.248031
    32  H    9.454696   8.063849   8.633212   9.800091   6.806409
    33  H   12.524571  10.807361  11.039857  12.166522   9.400176
    34  H   10.378058   8.624032   8.848714   9.957852   7.203104
    35  H   11.346587   9.561643   9.468765  10.393429   8.317614
    36  H    9.620693   7.790620   7.567831   8.499109   6.616872
    37  H    6.652325   4.818764   4.600421   5.610424   3.745381
                    6          7          8          9         10
     6  C    0.000000
     7  C    1.410415   0.000000
     8  C    2.261618   1.363191   0.000000
     9  C    3.394497   2.346173   1.309804   0.000000
    10  C    4.127031   3.435537   2.214196   1.408209   0.000000
    11  C    4.182240   3.925494   2.859976   2.493104   1.337382
    12  C    5.588825   5.344676   4.179802   3.677102   2.289023
    13  C    6.183909   5.664721   4.377485   3.631107   2.284472
    14  C    5.483747   4.692728   3.399683   2.466404   1.448360
    15  C    6.529206   6.514919   5.436061   5.063825   3.706939
    16  C    6.150364   6.397381   5.514515   5.363935   4.161608
    17  N    6.671086   7.151410   6.420645   6.434689   5.333024
    18  C    5.662123   6.335810   5.819377   6.046849   5.180434
    19  C    3.739677   4.547214   4.205244   4.746988   4.241005
    20  C    1.961932   2.959162   2.965688   3.879780   3.922328
    21  H    5.851594   6.064551   7.246056   8.264965   9.447984
    22  H    5.529528   5.520294   6.793478   7.631486   8.904140
    23  H    5.788490   5.598793   6.681002   7.550095   8.832117
    24  H    3.214090   4.028563   4.910847   6.187464   6.990514
    25  H    2.703585   2.278332   3.513584   4.363974   5.623678
    26  H    2.392089   1.147896   2.062823   2.686044   4.012731
    27  H    2.231983   1.983938   1.070086   2.102923   2.413796
    28  H    3.976266   2.726908   2.116528   1.080382   2.226145
    29  H    3.563343   3.619534   2.857721   2.844992   2.126189
    30  H    7.228602   6.688522   5.379602   4.598855   3.305803
    31  H    6.021400   5.079954   3.913580   2.735038   2.045213
    32  H    5.620007   4.790676   3.457520   2.755745   2.077933
    33  H    7.550011   7.493085   6.353306   5.915830   4.519910
    34  H    5.258311   5.522231   4.754190   4.646486   3.591713
    35  H    6.442875   7.222760   6.830569   7.073904   6.254413
    36  H    4.787515   5.663508   5.252903   5.816441   5.169035
    37  H    2.204797   3.340237   3.418728   4.520064   4.627222
                   11         12         13         14         15
    11  C    0.000000
    12  C    1.468387   0.000000
    13  C    2.241020   1.328417   0.000000
    14  C    2.283657   2.318880   1.475356   0.000000
    15  C    2.657833   1.449323   2.434012   3.706290   0.000000
    16  C    2.877795   2.264869   3.513687   4.561172   1.304998
    17  N    4.008639   3.562177   4.809853   5.840288   2.509374
    18  C    3.866365   3.935683   5.256108   5.998367   3.324567
    19  C    3.165105   3.894084   5.087640   5.360625   3.989693
    20  C    3.362050   4.550363   5.464591   5.239311   5.146211
    21  H    9.886954  11.275504  11.605006  10.565214  12.312635
    22  H    9.419147  10.855940  11.152178  10.042775  11.959345
    23  H    9.482414  10.844617  10.989246   9.810851  12.014819
    24  H    7.094457   8.362078   8.891584   8.165845   9.192021
    25  H    6.202501   7.618227   7.864667   6.763320   8.787767
    26  H    4.757979   6.134339   6.263529   5.100127   7.399654
    27  H    2.658683   3.880668   4.247724   3.552074   4.987826
    28  H    3.372409   4.463938   4.256295   2.959115   5.866736
    29  H    1.076321   2.289774   3.282544   3.314223   3.090145
    30  H    3.281497   2.138630   1.064185   2.231510   2.759312
    31  H    2.977178   3.027884   2.124389   1.082714   4.350550
    32  H    2.978384   3.021512   2.118691   1.088705   4.332487
    33  H    3.620382   2.241559   2.784723   4.222358   1.070201
    34  H    2.261431   2.215309   3.538460   4.288739   1.926967
    35  H    4.942594   4.991204   6.313432   7.090174   4.246721
    36  H    4.020001   4.391510   5.608560   6.107522   4.125044
    37  H    4.156887   5.240859   6.087685   5.846777   5.789138
                   16         17         18         19         20
    16  C    0.000000
    17  N    1.307910   0.000000
    18  C    2.045214   1.377672   0.000000
    19  C    3.067204   3.118600   1.980556   0.000000
    20  C    4.533482   4.861282   3.791225   1.820464   0.000000
    21  H   11.967148  12.385735  11.253982   9.299581   7.525083
    22  H   11.649814  12.146456  11.040704   9.132845   7.363961
    23  H   11.843569  12.431506  11.416786   9.454520   7.634874
    24  H    8.745745   9.045080   7.930038   5.982118   4.309965
    25  H    8.614028   9.271582   8.322349   6.432208   4.663576
    26  H    7.391701   8.213283   7.442172   5.686498   4.100003
    27  H    4.976821   5.794201   5.171833   3.505273   2.339430
    28  H    6.220049   7.313501   6.941223   5.683631   4.757635
    29  H    2.827809   3.699886   3.218169   2.260815   2.504578
    30  H    4.013203   5.261430   5.920114   5.976673   6.469258
    31  H    5.228940   6.521602   6.705493   6.129324   5.965305
    32  H    5.201544   6.440057   6.571887   5.784722   5.496912
    33  H    2.102971   3.021178   4.093560   4.963416   6.163839
    34  H    1.055326   1.860156   1.857884   2.374041   3.714640
    35  H    2.943261   1.909425   1.154366   2.827336   4.587063
    36  H    3.087263   2.730194   1.663877   1.269051   2.826848
    37  H    5.193047   5.424007   4.354577   2.422129   1.096969
                   21         22         23         24         25
    21  H    0.000000
    22  H    1.703059   0.000000
    23  H    1.706891   1.773204   0.000000
    24  H    3.735596   4.376092   4.292523   0.000000
    25  H    3.983818   3.289970   3.413304   3.344785   0.000000
    26  H    5.672588   4.955576   4.937326   4.362486   1.719553
    27  H    7.473962   7.235474   7.076680   4.661456   4.057297
    28  H    8.305117   7.491657   7.442080   6.689626   4.349377
    29  H    9.397325   8.944590   9.157946   6.521791   5.848223
    30  H   12.586135  12.149619  11.924977   9.864524   8.859651
    31  H   10.925089  10.253898  10.072611   8.805305   7.028330
    32  H   10.368937   9.969446   9.549147   7.981900   6.723874
    33  H   13.293739  12.964594  12.959273  10.141333   9.766948
    34  H   11.097990  10.712341  10.986197   7.992278   7.711849
    35  H   11.858175  11.645599  12.142693   8.571927   9.098944
    36  H   10.093986  10.085438  10.344817   6.586526   7.484928
    37  H    7.126732   7.212775   7.345175   3.627153   4.718731
                   26         27         28         29         30
    26  H    0.000000
    27  H    2.898613   0.000000
    28  H    2.643960   3.081022   0.000000
    29  H    4.594066   2.561543   3.725977   0.000000
    30  H    7.241630   5.236363   5.138012   4.295847   0.000000
    31  H    5.314349   4.301718   2.830821   3.943715   2.638528
    32  H    5.120782   3.523276   3.275113   3.948495   2.639335
    33  H    8.342219   5.899996   6.678163   4.145684   2.690121
    34  H    6.523891   4.297085   5.481031   1.935217   4.263427
    35  H    8.329208   6.211595   7.923468   4.238838   6.930922
    36  H    6.808958   4.417983   6.804657   3.294345   6.363793
    37  H    4.417194   2.630834   5.422488   3.428665   7.048509
                   31         32         33         34         35
    31  H    0.000000
    32  H    1.833968   0.000000
    33  H    4.805940   4.762857   0.000000
    34  H    4.912215   4.996768   2.926952   0.000000
    35  H    7.743809   7.703907   4.898486   2.844142   0.000000
    36  H    6.960072   6.449856   4.935768   2.791503   2.361359
    37  H    6.658134   5.922920   6.744090   4.509279   5.110475
                   36         37
    36  H    0.000000
    37  H    3.034449   0.000000
 Stoichiometry    C18H17NO
 Framework group  C1[X(C18H17NO)]
 Deg. of freedom   105
 Full point group                 C1      NOp   1
 Largest Abelian subgroup         C1      NOp   1
 Largest concise Abelian subgroup C1      NOp   1
                         Standard orientation:                         
 ---------------------------------------------------------------------
 Center     Atomic      Atomic             Coordinates (Angstroms)
 Number     Number       Type             X           Y           Z
 ---------------------------------------------------------------------
      1          6           0        6.709099   -0.719283   -0.445730
      2          6           0        5.032541   -0.035209   -0.147298
      3          6           0        5.251315    1.084064    0.736199
      4          8           0        6.324420    1.593731    1.003505
      5          6           0        3.582069   -0.164758   -0.455328
      6          6           0        1.702461    0.379347   -0.456815
      7          6           0        1.566956   -1.020843   -0.558691
      8          6           0        0.421031   -1.408242    0.069852
      9          6           0       -0.412147   -2.276019   -0.448186
     10          6           0       -1.730235   -1.889422   -0.137961
     11          6           0       -2.332381   -0.699641   -0.240100
     12          6           0       -3.712057   -0.811662    0.249904
     13          6           0       -3.867345   -2.069169    0.648972
     14          6           0       -2.631724   -2.852772    0.459549
     15          6           0       -4.773161    0.170326    0.351361
     16          6           0       -4.360982    1.334486   -0.070372
     17          7           0       -4.571568    2.623667   -0.135916
     18          6           0       -3.296290    3.038687   -0.451202
     19          6           0       -1.465655    2.343288   -0.154892
     20          6           0        0.167701    1.542690   -0.082220
     21          1           0        7.529823   -0.014787   -0.099509
     22          1           0        6.999793   -0.803259   -1.512940
     23          1           0        7.097191   -1.660344    0.036308
     24          1           0        4.301835    1.408541    1.128867
     25          1           0        3.816887   -1.265691   -0.820722
     26          1           0        2.232955   -1.932719   -0.765071
     27          1           0        0.131535   -0.640727    0.757017
     28          1           0       -0.118148   -3.099858   -1.082284
     29          1           0       -1.849561    0.170882   -0.649416
     30          1           0       -4.755137   -2.499594    1.047783
     31          1           0       -2.773569   -3.643835   -0.265964
     32          1           0       -2.229726   -3.170163    1.420248
     33          1           0       -5.734317   -0.007610    0.787077
     34          1           0       -3.487720    1.201172   -0.647739
     35          1           0       -3.584543    4.024372   -0.978359
     36          1           0       -2.006836    3.221415    0.584368
     37          1           0        0.727981    1.921487    0.781458
 ---------------------------------------------------------------------
 Rotational constants (GHZ):           0.6042032           0.1303142           0.1101619
 Standard basis: 6-31G(2df,p) (6D, 7F)
 There are   705 symmetry adapted cartesian basis functions of A   symmetry.
 There are   645 symmetry adapted basis functions of A   symmetry.
   645 basis functions,   999 primitive gaussians,   705 cartesian basis functions
    70 alpha electrons       70 beta electrons
       nuclear repulsion energy      1295.0477281457 Hartrees.
 NAtoms=   37 NActive=   37 NUniq=   37 SFac= 1.00D+00 NAtFMM=   60 NAOKFM=F Big=F
 Integral buffers will be    131072 words long.
 Raffenetti 2 integral format.
 Two-electron integral symmetry is turned on.
 One-electron integrals computed using PRISM.
 PrsmSu:  requested number of processors reduced to:  12 ShMem   1 Linda.
 NBasis=   645 RedAO= T EigKep=  2.03D-04  NBF=   645
 NBsUse=   645 1.00D-06 EigRej= -1.00D+00 NBFU=   645
 ExpMin= 1.61D-01 ExpMax= 5.48D+03 ExpMxC= 8.25D+02 IAcc=3 IRadAn=         5 AccDes= 0.00D+00
 Harris functional with IExCor=  402 and IRadAn=       5 diagonalized for initial guess.
 HarFok:  IExCor=  402 AccDes= 0.00D+00 IRadAn=         5 IDoV= 1 UseB2=F ITyADJ=14
 ICtDFT=  3500011 ScaDFX=  1.000000  1.000000  1.000000  1.000000
 FoFCou: FMM=F IPFlag=           0 FMFlag=      100000 FMFlg1=           0
         NFxFlg=           0 DoJE=T BraDBF=F KetDBF=T FulRan=T
         wScrn=  0.000000 ICntrl=       500 IOpCl=  0 I1Cent=   200000004 NGrid=           0
         NMat0=    1 NMatS0=      1 NMatT0=    0 NMatD0=    1 NMtDS0=    0 NMtDT0=    0
 Petite list used in FoFCou.
 Requested convergence on RMS density matrix=1.00D-08 within 128 cycles.
 Requested convergence on MAX density matrix=1.00D-06.
 Requested convergence on             energy=1.00D-06.
 No special actions if energy rises.
 Integral accuracy reduced to 1.0D-05 until final iterations.
 EnCoef did    10 forward-backward iterations
 EnCoef did     5 forward-backward iterations
 EnCoef did     6 forward-backward iterations
 EnCoef did     1 forward-backward iterations
 EnCoef did     6 forward-backward iterations
 Initial convergence to 1.0D-05 achieved.  Increase integral accuracy.
 SCF Done:  E(RB3LYP) =  -825.179524927     A.U. after   26 cycles
            NFock= 26  Conv=0.29D-08     -V/T= 2.0085

 **********************************************************************

            Population analysis using the SCF density.

 **********************************************************************

 Orbital symmetries:
       Occupied  (A) (A) (A) (A) (A) (A) (A) (A) (A) (A) (A) (A)
                 (A) (A) (A) (A) (A) (A) (A) (A) (A) (A) (A) (A)
                 (A) (A) (A) (A) (A) (A) (A) (A) (A) (A) (A) (A)
                 (A) (A) (A) (A) (A) (A) (A) (A) (A) (A) (A) (A)
                 (A) (A) (A) (A) (A) (A) (A) (A) (A) (A) (A) (A)
                 (A) (A) (A) (A) (A) (A) (A) (A) (A) (A)
       Virtual   (A) (A) (A) (A) (A) (A) (A) (A) (A) (A) (A) (A)
                 (A) (A) (A) (A) (A) (A) (A) (A) (A) (A) (A) (A)
                 (A) (A) (A) (A) (A) (A) (A) (A) (A) (A) (A) (A)
                 (A) (A) (A) (A) (A) (A) (A) (A) (A) (A) (A) (A)
                 (A) (A) (A) (A) (A) (A) (A) (A) (A) (A) (A) (A)
                 (A) (A) (A) (A) (A) (A) (A) (A) (A) (A) (A) (A)
                 (A) (A) (A) (A) (A) (A) (A) (A) (A) (A) (A) (A)
                 (A) (A) (A) (A) (A) (A) (A) (A) (A) (A) (A) (A)
                 (A) (A) (A) (A) (A) (A) (A) (A) (A) (A) (A) (A)
                 (A) (A) (A) (A) (A) (A) (A) (A) (A) (A) (A) (A)
                 (A) (A) (A) (A) (A) (A) (A) (A) (A) (A) (A) (A)
                 (A) (A) (A) (A) (A) (A) (A) (A) (A) (A) (A) (A)
                 (A) (A) (A) (A) (A) (A) (A) (A) (A) (A) (A) (A)
                 (A) (A) (A) (A) (A) (A) (A) (A) (A) (A) (A) (A)
                 (A) (A) (A) (A) (A) (A) (A) (A) (A) (A) (A) (A)
                 (A) (A) (A) (A) (A) (A) (A) (A) (A) (A) (A) (A)
                 (A) (A) (A) (A) (A) (A) (A) (A) (A) (A) (A) (A)
                 (A) (A) (A) (A) (A) (A) (A) (A) (A) (A) (A) (A)
                 (A) (A) (A) (A) (A) (A) (A) (A) (A) (A) (A) (A)
                 (A) (A) (A) (A) (A) (A) (A) (A) (A) (A) (A) (A)
                 (A) (A) (A) (A) (A) (A) (A) (A) (A) (A) (A) (A)
                 (A) (A) (A) (A) (A) (A) (A) (A) (A) (A) (A) (A)
                 (A) (A) (A) (A) (A) (A) (A) (A) (A) (A) (A) (A)
                 (A) (A) (A) (A) (A) (A) (A) (A) (A) (A) (A) (A)
                 (A) (A) (A) (A) (A) (A) (A) (A) (A) (A) (A) (A)
                 (A) (A) (A) (A) (A) (A) (A) (A) (A) (A) (A) (A)
                 (A) (A) (A) (A) (A) (A) (A) (A) (A) (A) (A) (A)
                 (A) (A) (A) (A) (A) (A) (A) (A) (A) (A) (A) (A)
                 (A) (A) (A) (A) (A) (A) (A) (A) (A) (A) (A) (A)
                 (A) (A) (A) (A) (A) (A) (A) (A) (A) (A) (A) (A)
                 (A) (A) (A) (A) (A) (A) (A) (A) (A) (A) (A) (A)
                 (A) (A) (A) (A) (A) (A) (A) (A) (A) (A) (A) (A)
                 (A) (A) (A) (A) (A) (A) (A) (A) (A) (A) (A) (A)
                 (A) (A) (A) (A) (A) (A) (A) (A) (A) (A) (A) (A)
                 (A) (A) (A) (A) (A) (A) (A) (A) (A) (A) (A) (A)
                 (A) (A) (A) (A) (A) (A) (A) (A) (A) (A) (A) (A)
                 (A) (A) (A) (A) (A) (A) (A) (A) (A) (A) (A) (A)
                 (A) (A) (A) (A) (A) (A) (A) (A) (A) (A) (A) (A)
                 (A) (A) (A) (A) (A) (A) (A) (A) (A) (A) (A) (A)
                 (A) (A) (A) (A) (A) (A) (A) (A) (A) (A) (A) (A)
                 (A) (A) (A) (A) (A) (A) (A) (A) (A) (A) (A) (A)
                 (A) (A) (A) (A) (A) (A) (A) (A) (A) (A) (A) (A)
                 (A) (A) (A) (A) (A) (A) (A) (A) (A) (A) (A) (A)
                 (A) (A) (A) (A) (A) (A) (A) (A) (A) (A) (A) (A)
                 (A) (A) (A) (A) (A) (A) (A) (A) (A) (A) (A) (A)
                 (A) (A) (A) (A) (A) (A) (A) (A) (A) (A) (A) (A)
                 (A) (A) (A) (A) (A) (A) (A) (A) (A) (A) (A) (A)
                 (A) (A) (A) (A) (A) (A) (A) (A) (A) (A) (A)
 The electronic state is 1-A.
 Alpha  occ. eigenvalues --  -19.09880 -14.37795 -10.30242 -10.30196 -10.29364
 Alpha  occ. eigenvalues --  -10.27377 -10.24938 -10.22530 -10.21496 -10.21311
 Alpha  occ. eigenvalues --  -10.21278 -10.21254 -10.21170 -10.20469 -10.20370
 Alpha  occ. eigenvalues --  -10.19974 -10.19741 -10.19584 -10.19372 -10.17878
 Alpha  occ. eigenvalues --   -1.00267  -0.98207  -0.90721  -0.85616  -0.81713
 Alpha  occ. eigenvalues --   -0.77830  -0.75385  -0.72535  -0.70969  -0.69458
 Alpha  occ. eigenvalues --   -0.66981  -0.65614  -0.63173  -0.61301  -0.58227
 Alpha  occ. eigenvalues --   -0.57770  -0.56635  -0.54652  -0.53028  -0.51705
 Alpha  occ. eigenvalues --   -0.50403  -0.48581  -0.47330  -0.46323  -0.44775
 Alpha  occ. eigenvalues --   -0.44366  -0.43301  -0.41450  -0.41218  -0.39595
 Alpha  occ. eigenvalues --   -0.39173  -0.38814  -0.37947  -0.37797  -0.37403
 Alpha  occ. eigenvalues --   -0.36009  -0.35918  -0.34723  -0.33900  -0.32856
 Alpha  occ. eigenvalues --   -0.30924  -0.30033  -0.29617  -0.28491  -0.26367
 Alpha  occ. eigenvalues --   -0.25733  -0.23753  -0.22569  -0.21651  -0.20188
 Alpha virt. eigenvalues --   -0.16095  -0.10464  -0.08104  -0.07324  -0.06032
 Alpha virt. eigenvalues --   -0.03975  -0.01303   0.01450   0.02620   0.04349
 Alpha virt. eigenvalues --    0.06435   0.07714   0.08900   0.09747   0.09966
 Alpha virt. eigenvalues --    0.10422   0.11492   0.12547   0.12832   0.13431
 Alpha virt. eigenvalues --    0.14433   0.14940   0.15630   0.16459   0.16783
 Alpha virt. eigenvalues --    0.17190   0.18389   0.18731   0.19365   0.20154
 Alpha virt. eigenvalues --    0.22219   0.22425   0.23773   0.25174   0.26645
 Alpha virt. eigenvalues --    0.28894   0.30001   0.30812   0.31950   0.33373
 Alpha virt. eigenvalues --    0.33895   0.35469   0.36428   0.37667   0.38604
 Alpha virt. eigenvalues --    0.39755   0.40529   0.42280   0.43167   0.44627
 Alpha virt. eigenvalues --    0.45498   0.47075   0.47601   0.48011   0.49071
 Alpha virt. eigenvalues --    0.49381   0.50167   0.50312   0.51059   0.51309
 Alpha virt. eigenvalues --    0.52041   0.52685   0.52991   0.53512   0.54050
 Alpha virt. eigenvalues --    0.54366   0.54903   0.55255   0.55599   0.55958
 Alpha virt. eigenvalues --    0.56842   0.57829   0.58428   0.59794   0.59928
 Alpha virt. eigenvalues --    0.60533   0.60934   0.61647   0.62216   0.62573
 Alpha virt. eigenvalues --    0.63118   0.63374   0.63715   0.64227   0.65172
 Alpha virt. eigenvalues --    0.65583   0.66360   0.68279   0.68667   0.68982
 Alpha virt. eigenvalues --    0.69484   0.70112   0.71193   0.71476   0.72048
 Alpha virt. eigenvalues --    0.72335   0.72768   0.73089   0.73309   0.74423
 Alpha virt. eigenvalues --    0.74790   0.75091   0.75324   0.76135   0.76380
 Alpha virt. eigenvalues --    0.76913   0.77576   0.78096   0.78476   0.79061
 Alpha virt. eigenvalues --    0.79713   0.80399   0.80778   0.81549   0.82375
 Alpha virt. eigenvalues --    0.82805   0.83285   0.83825   0.84624   0.85567
 Alpha virt. eigenvalues --    0.86224   0.86576   0.87001   0.87062   0.89129
 Alpha virt. eigenvalues --    0.89264   0.89920   0.91218   0.91835   0.93036
 Alpha virt. eigenvalues --    0.93875   0.94321   0.95176   0.95614   0.96552
 Alpha virt. eigenvalues --    0.97166   0.98376   0.98550   0.99005   1.00210
 Alpha virt. eigenvalues --    1.00627   1.02072   1.04150   1.04834   1.05657
 Alpha virt. eigenvalues --    1.07333   1.08114   1.08597   1.09584   1.10182
 Alpha virt. eigenvalues --    1.10570   1.11439   1.12470   1.13586   1.15248
 Alpha virt. eigenvalues --    1.16256   1.16885   1.17732   1.17995   1.20133
 Alpha virt. eigenvalues --    1.20573   1.22469   1.23892   1.24144   1.24932
 Alpha virt. eigenvalues --    1.25417   1.26368   1.26779   1.29300   1.30093
 Alpha virt. eigenvalues --    1.30180   1.31171   1.33158   1.34629   1.35027
 Alpha virt. eigenvalues --    1.35453   1.36575   1.37539   1.38219   1.38792
 Alpha virt. eigenvalues --    1.40103   1.42007   1.42324   1.43150   1.43741
 Alpha virt. eigenvalues --    1.45345   1.46386   1.46861   1.47929   1.48577
 Alpha virt. eigenvalues --    1.48787   1.50143   1.50954   1.52138   1.52887
 Alpha virt. eigenvalues --    1.53858   1.54311   1.56154   1.57307   1.59949
 Alpha virt. eigenvalues --    1.60427   1.61751   1.61937   1.62681   1.62901
 Alpha virt. eigenvalues --    1.64312   1.65751   1.66322   1.68165   1.69768
 Alpha virt. eigenvalues --    1.70098   1.70837   1.72954   1.75014   1.75877
 Alpha virt. eigenvalues --    1.76774   1.77302   1.78271   1.78893   1.81005
 Alpha virt. eigenvalues --    1.82386   1.83669   1.83865   1.85393   1.87591
 Alpha virt. eigenvalues --    1.88643   1.90096   1.92861   1.94044   1.95742
 Alpha virt. eigenvalues --    1.97814   2.00111   2.00720   2.01525   2.03631
 Alpha virt. eigenvalues --    2.04529   2.05385   2.07165   2.07488   2.08683
 Alpha virt. eigenvalues --    2.12820   2.13831   2.15413   2.17315   2.18339
 Alpha virt. eigenvalues --    2.19862   2.20430   2.21349   2.22965   2.24894
 Alpha virt. eigenvalues --    2.25215   2.26371   2.28047   2.29052   2.30204
 Alpha virt. eigenvalues --    2.30765   2.31100   2.32268   2.33898   2.34649
 Alpha virt. eigenvalues --    2.37134   2.38487   2.40718   2.41449   2.43056
 Alpha virt. eigenvalues --    2.44789   2.45322   2.47729   2.49193   2.50442
 Alpha virt. eigenvalues --    2.52502   2.52927   2.54957   2.56416   2.56637
 Alpha virt. eigenvalues --    2.57576   2.58805   2.60601   2.62474   2.63791
 Alpha virt. eigenvalues --    2.65279   2.66065   2.67107   2.68520   2.69497
 Alpha virt. eigenvalues --    2.71286   2.72019   2.73829   2.74272   2.74912
 Alpha virt. eigenvalues --    2.75922   2.76389   2.77413   2.79039   2.80049
 Alpha virt. eigenvalues --    2.80447   2.81701   2.82425   2.83556   2.84826
 Alpha virt. eigenvalues --    2.85443   2.86495   2.87620   2.89126   2.89642
 Alpha virt. eigenvalues --    2.89993   2.90700   2.92556   2.92936   2.94053
 Alpha virt. eigenvalues --    2.94541   2.95077   2.95674   2.96636   2.97665
 Alpha virt. eigenvalues --    2.98301   2.99789   3.01318   3.02943   3.03518
 Alpha virt. eigenvalues --    3.04094   3.04535   3.05721   3.07080   3.08031
 Alpha virt. eigenvalues --    3.09040   3.09726   3.09988   3.10864   3.12154
 Alpha virt. eigenvalues --    3.12877   3.13701   3.14487   3.15556   3.16760
 Alpha virt. eigenvalues --    3.18318   3.18806   3.20184   3.20517   3.21121
 Alpha virt. eigenvalues --    3.21820   3.22853   3.24127   3.24762   3.25313
 Alpha virt. eigenvalues --    3.26307   3.26634   3.28368   3.28682   3.29227
 Alpha virt. eigenvalues --    3.30197   3.31105   3.32448   3.32637   3.33366
 Alpha virt. eigenvalues --    3.34563   3.36013   3.36240   3.37381   3.37854
 Alpha virt. eigenvalues --    3.39015   3.39881   3.40546   3.40906   3.42079
 Alpha virt. eigenvalues --    3.42578   3.44546   3.45496   3.46676   3.47411
 Alpha virt. eigenvalues --    3.47647   3.48982   3.51243   3.51423   3.51839
 Alpha virt. eigenvalues --    3.52841   3.53815   3.54662   3.55392   3.57014
 Alpha virt. eigenvalues --    3.57513   3.58977   3.60035   3.60693   3.61678
 Alpha virt. eigenvalues --    3.62597   3.63969   3.66842   3.67936   3.68597
 Alpha virt. eigenvalues --    3.70568   3.71233   3.72365   3.73213   3.74674
 Alpha virt. eigenvalues --    3.76544   3.78465   3.79168   3.80720   3.81471
 Alpha virt. eigenvalues --    3.83006   3.84882   3.86134   3.87365   3.88690
 Alpha virt. eigenvalues --    3.91254   3.92479   3.94550   3.95502   3.96747
 Alpha virt. eigenvalues --    3.97412   3.98859   4.01872   4.04514   4.05809
 Alpha virt. eigenvalues --    4.06284   4.07634   4.09222   4.11636   4.12446
 Alpha virt. eigenvalues --    4.13306   4.14983   4.15486   4.16992   4.18565
 Alpha virt. eigenvalues --    4.20764   4.22204   4.22564   4.24374   4.25606
 Alpha virt. eigenvalues --    4.26639   4.27050   4.27190   4.28611   4.29118
 Alpha virt. eigenvalues --    4.31082   4.31486   4.33117   4.33618   4.33827
 Alpha virt. eigenvalues --    4.34711   4.35540   4.37254   4.38023   4.39863
 Alpha virt. eigenvalues --    4.40604   4.41453   4.42945   4.43628   4.44316
 Alpha virt. eigenvalues --    4.45656   4.46473   4.47010   4.47620   4.49539
 Alpha virt. eigenvalues --    4.49978   4.50771   4.51485   4.52676   4.53294
 Alpha virt. eigenvalues --    4.53865   4.54779   4.55382   4.55630   4.56175
 Alpha virt. eigenvalues --    4.57131   4.57422   4.58180   4.59073   4.59772
 Alpha virt. eigenvalues --    4.60340   4.61687   4.62740   4.63429   4.63828
 Alpha virt. eigenvalues --    4.64858   4.66754   4.66811   4.68148   4.68676
 Alpha virt. eigenvalues --    4.70498   4.71608   4.72432   4.72652   4.74860
 Alpha virt. eigenvalues --    4.75778   4.76017   4.77783   4.78918   4.81389
 Alpha virt. eigenvalues --    4.81820   4.83100   4.83390   4.83728   4.85016
 Alpha virt. eigenvalues --    4.86103   4.87331   4.88167   4.89686   4.91516
 Alpha virt. eigenvalues --    4.92155   4.94056   4.95346   4.97182   5.00136
 Alpha virt. eigenvalues --    5.00587   5.02305   5.03601   5.06681   5.08229
 Alpha virt. eigenvalues --    5.10436   5.11413   5.12335   5.13063   5.13916
 Alpha virt. eigenvalues --    5.16145   5.20881   5.22308   5.23947   5.26022
 Alpha virt. eigenvalues --    5.27455   5.30861   5.32806   5.35291   5.36377
 Alpha virt. eigenvalues --    5.37627   5.39674   5.40493   5.41952   5.44337
 Alpha virt. eigenvalues --    5.47312   5.49525   5.52193   5.55535   5.56429
 Alpha virt. eigenvalues --    5.57250   5.60078   5.66299   5.68474   5.76535
 Alpha virt. eigenvalues --    5.79616   5.80934   5.84528   5.88333   5.99999
 Alpha virt. eigenvalues --    6.00702   6.02829   6.16507   6.26454   6.28609
 Alpha virt. eigenvalues --    6.42960   6.45356   6.65457   6.81201   9.92637
 Alpha virt. eigenvalues --    9.95755  10.04126  10.25988  10.49572  10.65932
 Alpha virt. eigenvalues --   10.75192  10.89872  10.95292  11.16599  11.25436
 Alpha virt. eigenvalues --   11.32511  11.34252  11.55842  11.72666  11.77925
 Alpha virt. eigenvalues --   11.99307  12.30862  12.49755  13.02376  15.98186
          Condensed to atoms (all electrons):
               1          2          3          4          5          6
     1  C    5.142058   0.297227  -0.013744  -0.012753  -0.036427   0.000153
     2  C    0.297227   5.322870   0.324745  -0.080798   0.410736  -0.009198
     3  C   -0.013744   0.324745   4.398432   0.765516  -0.003020  -0.001499
     4  O   -0.012753  -0.080798   0.765516   7.663812   0.002020   0.000017
     5  C   -0.036427   0.410736  -0.003020   0.002020   5.339721   0.217757
     6  C    0.000153  -0.009198  -0.001499   0.000017   0.217757   5.309406
     7  C   -0.000036  -0.002219   0.000101  -0.000002  -0.012103   0.558083
     8  C   -0.000001  -0.000422   0.000010  -0.000000   0.003135  -0.056258
     9  C    0.000000   0.000004  -0.000000   0.000000   0.000046   0.003483
    10  C    0.000000   0.000000   0.000000  -0.000000  -0.000016  -0.000429
    11  C    0.000000  -0.000000  -0.000000   0.000000   0.000001  -0.000155
    12  C    0.000000   0.000000   0.000000   0.000000   0.000000   0.000010
    13  C    0.000000  -0.000000   0.000000  -0.000000   0.000000  -0.000002
    14  C    0.000000   0.000000  -0.000000   0.000000   0.000000  -0.000001
    15  C   -0.000000   0.000000   0.000000  -0.000000  -0.000000   0.000000
    16  C   -0.000000  -0.000000  -0.000000   0.000000  -0.000000   0.000003
    17  N    0.000000  -0.000000   0.000000   0.000000   0.000000  -0.000000
    18  C    0.000000   0.000000   0.000000   0.000000   0.000000  -0.000026
    19  C    0.000000  -0.000000   0.000000  -0.000000   0.000005  -0.004336
    20  C   -0.000000  -0.000006   0.000007   0.000000  -0.006395   0.248225
    21  H    0.371688  -0.014309  -0.003743   0.017308   0.000695  -0.000002
    22  H    0.365182  -0.015423   0.000890   0.000703   0.000652  -0.000000
    23  H    0.364119  -0.013100   0.000879   0.000751   0.000257  -0.000001
    24  H    0.007566  -0.132269   0.348725  -0.052243  -0.007972   0.004632
    25  H    0.000503  -0.060553   0.001270  -0.000108   0.316674  -0.019933
    26  H   -0.000036   0.001069  -0.000002   0.000000  -0.025986  -0.027634
    27  H    0.000000   0.000024  -0.000003   0.000000   0.001139  -0.027638
    28  H    0.000000   0.000000  -0.000000   0.000000  -0.000037  -0.000096
    29  H   -0.000000   0.000000  -0.000000   0.000000   0.000002  -0.000096
    30  H    0.000000  -0.000000  -0.000000   0.000000   0.000000   0.000000
    31  H    0.000000  -0.000000   0.000000   0.000000  -0.000000  -0.000000
    32  H   -0.000000   0.000000   0.000000  -0.000000  -0.000000   0.000000
    33  H   -0.000000  -0.000000  -0.000000   0.000000  -0.000000   0.000000
    34  H   -0.000000   0.000000  -0.000000  -0.000000  -0.000000  -0.000003
    35  H    0.000000  -0.000000  -0.000000  -0.000000   0.000000   0.000000
    36  H   -0.000000   0.000000   0.000000   0.000000  -0.000000   0.000138
    37  H    0.000000   0.000013  -0.000041  -0.000000   0.001083  -0.037535
               7          8          9         10         11         12
     1  C   -0.000036  -0.000001   0.000000   0.000000   0.000000   0.000000
     2  C   -0.002219  -0.000422   0.000004   0.000000  -0.000000   0.000000
     3  C    0.000101   0.000010  -0.000000   0.000000  -0.000000   0.000000
     4  O   -0.000002  -0.000000   0.000000  -0.000000   0.000000   0.000000
     5  C   -0.012103   0.003135   0.000046  -0.000016   0.000001   0.000000
     6  C    0.558083  -0.056258   0.003483  -0.000429  -0.000155   0.000010
     7  C    4.735525   0.443966  -0.038013   0.005079   0.000007  -0.000048
     8  C    0.443966   4.842478   0.556772  -0.016454  -0.005552   0.000606
     9  C   -0.038013   0.556772   5.121716   0.391765  -0.022717   0.006028
    10  C    0.005079  -0.016454   0.391765   4.491951   0.625318   0.025987
    11  C    0.000007  -0.005552  -0.022717   0.625318   5.044614   0.383533
    12  C   -0.000048   0.000606   0.006028   0.025987   0.383533   4.408809
    13  C    0.000006   0.000161   0.005655  -0.067987  -0.004136   0.538568
    14  C    0.000058   0.000664  -0.106648   0.358100  -0.029195  -0.018472
    15  C   -0.000000  -0.000022  -0.000278   0.002136  -0.048126   0.454667
    16  C    0.000000   0.000003   0.000011   0.001162  -0.006692  -0.007872
    17  N   -0.000000   0.000000  -0.000000  -0.000067   0.000250  -0.000006
    18  C   -0.000000  -0.000004  -0.000001  -0.000017  -0.003116   0.001429
    19  C   -0.000015  -0.001225   0.000013   0.001460  -0.011115   0.000347
    20  C   -0.024891  -0.015351   0.001522  -0.000800  -0.005274   0.000478
    21  H    0.000000   0.000000   0.000000   0.000000  -0.000000   0.000000
    22  H   -0.000001   0.000000  -0.000000  -0.000000  -0.000000  -0.000000
    23  H    0.000004   0.000000   0.000000   0.000000  -0.000000   0.000000
    24  H   -0.000001  -0.000031   0.000000   0.000000   0.000000  -0.000000
    25  H   -0.016679   0.002847  -0.000028  -0.000003  -0.000000  -0.000000
    26  H    0.373336  -0.068296   0.003237   0.000078   0.000075   0.000001
    27  H   -0.045328   0.373060  -0.034719  -0.020118   0.004418   0.000075
    28  H   -0.004630  -0.037676   0.358430  -0.033055   0.002613  -0.000086
    29  H    0.000323   0.002980  -0.009867  -0.042713   0.342017  -0.040163
    30  H   -0.000000  -0.000000  -0.000176   0.003408   0.008600  -0.030603
    31  H   -0.000004   0.000614   0.002211  -0.010665  -0.002211  -0.002820
    32  H   -0.000022  -0.000023   0.003331  -0.015238  -0.001564  -0.003765
    33  H   -0.000000   0.000000   0.000001   0.000105   0.003222  -0.038173
    34  H    0.000000   0.000032   0.000041   0.001205   0.007610  -0.038542
    35  H    0.000000  -0.000000  -0.000000   0.000001   0.000060  -0.000056
    36  H   -0.000002  -0.000002  -0.000000  -0.000006   0.000903   0.000016
    37  H    0.000565   0.000380  -0.000002   0.000077   0.000288  -0.000016
              13         14         15         16         17         18
     1  C    0.000000   0.000000  -0.000000  -0.000000   0.000000   0.000000
     2  C   -0.000000   0.000000   0.000000  -0.000000  -0.000000   0.000000
     3  C    0.000000  -0.000000   0.000000  -0.000000   0.000000   0.000000
     4  O   -0.000000   0.000000  -0.000000   0.000000   0.000000   0.000000
     5  C    0.000000   0.000000  -0.000000  -0.000000   0.000000   0.000000
     6  C   -0.000002  -0.000001   0.000000   0.000003  -0.000000  -0.000026
     7  C    0.000006   0.000058  -0.000000   0.000000  -0.000000  -0.000000
     8  C    0.000161   0.000664  -0.000022   0.000003   0.000000  -0.000004
     9  C    0.005655  -0.106648  -0.000278   0.000011  -0.000000  -0.000001
    10  C   -0.067987   0.358100   0.002136   0.001162  -0.000067  -0.000017
    11  C   -0.004136  -0.029195  -0.048126  -0.006692   0.000250  -0.003116
    12  C    0.538568  -0.018472   0.454667  -0.007872  -0.000006   0.001429
    13  C    5.132952   0.314725  -0.064073  -0.006781  -0.000372  -0.000028
    14  C    0.314725   5.203855   0.008099   0.000092   0.000008  -0.000004
    15  C   -0.064073   0.008099   5.101878   0.580311   0.004338   0.000388
    16  C   -0.006781   0.000092   0.580311   4.564379   0.418740  -0.207727
    17  N   -0.000372   0.000008   0.004338   0.418740   6.417131   0.580925
    18  C   -0.000028  -0.000004   0.000388  -0.207727   0.580925   5.439255
    19  C   -0.000066  -0.000080   0.001701  -0.003165  -0.023365   0.158352
    20  C   -0.000016  -0.000042  -0.000085   0.000113   0.000118  -0.004576
    21  H   -0.000000  -0.000000   0.000000   0.000000   0.000000  -0.000000
    22  H    0.000000  -0.000000   0.000000   0.000000   0.000000   0.000000
    23  H   -0.000000  -0.000000   0.000000   0.000000   0.000000  -0.000000
    24  H    0.000000   0.000000  -0.000000  -0.000000   0.000000  -0.000000
    25  H   -0.000000  -0.000000   0.000000   0.000000  -0.000000  -0.000000
    26  H   -0.000000   0.000008  -0.000000   0.000000   0.000000  -0.000000
    27  H   -0.000059   0.000932  -0.000015   0.000017  -0.000001   0.000002
    28  H    0.000115  -0.001327   0.000001   0.000000  -0.000000  -0.000000
    29  H    0.005055   0.012562  -0.002992  -0.008418   0.000410   0.002767
    30  H    0.363406  -0.052715  -0.009081   0.000637  -0.000001   0.000000
    31  H   -0.007607   0.325484  -0.000042  -0.000007  -0.000000   0.000000
    32  H   -0.008610   0.334197  -0.000004   0.000004  -0.000000   0.000000
    33  H   -0.003628  -0.000091   0.352209  -0.030216  -0.005456  -0.000637
    34  H    0.002960  -0.000019  -0.049775   0.435434  -0.121285  -0.043656
    35  H   -0.000000  -0.000000  -0.000496   0.012268  -0.036988   0.298684
    36  H    0.000002   0.000001  -0.000266   0.001875   0.000357  -0.039610
    37  H   -0.000001   0.000001   0.000003  -0.000003  -0.000005   0.000204
              19         20         21         22         23         24
     1  C    0.000000  -0.000000   0.371688   0.365182   0.364119   0.007566
     2  C   -0.000000  -0.000006  -0.014309  -0.015423  -0.013100  -0.132269
     3  C    0.000000   0.000007  -0.003743   0.000890   0.000879   0.348725
     4  O   -0.000000   0.000000   0.017308   0.000703   0.000751  -0.052243
     5  C    0.000005  -0.006395   0.000695   0.000652   0.000257  -0.007972
     6  C   -0.004336   0.248225  -0.000002  -0.000000  -0.000001   0.004632
     7  C   -0.000015  -0.024891   0.000000  -0.000001   0.000004  -0.000001
     8  C   -0.001225  -0.015351   0.000000   0.000000   0.000000  -0.000031
     9  C    0.000013   0.001522   0.000000  -0.000000   0.000000   0.000000
    10  C    0.001460  -0.000800   0.000000  -0.000000   0.000000   0.000000
    11  C   -0.011115  -0.005274  -0.000000  -0.000000  -0.000000   0.000000
    12  C    0.000347   0.000478   0.000000  -0.000000   0.000000  -0.000000
    13  C   -0.000066  -0.000016  -0.000000   0.000000  -0.000000   0.000000
    14  C   -0.000080  -0.000042  -0.000000  -0.000000  -0.000000   0.000000
    15  C    0.001701  -0.000085   0.000000   0.000000   0.000000  -0.000000
    16  C   -0.003165   0.000113   0.000000   0.000000   0.000000  -0.000000
    17  N   -0.023365   0.000118   0.000000   0.000000   0.000000   0.000000
    18  C    0.158352  -0.004576  -0.000000   0.000000  -0.000000  -0.000000
    19  C    5.461436   0.367618  -0.000000  -0.000000  -0.000000   0.000001
    20  C    0.367618   5.308944   0.000000   0.000000   0.000000  -0.000193
    21  H   -0.000000   0.000000   0.518023  -0.035883  -0.037616   0.000748
    22  H   -0.000000   0.000000  -0.035883   0.579933  -0.033332  -0.000072
    23  H   -0.000000   0.000000  -0.037616  -0.033332   0.583685  -0.000053
    24  H    0.000001  -0.000193   0.000748  -0.000072  -0.000053   0.774920
    25  H   -0.000000   0.000152  -0.000110   0.000471   0.000525  -0.000015
    26  H   -0.000003   0.001355   0.000001  -0.000003   0.000003   0.000027
    27  H    0.001155   0.016184  -0.000000  -0.000000  -0.000000   0.000014
    28  H   -0.000002  -0.000044   0.000000  -0.000000  -0.000000   0.000000
    29  H    0.006548   0.000478  -0.000000  -0.000000   0.000000  -0.000000
    30  H   -0.000000   0.000000  -0.000000  -0.000000   0.000000   0.000000
    31  H   -0.000000   0.000000  -0.000000  -0.000000  -0.000000   0.000000
    32  H    0.000002   0.000001   0.000000   0.000000  -0.000000  -0.000000
    33  H   -0.000026  -0.000000   0.000000   0.000000   0.000000   0.000000
    34  H    0.006878  -0.001190   0.000000  -0.000000   0.000000   0.000000
    35  H   -0.018791   0.000060  -0.000000  -0.000000  -0.000000   0.000000
    36  H    0.253860  -0.005766   0.000000   0.000000   0.000000  -0.000000
    37  H   -0.019489   0.327554   0.000000  -0.000000  -0.000000   0.000534
              25         26         27         28         29         30
     1  C    0.000503  -0.000036   0.000000   0.000000  -0.000000   0.000000
     2  C   -0.060553   0.001069   0.000024   0.000000   0.000000  -0.000000
     3  C    0.001270  -0.000002  -0.000003  -0.000000  -0.000000  -0.000000
     4  O   -0.000108   0.000000   0.000000   0.000000   0.000000   0.000000
     5  C    0.316674  -0.025986   0.001139  -0.000037   0.000002   0.000000
     6  C   -0.019933  -0.027634  -0.027638  -0.000096  -0.000096   0.000000
     7  C   -0.016679   0.373336  -0.045328  -0.004630   0.000323  -0.000000
     8  C    0.002847  -0.068296   0.373060  -0.037676   0.002980  -0.000000
     9  C   -0.000028   0.003237  -0.034719   0.358430  -0.009867  -0.000176
    10  C   -0.000003   0.000078  -0.020118  -0.033055  -0.042713   0.003408
    11  C   -0.000000   0.000075   0.004418   0.002613   0.342017   0.008600
    12  C   -0.000000   0.000001   0.000075  -0.000086  -0.040163  -0.030603
    13  C   -0.000000  -0.000000  -0.000059   0.000115   0.005055   0.363406
    14  C   -0.000000   0.000008   0.000932  -0.001327   0.012562  -0.052715
    15  C    0.000000  -0.000000  -0.000015   0.000001  -0.002992  -0.009081
    16  C    0.000000   0.000000   0.000017   0.000000  -0.008418   0.000637
    17  N   -0.000000   0.000000  -0.000001  -0.000000   0.000410  -0.000001
    18  C   -0.000000  -0.000000   0.000002  -0.000000   0.002767   0.000000
    19  C   -0.000000  -0.000003   0.001155  -0.000002   0.006548  -0.000000
    20  C    0.000152   0.001355   0.016184  -0.000044   0.000478   0.000000
    21  H   -0.000110   0.000001  -0.000000   0.000000  -0.000000  -0.000000
    22  H    0.000471  -0.000003  -0.000000  -0.000000  -0.000000  -0.000000
    23  H    0.000525   0.000003  -0.000000  -0.000000   0.000000   0.000000
    24  H   -0.000015   0.000027   0.000014   0.000000  -0.000000   0.000000
    25  H    0.652865  -0.014136  -0.000211  -0.000036   0.000000  -0.000000
    26  H   -0.014136   0.613981   0.007011   0.004280   0.000005   0.000000
    27  H   -0.000211   0.007011   0.602159   0.005895  -0.000659   0.000002
    28  H   -0.000036   0.004280   0.005895   0.585192  -0.000195   0.000003
    29  H    0.000000   0.000005  -0.000659  -0.000195   0.582789  -0.000158
    30  H   -0.000000   0.000000   0.000002   0.000003  -0.000158   0.608527
    31  H   -0.000000  -0.000001   0.000017   0.001245  -0.000363   0.000557
    32  H    0.000000   0.000002   0.000055   0.000110  -0.000189   0.001010
    33  H    0.000000   0.000000  -0.000000  -0.000000  -0.000166   0.002393
    34  H   -0.000000   0.000000  -0.000020  -0.000001   0.003148   0.000012
    35  H    0.000000   0.000000   0.000000   0.000000  -0.000080  -0.000000
    36  H    0.000000   0.000000   0.000009  -0.000000  -0.001365  -0.000000
    37  H   -0.000026  -0.000085   0.000762   0.000001  -0.000366  -0.000000
              31         32         33         34         35         36
     1  C    0.000000  -0.000000  -0.000000  -0.000000   0.000000  -0.000000
     2  C   -0.000000   0.000000  -0.000000   0.000000  -0.000000   0.000000
     3  C    0.000000   0.000000  -0.000000  -0.000000  -0.000000   0.000000
     4  O    0.000000  -0.000000   0.000000  -0.000000  -0.000000   0.000000
     5  C   -0.000000  -0.000000  -0.000000  -0.000000   0.000000  -0.000000
     6  C   -0.000000   0.000000   0.000000  -0.000003   0.000000   0.000138
     7  C   -0.000004  -0.000022  -0.000000   0.000000   0.000000  -0.000002
     8  C    0.000614  -0.000023   0.000000   0.000032  -0.000000  -0.000002
     9  C    0.002211   0.003331   0.000001   0.000041  -0.000000  -0.000000
    10  C   -0.010665  -0.015238   0.000105   0.001205   0.000001  -0.000006
    11  C   -0.002211  -0.001564   0.003222   0.007610   0.000060   0.000903
    12  C   -0.002820  -0.003765  -0.038173  -0.038542  -0.000056   0.000016
    13  C   -0.007607  -0.008610  -0.003628   0.002960  -0.000000   0.000002
    14  C    0.325484   0.334197  -0.000091  -0.000019  -0.000000   0.000001
    15  C   -0.000042  -0.000004   0.352209  -0.049775  -0.000496  -0.000266
    16  C   -0.000007   0.000004  -0.030216   0.435434   0.012268   0.001875
    17  N   -0.000000  -0.000000  -0.005456  -0.121285  -0.036988   0.000357
    18  C    0.000000   0.000000  -0.000637  -0.043656   0.298684  -0.039610
    19  C   -0.000000   0.000002  -0.000026   0.006878  -0.018791   0.253860
    20  C    0.000000   0.000001  -0.000000  -0.001190   0.000060  -0.005766
    21  H   -0.000000   0.000000   0.000000   0.000000  -0.000000   0.000000
    22  H   -0.000000   0.000000   0.000000  -0.000000  -0.000000   0.000000
    23  H   -0.000000  -0.000000   0.000000   0.000000  -0.000000   0.000000
    24  H    0.000000  -0.000000   0.000000   0.000000   0.000000  -0.000000
    25  H   -0.000000   0.000000   0.000000  -0.000000   0.000000   0.000000
    26  H   -0.000001   0.000002   0.000000   0.000000   0.000000   0.000000
    27  H    0.000017   0.000055  -0.000000  -0.000020   0.000000   0.000009
    28  H    0.001245   0.000110  -0.000000  -0.000001   0.000000  -0.000000
    29  H   -0.000363  -0.000189  -0.000166   0.003148  -0.000080  -0.001365
    30  H    0.000557   0.001010   0.002393   0.000012  -0.000000  -0.000000
    31  H    0.591301  -0.027328  -0.000002  -0.000004  -0.000000   0.000000
    32  H   -0.027328   0.580754   0.000002   0.000005   0.000000  -0.000000
    33  H   -0.000002   0.000002   0.596730   0.009560   0.000031   0.000009
    34  H   -0.000004   0.000005   0.009560   0.690583   0.003916  -0.002353
    35  H   -0.000000   0.000000   0.000031   0.003916   0.575329   0.007209
    36  H    0.000000  -0.000000   0.000009  -0.002353   0.007209   0.595128
    37  H   -0.000000   0.000000   0.000000   0.000042  -0.000008  -0.001103
              37
     1  C    0.000000
     2  C    0.000013
     3  C   -0.000041
     4  O   -0.000000
     5  C    0.001083
     6  C   -0.037535
     7  C    0.000565
     8  C    0.000380
     9  C   -0.000002
    10  C    0.000077
    11  C    0.000288
    12  C   -0.000016
    13  C   -0.000001
    14  C    0.000001
    15  C    0.000003
    16  C   -0.000003
    17  N   -0.000005
    18  C    0.000204
    19  C   -0.019489
    20  C    0.327554
    21  H    0.000000
    22  H   -0.000000
    23  H   -0.000000
    24  H    0.000534
    25  H   -0.000026
    26  H   -0.000085
    27  H    0.000762
    28  H    0.000001
    29  H   -0.000366
    30  H   -0.000000
    31  H   -0.000000
    32  H    0.000000
    33  H    0.000000
    34  H    0.000042
    35  H   -0.000008
    36  H   -0.001103
    37  H    0.530251
 Mulliken charges:
               1
     1  C   -0.485500
     2  C   -0.028391
     3  C    0.181477
     4  O   -0.304226
     5  C   -0.201968
     6  C   -0.157067
     7  C    0.026942
     8  C   -0.026391
     9  C   -0.241819
    10  C    0.299737
    11  C   -0.283675
    12  C    0.360065
    13  C   -0.200243
    14  C   -0.350194
    15  C   -0.330479
    16  C    0.255832
    17  N   -0.234731
    18  C   -0.182604
    19  C   -0.177698
    20  C   -0.208178
    21  H    0.183201
    22  H    0.136880
    23  H    0.133879
    24  H    0.055681
    25  H    0.136531
    26  H    0.131712
    27  H    0.115842
    28  H    0.119296
    29  H    0.148707
    30  H    0.104177
    31  H    0.129625
    32  H    0.137269
    33  H    0.114134
    34  H    0.095422
    35  H    0.158863
    36  H    0.190967
    37  H    0.196920
 Sum of Mulliken charges =  -0.00000
 Mulliken charges with hydrogens summed into heavy atoms:
               1
     1  C   -0.031540
     2  C   -0.028391
     3  C    0.237158
     4  O   -0.304226
     5  C   -0.065437
     6  C   -0.157067
     7  C    0.158655
     8  C    0.089451
     9  C   -0.122523
    10  C    0.299737
    11  C   -0.134968
    12  C    0.360065
    13  C   -0.096066
    14  C   -0.083299
    15  C   -0.216344
    16  C    0.351254
    17  N   -0.234731
    18  C   -0.023741
    19  C    0.013269
    20  C   -0.011258
 Electronic spatial extent (au):  <R**2>=           9272.8740
 Charge=             -0.0000 electrons
 Dipole moment (field-independent basis, Debye):
    X=             -6.4697    Y=             -4.8873    Z=             -0.3176  Tot=              8.1144
 Quadrupole moment (field-independent basis, Debye-Ang):
   XX=           -140.2214   YY=           -110.2933   ZZ=           -120.1495
   XY=            -11.3503   XZ=             -8.3448   YZ=             -0.8302
 Traceless Quadrupole moment (field-independent basis, Debye-Ang):
   XX=            -16.6667   YY=             13.2614   ZZ=              3.4052
   XY=            -11.3503   XZ=             -8.3448   YZ=             -0.8302
 Octapole moment (field-independent basis, Debye-Ang**2):
  XXX=           -187.2264  YYY=            -25.0481  ZZZ=              9.0022  XYY=            -30.2157
  XXY=           -143.1398  XXZ=            -45.9491  XZZ=             -9.1331  YZZ=             -5.9971
  YYZ=             -8.7523  XYZ=              0.8842
 Hexadecapole moment (field-independent basis, Debye-Ang**3):
 XXXX=         -10925.8995 YYYY=          -2098.9424 ZZZZ=           -304.1944 XXXY=           -458.7619
 XXXZ=           -449.4555 YYYX=             -1.1063 YYYZ=             -2.1288 ZZZX=             23.6236
 ZZZY=              3.1100 XXYY=          -2195.6688 XXZZ=          -1791.1743 YYZZ=           -411.0460
 XXYZ=           -141.1903 YYXZ=             -0.5732 ZZXY=             -7.9172
 N-N= 1.295047728146D+03 E-N=-4.504746209000D+03  KE= 8.182484224883D+02
 PrsmSu:  requested number of processors reduced to:  12 ShMem   1 Linda.
 Calling FoFJK, ICntrl=      2127 FMM=F ISym2X=0 I1Cent= 0 IOpClX= 0 NMat=1 NMatS=1 NMatT=0.
 ***** Axes restored to original set *****
 -------------------------------------------------------------------
 Center     Atomic                   Forces (Hartrees/Bohr)
 Number     Number              X              Y              Z
 -------------------------------------------------------------------
      1        6          -0.003648756   -0.003644844   -0.007008583
      2        6           0.031075973   -0.021650790    0.009529525
      3        6          -0.029535391   -0.016000341   -0.000283090
      4        8           0.011112110   -0.003004342    0.008679703
      5        6          -0.127854302    0.009813353    0.005536029
      6        6          -0.077118661    0.053072209   -0.022505467
      7        6          -0.009345016   -0.017552582    0.022770431
      8        6           0.019866846   -0.005573843    0.004499023
      9        6           0.006760167    0.007993566   -0.003957021
     10        6           0.016097619    0.020069144   -0.006852132
     11        6          -0.000738092   -0.013474967   -0.009643978
     12        6           0.017208874    0.001427566   -0.004912266
     13        6           0.004956699    0.035992544    0.009268355
     14        6           0.021951989    0.010985278   -0.001786673
     15        6           0.007370753    0.029780516    0.012594398
     16        6          -0.038559778    0.024923570   -0.029786402
     17        7          -0.049891899   -0.063712412    0.027799412
     18        6           0.066018575   -0.034690712   -0.049227062
     19        6          -0.016690928   -0.021297603    0.022331884
     20        6           0.042925118   -0.020654723    0.014824230
     21        1           0.036309203    0.007097367   -0.007460468
     22        1           0.019400618    0.007740693   -0.001548871
     23        1           0.029228288   -0.000794369   -0.011048718
     24        1           0.020770976   -0.013707882    0.009039515
     25        1           0.048145178   -0.031640157   -0.018337050
     26        1           0.023199303   -0.037145626   -0.012520077
     27        1           0.022211745    0.009654132    0.005213086
     28        1           0.000121632    0.001857778   -0.005105655
     29        1           0.003387199    0.002949504   -0.001768436
     30        1           0.012900880    0.006270419    0.003352902
     31        1          -0.001188836    0.018741738    0.003157403
     32        1          -0.003147151    0.014209962    0.001889233
     33        1           0.006105621    0.012300892    0.007187927
     34        1          -0.025082529    0.020992055    0.002438205
     35        1          -0.042003814    0.000308497    0.019642950
     36        1          -0.064019212    0.020008872    0.011258548
     37        1           0.021699001   -0.011644463   -0.007260813
 -------------------------------------------------------------------
 Cartesian Forces:  Max     0.127854302 RMS     0.026181926

 GradGradGradGradGradGradGradGradGradGradGradGradGradGradGradGradGradGrad
 Berny optimization.
 FormGI is forming the generalized inverse of G from B-inverse, IUseBI=4.
 Internal  Forces:  Max     0.294821681 RMS     0.077258608
 Search for a local minimum.
 Step number   1 out of a maximum of  170
 All quantities printed in internal units (Hartrees-Bohrs-Radians)
 Mixed Optimization -- RFO/linear search
 Second derivative matrix not updated -- first step.
 ITU=  0
     Eigenvalues ---    0.00230   0.00230   0.00230   0.00230   0.00230
     Eigenvalues ---    0.00230   0.00230   0.00579   0.00918   0.01429
     Eigenvalues ---    0.01436   0.01525   0.01525   0.01630   0.01702
     Eigenvalues ---    0.01895   0.01980   0.01987   0.01998   0.02157
     Eigenvalues ---    0.02283   0.02399   0.02576   0.02632   0.02910
     Eigenvalues ---    0.03209   0.03282   0.03332   0.03345   0.03994
     Eigenvalues ---    0.04067   0.04710   0.06086   0.06544   0.07623
     Eigenvalues ---    0.07965   0.08705   0.09532   0.12814   0.13273
     Eigenvalues ---    0.14747   0.15291   0.15701   0.15949   0.15954
     Eigenvalues ---    0.15991   0.15997   0.15998   0.16000   0.16000
     Eigenvalues ---    0.16000   0.16000   0.16000   0.16000   0.16000
     Eigenvalues ---    0.16000   0.16000   0.16000   0.20241   0.21633
     Eigenvalues ---    0.22000   0.22006   0.22006   0.22006   0.22215
     Eigenvalues ---    0.22905   0.23559   0.24926   0.24995   0.24997
     Eigenvalues ---    0.25000   0.25000   0.25000   0.25909   0.28320
     Eigenvalues ---    0.28896   0.30025   0.30933   0.32677   0.33038
     Eigenvalues ---    0.33618   0.34020   0.34963   0.35135   0.35668
     Eigenvalues ---    0.35948   0.36299   0.36443   0.37205   0.37219
     Eigenvalues ---    0.37362   0.37975   0.38334   0.39148   0.39226
     Eigenvalues ---    0.43937   0.44287   0.49530   0.52308   0.53286
     Eigenvalues ---    0.58505   0.64542   0.65043   0.65824   0.96414
 RFO step:  Lambda=-8.80655011D-01 EMin= 2.30000000D-03
 Linear search not attempted -- first point.
 Maximum step size (   0.300) exceeded in Quadratic search.
    -- Step size scaled by   0.365
 Iteration  1 RMS(Cart)=  0.30598712 RMS(Int)=  0.01626079
[...]
   D47       -3.10061  -0.06105   0.00854  -0.00752   0.00098  -3.09963
   D48        3.09691   0.01810  -0.00743   0.00516  -0.00223   3.09467
   D49        0.02791  -0.02775   0.00495  -0.00438   0.00053   0.02844
   D50       -0.02472   0.00281  -0.00245   0.00171  -0.00074  -0.02547
   D51       -2.02360   0.00240   0.00242  -0.00192   0.00049  -2.02311
   D52        2.00989   0.01877  -0.00374   0.00302  -0.00072   2.00916
   D53        3.10824  -0.01490  -0.00069   0.00020  -0.00048   3.10776
   D54        1.10937  -0.01530   0.00418  -0.00343   0.00076   1.11013
   D55       -1.14033   0.00106  -0.00197   0.00151  -0.00046  -1.14079
   D56       -2.94110  -0.10629   0.02377  -0.01900   0.00479  -2.93631
   D57        0.27048  -0.07322   0.01449  -0.01183   0.00273   0.27320
   D58        0.12766  -0.06033   0.01196  -0.00978   0.00212   0.12978
   D59       -2.94395  -0.02725   0.00269  -0.00261   0.00006  -2.94389
   D60        2.76944  -0.05954   0.00324  -0.00380  -0.00059   2.76885
   D61       -0.44084  -0.09147   0.01255  -0.01106   0.00153  -0.43932
   D62        2.68334  -0.03390   0.00076  -0.00102  -0.00037   2.68297
   D63       -1.46930  -0.12060   0.02726  -0.02239   0.00498  -1.46431
   D64        2.12935   0.03248  -0.02170   0.01530  -0.00621   2.12313
   D65       -2.09200  -0.01670  -0.01595   0.01085  -0.00528  -2.09728
   D66       -0.00266  -0.01767   0.00820  -0.00604   0.00216  -0.00050
   D67        3.11952  -0.05419   0.01973  -0.01466   0.00507   3.12459
   D68        0.02952   0.61680   0.05519  -0.02511   0.03008   0.05960
         Item               Value     Threshold  Converged?
 Maximum Force            6.463151     0.000450     NO 
 RMS     Force            0.635418     0.000300     NO 
 Maximum Displacement     1.844700     0.001800     NO 
 RMS     Displacement     0.420133     0.001200     NO 
 Predicted change in Energy=-4.789633D-01
 GradGradGradGradGradGradGradGradGradGradGradGradGradGradGradGradGradGrad

                          Input orientation:                          
 ---------------------------------------------------------------------
 Center     Atomic      Atomic             Coordinates (Angstroms)
 Number     Number       Type             X           Y           Z
 ---------------------------------------------------------------------
      1          6           0        2.054213   -0.486079   -0.288306
      2          6           0        3.820505   -0.319242   -0.496030
      3          6           0        4.426669   -1.387767    0.289647
      4          8           0        3.861584   -2.343038    0.788889
      5          6           0        4.807790    0.491839   -1.177279
      6          6           0        6.218966    0.716980   -1.417147
      7          6           0        6.103997    2.078702   -1.597529
      8          6           0        7.281594    2.758135   -1.269838
      9          6           0        7.829196    3.721152   -2.011217
     10          6           0        9.231503    3.503401   -1.974260
     11          6           0        9.795402    2.309572   -2.138819
     12          6           0       11.235846    2.413018   -2.014907
     13          6           0       11.512582    3.709135   -1.751515
     14          6           0       10.258206    4.518371   -1.678579
     15          6           0       12.202358    1.342989   -2.132239
     16          6           0       11.611637    0.153733   -2.342441
     17          7           0       11.858217   -1.181634   -2.363851
     18          6           0       10.748804   -1.967756   -2.205767
     19          6           0        9.094940   -1.846707   -1.206710
     20          6           0        7.521380   -1.676952   -0.442422
     21          1           0        1.801735   -1.473934    0.180999
     22          1           0        1.486343   -0.567288   -1.232687
     23          1           0        1.461162    0.194582    0.369546
     24          1           0        5.497536   -1.211314    0.372584
     25          1           0        4.066284    1.385406   -1.409124
     26          1           0        5.188236    2.690760   -1.698113
     27          1           0        7.878545    2.126783   -0.637083
     28          1           0        7.290443    4.436469   -2.618507
     29          1           0        9.226220    1.424408   -2.358301
     30          1           0       12.484396    4.138200   -1.615576
     31          1           0       10.217029    5.267221   -2.466893
     32          1           0       10.107761    4.912208   -0.671539
     33          1           0       13.260837    1.473272   -1.993505
     34          1           0       10.600591    0.289229   -2.642438
     35          1           0       11.094059   -2.911874   -2.746229
     36          1           0       10.074282   -2.385630   -0.736971
     37          1           0        7.575678   -2.146702    0.542133
 ---------------------------------------------------------------------
                    Distance matrix (angstroms):
                    1          2          3          4          5
     1  C    0.000000
     2  C    1.786273   0.000000
     3  C    2.603002   1.458241   0.000000
     4  O    2.806285   2.397593   1.217007   0.000000
     5  C    3.054305   1.447993   2.414548   3.577380   0.000000
     6  C    4.479598   2.770348   3.248912   4.448320   1.449015
     7  C    4.969197   3.489667   4.288504   5.502290   2.091625
     8  C    6.230075   4.695548   5.269828   6.477406   3.356244
     9  C    7.349806   5.889837   6.555320   7.768973   4.500312
    10  C    8.382833   6.787980   7.220473   8.405467   5.410538
    11  C    8.435998   6.731183   6.956368   8.088786   5.394904
    12  C    9.782039   8.047330   8.131533   9.212007   6.761099
    13  C   10.449954   8.773376   8.964090  10.080686   7.458886
    14  C    9.709937   8.139098   8.530135   9.699696   6.794947
    15  C   10.475228   8.700324   8.589755   9.575400   7.504401
    16  C    9.796590   8.020890   7.805631   8.723670   6.911169
    17  N   10.045405   8.296824   7.893760   8.673797   7.342819
    18  C    9.025959   7.324078   6.821501   7.519481   6.511762
    19  C    7.229564   5.536955   4.923663   5.622879   4.883576
    20  C    5.597486   3.942426   3.193241   3.918406   3.550668
    21  H    1.122431   2.422213   2.628595   2.316863   3.839994
    22  H    1.104956   2.460184   3.411188   3.589127   3.486665
    23  H    1.117040   2.565100   3.362209   3.518152   3.698777
    24  H    3.580392   2.088711   1.088471   2.032350   2.403862
    25  H    2.967679   1.949353   3.272031   4.332951   1.184080
    26  H    4.679953   3.517927   4.600604   5.769256   2.291563
    27  H    6.393085   4.740319   5.012618   6.176461   3.520567
    28  H    7.555092   6.257968   7.111981   8.326412   4.878607
    29  H    7.705357   5.977468   6.160815   7.271711   4.667657
    30  H   11.486266   9.807404   9.954554  11.051732   8.509896
    31  H   10.221460   8.718279   9.242058  10.435891   7.329886
    32  H    9.702989   8.180982   8.537468   9.684326   6.919908
    33  H   11.503703   9.724989   9.562471  10.519120   8.548886
    34  H    8.898517   7.137707   7.037524   8.007312   5.978653
    35  H    9.677018   8.042992   7.482882   8.070274   7.318746
    36  H    8.254156   6.590731   5.826251   6.397474   6.017445
    37  H    5.825279   4.303338   3.248998   3.727456   4.192790
                    6          7          8          9         10
     6  C    0.000000
     7  C    1.378420   0.000000
     8  C    2.305904   1.398480   0.000000
     9  C    3.459886   2.417663   1.333009   0.000000
    10  C    4.141244   3.457310   2.203129   1.419593   0.000000
    11  C    3.980962   3.738016   2.697326   2.423800   1.330522
    12  C    5.329442   5.159636   4.038606   3.649177   2.282099
    13  C    6.089923   5.651090   4.363218   3.692549   2.301144
    14  C    5.552872   4.818299   3.482200   2.578041   1.473673
    15  C    6.058401   6.165808   5.192330   4.979442   3.676726
    16  C    5.500393   5.881709   5.165526   5.209899   4.125636
    17  N    6.025125   6.657934   6.137110   6.355680   5.385254
    18  C    5.324393   6.190154   5.935617   6.397314   5.682372
    19  C    3.858496   4.950485   4.949421   5.766315   5.406610
    20  C    2.894354   4.177103   4.517977   5.629867   5.666314
    21  H    5.183253   5.856095   7.074193   8.253789   9.198939
    22  H    4.907249   5.334520   6.681673   7.696013   8.781113
    23  H    5.108999   5.382863   6.567863   7.658759   8.764697
    24  H    2.727987   3.882441   4.651552   5.953853   6.455907
    25  H    2.254085   2.160655   3.498857   4.469646   5.611129
    26  H    2.244361   1.106053   2.137781   2.852090   4.133359
    27  H    2.313060   2.018363   1.074865   2.105396   2.348109
    28  H    4.052891   2.830038   2.153089   1.082005   2.247974
    29  H    3.229521   3.279504   2.597142   2.710567   2.114173
    30  H    7.141410   6.704577   5.393817   4.690559   3.333607
    31  H    6.147452   5.276313   4.042923   2.880922   2.079665
    32  H    5.768760   4.991627   3.603500   2.899174   2.109419
    33  H    7.105780   7.193310   6.158402   5.878435   4.511910
    34  H    4.569786   4.951101   4.358356   4.456137   3.556932
    35  H    6.221058   7.150250   6.990251   7.429441   6.724641
    36  H    4.995227   6.036057   5.877191   6.630000   6.076336
    37  H    3.725604   4.959641   5.237094   6.404341   6.402942
                   11         12         13         14         15
    11  C    0.000000
    12  C    1.449460   0.000000
    13  C    2.248886   1.351251   0.000000
    14  C    2.303215   2.345508   1.494538   0.000000
    15  C    2.593793   1.446677   2.493870   3.750811   0.000000
    16  C    2.826272   2.313626   3.605536   4.617635   1.344420
    17  N    4.061326   3.664782   4.941057   5.959840   2.558476
    18  C    4.382807   4.411895   5.746024   6.525984   3.616525
    19  C    4.316727   4.835485   6.083517   6.487686   4.548275
    20  C    4.892987   5.744373   6.830326   6.884790   5.821261
    21  H    9.143041  10.437091  11.175839  10.529847  11.020848
    22  H    8.839562  10.224818  10.912491  10.149302  10.922057
    23  H    8.956821  10.302986  10.857350  10.013888  11.088330
    24  H    6.097167   7.194727   8.056265   7.726613   7.599555
    25  H    5.848874   7.268120   7.807964   6.944636   8.168255
    26  H    4.643868   6.062268   6.406036   5.389355   7.155618
    27  H    2.441918   3.640302   4.117283   3.530891   4.641678
    28  H    3.320935   4.474919   4.371173   3.114128   5.825203
    29  H    1.075014   2.265803   3.288710   3.331610   2.985821
    30  H    3.293683   2.166702   1.070980   2.259296   2.856517
    31  H    3.005509   3.064107   2.148919   1.088076   4.410569
    32  H    3.004029   3.053386   2.141788   1.091728   4.388656
    33  H    3.567878   2.232526   2.848515   4.288077   1.075453
    34  H    2.232431   2.303871   3.649826   4.351080   1.984029
    35  H    5.414698   5.376747   6.708381   7.552951   4.439501
    36  H    4.907941   5.099939   6.343830   6.970344   4.514209
    37  H    5.654473   6.381718   7.419627   7.520022   6.382505
                   16         17         18         19         20
    16  C    0.000000
    17  N    1.358111   0.000000
    18  C    2.294314   1.368859   0.000000
    19  C    3.409606   3.068713   1.935985   0.000000
    20  C    4.867410   4.769212   3.689203   1.757567   0.000000
    21  H   10.259203  10.377598   9.273110   7.433407   5.757101
    22  H   10.211416  10.451446   9.418141   7.715460   6.186885
    23  H   10.506603  10.838090   9.877664   8.057668   6.394387
    24  H    6.827661   6.924393   5.898807   3.979850   2.230919
    25  H    7.701977   8.259262   7.518937   5.981212   4.717016
    26  H    6.936264   7.741272   7.271823   6.007697   5.108546
    27  H    4.553806   5.455744   5.240650   4.194367   3.825423
    28  H    6.090219   7.245171   7.290042   6.687875   6.493273
    29  H    2.702792   3.703903   3.721331   3.470387   4.024364
    30  H    4.143189   5.408572   6.375210   6.890188   7.734586
    31  H    5.301715   6.655212   7.259191   7.311300   7.719232
    32  H    5.262760   6.562235   7.078043   6.855300   7.082294
    33  H    2.140747   3.025397   4.265681   5.384794   6.728383
    34  H    1.063284   1.955166   2.303612   2.981698   4.264678
    35  H    3.135104   1.929736   1.141340   2.738827   4.426803
    36  H    3.374813   2.697920   1.669420   1.212520   2.665763
    37  H    5.468248   5.264621   4.201393   2.335938   1.092228
                   21         22         23         24         25
    21  H    0.000000
    22  H    1.708797   0.000000
    23  H    1.713327   1.774325   0.000000
    24  H    3.710070   4.368218   4.274210   0.000000
    25  H    3.979008   3.240407   3.371705   3.459179   0.000000
    26  H    5.687190   4.953333   4.939352   4.428277   1.745348
    27  H    7.110700   6.962256   6.777132   4.222739   3.959674
    28  H    8.537916   7.787532   7.804010   6.637665   4.600738
    29  H    8.364892   8.070908   8.321644   5.320512   5.246656
    30  H   12.200123  11.968516  11.874533   9.021435   8.859182
    31  H   11.102778  10.573061  10.509151   8.503391   7.349763
    32  H   10.511884  10.230768   9.904723   7.735754   7.034331
    33  H   12.030192  11.974199  12.101711   8.548347   9.213524
    34  H    9.407466   9.262318   9.623418   6.114177   6.739424
    35  H    9.848026  10.004804  10.590129   6.628723   8.345303
    36  H    8.373106   8.792315   9.059124   4.853528   7.125205
    37  H    5.824213   6.536401   6.549711   2.285252   5.347807
                   26         27         28         29         30
    26  H    0.000000
    27  H    2.946459   0.000000
    28  H    2.883383   3.099444   0.000000
    29  H    4.283085   2.296116   3.589910   0.000000
    30  H    7.438807   5.120264   5.298300   4.304883   0.000000
    31  H    5.702449   4.321927   3.045988   3.969975   2.672149
    32  H    5.494581   3.567798   3.457499   3.973289   2.671832
    33  H    8.169237   5.588920   6.694534   4.051370   2.801345
    34  H    5.996056   3.848063   5.306341   1.805065   4.406557
    35  H    8.207728   6.338461   8.275382   4.737368   7.274267
    36  H    7.111047   5.019274   7.604668   4.226620   7.010061
    37  H    5.841201   4.443530   7.308156   4.887703   8.261429
                   31         32         33         34         35
    31  H    0.000000
    32  H    1.833376   0.000000
    33  H    4.887015   4.849305   0.000000
    34  H    4.995832   5.049679   2.983284   0.000000
    35  H    8.230723   8.154347   4.948841   3.240578   0.000000
    36  H    7.847237   7.298208   5.159858   3.326061   2.313870
    37  H    8.425985   7.596885   7.201021   5.022484   4.876250
                   36         37
    36  H    0.000000
    37  H    2.817128   0.000000
 Stoichiometry    C18H17NO
 Framework group  C1[X(C18H17NO)]
 Deg. of freedom   105
 Full point group                 C1      NOp   1
 Largest Abelian subgroup         C1      NOp   1
 Largest concise Abelian subgroup C1      NOp   1
                         Standard orientation:                         
 ---------------------------------------------------------------------
 Center     Atomic      Atomic             Coordinates (Angstroms)
 Number     Number       Type             X           Y           Z
 ---------------------------------------------------------------------
      1          6           0        6.073975   -0.934863   -0.345509
      2          6           0        4.363000   -0.453788   -0.166909
      3          6           0        4.365942    0.789545    0.595051
      4          8           0        5.326991    1.490361    0.852630
      5          6           0        3.025997   -0.873066   -0.532032
      6          6           0        1.609941   -0.576822   -0.450383
      7          6           0        1.200009   -1.892300   -0.489313
      8          6           0       -0.029234   -2.083612    0.149520
      9          6           0       -1.033484   -2.806672   -0.346039
     10          6           0       -2.223371   -2.091632   -0.049167
     11          6           0       -2.359885   -0.781106   -0.234029
     12          6           0       -3.675588   -0.347937    0.192849
     13          6           0       -4.315275   -1.443726    0.657528
     14          6           0       -3.439373   -2.651312    0.567119
     15          6           0       -4.209831    0.995818    0.150681
     16          6           0       -3.309562    1.879636   -0.313913
     17          7           0       -3.075344    3.211337   -0.441109
     18          6           0       -1.757896    3.544159   -0.606441
     19          6           0       -0.064617    2.864488    0.040775
     20          6           0        1.484128    2.160365    0.481960
     21          1           0        6.755345   -0.090863   -0.056979
     22          1           0        6.398112   -1.100058   -1.388857
     23          1           0        6.529884   -1.760847    0.252552
     24          1           0        3.351140    1.018613    0.915167
     25          1           0        3.335702   -1.983106   -0.803950
     26          1           0        1.796255   -2.799202   -0.702319
     27          1           0       -0.205191   -1.255911    0.812306
     28          1           0       -0.933596   -3.690383   -0.962328
     29          1           0       -1.586833   -0.172737   -0.667541
     30          1           0       -5.315369   -1.483925    1.038571
     31          1           0       -3.845340   -3.391353   -0.119495
     32          1           0       -3.204756   -3.036586    1.561296
     33          1           0       -5.184367    1.265331    0.517071
     34          1           0       -2.507877    1.374326   -0.796132
     35          1           0       -1.869942    4.529183   -1.171977
     36          1           0       -0.658017    3.739718    0.634117
     37          1           0        1.827065    2.652499    1.394735
 ---------------------------------------------------------------------
 Rotational constants (GHZ):           0.4602754           0.1664378           0.1261314
 Standard basis: 6-31G(2df,p) (6D, 7F)
 There are   705 symmetry adapted cartesian basis functions of A   symmetry.
 There are   645 symmetry adapted basis functions of A   symmetry.
   645 basis functions,   999 primitive gaussians,   705 cartesian basis functions
    70 alpha electrons       70 beta electrons
       nuclear repulsion energy      1301.4379426686 Hartrees.
 NAtoms=   37 NActive=   37 NUniq=   37 SFac= 1.00D+00 NAtFMM=   60 NAOKFM=F Big=F
 Integral buffers will be    131072 words long.
 Raffenetti 2 integral format.
 Two-electron integral symmetry is turned on.
 One-electron integrals computed using PRISM.
 PrsmSu:  requested number of processors reduced to:  12 ShMem   1 Linda.
 NBasis=   645 RedAO= T EigKep=  2.40D-04  NBF=   645
 NBsUse=   645 1.00D-06 EigRej= -1.00D+00 NBFU=   645
 Lowest energy guess from the checkpoint file:  "CCqCdOrdCC1dCCdCC2dCCqdCC2rCdCNdCCdC1.chk"
 B after Tr=    -0.000000    0.000000    0.000000
         Rot=    0.999859    0.016570   -0.000044    0.002655 Ang=   1.92 deg.
 B after Tr=     0.000000   -0.000000    0.000000
         Rot=    0.999090   -0.007085   -0.006666   -0.041539 Ang=  -4.89 deg.
 Requested convergence on RMS density matrix=1.00D-08 within 128 cycles.
 Requested convergence on MAX density matrix=1.00D-06.
 Requested convergence on             energy=1.00D-06.
 No special actions if energy rises.
 Integral accuracy reduced to 1.0D-05 until final iterations.
slurmstepd: error: *** JOB 27449319 ON lewis4-r630-hpc4-node297 CANCELLED AT 2023-05-20T20:26:30 ***
