### Starting Gaussian ###
 Entering Gaussian System, Link 0=g16
 Initial command:
 /cluster/software/gaussian/gaussian-16-A.03/avx2/g16/l1.exe "/local/scratch/ks29c/Gau-12040.inp" -scrdir="/local/scratch/ks29c/"
 Entering Link 1 = /cluster/software/gaussian/gaussian-16-A.03/avx2/g16/l1.exe PID=     12041.
  
 Copyright (c) 1988,1990,1992,1993,1995,1998,2003,2009,2016,
            Gaussian, Inc.  All Rights Reserved.
  
 This is part of the Gaussian(R) 16 program.  It is based on
 the Gaussian(R) 09 system (copyright 2009, Gaussian, Inc.),
 the Gaussian(R) 03 system (copyright 2003, Gaussian, Inc.),
 the Gaussian(R) 98 system (copyright 1998, Gaussian, Inc.),
 the Gaussian(R) 94 system (copyright 1995, Gaussian, Inc.),
 the Gaussian 92(TM) system (copyright 1992, Gaussian, Inc.),
 the Gaussian 90(TM) system (copyright 1990, Gaussian, Inc.),
 the Gaussian 88(TM) system (copyright 1988, Gaussian, Inc.),
 the Gaussian 86(TM) system (copyright 1986, Carnegie Mellon
 University), and the Gaussian 82(TM) system (copyright 1983,
 Carnegie Mellon University). Gaussian is a federally registered
 trademark of Gaussian, Inc.
  
 This software contains proprietary and confidential information,
 including trade secrets, belonging to Gaussian, Inc.
  
 This software is provided under written license and may be
 used, copied, transmitted, or stored only in accord with that
 written license.
  
 The following legend is applicable only to US Government
 contracts under FAR:
  
                    RESTRICTED RIGHTS LEGEND
  
 Use, reproduction and disclosure by the US Government is
 subject to restrictions as set forth in subparagraphs (a)
 and (c) of the Commercial Computer Software - Restricted
 Rights clause in FAR 52.227-19.
  
 Gaussian, Inc.
 340 Quinnipiac St., Bldg. 40, Wallingford CT 06492
  
  
 ---------------------------------------------------------------
 Warning -- This program may not be used in any manner that
 competes with the business of Gaussian, Inc. or will provide
 assistance to any competitor of Gaussian, Inc.  The licensee
 of this program is prohibited from giving any competitor of
 Gaussian, Inc. access to this program.  By using this program,
 the user acknowledges that Gaussian, Inc. is engaged in the
 business of creating and licensing software in the field of
 computational chemistry and represents and warrants to the
 licensee that it is not a competitor of Gaussian, Inc. and that
 it will not use this program in any manner prohibited above.
 ---------------------------------------------------------------
  

 Cite this work as:
 Gaussian 16, Revision A.03,
 M. J. Frisch, G. W. Trucks, H. B. Schlegel, G. E. Scuseria, 
 M. A. Robb, J. R. Cheeseman, G. Scalmani, V. Barone, 
 G. A. Petersson, H. Nakatsuji, X. Li, M. Caricato, A. V. Marenich, 
 J. Bloino, B. G. Janesko, R. Gomperts, B. Mennucci, H. P. Hratchian, 
 J. V. Ortiz, A. F. Izmaylov, J. L. Sonnenberg, D. Williams-Young, 
 F. Ding, F. Lipparini, F. Egidi, J. Goings, B. Peng, A. Petrone, 
 T. Henderson, D. Ranasinghe, V. G. Zakrzewski, J. Gao, N. Rega, 
 G. Zheng, W. Liang, M. Hada, M. Ehara, K. Toyota, R. Fukuda, 
 J. Hasegawa, M. Ishida, T. Nakajima, Y. Honda, O. Kitao, H. Nakai, 
 T. Vreven, K. Throssell, J. A. Montgomery, Jr., J. E. Peralta, 
 F. Ogliaro, M. J. Bearpark, J. J. Heyd, E. N. Brothers, K. N. Kudin, 
 V. N. Staroverov, T. A. Keith, R. Kobayashi, J. Normand, 
 K. Raghavachari, A. P. Rendell, J. C. Burant, S. S. Iyengar, 
 J. Tomasi, M. Cossi, J. M. Millam, M. Klene, C. Adamo, R. Cammi, 
 J. W. Ochterski, R. L. Martin, K. Morokuma, O. Farkas, 
 J. B. Foresman, and D. J. Fox, Gaussian, Inc., Wallingford CT, 2016.
 
 ******************************************
 Gaussian 16:  ES64L-G16RevA.03 25-Dec-2016
                19-May-2023 
 ******************************************
 %chk=CCqCrd[SH]C1dCCdCNdNSCd[SH]1.chk
 %NProcShared=20
 Will use up to   20 processors via shared memory.
 -----------------------------
 # opt freq b3lyp/6-31g(2df,p)
 -----------------------------
 1/18=20,19=15,26=3,38=1/1,3;
 2/9=110,12=2,17=6,18=5,40=1/2;
 3/5=1,6=6,7=104,11=2,25=1,30=1,71=1,74=-5/1,2,3;
 4//1;
 5/5=2,38=5/2;
 6/7=2,8=2,9=2,10=2,28=1/1;
 7//1,2,3,16;
 1/18=20,19=15,26=3/3(2);
 2/9=110/2;
 99//99;
 2/9=110/2;
 3/5=1,6=6,7=104,11=2,25=1,30=1,71=1,74=-5/1,2,3;
 4/5=5,16=3,69=1/1;
 5/5=2,38=5/2;
 7//1,2,3,16;
 1/18=20,19=15,26=3/3(-5);
 2/9=110/2;
 6/7=2,8=2,9=2,10=2,19=2,28=1/1;
 99/9=1/99;
 -------------------
 Title Card Required
 -------------------
 Symbolic Z-matrix:
 Charge =  0 Multiplicity = 1
 C                     1.26724  -0.12694  -0.11199 
 C                     2.84634  -0.02174  -0.0024 
 C                     3.3825    0.64326   1.19716 
 S                     4.12955  -0.09543  -1.34784 
 C                     6.12509  -0.62551  -1.05263 
 C                     6.25828  -1.63119  -1.93034 
 C                     7.50296  -2.20125  -1.90506 
 C                     8.21811  -2.42986  -3.05143 
 N                     9.43324  -2.76303  -2.69423 
 N                     10.49982  -2.40719  -3.19749 
 S                     11.1776  -1.77845  -1.78181 
 C                     10.03139  -0.27548  -1.77943 
 S                     7.98853   0.48187  -1.38173 
 H                     0.78623   0.39566   0.74514 
 H                     0.85485  -1.14364  -0.04143 
 H                     0.8326    0.36462  -0.99001 
 H                     2.58851   1.0453    1.82943 
 H                     3.97728   1.47283   0.80871 
 H                     3.98353  -0.08961   1.72419 
 H                     3.49341  -0.32723  -2.48214 
 H                     5.48578  -1.95294  -2.6066 
 H                     8.06578  -2.1255   -0.96377 
 H                     7.83495  -2.294    -4.03907 
 H                     10.53488   0.10166  -2.7071 
 H                     8.01051   0.90258  -0.13941 
 
 Add virtual bond connecting atoms S13        and C5         Dist= 4.14D+00.
 Add virtual bond connecting atoms S13        and C12        Dist= 4.19D+00.

 GradGradGradGradGradGradGradGradGradGradGradGradGradGradGradGradGradGrad
 Berny optimization.
 Initialization pass.
                           ----------------------------
                           !    Initial Parameters    !
                           ! (Angstroms and Degrees)  !
 --------------------------                            --------------------------
 ! Name  Definition              Value          Derivative Info.                !
 --------------------------------------------------------------------------------
 ! R1    R(1,2)                  1.5864         estimate D2E/DX2                !
 ! R2    R(1,14)                 1.1132         estimate D2E/DX2                !
 ! R3    R(1,15)                 1.0994         estimate D2E/DX2                !
 ! R4    R(1,16)                 1.0961         estimate D2E/DX2                !
 ! R5    R(2,3)                  1.4726         estimate D2E/DX2                !
 ! R6    R(2,4)                  1.8607         estimate D2E/DX2                !
 ! R7    R(3,17)                 1.0917         estimate D2E/DX2                !
 ! R8    R(3,18)                 1.0922         estimate D2E/DX2                !
 ! R9    R(3,19)                 1.0845         estimate D2E/DX2                !
 ! R10   R(4,5)                  2.0857         estimate D2E/DX2                !
 ! R11   R(4,20)                 1.321          estimate D2E/DX2                !
 ! R12   R(5,6)                  1.3415         estimate D2E/DX2                !
 ! R13   R(5,13)                 2.1925         estimate D2E/DX2                !
 ! R14   R(6,7)                  1.3692         estimate D2E/DX2                !
 ! R15   R(6,21)                 1.0759         estimate D2E/DX2                !
 ! R16   R(7,8)                  1.3704         estimate D2E/DX2                !
 ! R17   R(7,22)                 1.0993         estimate D2E/DX2                !
 ! R18   R(8,9)                  1.3096         estimate D2E/DX2                !
 ! R19   R(8,23)                 1.068          estimate D2E/DX2                !
 ! R20   R(9,10)                 1.2319         estimate D2E/DX2                !
 ! R21   R(10,11)                1.6908         estimate D2E/DX2                !
 ! R22   R(11,12)                1.8902         estimate D2E/DX2                !
 ! R23   R(12,13)                2.2147         estimate D2E/DX2                !
 ! R24   R(12,24)                1.1209         estimate D2E/DX2                !
 ! R25   R(13,25)                1.3118         estimate D2E/DX2                !
 ! A1    A(2,1,14)             110.2305         estimate D2E/DX2                !
 ! A2    A(2,1,15)             115.4844         estimate D2E/DX2                !
 ! A3    A(2,1,16)             114.8538         estimate D2E/DX2                !
 ! A4    A(14,1,15)            102.8645         estimate D2E/DX2                !
 ! A5    A(14,1,16)            103.586          estimate D2E/DX2                !
 ! A6    A(15,1,16)            108.5051         estimate D2E/DX2                !
 ! A7    A(1,2,3)              116.6557         estimate D2E/DX2                !
 ! A8    A(1,2,4)              129.3374         estimate D2E/DX2                !
 ! A9    A(3,2,4)              110.8423         estimate D2E/DX2                !
 ! A10   A(2,3,17)             111.9174         estimate D2E/DX2                !
 ! A11   A(2,3,18)             104.5695         estimate D2E/DX2                !
 ! A12   A(2,3,19)             107.0062         estimate D2E/DX2                !
 ! A13   A(17,3,18)            108.8044         estimate D2E/DX2                !
 ! A14   A(17,3,19)            111.7455         estimate D2E/DX2                !
 ! A15   A(18,3,19)            112.6019         estimate D2E/DX2                !
 ! A16   A(2,4,5)              124.5782         estimate D2E/DX2                !
 ! A17   A(2,4,20)             107.2015         estimate D2E/DX2                !
 ! A18   A(5,4,20)             122.5253         estimate D2E/DX2                !
 ! A19   A(4,5,6)              101.1231         estimate D2E/DX2                !
 ! A20   A(4,5,13)             131.5716         estimate D2E/DX2                !
 ! A21   A(6,5,13)             101.3064         estimate D2E/DX2                !
 ! A22   A(5,6,7)              112.9729         estimate D2E/DX2                !
 ! A23   A(5,6,21)             124.3437         estimate D2E/DX2                !
 ! A24   A(7,6,21)             122.6682         estimate D2E/DX2                !
 ! A25   A(6,7,8)              121.8978         estimate D2E/DX2                !
 ! A26   A(6,7,22)             116.9049         estimate D2E/DX2                !
 ! A27   A(8,7,22)             117.4259         estimate D2E/DX2                !
 ! A28   A(7,8,9)              107.3668         estimate D2E/DX2                !
 ! A29   A(7,8,23)             124.4117         estimate D2E/DX2                !
 ! A30   A(9,8,23)             128.1296         estimate D2E/DX2                !
 ! A31   A(8,9,10)             128.202          estimate D2E/DX2                !
 ! A32   A(9,10,11)             96.4556         estimate D2E/DX2                !
 ! A33   A(10,11,12)            93.0755         estimate D2E/DX2                !
 ! A34   A(11,12,13)           146.2517         estimate D2E/DX2                !
 ! A35   A(11,12,24)            89.6624         estimate D2E/DX2                !
 ! A36   A(13,12,24)           116.6092         estimate D2E/DX2                !
 ! A37   A(5,13,12)            129.6578         estimate D2E/DX2                !
 ! A38   A(5,13,25)             91.9526         estimate D2E/DX2                !
 ! A39   A(12,13,25)           105.3238         estimate D2E/DX2                !
 ! D1    D(14,1,2,3)             3.5            estimate D2E/DX2                !
 ! D2    D(14,1,2,4)          -154.3415         estimate D2E/DX2                !
 ! D3    D(15,1,2,3)          -112.5094         estimate D2E/DX2                !
 ! D4    D(15,1,2,4)            89.6491         estimate D2E/DX2                !
 ! D5    D(16,1,2,3)           120.0262         estimate D2E/DX2                !
 ! D6    D(16,1,2,4)           -37.8153         estimate D2E/DX2                !
 ! D7    D(1,2,3,17)            -4.1215         estimate D2E/DX2                !
 ! D8    D(1,2,3,18)          -121.7393         estimate D2E/DX2                !
 ! D9    D(1,2,3,19)           118.6077         estimate D2E/DX2                !
 ! D10   D(4,2,3,17)           157.6904         estimate D2E/DX2                !
 ! D11   D(4,2,3,18)            40.0726         estimate D2E/DX2                !
 ! D12   D(4,2,3,19)           -79.5805         estimate D2E/DX2                !
 ! D13   D(1,2,4,5)           -156.8512         estimate D2E/DX2                !
 ! D14   D(1,2,4,20)            -3.0852         estimate D2E/DX2                !
 ! D15   D(3,2,4,5)             44.2911         estimate D2E/DX2                !
 ! D16   D(3,2,4,20)          -161.9429         estimate D2E/DX2                !
 ! D17   D(2,4,5,6)            124.8614         estimate D2E/DX2                !
 ! D18   D(2,4,5,13)          -118.9413         estimate D2E/DX2                !
 ! D19   D(20,4,5,6)           -25.0844         estimate D2E/DX2                !
 ! D20   D(20,4,5,13)           91.1128         estimate D2E/DX2                !
 ! D21   D(4,5,6,7)           -177.9931         estimate D2E/DX2                !
 ! D22   D(4,5,6,21)             3.396          estimate D2E/DX2                !
 ! D23   D(13,5,6,7)            45.2082         estimate D2E/DX2                !
 ! D24   D(13,5,6,21)         -133.4026         estimate D2E/DX2                !
 ! D25   D(4,5,13,12)         -154.6538         estimate D2E/DX2                !
 ! D26   D(4,5,13,25)           93.5238         estimate D2E/DX2                !
 ! D27   D(6,5,13,12)          -38.5305         estimate D2E/DX2                !
 ! D28   D(6,5,13,25)         -150.353          estimate D2E/DX2                !
 ! D29   D(5,6,7,8)           -131.5058         estimate D2E/DX2                !
 ! D30   D(5,6,7,22)            26.0426         estimate D2E/DX2                !
 ! D31   D(21,6,7,8)            47.1318         estimate D2E/DX2                !
 ! D32   D(21,6,7,22)         -155.3198         estimate D2E/DX2                !
 ! D33   D(6,7,8,9)            169.4759         estimate D2E/DX2                !
 ! D34   D(6,7,8,23)            -7.2817         estimate D2E/DX2                !
 ! D35   D(22,7,8,9)            12.0383         estimate D2E/DX2                !
 ! D36   D(22,7,8,23)         -164.7193         estimate D2E/DX2                !
 ! D37   D(7,8,9,10)          -138.3966         estimate D2E/DX2                !
 ! D38   D(23,8,9,10)           38.2027         estimate D2E/DX2                !
 ! D39   D(8,9,10,11)          123.9576         estimate D2E/DX2                !
 ! D40   D(9,10,11,12)         -72.2861         estimate D2E/DX2                !
 ! D41   D(10,11,12,13)         75.718          estimate D2E/DX2                !
 ! D42   D(10,11,12,24)        -67.1679         estimate D2E/DX2                !
 ! D43   D(11,12,13,5)         -13.0311         estimate D2E/DX2                !
 ! D44   D(11,12,13,25)         92.8142         estimate D2E/DX2                !
 ! D45   D(24,12,13,5)         124.5244         estimate D2E/DX2                !
 ! D46   D(24,12,13,25)       -129.6303         estimate D2E/DX2                !
 --------------------------------------------------------------------------------
 Trust Radius=3.00D-01 FncErr=1.00D-07 GrdErr=1.00D-06 EigMax=2.50D+02 EigMin=1.00D-04
 Number of steps in this run=    120 maximum allowed number of steps=    150.
 GradGradGradGradGradGradGradGradGradGradGradGradGradGradGradGradGradGrad

                          Input orientation:                          
 ---------------------------------------------------------------------
 Center     Atomic      Atomic             Coordinates (Angstroms)
 Number     Number       Type             X           Y           Z
 ---------------------------------------------------------------------
      1          6           0        1.267240   -0.126940   -0.111990
      2          6           0        2.846340   -0.021740   -0.002400
      3          6           0        3.382500    0.643260    1.197160
      4         16           0        4.129550   -0.095430   -1.347840
      5          6           0        6.125090   -0.625510   -1.052630
      6          6           0        6.258280   -1.631190   -1.930340
      7          6           0        7.502960   -2.201250   -1.905060
      8          6           0        8.218110   -2.429860   -3.051430
      9          7           0        9.433240   -2.763030   -2.694230
     10          7           0       10.499820   -2.407190   -3.197490
     11         16           0       11.177600   -1.778450   -1.781810
     12          6           0       10.031390   -0.275480   -1.779430
     13         16           0        7.988530    0.481870   -1.381730
     14          1           0        0.786230    0.395660    0.745140
     15          1           0        0.854850   -1.143640   -0.041430
     16          1           0        0.832600    0.364620   -0.990010
     17          1           0        2.588510    1.045300    1.829430
     18          1           0        3.977280    1.472830    0.808710
     19          1           0        3.983530   -0.089610    1.724190
     20          1           0        3.493410   -0.327230   -2.482140
     21          1           0        5.485780   -1.952940   -2.606600
     22          1           0        8.065780   -2.125500   -0.963770
     23          1           0        7.834950   -2.294000   -4.039070
     24          1           0       10.534880    0.101660   -2.707100
     25          1           0        8.010510    0.902580   -0.139410
 ---------------------------------------------------------------------
                    Distance matrix (angstroms):
                    1          2          3          4          5
     1  C    0.000000
     2  C    1.586390   0.000000
     3  C    2.604113   1.472629   0.000000
     4  S    3.117874   1.860717   2.753320   0.000000
     5  C    4.973136   3.495386   3.767377   2.085741   0.000000
     6  C    5.520837   4.236581   4.819179   2.688746   1.341457
     7  C    6.811906   5.482197   5.890093   4.015578   2.260115
     8  C    7.890396   6.629596   7.132861   5.006806   3.410515
     9  N    8.961054   7.625475   7.959722   6.087527   4.267048
    10  N    9.998019   8.629874   8.903619   7.024655   5.187781
    11  S   10.184843   8.698403   8.689219   7.259194   5.233434
    12  C    8.922597   7.405887   7.342473   5.920338   3.988726
    13  S    6.867214   5.347737   5.281310   3.902070   2.192489
    14  H    1.113173   2.230940   2.646931   3.974861   5.725224
    15  H    1.099419   2.286092   3.334086   3.678194   5.391328
    16  H    1.096112   2.275917   3.370956   3.348069   5.384675
    17  H    2.624693   2.135568   1.091706   3.710945   4.858526
    18  H    3.278913   2.042220   1.092174   2.670830   3.532804
    19  H    3.278899   2.068555   1.084480   3.075504   3.547421
    20  H    3.257846   2.580917   3.806757   1.321000   3.009686
    21  H    5.230051   4.180674   5.062868   2.621866   2.141404
    22  H    7.137221   5.708992   5.853953   4.445515   2.454413
    23  H    7.953171   6.807650   7.474618   5.080002   3.824435
    24  H    9.626838   8.151336   8.166585   6.550930   4.765742
    25  H    6.821463   5.248027   4.824121   4.185472   2.593037
                    6          7          8          9         10
     6  C    0.000000
     7  C    1.369246   0.000000
     8  C    2.394922   1.370353   0.000000
     9  N    3.456148   2.159715   1.309632   0.000000
    10  N    4.494275   3.270162   2.286493   1.231863   0.000000
    11  S    4.923764   3.700936   3.285552   2.201068   1.690813
    12  C    4.012117   3.180775   3.089874   2.717084   2.602789
    13  S    2.785635   2.776470   3.364339   3.786716   4.236771
    14  H    6.419474   7.673458   8.810809   9.827379  10.851458
    15  H    5.744801   6.984914   8.058043   9.124064  10.226569
    16  H    5.857088   7.205186   8.161148   9.309005  10.296166
    17  H    5.896328   6.974118   8.221431   9.045286   9.988916
    18  H    4.726552   5.770081   6.936592   7.744714   8.581825
    19  H    4.572368   5.478765   6.798160   7.507926   8.488589
    20  H    3.106332   4.463347   5.202685   6.423370   7.343551
    21  H    1.075921   2.150077   2.809084   4.030678   5.069131
    22  H    2.108472   1.099332   2.115222   2.295840   3.315630
    23  H    2.715133   2.161670   1.068037   2.140821   2.796891
    24  H    4.679256   3.890913   3.448852   3.069239   2.556568
    25  H    3.563388   3.606784   4.430363   4.689132   5.148116
                   11         12         13         14         15
    11  S    0.000000
    12  C    1.890165   0.000000
    13  S    3.929285   2.214728   0.000000
    14  H   10.912965   9.607126   7.510269   0.000000
    15  H   10.487663   9.379938   7.438285   1.729984   0.000000
    16  H   10.594278   9.254764   7.167603   1.736047   1.781894
    17  H    9.735866   8.376443   6.307870   2.201347   3.361124
    18  H    8.314218   6.812291   4.676554   3.368551   4.161517
    19  H    8.179172   6.991889   5.100329   3.378869   3.743933
    20  H    7.851323   6.575839   4.698047   4.273959   3.685863
    21  H    5.753915   4.915349   3.700319   6.231842   5.355425
    22  H    3.236210   2.819840   2.641787   7.891037   7.335685
    23  H    4.066242   3.742291   3.845842   8.933498   8.125654
    24  H    2.191818   1.120852   2.895697  10.346041  10.117290
    25  H    4.462719   2.856825   1.311808   7.295863   7.443123
                   16         17         18         19         20
    16  H    0.000000
    17  H    3.390544   0.000000
    18  H    3.788474   1.775763   0.000000
    19  H    4.183487   1.801437   1.810901   0.000000
    20  H    3.128101   4.614360   3.782068   4.241449   0.000000
    21  H    5.443944   6.087855   5.067131   4.948181   2.574483
    22  H    7.649855   6.917834   5.727608   5.294784   5.142547
    23  H    8.086899   8.550751   7.250627   7.273784   5.014099
    24  H    9.856560   9.198661   7.565920   7.911580   7.058106
    25  H    7.248125   5.770163   4.182232   4.546869   5.234979
                   21         22         23         24         25
    21  H    0.000000
    22  H    3.063506   0.000000
    23  H    2.772524   3.088551   0.000000
    24  H    5.452054   3.754450   3.847461   0.000000
    25  H    4.540406   3.138772   5.045423   3.688760   0.000000
 Stoichiometry    C8H12N2S3
 Framework group  C1[X(C8H12N2S3)]
 Deg. of freedom    69
 Full point group                 C1      NOp   1
 Largest Abelian subgroup         C1      NOp   1
 Largest concise Abelian subgroup C1      NOp   1
                         Standard orientation:                         
 ---------------------------------------------------------------------
 Center     Atomic      Atomic             Coordinates (Angstroms)
 Number     Number       Type             X           Y           Z
 ---------------------------------------------------------------------
      1          6           0       -5.789793   -0.682626    0.197331
      2          6           0       -4.366273    0.004824    0.330137
      3          6           0       -4.338751    1.362210    0.900561
      4         16           0       -2.790470   -0.358608   -0.590205
      5          6           0       -0.879166    0.098375    0.108649
      6          6           0       -0.287076   -1.103803    0.047805
      7          6           0        1.003020   -1.087943    0.506321
      8          6           0        2.030430   -1.653493   -0.202515
      9          7           0        3.149428   -1.283827    0.368734
     10          7           0        4.198466   -0.927813   -0.170022
     11         16           0        4.309338    0.572167    0.602388
     12          6           0        2.887148    1.308560   -0.401516
     13         16           0        0.694224    1.393846   -0.699561
     14          1           0       -6.589484    0.023713    0.514716
     15          1           0       -5.958034   -1.551794    0.849224
     16          1           0       -6.076803   -0.953907   -0.825163
     17          1           0       -5.343312    1.743597    1.093495
     18          1           0       -3.871741    1.975836    0.127122
     19          1           0       -3.746532    1.313089    1.807732
     20          1           0       -3.029587   -1.387837   -1.383018
     21          1           0       -0.754823   -1.991875   -0.339683
     22          1           0        1.261223   -0.309579    1.238450
     23          1           0        1.903447   -2.236162   -1.088559
     24          1           0        3.517523    1.248257   -1.326341
     25          1           0        0.286154    2.413053    0.018447
 ---------------------------------------------------------------------
 Rotational constants (GHZ):           1.5642481           0.1988154           0.1854899
 Standard basis: 6-31G(2df,p) (6D, 7F)
 There are   475 symmetry adapted cartesian basis functions of A   symmetry.
 There are   436 symmetry adapted basis functions of A   symmetry.
   436 basis functions,   728 primitive gaussians,   475 cartesian basis functions
    61 alpha electrons       61 beta electrons
       nuclear repulsion energy      1037.6093926918 Hartrees.
 NAtoms=   25 NActive=   25 NUniq=   25 SFac= 1.00D+00 NAtFMM=   60 NAOKFM=F Big=F
 Integral buffers will be    131072 words long.
 Raffenetti 2 integral format.
 Two-electron integral symmetry is turned on.
 One-electron integrals computed using PRISM.
 PrsmSu:  requested number of processors reduced to:  13 ShMem   1 Linda.
 NBasis=   436 RedAO= T EigKep=  2.87D-04  NBF=   436
 NBsUse=   436 1.00D-06 EigRej= -1.00D+00 NBFU=   436
 ExpMin= 1.17D-01 ExpMax= 2.19D+04 ExpMxC= 3.30D+03 IAcc=3 IRadAn=         5 AccDes= 0.00D+00
 Harris functional with IExCor=  402 and IRadAn=       5 diagonalized for initial guess.
 HarFok:  IExCor=  402 AccDes= 0.00D+00 IRadAn=         5 IDoV= 1 UseB2=F ITyADJ=14
 ICtDFT=  3500011 ScaDFX=  1.000000  1.000000  1.000000  1.000000
 FoFCou: FMM=F IPFlag=           0 FMFlag=      100000 FMFlg1=           0
         NFxFlg=           0 DoJE=T BraDBF=F KetDBF=T FulRan=T
         wScrn=  0.000000 ICntrl=       500 IOpCl=  0 I1Cent=   200000004 NGrid=           0
         NMat0=    1 NMatS0=      1 NMatT0=    0 NMatD0=    1 NMtDS0=    0 NMtDT0=    0
 Petite list used in FoFCou.
 Requested convergence on RMS density matrix=1.00D-08 within 128 cycles.
 Requested convergence on MAX density matrix=1.00D-06.
 Requested convergence on             energy=1.00D-06.
 No special actions if energy rises.
 Integral accuracy reduced to 1.0D-05 until final iterations.
 EnCoef did     6 forward-backward iterations
 EnCoef did   100 forward-backward iterations
 EnCoef did     7 forward-backward iterations
 EnCoef did     7 forward-backward iterations
 EnCoef did     9 forward-backward iterations
 EnCoef did     3 forward-backward iterations
 EnCoef did     2 forward-backward iterations
 EnCoef did     1 forward-backward iterations
 EnCoef did    14 forward-backward iterations
 EnCoef did   100 forward-backward iterations
 Initial convergence to 1.0D-05 achieved.  Increase integral accuracy.
 SCF Done:  E(RB3LYP) =  -1615.58384383     A.U. after   26 cycles
            NFock= 26  Conv=0.71D-08     -V/T= 2.0039

 **********************************************************************

            Population analysis using the SCF density.

 **********************************************************************

 Orbital symmetries:
       Occupied  (A) (A) (A) (A) (A) (A) (A) (A) (A) (A) (A) (A)
                 (A) (A) (A) (A) (A) (A) (A) (A) (A) (A) (A) (A)
                 (A) (A) (A) (A) (A) (A) (A) (A) (A) (A) (A) (A)
                 (A) (A) (A) (A) (A) (A) (A) (A) (A) (A) (A) (A)
                 (A) (A) (A) (A) (A) (A) (A) (A) (A) (A) (A) (A)
                 (A)
       Virtual   (A) (A) (A) (A) (A) (A) (A) (A) (A) (A) (A) (A)
                 (A) (A) (A) (A) (A) (A) (A) (A) (A) (A) (A) (A)
                 (A) (A) (A) (A) (A) (A) (A) (A) (A) (A) (A) (A)
                 (A) (A) (A) (A) (A) (A) (A) (A) (A) (A) (A) (A)
                 (A) (A) (A) (A) (A) (A) (A) (A) (A) (A) (A) (A)
                 (A) (A) (A) (A) (A) (A) (A) (A) (A) (A) (A) (A)
                 (A) (A) (A) (A) (A) (A) (A) (A) (A) (A) (A) (A)
                 (A) (A) (A) (A) (A) (A) (A) (A) (A) (A) (A) (A)
                 (A) (A) (A) (A) (A) (A) (A) (A) (A) (A) (A) (A)
                 (A) (A) (A) (A) (A) (A) (A) (A) (A) (A) (A) (A)
                 (A) (A) (A) (A) (A) (A) (A) (A) (A) (A) (A) (A)
                 (A) (A) (A) (A) (A) (A) (A) (A) (A) (A) (A) (A)
                 (A) (A) (A) (A) (A) (A) (A) (A) (A) (A) (A) (A)
                 (A) (A) (A) (A) (A) (A) (A) (A) (A) (A) (A) (A)
                 (A) (A) (A) (A) (A) (A) (A) (A) (A) (A) (A) (A)
                 (A) (A) (A) (A) (A) (A) (A) (A) (A) (A) (A) (A)
                 (A) (A) (A) (A) (A) (A) (A) (A) (A) (A) (A) (A)
                 (A) (A) (A) (A) (A) (A) (A) (A) (A) (A) (A) (A)
                 (A) (A) (A) (A) (A) (A) (A) (A) (A) (A) (A) (A)
                 (A) (A) (A) (A) (A) (A) (A) (A) (A) (A) (A) (A)
                 (A) (A) (A) (A) (A) (A) (A) (A) (A) (A) (A) (A)
                 (A) (A) (A) (A) (A) (A) (A) (A) (A) (A) (A) (A)
                 (A) (A) (A) (A) (A) (A) (A) (A) (A) (A) (A) (A)
                 (A) (A) (A) (A) (A) (A) (A) (A) (A) (A) (A) (A)
                 (A) (A) (A) (A) (A) (A) (A) (A) (A) (A) (A) (A)
                 (A) (A) (A) (A) (A) (A) (A) (A) (A) (A) (A) (A)
                 (A) (A) (A) (A) (A) (A) (A) (A) (A) (A) (A) (A)
                 (A) (A) (A) (A) (A) (A) (A) (A) (A) (A) (A) (A)
                 (A) (A) (A) (A) (A) (A) (A) (A) (A) (A) (A) (A)
                 (A) (A) (A) (A) (A) (A) (A) (A) (A) (A) (A) (A)
                 (A) (A) (A) (A) (A) (A) (A) (A) (A) (A) (A) (A)
                 (A) (A) (A)
 The electronic state is 1-A.
 Alpha  occ. eigenvalues --  -88.94432 -88.90272 -88.89745 -14.34864 -14.33637
 Alpha  occ. eigenvalues --  -10.26710 -10.23165 -10.22680 -10.21961 -10.20871
 Alpha  occ. eigenvalues --  -10.20602 -10.19165 -10.17933  -8.00561  -7.96485
 Alpha  occ. eigenvalues --   -7.95488  -5.96941  -5.96731  -5.96193  -5.92847
 Alpha  occ. eigenvalues --   -5.92613  -5.92117  -5.91903  -5.91689  -5.91121
 Alpha  occ. eigenvalues --   -1.03864  -0.85417  -0.83653  -0.80394  -0.76173
 Alpha  occ. eigenvalues --   -0.72844  -0.72201  -0.72101  -0.63872  -0.58061
 Alpha  occ. eigenvalues --   -0.57166  -0.56051  -0.52282  -0.49338  -0.48386
 Alpha  occ. eigenvalues --   -0.46193  -0.45511  -0.44007  -0.42781  -0.42509
 Alpha  occ. eigenvalues --   -0.41835  -0.41191  -0.40660  -0.39223  -0.37441
 Alpha  occ. eigenvalues --   -0.37142  -0.35784  -0.32612  -0.32032  -0.30417
 Alpha  occ. eigenvalues --   -0.28611  -0.23284  -0.21555  -0.19714  -0.17345
 Alpha  occ. eigenvalues --   -0.15759
 Alpha virt. eigenvalues --   -0.12696  -0.08965  -0.05748  -0.01991   0.00113
 Alpha virt. eigenvalues --    0.02080   0.03872   0.04685   0.05278   0.07674
 Alpha virt. eigenvalues --    0.08757   0.10708   0.11298   0.12328   0.12617
 Alpha virt. eigenvalues --    0.13928   0.14831   0.15466   0.16090   0.17536
 Alpha virt. eigenvalues --    0.18194   0.19697   0.22672   0.23753   0.25240
 Alpha virt. eigenvalues --    0.25960   0.27113   0.28014   0.29237   0.30244
 Alpha virt. eigenvalues --    0.31616   0.32367   0.33024   0.34270   0.34354
 Alpha virt. eigenvalues --    0.35126   0.35822   0.36020   0.38270   0.39738
 Alpha virt. eigenvalues --    0.40340   0.40886   0.43706   0.43989   0.44580
 Alpha virt. eigenvalues --    0.45750   0.46457   0.46691   0.48431   0.49983
 Alpha virt. eigenvalues --    0.50354   0.51117   0.52146   0.52910   0.53036
 Alpha virt. eigenvalues --    0.54265   0.54956   0.56231   0.57048   0.57057
 Alpha virt. eigenvalues --    0.58871   0.60070   0.60695   0.62198   0.62774
 Alpha virt. eigenvalues --    0.64259   0.64791   0.65296   0.66153   0.67269
 Alpha virt. eigenvalues --    0.67896   0.68809   0.69746   0.70833   0.70961
 Alpha virt. eigenvalues --    0.71691   0.72910   0.73334   0.73873   0.74674
 Alpha virt. eigenvalues --    0.76542   0.76889   0.78256   0.79110   0.79937
 Alpha virt. eigenvalues --    0.80458   0.80818   0.82301   0.82719   0.83593
 Alpha virt. eigenvalues --    0.83864   0.84152   0.85657   0.86565   0.87921
 Alpha virt. eigenvalues --    0.88615   0.89775   0.90555   0.91161   0.94171
 Alpha virt. eigenvalues --    0.94857   0.95674   0.98082   1.00723   1.01198
 Alpha virt. eigenvalues --    1.03087   1.03575   1.06359   1.09314   1.11086
 Alpha virt. eigenvalues --    1.12808   1.13749   1.16097   1.17061   1.17639
 Alpha virt. eigenvalues --    1.19228   1.21208   1.23451   1.24074   1.25009
 Alpha virt. eigenvalues --    1.26311   1.27343   1.28304   1.30817   1.32046
 Alpha virt. eigenvalues --    1.33529   1.34985   1.36172   1.39351   1.40008
 Alpha virt. eigenvalues --    1.40498   1.43303   1.44581   1.46047   1.47271
 Alpha virt. eigenvalues --    1.48461   1.49725   1.50516   1.51421   1.53249
 Alpha virt. eigenvalues --    1.53599   1.55090   1.56200   1.58656   1.58965
 Alpha virt. eigenvalues --    1.62482   1.63995   1.66219   1.66346   1.68024
 Alpha virt. eigenvalues --    1.69357   1.70557   1.71592   1.71943   1.74306
 Alpha virt. eigenvalues --    1.74423   1.75346   1.75649   1.76133   1.78826
 Alpha virt. eigenvalues --    1.79566   1.80619   1.81640   1.84864   1.85501
 Alpha virt. eigenvalues --    1.87301   1.89160   1.90142   1.91074   1.91766
 Alpha virt. eigenvalues --    1.93025   1.93898   1.93991   1.95460   1.97915
 Alpha virt. eigenvalues --    1.99129   2.01033   2.01753   2.06584   2.07460
 Alpha virt. eigenvalues --    2.13578   2.13948   2.14907   2.15921   2.17142
 Alpha virt. eigenvalues --    2.21001   2.21939   2.23723   2.26315   2.27009
 Alpha virt. eigenvalues --    2.27488   2.30346   2.31701   2.32407   2.35115
 Alpha virt. eigenvalues --    2.36598   2.37022   2.39106   2.41810   2.43435
 Alpha virt. eigenvalues --    2.44645   2.45417   2.46125   2.46443   2.47719
 Alpha virt. eigenvalues --    2.48805   2.50645   2.51659   2.53372   2.55373
 Alpha virt. eigenvalues --    2.57689   2.59174   2.60176   2.61255   2.63775
 Alpha virt. eigenvalues --    2.64654   2.65549   2.68188   2.73035   2.76646
 Alpha virt. eigenvalues --    2.76710   2.78531   2.80252   2.82247   2.83186
 Alpha virt. eigenvalues --    2.85768   2.87864   2.88734   2.89116   2.90494
 Alpha virt. eigenvalues --    2.90896   2.92255   2.93730   2.94210   2.98711
 Alpha virt. eigenvalues --    2.99964   3.03877   3.04712   3.07715   3.08296
 Alpha virt. eigenvalues --    3.09815   3.10550   3.11755   3.13326   3.14287
 Alpha virt. eigenvalues --    3.14620   3.17960   3.19178   3.20807   3.21343
 Alpha virt. eigenvalues --    3.24172   3.24766   3.25804   3.26799   3.29595
 Alpha virt. eigenvalues --    3.31141   3.33337   3.33799   3.34744   3.36146
 Alpha virt. eigenvalues --    3.38340   3.40897   3.41911   3.43618   3.45352
 Alpha virt. eigenvalues --    3.45902   3.46302   3.48567   3.49873   3.52327
 Alpha virt. eigenvalues --    3.53440   3.54372   3.54644   3.58353   3.60365
 Alpha virt. eigenvalues --    3.63130   3.64339   3.67270   3.71096   3.71493
 Alpha virt. eigenvalues --    3.74748   3.78607   3.81484   3.82780   3.83385
 Alpha virt. eigenvalues --    3.88115   3.89513   3.90511   3.92925   3.93733
 Alpha virt. eigenvalues --    3.96902   4.01062   4.01534   4.04171   4.06842
 Alpha virt. eigenvalues --    4.11434   4.16226   4.18408   4.19135   4.21494
 Alpha virt. eigenvalues --    4.25034   4.26013   4.28229   4.29781   4.31108
 Alpha virt. eigenvalues --    4.34680   4.36713   4.37884   4.39150   4.41005
 Alpha virt. eigenvalues --    4.41461   4.42148   4.44585   4.47550   4.48057
 Alpha virt. eigenvalues --    4.49549   4.50568   4.52462   4.53523   4.54387
 Alpha virt. eigenvalues --    4.54768   4.55983   4.57740   4.58282   4.60027
 Alpha virt. eigenvalues --    4.60870   4.62794   4.63553   4.64314   4.67589
 Alpha virt. eigenvalues --    4.70775   4.72397   4.73296   4.73816   4.75093
 Alpha virt. eigenvalues --    4.77866   4.78986   4.80221   4.81909   4.85188
 Alpha virt. eigenvalues --    4.88470   4.90567   4.93154   4.97940   5.02589
 Alpha virt. eigenvalues --    5.06602   5.11926   5.18593   5.18885   5.25379
 Alpha virt. eigenvalues --    5.26434   5.28189   5.34482   5.40340   5.40933
 Alpha virt. eigenvalues --    5.42971   5.50725   5.52297   5.63363   5.66338
 Alpha virt. eigenvalues --    5.74514   5.81561   6.23543   8.92976  10.49361
 Alpha virt. eigenvalues --   10.61473  10.80423  10.86750  11.29453  11.46237
 Alpha virt. eigenvalues --   11.50889  11.64880  11.79387  12.00876  13.97136
          Condensed to atoms (all electrons):
               1          2          3          4          5          6
     1  C    5.044032   0.398821  -0.055317  -0.029182   0.000066   0.000009
     2  C    0.398821   4.890578   0.438566   0.325080  -0.011986  -0.000735
     3  C   -0.055317   0.438566   4.978388  -0.065888   0.002482  -0.000008
     4  S   -0.029182   0.325080  -0.065888  15.693216  -0.023141  -0.042686
     5  C    0.000066  -0.011986   0.002482  -0.023141   5.607251   0.624622
     6  C    0.000009  -0.000735  -0.000008  -0.042686   0.624622   4.892056
     7  C    0.000000  -0.000045   0.000001   0.000391  -0.026673   0.343588
     8  C    0.000000  -0.000000  -0.000000  -0.000351  -0.003024  -0.037154
     9  N   -0.000000   0.000000  -0.000000   0.000000   0.000071   0.006410
    10  N   -0.000000   0.000000   0.000000  -0.000000   0.000020  -0.000225
    11  S    0.000000  -0.000000   0.000000   0.000001  -0.000217   0.000636
    12  C   -0.000000   0.000000   0.000000  -0.000066   0.001508   0.000328
    13  S   -0.000000   0.000017  -0.000111   0.011881   0.085363  -0.086683
    14  H    0.369441  -0.016472  -0.008746   0.001796  -0.000002  -0.000000
    15  H    0.363524  -0.025479   0.003107   0.001213   0.000028  -0.000000
    16  H    0.374791  -0.024941   0.002878  -0.003487  -0.000024  -0.000001
    17  H   -0.010628  -0.021645   0.374507   0.004347  -0.000014  -0.000002
    18  H    0.005158  -0.038175   0.366763  -0.003709  -0.004900  -0.000025
    19  H    0.003183  -0.045043   0.371968  -0.001145   0.005729   0.000062
    20  H   -0.002675  -0.000584   0.002594   0.198731   0.006386   0.000038
    21  H   -0.000011  -0.000067   0.000009  -0.021748  -0.058003   0.379015
    22  H   -0.000000  -0.000001   0.000001  -0.000271  -0.013816  -0.034002
    23  H   -0.000000   0.000000   0.000000   0.000020   0.000003   0.012983
    24  H    0.000000  -0.000000  -0.000000   0.000001   0.000022  -0.000013
    25  H    0.000000  -0.000001   0.000014  -0.000401  -0.010050   0.000892
               7          8          9         10         11         12
     1  C    0.000000   0.000000  -0.000000  -0.000000   0.000000  -0.000000
     2  C   -0.000045  -0.000000   0.000000   0.000000  -0.000000   0.000000
     3  C    0.000001  -0.000000  -0.000000   0.000000   0.000000   0.000000
     4  S    0.000391  -0.000351   0.000000  -0.000000   0.000001  -0.000066
     5  C   -0.026673  -0.003024   0.000071   0.000020  -0.000217   0.001508
     6  C    0.343588  -0.037154   0.006410  -0.000225   0.000636   0.000328
     7  C    4.995014   0.564501  -0.042587   0.000525  -0.001287   0.005512
     8  C    0.564501   4.809407   0.513396  -0.096589  -0.000573  -0.005112
     9  N   -0.042587   0.513396   6.362266   0.387526  -0.107688  -0.056671
    10  N    0.000525  -0.096589   0.387526   6.677018   0.272317  -0.026805
    11  S   -0.001287  -0.000573  -0.107688   0.272317  15.642433   0.268506
    12  C    0.005512  -0.005112  -0.056671  -0.026805   0.268506   5.612030
    13  S   -0.010461  -0.002317  -0.003666   0.002137  -0.006715   0.126066
    14  H   -0.000000   0.000000   0.000000   0.000000  -0.000000   0.000000
    15  H    0.000000  -0.000000  -0.000000   0.000000   0.000000   0.000000
    16  H   -0.000000   0.000000   0.000000  -0.000000  -0.000000  -0.000000
    17  H   -0.000000   0.000000   0.000000  -0.000000  -0.000000   0.000000
    18  H   -0.000003   0.000000   0.000000  -0.000000  -0.000000   0.000000
    19  H    0.000005   0.000000  -0.000000   0.000000  -0.000000   0.000000
    20  H    0.000059   0.000009   0.000000   0.000000  -0.000000   0.000000
    21  H   -0.036670  -0.003453   0.000101  -0.000010  -0.000013  -0.000002
    22  H    0.367723  -0.026622  -0.001225  -0.000816   0.002933   0.000951
    23  H   -0.072624   0.336206  -0.039582   0.005807   0.000615  -0.002369
    24  H   -0.000438   0.000877   0.000923   0.006072  -0.066011   0.313646
    25  H    0.002073  -0.000030  -0.000037  -0.000003   0.000042  -0.010523
              13         14         15         16         17         18
     1  C   -0.000000   0.369441   0.363524   0.374791  -0.010628   0.005158
     2  C    0.000017  -0.016472  -0.025479  -0.024941  -0.021645  -0.038175
     3  C   -0.000111  -0.008746   0.003107   0.002878   0.374507   0.366763
     4  S    0.011881   0.001796   0.001213  -0.003487   0.004347  -0.003709
     5  C    0.085363  -0.000002   0.000028  -0.000024  -0.000014  -0.004900
     6  C   -0.086683  -0.000000  -0.000000  -0.000001  -0.000002  -0.000025
     7  C   -0.010461  -0.000000   0.000000  -0.000000  -0.000000  -0.000003
     8  C   -0.002317   0.000000  -0.000000   0.000000   0.000000   0.000000
     9  N   -0.003666   0.000000  -0.000000   0.000000   0.000000   0.000000
    10  N    0.002137   0.000000   0.000000  -0.000000  -0.000000  -0.000000
    11  S   -0.006715  -0.000000   0.000000  -0.000000  -0.000000  -0.000000
    12  C    0.126066   0.000000   0.000000  -0.000000   0.000000   0.000000
    13  S   15.769629   0.000000  -0.000000   0.000000   0.000003   0.000574
    14  H    0.000000   0.564250  -0.032511  -0.032944   0.005617   0.000172
    15  H   -0.000000  -0.032511   0.574811  -0.035179   0.000183  -0.000232
    16  H    0.000000  -0.032944  -0.035179   0.571936   0.000275  -0.000089
    17  H    0.000003   0.005617   0.000183   0.000275   0.562360  -0.026863
    18  H    0.000574   0.000172  -0.000232  -0.000089  -0.026863   0.575835
    19  H   -0.000222   0.000278   0.000065  -0.000184  -0.027024  -0.031436
    20  H   -0.000528   0.000009   0.000777  -0.000890  -0.000077  -0.000508
    21  H    0.005014   0.000000   0.000002  -0.000001   0.000000  -0.000004
    22  H   -0.018013   0.000000   0.000000  -0.000000  -0.000000  -0.000001
    23  H   -0.000236   0.000000  -0.000000   0.000000   0.000000   0.000000
    24  H   -0.016524  -0.000000  -0.000000  -0.000000  -0.000000   0.000000
    25  H    0.270408  -0.000000   0.000000  -0.000000  -0.000000  -0.000096
              19         20         21         22         23         24
     1  C    0.003183  -0.002675  -0.000011  -0.000000  -0.000000   0.000000
     2  C   -0.045043  -0.000584  -0.000067  -0.000001   0.000000  -0.000000
     3  C    0.371968   0.002594   0.000009   0.000001   0.000000  -0.000000
     4  S   -0.001145   0.198731  -0.021748  -0.000271   0.000020   0.000001
     5  C    0.005729   0.006386  -0.058003  -0.013816   0.000003   0.000022
     6  C    0.000062   0.000038   0.379015  -0.034002   0.012983  -0.000013
     7  C    0.000005   0.000059  -0.036670   0.367723  -0.072624  -0.000438
     8  C    0.000000   0.000009  -0.003453  -0.026622   0.336206   0.000877
     9  N   -0.000000   0.000000   0.000101  -0.001225  -0.039582   0.000923
    10  N    0.000000   0.000000  -0.000010  -0.000816   0.005807   0.006072
    11  S   -0.000000  -0.000000  -0.000013   0.002933   0.000615  -0.066011
    12  C    0.000000   0.000000  -0.000002   0.000951  -0.002369   0.313646
    13  S   -0.000222  -0.000528   0.005014  -0.018013  -0.000236  -0.016524
    14  H    0.000278   0.000009   0.000000   0.000000   0.000000  -0.000000
    15  H    0.000065   0.000777   0.000002   0.000000  -0.000000  -0.000000
    16  H   -0.000184  -0.000890  -0.000001  -0.000000   0.000000  -0.000000
    17  H   -0.027024  -0.000077   0.000000  -0.000000   0.000000  -0.000000
    18  H   -0.031436  -0.000508  -0.000004  -0.000001   0.000000   0.000000
    19  H    0.566418   0.000175   0.000009   0.000004  -0.000000  -0.000000
    20  H    0.000175   0.633070   0.006213   0.000010   0.000004  -0.000000
    21  H    0.000009   0.006213   0.612401   0.004676   0.003039  -0.000000
    22  H    0.000004   0.000010   0.004676   0.560027   0.005873   0.000127
    23  H   -0.000000   0.000004   0.003039   0.005873   0.655208   0.000349
    24  H   -0.000000  -0.000000  -0.000000   0.000127   0.000349   0.589710
    25  H    0.000039  -0.000000  -0.000053   0.000541  -0.000002   0.000832
              25
     1  C    0.000000
     2  C   -0.000001
     3  C    0.000014
     4  S   -0.000401
     5  C   -0.010050
     6  C    0.000892
     7  C    0.002073
     8  C   -0.000030
     9  N   -0.000037
    10  N   -0.000003
    11  S    0.000042
    12  C   -0.010523
    13  S    0.270408
    14  H   -0.000000
    15  H    0.000000
    16  H   -0.000000
    17  H   -0.000000
    18  H   -0.000096
    19  H    0.000039
    20  H   -0.000000
    21  H   -0.000053
    22  H    0.000541
    23  H   -0.000002
    24  H    0.000832
    25  H    0.563122
 Mulliken charges:
               1
     1  C   -0.461211
     2  C    0.132114
     3  C   -0.411209
     4  S   -0.044603
     5  C   -0.181700
     6  C   -0.059106
     7  C   -0.088602
     8  C   -0.049172
     9  N   -0.019237
    10  N   -0.226974
    11  S   -0.004979
    12  C   -0.226999
    13  S   -0.125617
    14  H    0.149113
    15  H    0.149690
    16  H    0.147860
    17  H    0.138963
    18  H    0.157538
    19  H    0.157123
    20  H    0.157185
    21  H    0.109555
    22  H    0.151902
    23  H    0.094705
    24  H    0.170426
    25  H    0.183235
 Sum of Mulliken charges =  -0.00000
 Mulliken charges with hydrogens summed into heavy atoms:
               1
     1  C   -0.014548
     2  C    0.132114
     3  C    0.042415
     4  S    0.112582
     5  C   -0.181700
     6  C    0.050450
     7  C    0.063300
     8  C    0.045533
     9  N   -0.019237
    10  N   -0.226974
    11  S   -0.004979
    12  C   -0.056574
    13  S    0.057619
 Electronic spatial extent (au):  <R**2>=           5644.0696
 Charge=             -0.0000 electrons
 Dipole moment (field-independent basis, Debye):
    X=             -9.2764    Y=             -0.9700    Z=             -0.6115  Tot=              9.3470
 Quadrupole moment (field-independent basis, Debye-Ang):
   XX=            -92.2719   YY=            -95.7772   ZZ=           -100.3484
   XY=              2.5087   XZ=             -1.9141   YZ=              5.1196
 Traceless Quadrupole moment (field-independent basis, Debye-Ang):
   XX=              3.8605   YY=              0.3553   ZZ=             -4.2159
   XY=              2.5087   XZ=             -1.9141   YZ=              5.1196
 Octapole moment (field-independent basis, Debye-Ang**2):
  XXX=           -225.0965  YYY=             -5.7444  ZZZ=             -1.8635  XYY=            -18.4553
  XXY=              4.0870  XXZ=              6.3048  XZZ=             -7.7709  YZZ=             -4.2653
  YYZ=             -3.3122  XYZ=             -9.5474
 Hexadecapole moment (field-independent basis, Debye-Ang**3):
 XXXX=          -6046.3212 YYYY=           -771.7256 ZZZZ=           -311.5960 XXXY=             40.0578
 XXXZ=            -30.4520 YYYX=            -23.3319 YYYZ=             19.8878 ZZZX=              0.7536
 ZZZY=             14.2416 XXYY=          -1221.9954 XXZZ=          -1142.7765 YYZZ=           -182.9569
 XXYZ=             17.7001 YYXZ=              3.2459 ZZXY=             10.6138
 N-N= 1.037609392692D+03 E-N=-5.891855465115D+03  KE= 1.609361289129D+03
 PrsmSu:  requested number of processors reduced to:  13 ShMem   1 Linda.
 Calling FoFJK, ICntrl=      2127 FMM=F ISym2X=0 I1Cent= 0 IOpClX= 0 NMat=1 NMatS=1 NMatT=0.
 ***** Axes restored to original set *****
 -------------------------------------------------------------------
 Center     Atomic                   Forces (Hartrees/Bohr)
 Number     Number              X              Y              Z
 -------------------------------------------------------------------
      1        6           0.019508919   -0.002946651    0.002992406
      2        6          -0.032614470    0.001509400   -0.042439724
      3        6           0.004003563    0.003069169   -0.013827511
      4       16          -0.033995520    0.052104463    0.049769307
      5        6          -0.017061862    0.014113284    0.008804417
      6        6          -0.037680650    0.005386525    0.007538400
      7        6           0.043580910   -0.007401927   -0.027148719
      8        6          -0.029935162   -0.032118490    0.010676101
      9        7          -0.020838097   -0.036532699    0.035304215
     10        7           0.045519282    0.018113617   -0.061712125
     11       16          -0.004839126    0.036809521    0.044499867
     12        6           0.059032443    0.012593633    0.017360570
     13       16           0.021041857   -0.023512996   -0.018821557
     14        1           0.014211019   -0.002815407   -0.004839153
     15        1           0.005181197   -0.002197398   -0.005887935
     16        1           0.005302177   -0.004223230   -0.004599771
     17        1           0.001205196   -0.004336486    0.001409609
     18        1           0.009987682    0.003926370    0.013470217
     19        1           0.011950885    0.002837484    0.013108720
     20        1          -0.020295960   -0.018244943   -0.010957578
     21        1          -0.004435613   -0.009001090    0.000487297
     22        1          -0.005417060   -0.015722005   -0.011635414
     23        1          -0.005355926    0.003921001   -0.017540675
     24        1          -0.039332901    0.002664340   -0.005060763
     25        1           0.011277217    0.002004512    0.019049798
 -------------------------------------------------------------------
 Cartesian Forces:  Max     0.061712125 RMS     0.022898191

 GradGradGradGradGradGradGradGradGradGradGradGradGradGradGradGradGradGrad
 Berny optimization.
 FormGI is forming the generalized inverse of G from B-inverse, IUseBI=4.
 Internal  Forces:  Max     0.082083584 RMS     0.020516238
 Search for a local minimum.
 Step number   1 out of a maximum of  120
 All quantities printed in internal units (Hartrees-Bohrs-Radians)
 Mixed Optimization -- RFO/linear search
 Second derivative matrix not updated -- first step.
 ITU=  0
     Eigenvalues ---    0.00230   0.00230   0.00230   0.00257   0.00680
     Eigenvalues ---    0.00694   0.00725   0.01128   0.01703   0.02492
     Eigenvalues ---    0.02587   0.02643   0.02723   0.02748   0.02815
     Eigenvalues ---    0.03040   0.04607   0.05856   0.06553   0.06898
     Eigenvalues ---    0.07681   0.08355   0.09377   0.09633   0.11718
     Eigenvalues ---    0.12243   0.14529   0.15055   0.15112   0.15528
     Eigenvalues ---    0.15979   0.15997   0.16000   0.16000   0.16000
     Eigenvalues ---    0.16000   0.16000   0.16000   0.16930   0.18923
     Eigenvalues ---    0.20163   0.21439   0.21863   0.22254   0.22270
     Eigenvalues ---    0.22588   0.23165   0.23469   0.24126   0.24775
     Eigenvalues ---    0.28003   0.28813   0.31478   0.32266   0.33746
     Eigenvalues ---    0.33756   0.34116   0.34563   0.34616   0.35427
     Eigenvalues ---    0.35458   0.36492   0.36708   0.37479   0.49083
     Eigenvalues ---    0.50623   0.56266   0.63157   0.88379
 RFO step:  Lambda=-1.28234297D-01 EMin= 2.30000000D-03
 Linear search not attempted -- first point.
 Maximum step size (   0.300) exceeded in Quadratic search.
    -- Step size scaled by   0.598
 Iteration  1 RMS(Cart)=  0.09203828 RMS(Int)=  0.00275536
 Iteration  2 RMS(Cart)=  0.00415484 RMS(Int)=  0.00085936
 Iteration  3 RMS(Cart)=  0.00000900 RMS(Int)=  0.00085932
 Iteration  4 RMS(Cart)=  0.00000001 RMS(Int)=  0.00085932
 Variable       Old X    -DE/DX   Delta X   Delta X   Delta X     New X
                                 (Linear)    (Quad)   (Total)
    R1        2.99784  -0.04234   0.00000  -0.06739  -0.06739   2.93045
    R2        2.10359  -0.01119   0.00000  -0.01485  -0.01485   2.08874
    R3        2.07760  -0.00029   0.00000  -0.00037  -0.00037   2.07723
    R4        2.07135  -0.00031   0.00000  -0.00040  -0.00040   2.07095
    R5        2.78287   0.02390   0.00000   0.02964   0.02964   2.81251
    R6        3.51625  -0.05628   0.00000  -0.09711  -0.09711   3.41914
    R7        2.06303  -0.00166   0.00000  -0.00209  -0.00209   2.06093
    R8        2.06391   0.00363   0.00000   0.00458   0.00458   2.06849
    R9        2.04937   0.01108   0.00000   0.01373   0.01373   2.06310
   R10        3.94148   0.02243   0.00000   0.05354   0.05354   3.99502
   R11        2.49633   0.02238   0.00000   0.03281   0.03281   2.52914
   R12        2.53499   0.04917   0.00000   0.04410   0.04403   2.57902
   R13        4.14320   0.01834   0.00000   0.04025   0.04000   4.18320
   R14        2.58750   0.06172   0.00000   0.06404   0.06472   2.65222
   R15        2.03320   0.00557   0.00000   0.00676   0.00676   2.03996
   R16        2.58959   0.00374   0.00000   0.00597   0.00588   2.59548
   R17        2.07744  -0.01382   0.00000  -0.01776  -0.01776   2.05968
   R18        2.47485   0.04476   0.00000   0.03970   0.04049   2.51534
   R19        2.01830   0.01864   0.00000   0.02218   0.02218   2.04047
   R20        2.32788   0.08208   0.00000   0.04978   0.04992   2.37780
   R21        3.19517   0.05360   0.00000   0.06696   0.06753   3.26271
   R22        3.57189  -0.02214   0.00000  -0.05128  -0.05192   3.51997
   R23        4.18523  -0.01794   0.00000  -0.06597  -0.06652   4.11871
   R24        2.11810  -0.01258   0.00000  -0.01700  -0.01700   2.10110
   R25        2.47896   0.01887   0.00000   0.02713   0.02713   2.50608
    A1        1.92388  -0.01071   0.00000  -0.02026  -0.02030   1.90358
    A2        2.01558  -0.00414   0.00000  -0.00960  -0.00970   2.00588
    A3        2.00458  -0.00415   0.00000  -0.00959  -0.00968   1.99489
    A4        1.79532   0.01007   0.00000   0.02266   0.02262   1.81794
    A5        1.80792   0.01014   0.00000   0.02289   0.02285   1.83077
    A6        1.89377   0.00171   0.00000   0.00067   0.00055   1.89432
    A7        2.03603   0.02611   0.00000   0.04436   0.04444   2.08046
    A8        2.25736  -0.02407   0.00000  -0.03866  -0.03893   2.21844
    A9        1.93456  -0.00057   0.00000   0.00119   0.00123   1.93579
   A10        1.95333  -0.00618   0.00000  -0.01289  -0.01286   1.94047
   A11        1.82508   0.02283   0.00000   0.04840   0.04796   1.87304
   A12        1.86761   0.01642   0.00000   0.03312   0.03274   1.90035
   A13        1.89899  -0.00573   0.00000  -0.00991  -0.00992   1.88907
   A14        1.95033  -0.00860   0.00000  -0.01967  -0.01960   1.93073
   A15        1.96527  -0.01679   0.00000  -0.03485  -0.03575   1.92952
   A16        2.17430  -0.00265   0.00000  -0.00948  -0.01039   2.16391
   A17        1.87102  -0.01181   0.00000  -0.03245  -0.03334   1.83768
   A18        2.13847   0.00663   0.00000   0.00724   0.00592   2.14439
   A19        1.76493   0.00714   0.00000   0.02194   0.02339   1.78832
   A20        2.29636  -0.00695   0.00000  -0.02419  -0.02562   2.27073
   A21        1.76813   0.00407   0.00000   0.02367   0.02333   1.79146
   A22        1.97175   0.00542   0.00000   0.02524   0.02496   1.99671
   A23        2.17021   0.00080   0.00000  -0.00540  -0.00531   2.16490
   A24        2.14096  -0.00639   0.00000  -0.01998  -0.01981   2.12116
   A25        2.12752   0.03042   0.00000   0.06078   0.06226   2.18978
   A26        2.04037  -0.01325   0.00000  -0.02235  -0.02259   2.01778
   A27        2.04947  -0.01786   0.00000  -0.03657  -0.03748   2.01198
   A28        1.87390  -0.00953   0.00000  -0.00327  -0.00505   1.86885
   A29        2.17139   0.00493   0.00000   0.00095  -0.00102   2.17037
   A30        2.23628   0.00257   0.00000  -0.00362  -0.00526   2.23103
   A31        2.23755  -0.01806   0.00000  -0.01916  -0.01786   2.21969
   A32        1.68347   0.02058   0.00000   0.05648   0.05696   1.74042
   A33        1.62447   0.01917   0.00000   0.02807   0.02884   1.65331
   A34        2.55257  -0.01741   0.00000  -0.04359  -0.04590   2.50667
   A35        1.56490   0.03927   0.00000   0.07538   0.07360   1.63850
   A36        2.03522  -0.03276   0.00000  -0.07339  -0.07434   1.96087
   A37        2.26296   0.04993   0.00000   0.07479   0.07431   2.33727
   A38        1.60488   0.00700   0.00000   0.02356   0.02372   1.62860
   A39        1.83825  -0.02335   0.00000  -0.03967  -0.03994   1.79831
    D1        0.06109   0.00312   0.00000   0.01278   0.01265   0.07373
    D2       -2.69377  -0.00326   0.00000  -0.01327  -0.01314  -2.70690
    D3       -1.96366   0.00049   0.00000   0.00432   0.00421  -1.95945
    D4        1.56467  -0.00589   0.00000  -0.02174  -0.02157   1.54310
    D5        2.09485   0.00588   0.00000   0.02161   0.02145   2.11630
    D6       -0.66000  -0.00050   0.00000  -0.00445  -0.00434  -0.66434
    D7       -0.07193   0.00380   0.00000   0.00514   0.00482  -0.06711
    D8       -2.12475   0.00025   0.00000  -0.00514  -0.00511  -2.12986
    D9        2.07009   0.00033   0.00000  -0.00500  -0.00576   2.06434
   D10        2.75222   0.00254   0.00000   0.01560   0.01598   2.76820
   D11        0.69940  -0.00101   0.00000   0.00533   0.00605   0.70545
   D12       -1.38894  -0.00093   0.00000   0.00546   0.00540  -1.38354
   D13       -2.73757   0.01588   0.00000   0.06523   0.06445  -2.67312
   D14       -0.05385   0.00056   0.00000  -0.00809  -0.00781  -0.06166
   D15        0.77303   0.00467   0.00000   0.03206   0.03177   0.80480
   D16       -2.82644  -0.01065   0.00000  -0.04127  -0.04048  -2.86692
   D17        2.17924  -0.01401   0.00000  -0.06018  -0.06007   2.11917
   D18       -2.07592  -0.00475   0.00000  -0.01700  -0.01754  -2.09346
   D19       -0.43781   0.00855   0.00000   0.03440   0.03494  -0.40286
   D20        1.59022   0.01780   0.00000   0.07758   0.07747   1.66769
   D21       -3.10657  -0.01829   0.00000  -0.03476  -0.03320  -3.13977
   D22        0.05927  -0.01041   0.00000  -0.02766  -0.02671   0.03256
   D23        0.78903  -0.01602   0.00000  -0.03011  -0.02845   0.76058
   D24       -2.32832  -0.00814   0.00000  -0.02302  -0.02196  -2.35027
   D25       -2.69922  -0.01138   0.00000  -0.01884  -0.01707  -2.71629
   D26        1.63230  -0.00460   0.00000  -0.01420  -0.01451   1.61779
   D27       -0.67248  -0.00089   0.00000   0.02363   0.02547  -0.64702
   D28       -2.62415   0.00589   0.00000   0.02827   0.02803  -2.59613
   D29       -2.29521   0.00800   0.00000   0.00807   0.00830  -2.28691
   D30        0.45453   0.00151   0.00000   0.00427   0.00484   0.45937
   D31        0.82260   0.00038   0.00000   0.00133   0.00219   0.82479
   D32       -2.71084  -0.00611   0.00000  -0.00248  -0.00127  -2.71211
   D33        2.95791  -0.04091   0.00000  -0.11102  -0.10963   2.84828
   D34       -0.12709  -0.00518   0.00000  -0.00632  -0.00555  -0.13264
   D35        0.21011  -0.03545   0.00000  -0.11037  -0.10926   0.10085
   D36       -2.87489   0.00029   0.00000  -0.00567  -0.00518  -2.88007
   D37       -2.41548   0.02959   0.00000   0.08737   0.08789  -2.32759
   D38        0.66676  -0.00782   0.00000  -0.02225  -0.02077   0.64600
   D39        2.16347  -0.01220   0.00000   0.00806   0.01121   2.17468
   D40       -1.26163  -0.01336   0.00000  -0.05764  -0.05645  -1.31808
   D41        1.32153  -0.01535   0.00000  -0.05118  -0.05242   1.26911
   D42       -1.17230   0.00918   0.00000   0.04399   0.04548  -1.12682
   D43       -0.22744  -0.00970   0.00000  -0.01331  -0.01337  -0.24080
   D44        1.61991   0.00412   0.00000   0.02127   0.02026   1.64018
   D45        2.17336  -0.02455   0.00000  -0.09511  -0.09365   2.07971
   D46       -2.26248  -0.01073   0.00000  -0.06053  -0.06002  -2.32250
         Item               Value     Threshold  Converged?
 Maximum Force            0.082084     0.000450     NO 
 RMS     Force            0.020516     0.000300     NO 
 Maximum Displacement     0.317783     0.001800     NO 
 RMS     Displacement     0.092476     0.001200     NO 
 Predicted change in Energy=-6.438334D-02
 GradGradGradGradGradGradGradGradGradGradGradGradGradGradGradGradGradGrad

                          Input orientation:                          
 ---------------------------------------------------------------------
 Center     Atomic      Atomic             Coordinates (Angstroms)
 Number     Number       Type             X           Y           Z
 ---------------------------------------------------------------------
      1          6           0        1.316514   -0.105508   -0.167592
      2          6           0        2.853870    0.021392   -0.008881
      3          6           0        3.407491    0.647760    1.222480
      4         16           0        4.094407   -0.021783   -1.325270
      5          6           0        6.094339   -0.646759   -1.044223
      6          6           0        6.205065   -1.684319   -1.923866
      7          6           0        7.466773   -2.298834   -1.939860
      8          6           0        8.202562   -2.578865   -3.065296
      9          7           0        9.452539   -2.806485   -2.668472
     10          7           0       10.506978   -2.338643   -3.171010
     11         16           0       11.201190   -1.611562   -1.767302
     12          6           0       10.042324   -0.153276   -1.760687
     13         16           0        7.989381    0.454850   -1.353316
     14          1           0        0.823055    0.388550    0.689219
     15          1           0        0.931565   -1.134821   -0.142675
     16          1           0        0.911663    0.396510   -1.053637
     17          1           0        2.610751    1.018249    1.868506
     18          1           0        4.017936    1.500244    0.908194
     19          1           0        4.018638   -0.087913    1.748970
     20          1           0        3.408669   -0.264622   -2.448662
     21          1           0        5.412626   -2.004753   -2.583168
     22          1           0        8.040222   -2.221486   -1.016206
     23          1           0        7.839311   -2.462164   -4.075413
     24          1           0       10.417064    0.244993   -2.728765
     25          1           0        8.044028    0.868035   -0.094349
 ---------------------------------------------------------------------
                    Distance matrix (angstroms):
                    1          2          3          4          5
     1  C    0.000000
     2  C    1.550728   0.000000
     3  C    2.621431   1.488316   0.000000
     4  S    3.010634   1.809330   2.722347   0.000000
     5  C    4.887642   3.466842   3.746047   2.114074   0.000000
     6  C    5.429095   4.219849   4.812952   2.752675   1.364758
     7  C    6.765893   5.512803   5.929636   4.115281   2.327036
     8  C    7.869679   6.686667   7.196446   5.142305   3.501768
     9  N    8.929982   7.655895   7.975833   6.186140   4.310465
    10  N    9.923308   8.610394   8.867021   7.063686   5.182382
    11  S   10.125912   8.685409   8.647836   7.295831   5.247248
    12  C    8.870175   7.400892   7.318603   5.965283   4.042701
    13  S    6.800522   5.326243   5.259815   3.924129   2.213654
    14  H    1.105314   2.178614   2.651578   3.863713   5.644742
    15  H    1.099223   2.247217   3.342372   3.555412   5.263575
    16  H    1.095902   2.237051   3.387181   3.221585   5.286646
    17  H    2.661499   2.139490   1.090600   3.671935   4.836489
    18  H    3.321662   2.093581   1.094600   2.703845   3.568333
    19  H    3.312853   2.111557   1.091745   3.075885   3.524595
    20  H    3.099309   2.518360   3.782820   1.338363   3.054717
    21  H    5.120573   4.156855   5.053646   2.692986   2.162691
    22  H    7.099701   5.739638   5.891220   4.528098   2.503400
    23  H    7.960639   6.896329   7.574980   5.248148   3.940652
    24  H    9.460575   8.040502   8.056591   6.482049   4.724284
    25  H    6.797985   5.259453   4.824938   4.231601   2.645401
                    6          7          8          9         10
     6  C    0.000000
     7  C    1.403493   0.000000
     8  C    2.468415   1.373466   0.000000
     9  N    3.515648   2.175281   1.331060   0.000000
    10  N    4.526584   3.280268   2.319313   1.258277   0.000000
    11  S    4.999107   3.801051   3.407672   2.301680   1.726550
    12  C    4.134644   3.356931   3.312131   2.865561   2.642110
    13  S    2.843476   2.863552   3.489950   3.808776   4.176830
    14  H    6.331748   7.633681   8.795400   9.795423  10.775774
    15  H    5.593245   6.877045   7.968336   9.043291  10.114768
    16  H    5.753890   7.142810   8.127536   9.263553  10.199725
    17  H    5.882606   7.006258   8.279492   9.056645   9.950671
    18  H    4.790150   5.868465   7.066743   7.802266   8.572317
    19  H    4.562751   5.512284   6.847424   7.512103   8.448109
    20  H    3.179745   4.567834   5.358859   6.560315   7.430298
    21  H    1.079498   2.172522   2.888910   4.119581   5.139014
    22  H    2.116647   1.089937   2.086347   2.250965   3.277467
    23  H    2.811576   2.173948   1.079772   2.168074   2.819512
    24  H    4.702238   3.974625   3.604364   3.200853   2.622755
    25  H    3.639152   3.710552   4.553326   4.702351   5.080822
                   11         12         13         14         15
    11  S    0.000000
    12  C    1.862689   0.000000
    13  S    3.841505   2.179528   0.000000
    14  H   10.850835   9.554608   7.452018   0.000000
    15  H   10.408261   9.305231   7.335221   1.739103   0.000000
    16  H   10.507903   9.174483   7.084299   1.745125   1.781915
    17  H    9.691782   8.352951   6.295015   2.232285   3.391198
    18  H    8.272892   6.793401   4.688246   3.389849   4.192085
    19  H    8.140929   6.971854   5.068093   3.400270   3.768866
    20  H    7.937372   6.670163   4.764488   4.118050   3.494406
    21  H    5.858986   5.053568   3.768534   6.123771   5.176166
    22  H    3.305733   2.973241   2.697963   7.861823   7.244094
    23  H    4.165709   3.942358   3.992656   8.947409   8.058860
    24  H    2.232949   1.111856   2.798132  10.185687   9.928063
    25  H    4.349120   2.795165   1.326162   7.279171   7.389242
                   16         17         18         19         20
    16  H    0.000000
    17  H    3.436914   0.000000
    18  H    3.836136   1.770505   0.000000
    19  H    4.212192   1.794444   1.796983   0.000000
    20  H    2.935683   4.573880   3.841152   4.245398   0.000000
    21  H    5.325804   6.066831   5.140017   4.938106   2.657439
    22  H    7.594185   6.949576   5.808044   5.326487   5.228052
    23  H    8.080560   8.647618   7.425626   7.359215   5.206351
    24  H    9.653064   9.092379   7.466724   7.816699   7.032479
    25  H    7.212017   5.778915   4.196927   4.529395   5.320926
                   21         22         23         24         25
    21  H    0.000000
    22  H    3.067019   0.000000
    23  H    2.885277   3.075230   0.000000
    24  H    5.488803   3.829590   3.973281   0.000000
    25  H    4.622922   3.224125   5.194324   3.599949   0.000000
 Stoichiometry    C8H12N2S3
 Framework group  C1[X(C8H12N2S3)]
 Deg. of freedom    69
 Full point group                 C1      NOp   1
 Largest Abelian subgroup         C1      NOp   1
 Largest concise Abelian subgroup C1      NOp   1
                         Standard orientation:                         
 ---------------------------------------------------------------------
 Center     Atomic      Atomic             Coordinates (Angstroms)
 Number     Number       Type             X           Y           Z
 ---------------------------------------------------------------------
      1          6           0       -5.728500   -0.672346    0.142293
      2          6           0       -4.358419    0.035607    0.304900
      3          6           0       -4.307094    1.381249    0.938695
      4         16           0       -2.838850   -0.302325   -0.617264
      5          6           0       -0.895895    0.059026    0.133511
      6          6           0       -0.323451   -1.178588    0.077110
      7          6           0        1.003527   -1.224965    0.531831
      8          6           0        2.053736   -1.809415   -0.132917
      9          7           0        3.172600   -1.337347    0.412075
     10          7           0        4.186586   -0.900150   -0.191210
     11         16           0        4.301262    0.665251    0.528056
     12          6           0        2.880596    1.383171   -0.439368
     13         16           0        0.710319    1.371501   -0.639634
     14          1           0       -6.529611    0.008930    0.482593
     15          1           0       -5.860970   -1.572506    0.759102
     16          1           0       -5.988922   -0.918273   -0.893420
     17          1           0       -5.308688    1.748714    1.164938
     18          1           0       -3.846642    2.063785    0.217393
     19          1           0       -3.705214    1.320995    1.847550
     20          1           0       -3.129984   -1.341612   -1.408680
     21          1           0       -0.819230   -2.056688   -0.308196
     22          1           0        1.279840   -0.460201    1.257606
     23          1           0        1.952940   -2.402794   -1.029382
     24          1           0        3.396142    1.278565   -1.418906
     25          1           0        0.335354    2.400297    0.108487
 ---------------------------------------------------------------------
 Rotational constants (GHZ):           1.4894664           0.1995404           0.1847266
 Standard basis: 6-31G(2df,p) (6D, 7F)
 There are   475 symmetry adapted cartesian basis functions of A   symmetry.
 There are   436 symmetry adapted basis functions of A   symmetry.
   436 basis functions,   728 primitive gaussians,   475 cartesian basis functions
    61 alpha electrons       61 beta electrons
       nuclear repulsion energy      1030.1569745645 Hartrees.
 NAtoms=   25 NActive=   25 NUniq=   25 SFac= 1.00D+00 NAtFMM=   60 NAOKFM=F Big=F
 Integral buffers will be    131072 words long.
 Raffenetti 2 integral format.
 Two-electron integral symmetry is turned on.
 One-electron integrals computed using PRISM.
 PrsmSu:  requested number of processors reduced to:  13 ShMem   1 Linda.
 NBasis=   436 RedAO= T EigKep=  3.30D-04  NBF=   436
 NBsUse=   436 1.00D-06 EigRej= -1.00D+00 NBFU=   436
 Initial guess from the checkpoint file:  "CCqCrd[SH]C1dCCdCNdNSCd[SH]1.chk"
 B after Tr=     0.000000    0.000000   -0.000000
         Rot=    1.000000   -0.000540   -0.000708    0.000266 Ang=  -0.11 deg.
 ExpMin= 1.17D-01 ExpMax= 2.19D+04 ExpMxC= 3.30D+03 IAcc=2 IRadAn=         4 AccDes= 0.00D+00
 Harris functional with IExCor=  402 and IRadAn=       4 diagonalized for initial guess.
 HarFok:  IExCor=  402 AccDes= 0.00D+00 IRadAn=         4 IDoV= 1 UseB2=F ITyADJ=14
 ICtDFT=  3500011 ScaDFX=  1.000000  1.000000  1.000000  1.000000
 FoFCou: FMM=F IPFlag=           0 FMFlag=      100000 FMFlg1=           0
         NFxFlg=           0 DoJE=T BraDBF=F KetDBF=T FulRan=T
         wScrn=  0.000000 ICntrl=       500 IOpCl=  0 I1Cent=   200000004 NGrid=           0
         NMat0=    1 NMatS0=      1 NMatT0=    0 NMatD0=    1 NMtDS0=    0 NMtDT0=    0
 Petite list used in FoFCou.
 Requested convergence on RMS density matrix=1.00D-08 within 128 cycles.
 Requested convergence on MAX density matrix=1.00D-06.
 Requested convergence on             energy=1.00D-06.
 No special actions if energy rises.
 Integral accuracy reduced to 1.0D-05 until final iterations.
 EnCoef did     2 forward-backward iterations
 EnCoef did     2 forward-backward iterations
 Initial convergence to 1.0D-05 achieved.  Increase integral accuracy.
 SCF Done:  E(RB3LYP) =  -1615.64919959     A.U. after   20 cycles
            NFock= 20  Conv=0.79D-08     -V/T= 2.0042
 PrsmSu:  requested number of processors reduced to:  13 ShMem   1 Linda.
 Calling FoFJK, ICntrl=      2127 FMM=F ISym2X=0 I1Cent= 0 IOpClX= 0 NMat=1 NMatS=1 NMatT=0.
 ***** Axes restored to original set *****
 -------------------------------------------------------------------
 Center     Atomic                   Forces (Hartrees/Bohr)
 Number     Number              X              Y              Z
 -------------------------------------------------------------------
      1        6           0.015008103   -0.003771928    0.004263325
      2        6          -0.013931065    0.006607544   -0.034629548
      3        6           0.001557925   -0.000671125   -0.011451053
      4       16          -0.027309718    0.047413772    0.034888078
      5        6          -0.007264355   -0.006438917   -0.009448364
      6        6          -0.015759350    0.011974598    0.015691974
      7        6           0.025874308    0.000587099   -0.027410405
      8        6          -0.022844156   -0.019630509    0.006992320
      9        7           0.010358284   -0.013199478    0.025732773
     10        7           0.002734991    0.008913800   -0.041603888
     11       16          -0.014160386    0.031454430    0.037310510
     12        6           0.044474944    0.005628869    0.009510799
     13       16           0.023314611   -0.023842580   -0.010648707
     14        1           0.008426517   -0.001782943   -0.002823943
     15        1           0.003359285   -0.001561020   -0.004400334
     16        1           0.003753028   -0.003413471   -0.003089018
     17        1           0.000017974   -0.003388140    0.001917473
     18        1           0.006063610    0.000951372    0.008636920
     19        1           0.006847531    0.002495787    0.007803670
     20        1          -0.015107504   -0.016449993   -0.003377755
     21        1          -0.004431925   -0.007091005    0.002922512
     22        1          -0.003536261   -0.013325361   -0.004779826
     23        1          -0.002010826    0.000019001   -0.009506151
     24        1          -0.034015997   -0.000527281   -0.003210920
     25        1           0.008580431   -0.000952523    0.010709555
 -------------------------------------------------------------------
 Cartesian Forces:  Max     0.047413772 RMS     0.016553909

 GradGradGradGradGradGradGradGradGradGradGradGradGradGradGradGradGradGrad
 Berny optimization.
 Using GEDIIS/GDIIS optimizer.
 FormGI is forming the generalized inverse of G from B-inverse, IUseBI=4.
 Internal  Forces:  Max     0.046003369 RMS     0.013670006
 Search for a local minimum.
 Step number   2 out of a maximum of  120
 All quantities printed in internal units (Hartrees-Bohrs-Radians)
 Mixed Optimization -- RFO/linear search
 Update second derivatives using D2CorX and points    1    2
 DE= -6.54D-02 DEPred=-6.44D-02 R= 1.02D+00
 TightC=F SS=  1.41D+00  RLast= 4.10D-01 DXNew= 5.0454D-01 1.2305D+00
 Trust test= 1.02D+00 RLast= 4.10D-01 DXMaxT set to 5.05D-01
 ITU=  1  0
 Use linear search instead of GDIIS.
 Linear search step of   0.603 exceeds DXMaxT=   0.505 but not scaled.
 Quartic linear search produced a step of  2.00000.
 Iteration  1 RMS(Cart)=  0.18272669 RMS(Int)=  0.01182995
 Iteration  2 RMS(Cart)=  0.01663665 RMS(Int)=  0.00531450
 Iteration  3 RMS(Cart)=  0.00018532 RMS(Int)=  0.00531327
 Iteration  4 RMS(Cart)=  0.00000278 RMS(Int)=  0.00531327
 Iteration  5 RMS(Cart)=  0.00000005 RMS(Int)=  0.00531327
 Variable       Old X    -DE/DX   Delta X   Delta X   Delta X     New X
                                 (Linear)    (Quad)   (Total)
    R1        2.93045  -0.02880  -0.13478   0.00000  -0.13478   2.79567
    R2        2.08874  -0.00675  -0.02970   0.00000  -0.02970   2.05904
    R3        2.07723   0.00019  -0.00074   0.00000  -0.00074   2.07649
    R4        2.07095  -0.00045  -0.00079   0.00000  -0.00079   2.07016
    R5        2.81251   0.01085   0.05929   0.00000   0.05929   2.87180
    R6        3.41914  -0.04600  -0.19421   0.00000  -0.19421   3.22492
    R7        2.06093  -0.00003  -0.00418   0.00000  -0.00418   2.05675
    R8        2.06849   0.00164   0.00917   0.00000   0.00917   2.07766
    R9        2.06310   0.00592   0.02746   0.00000   0.02746   2.09056
   R10        3.99502   0.01882   0.10709   0.00000   0.10709   4.10211
   R11        2.52914   0.01356   0.06562   0.00000   0.06562   2.59476
   R12        2.57902   0.01401   0.08806   0.00000   0.08704   2.66606
   R13        4.18320   0.00594   0.08000   0.00000   0.07859   4.26179
   R14        2.65222   0.03309   0.12943   0.00000   0.13268   2.78490
   R15        2.03996   0.00357   0.01352   0.00000   0.01352   2.05348
   R16        2.59548  -0.00490   0.01177   0.00000   0.01097   2.60644
   R17        2.05968  -0.00686  -0.03551   0.00000  -0.03551   2.02417
   R18        2.51534   0.02930   0.08099   0.00000   0.08524   2.60058
   R19        2.04047   0.00957   0.04435   0.00000   0.04435   2.08483
   R20        2.37780   0.03025   0.09983   0.00000   0.09983   2.47763
   R21        3.26271   0.03706   0.13506   0.00000   0.13843   3.40113
   R22        3.51997  -0.03061  -0.10384   0.00000  -0.10705   3.41292
   R23        4.11871  -0.02701  -0.13304   0.00000  -0.13550   3.98321
   R24        2.10110  -0.00886  -0.03400   0.00000  -0.03400   2.06711
   R25        2.50608   0.01022   0.05425   0.00000   0.05425   2.56034
    A1        1.90358  -0.00566  -0.04060   0.00000  -0.04091   1.86267
    A2        2.00588  -0.00301  -0.01940   0.00000  -0.02000   1.98589
    A3        1.99489  -0.00306  -0.01937   0.00000  -0.01997   1.97493
    A4        1.81794   0.00627   0.04524   0.00000   0.04494   1.86289
    A5        1.83077   0.00653   0.04570   0.00000   0.04541   1.87617
    A6        1.89432   0.00064   0.00110   0.00000   0.00033   1.89465
    A7        2.08046   0.01642   0.08888   0.00000   0.08922   2.16968
    A8        2.21844  -0.01724  -0.07785   0.00000  -0.07924   2.13920
    A9        1.93579   0.00233   0.00246   0.00000   0.00247   1.93827
   A10        1.94047  -0.00372  -0.02572   0.00000  -0.02534   1.91513
   A11        1.87304   0.01356   0.09591   0.00000   0.09331   1.96635
   A12        1.90035   0.00966   0.06548   0.00000   0.06315   1.96350
   A13        1.88907  -0.00269  -0.01984   0.00000  -0.01977   1.86931
   A14        1.93073  -0.00554  -0.03921   0.00000  -0.03859   1.89214
   A15        1.92952  -0.01101  -0.07151   0.00000  -0.07630   1.85322
   A16        2.16391  -0.00598  -0.02078   0.00000  -0.02581   2.13810
   A17        1.83768  -0.00900  -0.06668   0.00000  -0.07206   1.76562
   A18        2.14439   0.00509   0.01184   0.00000   0.00342   2.14781
   A19        1.78832   0.00868   0.04679   0.00000   0.05585   1.84417
   A20        2.27073  -0.00556  -0.05125   0.00000  -0.05905   2.21168
   A21        1.79146   0.00033   0.04667   0.00000   0.04364   1.83511
   A22        1.99671   0.00246   0.04993   0.00000   0.04750   2.04422
   A23        2.16490   0.00017  -0.01062   0.00000  -0.00972   2.15518
[...]
 1,0.00031084,0.01944848,-0.00985934,-0.01184505,0.05929313,-0.02047887
 ,-0.05918498,0.00162263,-0.00330905,-0.00095096,0.00010343,-0.00017066
 ,-0.00189876,0.00065464,-0.00033877,0.00018343,0.00005199,-0.00022974,
 -0.00012587,-0.00011196,-0.00023678,0.00007578,-0.00001469,0.00007148,
 -0.00005006,0.00010508,-0.00001465,0.00001565,0.00003004,0.00011020,0.
 00001601,0.00015804,0.00002997,0.00007510,-0.00030555,-0.00037975,-0.0
 0025741,-0.00054634,-0.00033169,0.00042480,-0.00017493,-0.00009561,0.0
 0016697,-0.00007752,0.00035319,0.00010193,-0.06452607,0.02776039,0.069
 74580,0.00115651,-0.00046642,0.00025708,-0.00300216,-0.00084317,-0.000
 06208,-0.12742199,-0.11462450,0.04207671,-0.00021210,0.00030970,-0.000
 23694,0.00024607,-0.00038949,-0.00002614,0.00004360,0.00003450,0.00003
 658,0.00000893,-0.00002776,-0.00004510,-0.00001033,-0.00003166,0.00002
 091,-0.00000409,-0.00000592,-0.00002099,0.00003417,0.00001207,-0.00000
 136,0.00002384,0.00003103,-0.00000137,0.00001110,-0.00004238,0.0000085
 7,-0.00000226,0.00000793,0.00000425,0.00051235,0.00024603,-0.00021603,
 -0.00008630,-0.00053030,0.00005044,0.00041868,-0.00025380,-0.00007768,
 -0.01451180,-0.02259093,0.00774091,0.13528172,0.00028513,-0.00128215,-
 0.00423295,-0.01123189,-0.01652696,0.00582927,-0.11455425,-0.20602890,
 0.05748184,-0.00072665,-0.00010264,0.00145360,0.00061303,-0.00020796,-
 0.00038764,0.00010676,0.00007555,0.00012097,-0.00000491,-0.00001489,0.
 00001853,-0.00003282,-0.00007336,-0.00006516,0.00000179,0.00007854,0.0
 0001003,-0.00002394,-0.00004281,0.00000787,-0.00000206,0.00002176,0.00
 002377,0.00008088,0.00011989,0.00006793,-0.00010525,-0.00026639,-0.000
 20142,0.00007713,0.00029025,0.00011336,0.00019696,0.00037738,0.0000279
 0,-0.00068450,-0.00093967,0.00018362,0.00626099,0.00976324,-0.00324476
 ,0.12749057,0.22484806,0.00020605,-0.00254308,-0.00388680,-0.01559253,
 -0.01942544,0.00743776,0.04350991,0.05988317,-0.06924431,-0.00001189,-
 0.00120342,0.00104705,0.00042050,0.00034697,-0.00037860,-0.00007391,0.
 00004792,0.00001282,-0.00004829,-0.00002582,0.00005732,-0.00001830,-0.
 00001092,-0.00002138,0.00002228,-0.00001192,0.00001037,-0.00002446,0.0
 0000083,-0.00000969,-0.00001610,0.00000561,0.00000595,0.00000286,-0.00
 003123,-0.00003515,0.00003289,0.00004193,0.00005003,0.00002003,0.00025
 402,-0.00009345,0.00001376,-0.00023717,-0.00005876,-0.00071014,-0.0013
 1796,0.00034132,0.00306544,0.00596928,-0.00304214,-0.04594632,-0.06130
 419,0.07470462,0.00004456,0.00031221,-0.00006332,0.00161484,-0.0011853
 1,-0.00163117,-0.09018044,0.04250475,-0.08254684,0.00010437,-0.0006148
 2,0.00189571,0.00080697,-0.00042723,-0.00098301,0.00024581,0.00002684,
 0.00025433,-0.00000195,-0.00011278,-0.00009351,-0.00007804,-0.00016853
 ,-0.00000359,0.00004719,0.00002424,-0.00004031,0.00003304,-0.00002817,
 -0.00002788,-0.00000409,0.00010533,0.00005060,0.00009515,-0.00003864,-
 0.00004551,-0.00033599,-0.00024523,-0.00002705,-0.00025032,0.00014679,
 -0.00014260,-0.00004427,-0.00016100,-0.00011808,0.00006265,-0.00008923
 ,0.00015583,-0.01395498,0.01387287,-0.02425100,0.00749035,-0.00749866,
 0.01550072,0.09445772,0.00030978,0.00245585,-0.00007910,-0.00740482,0.
 00894328,-0.02285109,0.04036256,-0.08839572,0.08098230,-0.00467425,0.0
 0050867,0.00010148,0.00064008,-0.00092595,0.00058485,0.00019650,-0.000
 01297,0.00005397,-0.00011534,0.00008858,-0.00001423,0.00005219,-0.0000
 4034,-0.00007405,0.00000813,-0.00005197,-0.00002125,0.00001426,0.00001
 139,-0.00002918,0.00004064,0.00010374,0.00002792,0.00010183,-0.0000555
 6,0.00008370,0.00017946,-0.00007961,-0.00010315,-0.00002343,-0.0002535
 7,-0.00003197,0.00057641,-0.00010703,0.00077515,0.00029279,0.00007162,
 0.00020397,0.00443039,-0.00509990,0.00877054,0.01113553,-0.01047085,0.
 01946983,-0.04704645,0.09402013,0.00111912,0.00120138,0.00100452,-0.00
 376680,0.00141154,-0.02697698,-0.08316693,0.08549094,-0.20238644,-0.00
 742942,0.00092177,0.00240409,0.00078371,-0.00039847,-0.00019700,0.0004
 6079,-0.00001280,0.00032113,0.00001974,0.00007303,-0.00011181,-0.00005
 772,-0.00026773,-0.00006356,-0.00000691,0.00008669,-0.00005359,0.00006
 921,-0.00008214,-0.00001420,-0.00001075,0.00018669,0.00007879,0.000355
 62,0.00013374,0.00011372,-0.00039113,-0.00072572,-0.00034772,-0.000241
 30,-0.00011320,0.00015552,-0.00053273,-0.00114127,0.00015178,0.0003755
 6,-0.00018710,-0.00005248,0.00274782,-0.00238612,0.00634024,-0.0035336
 6,0.00401765,-0.00730345,0.09197138,-0.08657429,0.22854332,0.00051091,
 0.00335889,0.00044476,0.00532808,0.01151264,0.01552268,-0.00011085,-0.
 00255505,0.00368963,-0.07554410,-0.04864578,-0.06884750,-0.01417626,-0
 .00545914,-0.01300926,0.00017983,-0.00120158,-0.00061910,0.00018844,0.
 00023549,0.00049443,-0.00007842,-0.00051477,-0.00017935,-0.00019645,0.
 00095750,0.00001609,0.00005337,-0.00022740,0.00014658,-0.00032237,-0.0
 0081913,-0.00001890,-0.00015565,0.00055041,-0.00001813,-0.00140083,0.0
 0351827,-0.00041311,0.00015475,0.00029208,0.00067929,-0.00018036,-0.00
 042516,-0.00082129,0.00039607,-0.00044464,-0.00150157,-0.00011158,-0.0
 0003251,0.00026300,0.00001116,-0.00016939,-0.00033828,-0.00018362,0.00
 100033,0.00115591,0.08647939,0.00153764,0.00035355,0.00232668,0.003009
 69,-0.00435092,0.00258922,-0.00501019,0.00414583,-0.00260082,-0.051725
 14,-0.07556730,-0.08813467,0.00906398,-0.00030923,0.00788732,0.0032999
 2,0.00186710,0.00264825,-0.00067255,0.00079161,0.00007808,0.00025157,0
 .00006281,-0.00037130,-0.00006297,-0.00035733,0.00001224,-0.00009469,-
 0.00010128,-0.00008835,0.00004151,0.00055926,0.00013951,0.00036273,-0.
 00016645,0.00016045,0.00083706,-0.00124867,-0.00115804,0.00051967,0.00
 061513,0.00055595,-0.00021858,0.00000188,-0.00060405,0.00098086,0.0005
 6062,-0.00090522,0.00013978,0.00012729,0.00047964,0.00057206,0.0003071
 7,0.00005528,0.00051015,-0.00078326,-0.00182659,0.03800040,0.07372079,
 -0.00204841,-0.00094567,0.00137382,0.00516393,-0.02108647,-0.01617740,
 -0.00083942,0.00611071,-0.00359361,-0.05220823,-0.06543751,-0.11230468
 ,-0.01166570,-0.00014648,-0.00128848,0.00136518,0.00022554,0.00048528,
 0.00013025,0.00078264,0.00027535,0.00022587,-0.00000155,0.00005737,-0.
 00047570,0.00061328,-0.00007398,0.00016149,-0.00008103,0.00019418,-0.0
 0023107,-0.00080122,-0.00020006,-0.00053855,0.00022565,-0.00052611,-0.
 00181929,0.00155103,0.00169379,-0.00040545,-0.00034682,0.00041360,-0.0
 0002980,0.00033132,-0.00012152,0.00057224,0.00109947,0.00018770,-0.000
 25823,0.00025285,-0.00011322,-0.00003890,0.00003132,0.00046224,0.00016
 866,-0.00136312,-0.00179884,0.06338106,0.07875553,0.13113641,-0.000328
 77,0.00021695,-0.00017318,0.00108788,0.00034167,-0.00000657,-0.0005308
 2,0.00029687,-0.00009136,-0.00112121,0.00121751,0.00318697,0.00055939,
 -0.00382272,-0.00637849,-0.23130555,-0.02873279,-0.11539421,-0.0140675
 3,0.00054530,-0.01218779,0.00159980,0.00171155,-0.00004513,-0.00070852
 ,0.00014715,0.00025178,-0.00019735,-0.00026907,-0.00004043,-0.00000331
 ,0.00039268,0.00031654,0.00009723,0.00001926,0.00021418,0.00133946,0.0
 0223454,-0.00237472,0.00002134,0.00001902,0.00007097,0.00011654,0.0001
 2734,-0.00014961,0.00011132,-0.00005608,-0.00002560,0.00002533,0.00002
 723,0.00011567,-0.00001542,-0.00005656,-0.00002282,-0.00005055,-0.0001
 2893,-0.00013075,0.00031816,-0.00144274,-0.00046759,0.24661698,-0.0000
 6029,0.00022843,-0.00023201,0.00012882,0.00144369,0.00004531,0.0000618
 7,-0.00035346,0.00018862,-0.00363840,-0.00230571,0.00003333,-0.0198540
 8,-0.00557934,-0.01696779,-0.03081395,-0.04712445,-0.02350221,0.019289
 27,0.00308470,0.00675172,-0.00220334,-0.00042120,0.00119892,0.00093878
 ,0.00082640,0.00013048,0.00030359,-0.00051628,0.00053743,0.00117183,-0
 .00065279,0.00001188,-0.00167958,0.00048946,0.00200745,0.00446311,0.00
 103378,-0.00622688,-0.00004437,-0.00004362,0.00002242,0.00007208,-0.00
 005624,0.00006999,-0.00001499,-0.00001957,-0.00002736,0.00001562,0.000
 06783,0.00005255,-0.00002423,0.00003566,0.00001262,0.00003133,0.000067
 41,0.00019511,0.00137039,-0.00015877,0.00075943,0.02849313,0.05148088,
 -0.00029964,-0.00019427,-0.00006370,-0.00007551,-0.00121585,0.00032468
 ,0.00029445,-0.00020808,0.00008639,0.00127695,0.00319048,-0.00300779,-
 0.01638391,-0.00670460,-0.00429839,-0.11540036,-0.02823034,-0.11464815
 ,-0.00172132,0.00306403,0.01066612,0.00206116,-0.00161447,-0.00347234,
 0.00000437,0.00073254,0.00050837,-0.00193369,-0.00083006,-0.00100330,0
 .00038695,-0.00078847,0.00021211,-0.00222881,-0.00005517,0.00048132,-0
 .00086463,-0.00315223,0.00327271,-0.00002378,0.00005331,0.00007287,-0.
 00006103,0.00006600,-0.00003429,0.00021538,0.00007419,0.00017301,-0.00
 004155,-0.00007387,-0.00004334,0.00000215,-0.00003278,-0.00005865,-0.0
 0008564,0.00003864,0.00008446,0.00054425,-0.00037153,0.00033192,0.1332
 3859,0.03532181,0.11015119,-0.00008213,0.00012224,-0.00015691,0.000279
 50,0.00033301,0.00001745,-0.00012640,0.00000587,-0.00000837,-0.0006402
 9,-0.00045276,0.00047378,-0.00065936,-0.00405698,-0.00185192,-0.013440
 97,0.01324924,-0.01928491,-0.07542279,0.04032579,-0.09034549,0.0077648
 5,-0.00449659,0.01935991,-0.00008087,-0.00250232,0.00336650,-0.0012436
 5,-0.00166507,-0.00126761,0.00016268,-0.00006507,0.00038960,-0.0001432
 3,0.00018329,0.00064624,0.00214901,0.00026988,-0.00036189,-0.00000160,
 -0.00003425,0.00001741,0.00004677,-0.00001743,0.00004916,0.00000094,-0
 .00000025,0.00000492,0.00000942,0.00003047,0.00004417,-0.00000570,-0.0
 0001412,0.00000685,0.00001154,-0.00001044,0.00001961,0.00020517,-0.000
 11103,0.00002523,-0.00277837,0.00234904,0.00041299,0.08598831,-0.00001
 103,-0.00003835,-0.00010094,0.00008699,0.00002966,0.00007159,0.0000361
 0,0.00009330,0.00001228,-0.00058550,0.00045650,0.00008216,0.00100500,-
 0.00225747,-0.00280384,0.00679843,-0.00184115,0.01266765,0.03860136,-0
 .06834745,0.07427011,-0.00413492,0.00507400,-0.00171186,0.00084138,-0.
 00259946,0.00028216,0.00171311,-0.00105924,0.00089562,0.00052645,-0.00
 127109,-0.00041546,-0.00106404,0.00050273,-0.00003731,0.00279312,-0.00
 020678,0.00134920,0.00002528,0.00001891,-0.00001850,0.00002346,0.00001
 901,-0.00000005,-0.00001403,-0.00000228,0.00000660,0.00001183,-0.00001
 269,-0.00003745,-0.00001170,-0.00000586,0.00002012,0.00000226,-0.00001
 671,-0.00004658,-0.00005799,-0.00020539,-0.00018528,-0.00028056,-0.001
 34911,0.00004525,-0.04799171,0.06527123,0.00000448,-0.00001450,-0.0000
 2323,0.00003005,0.00002745,-0.00001577,-0.00000577,0.00001848,-0.00001
 142,-0.00019212,0.00029438,0.00004667,-0.00012480,-0.00237678,-0.00075
 427,0.00056499,-0.00100190,0.00362402,-0.08082014,0.07845827,-0.255869
 88,-0.00666408,0.01020356,-0.02642376,-0.00480030,-0.00037712,0.000608
 37,0.00106649,-0.00084710,-0.00006670,0.00010552,-0.00036308,-0.000190
 29,-0.00079414,0.00097123,0.00003085,0.00183950,-0.00140316,0.00088859
 ,0.00000421,0.00000779,-0.00000734,0.00000714,0.00000263,-0.00000352,-
 0.00000177,-0.00000118,0.00000081,0.00000547,0.00000107,-0.00000252,-0
 .00000211,0.00000373,0.00000345,0.00000304,-0.00000524,-0.00000380,0.0
 0003482,-0.00003328,-0.00000902,0.00060440,0.00045017,-0.00017254,0.08
 529455,-0.08607703,0.27949703,0.00000257,-0.00000319,0.00000571,0.0000
 0138,0.00003178,-0.00006217,-0.00001224,0.00000585,-0.00000794,-0.0000
 4783,0.00009996,0.00018705,0.00015719,0.00064598,-0.00012379,0.0014177
 1,-0.00174925,-0.00107313,0.00711579,-0.00884564,0.02137787,-0.0550132
 2,0.00882391,-0.03004114,-0.01140219,0.00828631,-0.02700795,0.00595907
 ,0.00659856,0.00245552,-0.00036898,-0.00145267,-0.00072820,-0.00081757
 ,0.00017499,-0.00047361,-0.00025701,-0.00042373,0.00030244,-0.00000124
 ,0.00000129,-0.00000278,0.00000295,-0.00000084,-0.00000720,0.00000041,
 -0.00000305,0.00000285,0.00000370,0.00000372,0.00000472,0.00000049,0.0
 0000564,0.00000033,0.00000221,-0.00000319,0.00000226,0.00003863,-0.000
 04817,0.00001339,-0.00044370,0.00018577,-0.00004541,-0.00202645,0.0023
 4149,0.00380767,0.05555935,0.00002927,0.00003568,0.00002063,-0.0000252
 6,0.00002895,-0.00002779,0.00000206,-0.00005584,0.00000154,0.00011870,
 -0.00019374,-0.00019611,-0.00031721,-0.00028955,-0.00016827,-0.0040044
 1,-0.00164585,-0.00088196,0.00464138,0.00325475,-0.00269687,0.01374002
 ,-0.08125960,0.11925767,-0.00136684,-0.00401677,0.00312666,-0.00387602
 ,0.00283631,-0.00121409,0.00213254,0.00093194,0.00117806,0.00026045,-0
 .00054867,-0.00054045,-0.00032607,-0.00022572,-0.00024098,-0.00002121,
 -0.00000618,0.00000693,0.00000306,-0.00003468,0.00000519,0.00000141,-0
 .00000344,-0.00000401,-0.00001257,0.00001873,0.00001564,0.00000531,-0.
 00000101,-0.00000108,0.00001133,0.00001685,0.00003115,-0.00002053,0.00
 010157,0.00000794,-0.00051116,0.00056265,0.00017937,0.00419813,0.00809
 066,0.00182997,-0.01469409,0.07229455,0.00000905,0.00003903,-0.0000118
 4,0.00001616,0.00008451,-0.00010341,-0.00001393,-0.00003283,-0.0000140
 0,-0.00009371,-0.00009385,0.00010117,-0.00012615,-0.00007809,-0.000099
 52,-0.00116391,-0.00021767,0.00016158,-0.00622971,0.00836562,-0.009762
 99,-0.02439698,0.10470484,-0.28799274,-0.00569391,0.00255255,-0.004179
 25,0.00322835,0.00220076,0.00158328,0.00013330,-0.00041522,-0.00038357
 ,-0.00035159,-0.00007147,-0.00043881,-0.00025577,-0.00042729,0.0000175
 6,-0.00001318,-0.00001181,0.00000084,0.00000855,-0.00002858,0.00001095
 ,-0.00000428,-0.00000442,0.00000397,0.00000148,0.00001838,0.00001628,0
 .00000082,0.00000747,0.00000100,0.00001239,0.00000611,0.00003252,0.000
 07153,0.00003527,0.00001851,0.00010229,0.00003328,-0.00009917,0.003128
 63,0.00280483,-0.00103298,0.03149021,-0.11967673,0.30209312,0.00005338
 ,-0.00000535,0.00001653,-0.00003330,0.00007362,0.00014499,-0.00002683,
 -0.00004216,0.00000925,0.00030323,-0.00066540,-0.00034253,0.00013250,-
 0.00097743,0.00136137,-0.00134362,0.00059543,-0.00016632,0.00063540,0.
 00030671,0.00002776,-0.00051893,-0.00065422,0.00027496,-0.00062841,0.0
 0067249,-0.00040937,0.00064435,-0.00185649,0.00027200,-0.00609739,0.02
 345401,-0.00754551,-0.02690030,0.00696198,0.00135809,-0.01308908,-0.02
 272237,0.01355981,-0.00001471,0.00001416,0.00000435,-0.00000320,-0.000
 00724,-0.00001175,0.00000487,-0.00000091,-0.00001182,-0.00001984,0.000
 01786,0.00001089,0.00000885,0.00000126,0.00000418,0.00001452,0.0000143
 2,-0.00000662,-0.00016830,0.00009102,-0.00014124,0.00016868,-0.0000401
 1,-0.00020483,-0.00014906,-0.00010989,0.00010447,0.00016644,-0.0000094
 8,0.00008592,0.05171862,0.00003690,-0.00001305,0.00000393,0.00000161,0
 .00004279,0.00008149,-0.00002142,-0.00000605,0.00001006,0.00007602,-0.
 00035265,-0.00008232,-0.00104352,-0.00045782,0.00058608,-0.00039410,0.
 00023607,-0.00000151,0.00003160,0.00004387,0.00013018,0.00007360,-0.00
 034868,-0.00033896,-0.00045448,-0.00028716,0.00085796,0.00020393,0.000
 85737,0.00137433,0.00594089,-0.00908410,0.00242879,0.00668602,-0.27786
 612,0.12597621,-0.00797034,-0.00477208,0.00380736,0.00000129,0.0000069
 9,-0.00000008,-0.00001184,-0.00000871,-0.00000138,0.00000041,0.0000002
 7,-0.00000455,-0.00000471,0.00000745,0.00000531,0.00000392,0.00000266,
 0.00000261,-0.00000095,0.00001163,-0.00000176,-0.00006474,0.00007301,-
 0.00011345,0.00009559,0.00008307,-0.00015506,0.00003143,-0.00010198,-0
 .00004343,-0.00002758,0.00010423,0.00001854,-0.00434870,0.28943210,0.0
 0002775,-0.00000101,-0.00000916,-0.00003682,-0.00002447,0.00012485,0.0
 0000458,0.00000743,-0.00001818,-0.00001494,-0.00019735,-0.00031090,-0.
 00336562,-0.00264336,0.00177345,-0.00106941,0.00069632,-0.00021568,0.0
 0010273,0.00014556,0.00012319,-0.00032322,-0.00044319,-0.00019728,-0.0
 0073432,-0.00143064,0.00043266,0.00151729,-0.00134402,0.00175460,0.003
 45344,-0.00475186,-0.00022405,0.01227064,0.13435113,-0.07771875,-0.004
 35070,0.00811205,-0.00582506,0.00000092,0.00000202,0.00000490,-0.00001
 402,-0.00001830,0.00001020,-0.00000096,-0.00000125,-0.00000116,-0.0000
 0561,-0.00000176,0.00000624,0.00000353,-0.00000720,0.00000844,-0.00000
 371,0.00001167,0.00001094,-0.00009625,0.00008949,-0.00009670,0.0002572
 3,0.00013072,-0.00060168,-0.00004024,-0.00006800,-0.00009841,-0.000023
 73,0.00010590,0.00001435,-0.01175936,-0.13452631,0.08158953,-0.0000279
 8,0.00028409,-0.00009064,0.00005652,0.00021239,0.00031021,-0.00009714,
 -0.00012387,-0.00013061,0.00118734,-0.00186677,-0.00260324,-0.00541259
 ,0.00668561,-0.00553212,-0.00058312,0.00219171,0.00104807,0.00103802,0
 .00040184,-0.00129504,0.00018675,-0.00027172,0.00009354,0.00019592,0.0
 0056397,0.00062687,-0.00059585,0.00048600,0.00058055,0.00376688,-0.001
 29213,-0.00251681,0.00056851,-0.02167627,0.01126846,-0.03305864,0.0439
 9980,-0.03070525,-0.00003391,-0.00004920,0.00006511,-0.00000406,-0.000
 16119,0.00007742,0.00004432,-0.00001540,-0.00002144,-0.00001914,0.0000
 2590,0.00010395,0.00002433,-0.00001514,-0.00000277,0.00005333,0.000051
 66,0.00019398,-0.00123520,0.00016802,-0.00003974,-0.00051103,-0.000501
 28,0.00093285,0.00018268,-0.00054488,-0.00007159,-0.00003748,0.0000412
 2,0.00005445,-0.00485789,0.00115917,0.00420077,0.03916944,0.00011308,0
 .00005662,-0.00001275,-0.00021932,0.00029158,0.00005062,-0.00001499,-0
 .00013460,-0.00002434,-0.00038417,-0.00042593,-0.00013066,0.00054841,0
 .00535832,-0.00592464,-0.00095455,0.00056248,-0.00007063,-0.00032766,0
 .00131583,-0.00284735,-0.00064541,-0.00073254,0.00098690,-0.00025821,0
 .00118098,-0.00041782,0.00070342,-0.00185783,0.00041643,-0.00000355,0.
 00185187,-0.00154979,-0.00211385,-0.00662299,0.00174228,0.03438016,-0.
 18970287,0.10796844,-0.00001196,0.00001328,0.00001194,0.00002425,-0.00
 004443,0.00000939,0.00000489,-0.00001548,-0.00003457,-0.00000840,0.000
 03721,0.00001169,-0.00000641,0.00004327,0.00000204,0.00006891,-0.00000
 572,0.00001408,-0.00015857,-0.00003900,-0.00023810,-0.00058517,-0.0008
 2343,0.00086113,0.00031962,-0.00024098,0.00027507,0.00004614,0.0000042
 0,0.00018677,-0.00076311,0.00239690,0.00180643,-0.02975354,0.18753325,
 -0.00000547,0.00016248,-0.00006773,0.00000328,0.00046278,0.00052126,-0
 .00004374,-0.00020503,0.00001515,0.00091619,-0.00245366,-0.00160537,-0
 .00655978,0.00798696,-0.00694702,-0.00090780,0.00173777,0.00099801,0.0
 0045504,0.00087357,-0.00165225,0.00051279,-0.00010594,0.00075226,0.000
 32711,0.00031125,-0.00046908,0.00041435,-0.00010949,-0.00107448,-0.002
 83848,-0.00171062,0.00107540,0.00100655,0.01382903,-0.00542766,-0.0187
 3030,0.08405984,-0.06380086,-0.00001891,0.00001055,0.00002334,0.000012
 95,-0.00003024,-0.00003795,0.00002520,-0.00003142,-0.00007068,0.000000
 23,0.00004471,0.00003522,0.00000673,0.00007723,-0.00000999,0.00005059,
 0.00003652,0.00006884,-0.00058130,0.00028094,-0.00032655,-0.00087039,-
 0.00099698,0.00113816,0.00006032,-0.00100527,-0.00001436,-0.00005295,-
 0.00011834,0.00006315,0.00336476,-0.00001406,-0.00053634,0.02345301,-0
 .10309257,0.07734954\\-0.00000264,0.00000270,-0.00000281,0.00000066,0.
 00000527,-0.00000195,0.00000563,0.00000099,0.00000204,0.00000077,0.000
 01097,0.00001407,0.00001762,-0.00000984,-0.00000098,-0.00001118,-0.000
 00484,-0.00000012,0.00000003,0.00000809,-0.00000276,0.00002819,-0.0000
 0466,0.00000406,-0.00002939,-0.00001124,0.00000595,0.00001201,0.000012
 10,-0.00001485,-0.00000739,-0.00000326,0.00000591,0.00000563,0.0000063
 9,0.00000657,-0.00001616,-0.00000036,0.00000305,0.00000083,0.00000065,
 -0.00000117,-0.00000206,-0.00000169,-0.00000257,0.00000194,-0.00000202
 ,-0.00000361,-0.00000080,-0.00000283,-0.00000477,-0.00000008,-0.000000
 27,-0.00000287,-0.00000171,0.00000290,-0.00000287,-0.00000520,-0.00000
 873,-0.00000447,-0.00000042,0.00000195,0.00000280,0.00000205,0.0000012
 5,0.00000228,-0.00000246,-0.00000027,0.00000077,-0.00000153,-0.0000032
 3,-0.00000205,0.00000567,0.,0.00000035\\\@


 There ain't no surer way to find out whether you
 like people or hate them than to travel with them.
                                     -- Mark Twain
 Job cpu time:       0 days  4 hours 32 minutes 13.9 seconds.
 Elapsed time:       0 days  1 hours  8 minutes  4.6 seconds.
 File lengths (MBytes):  RWF=    407 Int=      0 D2E=      0 Chk=     16 Scr=      1
 Normal termination of Gaussian 16 at Fri May 19 11:38:33 2023.
### All Done ###
