### Starting Gaussian ###
 Entering Gaussian System, Link 0=g16
 Initial command:
 /cluster/software/gaussian/gaussian-16-A.03/avx2/g16/l1.exe "/local/scratch/linjian/Gau-28787.inp" -scrdir="/local/scratch/linjian/"
 Entering Link 1 = /cluster/software/gaussian/gaussian-16-A.03/avx2/g16/l1.exe PID=     28788.
  
 Copyright (c) 1988,1990,1992,1993,1995,1998,2003,2009,2016,
            Gaussian, Inc.  All Rights Reserved.
  
 This is part of the Gaussian(R) 16 program.  It is based on
 the Gaussian(R) 09 system (copyright 2009, Gaussian, Inc.),
 the Gaussian(R) 03 system (copyright 2003, Gaussian, Inc.),
 the Gaussian(R) 98 system (copyright 1998, Gaussian, Inc.),
 the Gaussian(R) 94 system (copyright 1995, Gaussian, Inc.),
 the Gaussian 92(TM) system (copyright 1992, Gaussian, Inc.),
 the Gaussian 90(TM) system (copyright 1990, Gaussian, Inc.),
 the Gaussian 88(TM) system (copyright 1988, Gaussian, Inc.),
 the Gaussian 86(TM) system (copyright 1986, Carnegie Mellon
 University), and the Gaussian 82(TM) system (copyright 1983,
 Carnegie Mellon University). Gaussian is a federally registered
 trademark of Gaussian, Inc.
  
 This software contains proprietary and confidential information,
 including trade secrets, belonging to Gaussian, Inc.
  
 This software is provided under written license and may be
 used, copied, transmitted, or stored only in accord with that
 written license.
  
 The following legend is applicable only to US Government
 contracts under FAR:
  
                    RESTRICTED RIGHTS LEGEND
  
 Use, reproduction and disclosure by the US Government is
 subject to restrictions as set forth in subparagraphs (a)
 and (c) of the Commercial Computer Software - Restricted
 Rights clause in FAR 52.227-19.
  
 Gaussian, Inc.
 340 Quinnipiac St., Bldg. 40, Wallingford CT 06492
  
  
 ---------------------------------------------------------------
 Warning -- This program may not be used in any manner that
 competes with the business of Gaussian, Inc. or will provide
 assistance to any competitor of Gaussian, Inc.  The licensee
 of this program is prohibited from giving any competitor of
 Gaussian, Inc. access to this program.  By using this program,
 the user acknowledges that Gaussian, Inc. is engaged in the
 business of creating and licensing software in the field of
 computational chemistry and represents and warrants to the
 licensee that it is not a competitor of Gaussian, Inc. and that
 it will not use this program in any manner prohibited above.
 ---------------------------------------------------------------
  

 Cite this work as:
 Gaussian 16, Revision A.03,
 M. J. Frisch, G. W. Trucks, H. B. Schlegel, G. E. Scuseria, 
 M. A. Robb, J. R. Cheeseman, G. Scalmani, V. Barone, 
 G. A. Petersson, H. Nakatsuji, X. Li, M. Caricato, A. V. Marenich, 
 J. Bloino, B. G. Janesko, R. Gomperts, B. Mennucci, H. P. Hratchian, 
 J. V. Ortiz, A. F. Izmaylov, J. L. Sonnenberg, D. Williams-Young, 
 F. Ding, F. Lipparini, F. Egidi, J. Goings, B. Peng, A. Petrone, 
 T. Henderson, D. Ranasinghe, V. G. Zakrzewski, J. Gao, N. Rega, 
 G. Zheng, W. Liang, M. Hada, M. Ehara, K. Toyota, R. Fukuda, 
 J. Hasegawa, M. Ishida, T. Nakajima, Y. Honda, O. Kitao, H. Nakai, 
 T. Vreven, K. Throssell, J. A. Montgomery, Jr., J. E. Peralta, 
 F. Ogliaro, M. J. Bearpark, J. J. Heyd, E. N. Brothers, K. N. Kudin, 
 V. N. Staroverov, T. A. Keith, R. Kobayashi, J. Normand, 
 K. Raghavachari, A. P. Rendell, J. C. Burant, S. S. Iyengar, 
 J. Tomasi, M. Cossi, J. M. Millam, M. Klene, C. Adamo, R. Cammi, 
 J. W. Ochterski, R. L. Martin, K. Morokuma, O. Farkas, 
 J. B. Foresman, and D. J. Fox, Gaussian, Inc., Wallingford CT, 2016.
 
 ******************************************
 Gaussian 16:  ES64L-G16RevA.03 25-Dec-2016
                16-May-2023 
 ******************************************
 %chk=CdC1CdCCdC2CdCCdCd[SH]S2dN1.chk
 %NProcShared=20
 Will use up to   20 processors via shared memory.
 -----------------------------
 # opt freq b3lyp/6-31g(2df,p)
 -----------------------------
 1/18=20,19=15,26=3,38=1/1,3;
 2/9=110,12=2,17=6,18=5,40=1/2;
 3/5=1,6=6,7=104,11=2,25=1,30=1,71=1,74=-5/1,2,3;
 4//1;
 5/5=2,38=5/2;
 6/7=2,8=2,9=2,10=2,28=1/1;
 7//1,2,3,16;
 1/18=20,19=15,26=3/3(2);
 2/9=110/2;
 99//99;
 2/9=110/2;
 3/5=1,6=6,7=104,11=2,25=1,30=1,71=1,74=-5/1,2,3;
 4/5=5,16=3,69=1/1;
 5/5=2,38=5/2;
 7//1,2,3,16;
 1/18=20,19=15,26=3/3(-5);
 2/9=110/2;
 6/7=2,8=2,9=2,10=2,19=2,28=1/1;
 99/9=1/99;
 -------------------
 Title Card Required
 -------------------
 Symbolic Z-matrix:
 Charge =  0 Multiplicity = 1
 C                     1.06657  -0.14576  -0.01102 
 C                     2.42151  -0.15102   0.14742 
 C                     2.94523   1.20896   0.0802 
 C                     4.22521   1.61923   0.02405 
 C                     5.37151   0.83385  -0.22725 
 C                     5.48619  -0.47602  -0.51377 
 C                     6.75756  -1.03297  -1.01778 
 C                     7.89055  -0.70604  -0.35346 
 C                     8.16264  -1.66396   0.73238 
 C                     7.07103  -2.09476   1.34761 
 S                     5.54106  -2.54411   1.65943 
 S                     4.37584  -1.7569    0.05198 
 N                     3.2073   -1.10027   0.75496 
 H                     0.50281   0.76723  -0.21217 
 H                     0.46084  -1.03099   0.12234 
 H                     2.22395   2.0179    0.07568 
 H                     4.40459   2.68467   0.02123 
 H                     6.26039   1.44711  -0.28441 
 H                     6.62562  -2.11985  -1.16486 
 H                     8.07081   0.33092  -0.07444 
 H                     8.96818  -2.34154   0.43847 
 H                     5.13988  -1.80912   2.67645 
 

 GradGradGradGradGradGradGradGradGradGradGradGradGradGradGradGradGradGrad
 Berny optimization.
 Initialization pass.
                           ----------------------------
                           !    Initial Parameters    !
                           ! (Angstroms and Degrees)  !
 --------------------------                            --------------------------
 ! Name  Definition              Value          Derivative Info.                !
 --------------------------------------------------------------------------------
 ! R1    R(1,2)                  1.3642         estimate D2E/DX2                !
 ! R2    R(1,14)                 1.0917         estimate D2E/DX2                !
 ! R3    R(1,15)                 1.0809         estimate D2E/DX2                !
 ! R4    R(2,3)                  1.4589         estimate D2E/DX2                !
 ! R5    R(2,13)                 1.3739         estimate D2E/DX2                !
 ! R6    R(3,4)                  1.3453         estimate D2E/DX2                !
 ! R7    R(3,16)                 1.0838         estimate D2E/DX2                !
 ! R8    R(4,5)                  1.4121         estimate D2E/DX2                !
 ! R9    R(4,17)                 1.0804         estimate D2E/DX2                !
 ! R10   R(5,6)                  1.3457         estimate D2E/DX2                !
 ! R11   R(5,18)                 1.0814         estimate D2E/DX2                !
 ! R12   R(6,7)                  1.4767         estimate D2E/DX2                !
 ! R13   R(6,12)                 1.7871         estimate D2E/DX2                !
 ! R14   R(7,8)                  1.3535         estimate D2E/DX2                !
 ! R15   R(7,19)                 1.1047         estimate D2E/DX2                !
 ! R16   R(8,9)                  1.4733         estimate D2E/DX2                !
 ! R17   R(8,20)                 1.0889         estimate D2E/DX2                !
 ! R18   R(9,10)                 1.325          estimate D2E/DX2                !
 ! R19   R(9,21)                 1.0929         estimate D2E/DX2                !
 ! R20   R(10,11)                1.6248         estimate D2E/DX2                !
 ! R21   R(11,12)                2.1357         estimate D2E/DX2                !
 ! R22   R(11,22)                1.3174         estimate D2E/DX2                !
 ! R23   R(12,13)                1.5135         estimate D2E/DX2                !
 ! A1    A(2,1,14)             122.5153         estimate D2E/DX2                !
 ! A2    A(2,1,15)             122.6234         estimate D2E/DX2                !
 ! A3    A(14,1,15)            114.7242         estimate D2E/DX2                !
 ! A4    A(1,2,3)              110.3411         estimate D2E/DX2                !
 ! A5    A(1,2,13)             128.4683         estimate D2E/DX2                !
 ! A6    A(3,2,13)             117.3307         estimate D2E/DX2                !
 ! A7    A(2,3,4)              128.8859         estimate D2E/DX2                !
 ! A8    A(2,3,16)             117.1981         estimate D2E/DX2                !
 ! A9    A(4,3,16)             113.9159         estimate D2E/DX2                !
 ! A10   A(3,4,5)              127.6023         estimate D2E/DX2                !
 ! A11   A(3,4,17)             117.3101         estimate D2E/DX2                !
 ! A12   A(5,4,17)             114.4075         estimate D2E/DX2                !
 ! A13   A(4,5,6)              130.4234         estimate D2E/DX2                !
 ! A14   A(4,5,18)             111.1769         estimate D2E/DX2                !
 ! A15   A(6,5,18)             118.0782         estimate D2E/DX2                !
 ! A16   A(5,6,7)              120.8737         estimate D2E/DX2                !
 ! A17   A(5,6,12)             125.2607         estimate D2E/DX2                !
 ! A18   A(7,6,12)             111.8797         estimate D2E/DX2                !
 ! A19   A(6,7,8)              117.5217         estimate D2E/DX2                !
 ! A20   A(6,7,19)             108.2819         estimate D2E/DX2                !
 ! A21   A(8,7,19)             113.7649         estimate D2E/DX2                !
 ! A22   A(7,8,9)              111.0562         estimate D2E/DX2                !
 ! A23   A(7,8,20)             119.6295         estimate D2E/DX2                !
 ! A24   A(9,8,20)             113.5627         estimate D2E/DX2                !
 ! A25   A(8,9,10)             113.6684         estimate D2E/DX2                !
 ! A26   A(8,9,21)             109.9393         estimate D2E/DX2                !
 ! A27   A(10,9,21)            122.041          estimate D2E/DX2                !
 ! A28   A(9,10,11)            162.7039         estimate D2E/DX2                !
 ! A29   A(10,11,12)           105.5075         estimate D2E/DX2                !
 ! A30   A(10,11,22)           106.2971         estimate D2E/DX2                !
 ! A31   A(12,11,22)           102.0788         estimate D2E/DX2                !
 ! A32   A(6,12,11)             99.4087         estimate D2E/DX2                !
 ! A33   A(6,12,13)            108.4081         estimate D2E/DX2                !
 ! A34   A(11,12,13)           103.3886         estimate D2E/DX2                !
 ! A35   A(2,13,12)            122.4065         estimate D2E/DX2                !
 ! D1    D(14,1,2,3)             3.0372         estimate D2E/DX2                !
 ! D2    D(14,1,2,13)          159.9572         estimate D2E/DX2                !
 ! D3    D(15,1,2,3)          -172.4798         estimate D2E/DX2                !
 ! D4    D(15,1,2,13)          -15.5598         estimate D2E/DX2                !
 ! D5    D(1,2,3,4)           -170.9444         estimate D2E/DX2                !
 ! D6    D(1,2,3,16)             9.2007         estimate D2E/DX2                !
 ! D7    D(13,2,3,4)            29.2678         estimate D2E/DX2                !
 ! D8    D(13,2,3,16)         -150.5872         estimate D2E/DX2                !
 ! D9    D(1,2,13,12)          125.2138         estimate D2E/DX2                !
 ! D10   D(3,2,13,12)          -79.2272         estimate D2E/DX2                !
 ! D11   D(2,3,4,5)             12.5718         estimate D2E/DX2                !
 ! D12   D(2,3,4,17)          -177.4681         estimate D2E/DX2                !
 ! D13   D(16,3,4,5)          -167.5694         estimate D2E/DX2                !
 ! D14   D(16,3,4,17)            2.3907         estimate D2E/DX2                !
 ! D15   D(3,4,5,6)              2.5602         estimate D2E/DX2                !
 ! D16   D(3,4,5,18)           175.7948         estimate D2E/DX2                !
 ! D17   D(17,4,5,6)          -167.6458         estimate D2E/DX2                !
 ! D18   D(17,4,5,18)            5.5887         estimate D2E/DX2                !
 ! D19   D(4,5,6,7)            167.0113         estimate D2E/DX2                !
 ! D20   D(4,5,6,12)           -30.3514         estimate D2E/DX2                !
 ! D21   D(18,5,6,7)            -5.8366         estimate D2E/DX2                !
 ! D22   D(18,5,6,12)          156.8007         estimate D2E/DX2                !
 ! D23   D(5,6,7,8)             48.3965         estimate D2E/DX2                !
 ! D24   D(5,6,7,19)           178.991          estimate D2E/DX2                !
 ! D25   D(12,6,7,8)          -116.38           estimate D2E/DX2                !
 ! D26   D(12,6,7,19)           14.2144         estimate D2E/DX2                !
 ! D27   D(5,6,12,11)         -100.778          estimate D2E/DX2                !
 ! D28   D(5,6,12,13)            6.8309         estimate D2E/DX2                !
 ! D29   D(7,6,12,11)           63.1995         estimate D2E/DX2                !
 ! D30   D(7,6,12,13)          170.8084         estimate D2E/DX2                !
 ! D31   D(6,7,8,9)             89.0761         estimate D2E/DX2                !
 ! D32   D(6,7,8,20)           -46.3022         estimate D2E/DX2                !
 ! D33   D(19,7,8,9)           -38.9428         estimate D2E/DX2                !
 ! D34   D(19,7,8,20)         -174.3211         estimate D2E/DX2                !
 ! D35   D(7,8,9,10)           -36.7894         estimate D2E/DX2                !
 ! D36   D(7,8,9,21)           104.0332         estimate D2E/DX2                !
 ! D37   D(20,8,9,10)          101.4429         estimate D2E/DX2                !
 ! D38   D(20,8,9,21)         -117.7346         estimate D2E/DX2                !
 ! D39   D(8,9,10,11)           29.9504         estimate D2E/DX2                !
 ! D40   D(21,9,10,11)        -105.5764         estimate D2E/DX2                !
 ! D41   D(9,10,11,12)         -16.2054         estimate D2E/DX2                !
 ! D42   D(9,10,11,22)        -124.1064         estimate D2E/DX2                !
 ! D43   D(10,11,12,6)         -20.9563         estimate D2E/DX2                !
 ! D44   D(10,11,12,13)       -132.5779         estimate D2E/DX2                !
 ! D45   D(22,11,12,6)          89.9713         estimate D2E/DX2                !
 ! D46   D(22,11,12,13)        -21.6503         estimate D2E/DX2                !
 ! D47   D(6,12,13,2)           55.9028         estimate D2E/DX2                !
 ! D48   D(11,12,13,2)         160.7547         estimate D2E/DX2                !
 --------------------------------------------------------------------------------
 Trust Radius=3.00D-01 FncErr=1.00D-07 GrdErr=1.00D-06 EigMax=2.50D+02 EigMin=1.00D-04
 Number of steps in this run=    116 maximum allowed number of steps=    132.
 GradGradGradGradGradGradGradGradGradGradGradGradGradGradGradGradGradGrad

                          Input orientation:                          
 ---------------------------------------------------------------------
 Center     Atomic      Atomic             Coordinates (Angstroms)
 Number     Number       Type             X           Y           Z
 ---------------------------------------------------------------------
      1          6           0        1.066570   -0.145760   -0.011020
      2          6           0        2.421510   -0.151020    0.147420
      3          6           0        2.945230    1.208960    0.080200
      4          6           0        4.225210    1.619230    0.024050
      5          6           0        5.371510    0.833850   -0.227250
      6          6           0        5.486190   -0.476020   -0.513770
      7          6           0        6.757560   -1.032970   -1.017780
      8          6           0        7.890550   -0.706040   -0.353460
      9          6           0        8.162640   -1.663960    0.732380
     10          6           0        7.071030   -2.094760    1.347610
     11         16           0        5.541060   -2.544110    1.659430
     12         16           0        4.375840   -1.756900    0.051980
     13          7           0        3.207300   -1.100270    0.754960
     14          1           0        0.502810    0.767230   -0.212170
     15          1           0        0.460840   -1.030990    0.122340
     16          1           0        2.223950    2.017900    0.075680
     17          1           0        4.404590    2.684670    0.021230
     18          1           0        6.260390    1.447110   -0.284410
     19          1           0        6.625620   -2.119850   -1.164860
     20          1           0        8.070810    0.330920   -0.074440
     21          1           0        8.968180   -2.341540    0.438470
     22          1           0        5.139880   -1.809120    2.676450
 ---------------------------------------------------------------------
                    Distance matrix (angstroms):
                    1          2          3          4          5
     1  C    0.000000
     2  C    1.364182   0.000000
     3  C    2.317963   1.458885   0.000000
     4  C    3.618484   2.530284   1.345297   0.000000
     5  C    4.420283   3.132546   2.474281   1.412083   0.000000
     6  C    4.460367   3.151993   3.106193   2.503876   1.345736
     7  C    5.847057   4.575681   4.556936   3.812135   2.455828
     8  C    6.855500   5.519903   5.320853   4.357076   2.955123
     9  C    7.294641   5.965881   5.991692   5.175367   3.866568
    10  C    6.457400   5.180407   5.435358   4.862533   3.734342
    11  S    5.344488   4.212439   4.828854   4.662545   3.872844
    12  S    3.681170   2.531277   3.292988   3.379604   2.789501
    13  N    2.465875   1.373916   2.420026   2.994336   3.064207
    14  H    1.091713   2.157289   2.499204   3.825959   4.869179
    15  H    1.080891   2.149233   3.345347   4.604759   5.264458
    16  H    2.455294   2.179080   1.083812   2.041236   3.376518
    17  H    4.376614   3.462610   2.076278   1.080439   2.102905
    18  H    5.439462   4.180610   3.343642   2.065607   1.081417
    19  H    6.010941   4.824201   5.116290   4.599586   3.343090
    20  H    7.020728   5.674159   5.202542   4.056856   2.750002
    21  H    8.213339   6.909557   7.000738   6.193158   4.843792
    22  H    5.155688   4.066303   4.545966   4.430060   3.933245
                    6          7          8          9         10
     6  C    0.000000
     7  C    1.476686   0.000000
     8  C    2.420652   1.353466   0.000000
     9  C    3.182370   2.331407   1.473327   0.000000
    10  C    2.932025   2.611653   2.343885   1.325032   0.000000
    11  S    3.000467   3.306187   3.598657   2.916636   1.624794
    12  S    1.787066   2.709437   3.690782   3.848563   3.009461
    13  N    2.681922   3.968814   4.828752   4.987349   4.033442
    14  H    5.144969   6.558325   7.534533   8.091715   7.332490
    15  H    5.095760   6.399106   7.452018   7.751808   6.806431
    16  H    4.148409   5.572888   6.301933   7.018218   6.482743
    17  H    3.383200   4.520714   4.877420   5.791309   5.631353
    18  H    2.085766   2.633592   2.701526   3.785654   3.983148
    19  H    2.103425   1.104694   2.063317   2.483905   2.551769
    20  H    2.743068   2.115351   1.088867   2.153819   2.984244
    21  H    4.063395   2.952941   2.112652   1.092883   2.118163
    22  H    3.474851   4.106901   4.238316   3.596882   2.361514
                   11         12         13         14         15
    11  S    0.000000
    12  S    2.135728   0.000000
    13  N    2.889494   1.513549   0.000000
    14  H    6.312830   4.630483   3.425954   0.000000
    15  H    5.519132   3.982351   2.819229   1.829550   0.000000
    16  H    5.858619   4.345148   3.339369   2.146941   3.522281
    17  H    5.596017   4.441769   4.037033   4.353727   5.419365
    18  H    4.497309   3.732341   4.109841   5.798033   6.319905
    19  H    3.054976   2.583397   4.050946   6.836055   6.391167
    20  H    4.203777   4.245913   5.137114   7.581818   7.733380
    21  H    3.643752   4.645510   5.901581   9.041586   8.613496
    22  H    1.317378   2.733922   2.815929   6.040209   5.387242
                   16         17         18         19         20
    16  H    0.000000
    17  H    2.280951   0.000000
    18  H    4.092470   2.251436   0.000000
    19  H    6.167221   5.424315   3.692125   0.000000
    20  H    6.087217   4.357805   2.137192   3.046943   0.000000
    21  H    8.038717   6.801708   4.712595   2.847350   2.865378
    22  H    5.469254   5.271147   4.541505   4.130332   4.553846
                   21         22
    21  H    0.000000
    22  H    4.466308   0.000000
 Stoichiometry    C10H9NS2
 Framework group  C1[X(C10H9NS2)]
 Deg. of freedom    60
 Full point group                 C1      NOp   1
 Largest Abelian subgroup         C1      NOp   1
 Largest concise Abelian subgroup C1      NOp   1
                         Standard orientation:                         
 ---------------------------------------------------------------------
 Center     Atomic      Atomic             Coordinates (Angstroms)
 Number     Number       Type             X           Y           Z
 ---------------------------------------------------------------------
      1          6           0        3.853636   -0.749166    0.334321
      2          6           0        2.590046   -0.304301    0.076581
      3          6           0        2.631592    1.036380   -0.497175
      4          6           0        1.615174    1.884815   -0.735659
      5          6           0        0.285529    1.789006   -0.269995
      6          6           0       -0.291034    0.885653    0.543967
      7          6           0       -1.625100    1.133311    1.126661
      8          6           0       -2.605818    1.546793    0.290541
      9          6           0       -3.322648    0.399443   -0.292927
     10          6           0       -2.540008   -0.634924   -0.563611
     11         16           0       -1.332515   -1.721035   -0.515889
     12         16           0        0.190295   -0.829403    0.687179
     13          7           0        1.448910   -1.042109   -0.126133
     14          1           0        4.738423   -0.131447    0.168757
     15          1           0        4.061824   -1.761622    0.650416
     16          1           0        3.603231    1.424093   -0.780450
     17          1           0        1.855490    2.825450   -1.209793
     18          1           0       -0.293767    2.654432   -0.561399
     19          1           0       -1.903099    0.257912    1.740454
     20          1           0       -2.403684    2.342945   -0.424244
     21          1           0       -4.293762    0.279980    0.193959
     22          1           0       -0.779725   -1.712037   -1.711643
 ---------------------------------------------------------------------
 Rotational constants (GHZ):           1.2892546           0.5380969           0.4236814
 Standard basis: 6-31G(2df,p) (6D, 7F)
 There are   456 symmetry adapted cartesian basis functions of A   symmetry.
 There are   417 symmetry adapted basis functions of A   symmetry.
   417 basis functions,   683 primitive gaussians,   456 cartesian basis functions
    54 alpha electrons       54 beta electrons
       nuclear repulsion energy       987.1964849424 Hartrees.
 NAtoms=   22 NActive=   22 NUniq=   22 SFac= 1.00D+00 NAtFMM=   60 NAOKFM=F Big=F
 Integral buffers will be    131072 words long.
 Raffenetti 2 integral format.
 Two-electron integral symmetry is turned on.
 One-electron integrals computed using PRISM.
 PrsmSu:  requested number of processors reduced to:  13 ShMem   1 Linda.
 NBasis=   417 RedAO= T EigKep=  2.86D-04  NBF=   417
 NBsUse=   417 1.00D-06 EigRej= -1.00D+00 NBFU=   417
 ExpMin= 1.17D-01 ExpMax= 2.19D+04 ExpMxC= 3.30D+03 IAcc=3 IRadAn=         5 AccDes= 0.00D+00
 Harris functional with IExCor=  402 and IRadAn=       5 diagonalized for initial guess.
 HarFok:  IExCor=  402 AccDes= 0.00D+00 IRadAn=         5 IDoV= 1 UseB2=F ITyADJ=14
 ICtDFT=  3500011 ScaDFX=  1.000000  1.000000  1.000000  1.000000
 FoFCou: FMM=F IPFlag=           0 FMFlag=      100000 FMFlg1=           0
         NFxFlg=           0 DoJE=T BraDBF=F KetDBF=T FulRan=T
         wScrn=  0.000000 ICntrl=       500 IOpCl=  0 I1Cent=   200000004 NGrid=           0
         NMat0=    1 NMatS0=      1 NMatT0=    0 NMatD0=    1 NMtDS0=    0 NMtDT0=    0
 Petite list used in FoFCou.
 Requested convergence on RMS density matrix=1.00D-08 within 128 cycles.
 Requested convergence on MAX density matrix=1.00D-06.
 Requested convergence on             energy=1.00D-06.
 No special actions if energy rises.
 Integral accuracy reduced to 1.0D-05 until final iterations.
 EnCoef did     3 forward-backward iterations
 EnCoef did     5 forward-backward iterations
 Initial convergence to 1.0D-05 achieved.  Increase integral accuracy.
 SCF Done:  E(RB3LYP) =  -1237.20117571     A.U. after   21 cycles
            NFock= 21  Conv=0.64D-08     -V/T= 2.0040

 **********************************************************************

            Population analysis using the SCF density.

 **********************************************************************

 Orbital symmetries:
       Occupied  (A) (A) (A) (A) (A) (A) (A) (A) (A) (A) (A) (A)
                 (A) (A) (A) (A) (A) (A) (A) (A) (A) (A) (A) (A)
                 (A) (A) (A) (A) (A) (A) (A) (A) (A) (A) (A) (A)
                 (A) (A) (A) (A) (A) (A) (A) (A) (A) (A) (A) (A)
                 (A) (A) (A) (A) (A) (A)
       Virtual   (A) (A) (A) (A) (A) (A) (A) (A) (A) (A) (A) (A)
                 (A) (A) (A) (A) (A) (A) (A) (A) (A) (A) (A) (A)
                 (A) (A) (A) (A) (A) (A) (A) (A) (A) (A) (A) (A)
                 (A) (A) (A) (A) (A) (A) (A) (A) (A) (A) (A) (A)
                 (A) (A) (A) (A) (A) (A) (A) (A) (A) (A) (A) (A)
                 (A) (A) (A) (A) (A) (A) (A) (A) (A) (A) (A) (A)
                 (A) (A) (A) (A) (A) (A) (A) (A) (A) (A) (A) (A)
                 (A) (A) (A) (A) (A) (A) (A) (A) (A) (A) (A) (A)
                 (A) (A) (A) (A) (A) (A) (A) (A) (A) (A) (A) (A)
                 (A) (A) (A) (A) (A) (A) (A) (A) (A) (A) (A) (A)
                 (A) (A) (A) (A) (A) (A) (A) (A) (A) (A) (A) (A)
                 (A) (A) (A) (A) (A) (A) (A) (A) (A) (A) (A) (A)
                 (A) (A) (A) (A) (A) (A) (A) (A) (A) (A) (A) (A)
                 (A) (A) (A) (A) (A) (A) (A) (A) (A) (A) (A) (A)
                 (A) (A) (A) (A) (A) (A) (A) (A) (A) (A) (A) (A)
                 (A) (A) (A) (A) (A) (A) (A) (A) (A) (A) (A) (A)
                 (A) (A) (A) (A) (A) (A) (A) (A) (A) (A) (A) (A)
                 (A) (A) (A) (A) (A) (A) (A) (A) (A) (A) (A) (A)
                 (A) (A) (A) (A) (A) (A) (A) (A) (A) (A) (A) (A)
                 (A) (A) (A) (A) (A) (A) (A) (A) (A) (A) (A) (A)
                 (A) (A) (A) (A) (A) (A) (A) (A) (A) (A) (A) (A)
                 (A) (A) (A) (A) (A) (A) (A) (A) (A) (A) (A) (A)
                 (A) (A) (A) (A) (A) (A) (A) (A) (A) (A) (A) (A)
                 (A) (A) (A) (A) (A) (A) (A) (A) (A) (A) (A) (A)
                 (A) (A) (A) (A) (A) (A) (A) (A) (A) (A) (A) (A)
                 (A) (A) (A) (A) (A) (A) (A) (A) (A) (A) (A) (A)
                 (A) (A) (A) (A) (A) (A) (A) (A) (A) (A) (A) (A)
                 (A) (A) (A) (A) (A) (A) (A) (A) (A) (A) (A) (A)
                 (A) (A) (A) (A) (A) (A) (A) (A) (A) (A) (A) (A)
                 (A) (A) (A) (A) (A) (A) (A) (A) (A) (A) (A) (A)
                 (A) (A) (A)
 The electronic state is 1-A.
 Alpha  occ. eigenvalues --  -88.99462 -88.96018 -14.29642 -10.22880 -10.21741
 Alpha  occ. eigenvalues --  -10.21417 -10.20809 -10.19254 -10.19142 -10.18282
 Alpha  occ. eigenvalues --  -10.17220 -10.17139 -10.16514  -8.05343  -8.01581
 Alpha  occ. eigenvalues --   -6.01618  -6.01585  -6.01073  -5.97938  -5.97793
 Alpha  occ. eigenvalues --   -5.97330  -0.96073  -0.88479  -0.84025  -0.80418
 Alpha  occ. eigenvalues --   -0.80155  -0.73178  -0.68863  -0.68160  -0.63861
 Alpha  occ. eigenvalues --   -0.59463  -0.56063  -0.54640  -0.52811  -0.49790
 Alpha  occ. eigenvalues --   -0.49733  -0.48224  -0.44819  -0.43959  -0.42364
 Alpha  occ. eigenvalues --   -0.42184  -0.40662  -0.39038  -0.37141  -0.36050
 Alpha  occ. eigenvalues --   -0.34793  -0.33903  -0.31582  -0.29304  -0.27233
 Alpha  occ. eigenvalues --   -0.23094  -0.21274  -0.18739  -0.16574
 Alpha virt. eigenvalues --   -0.08728  -0.07058  -0.06016  -0.01905   0.01289
 Alpha virt. eigenvalues --    0.02631   0.04519   0.06988   0.09629   0.11093
 Alpha virt. eigenvalues --    0.11426   0.13084   0.14429   0.15363   0.15669
 Alpha virt. eigenvalues --    0.17736   0.19181   0.20398   0.21873   0.23390
 Alpha virt. eigenvalues --    0.24096   0.25305   0.26634   0.27273   0.28234
 Alpha virt. eigenvalues --    0.30347   0.32806   0.33080   0.34027   0.35235
 Alpha virt. eigenvalues --    0.35946   0.36787   0.37298   0.40055   0.40539
 Alpha virt. eigenvalues --    0.42232   0.42577   0.44918   0.46112   0.46556
 Alpha virt. eigenvalues --    0.47444   0.48305   0.49372   0.50225   0.51128
 Alpha virt. eigenvalues --    0.52552   0.52741   0.53917   0.54363   0.54641
 Alpha virt. eigenvalues --    0.55958   0.57032   0.57763   0.57856   0.59591
 Alpha virt. eigenvalues --    0.60137   0.60273   0.61680   0.63188   0.65191
 Alpha virt. eigenvalues --    0.65329   0.65652   0.66369   0.69203   0.70587
 Alpha virt. eigenvalues --    0.71684   0.72550   0.72957   0.75233   0.75603
 Alpha virt. eigenvalues --    0.76690   0.77709   0.77957   0.79158   0.79401
 Alpha virt. eigenvalues --    0.80408   0.81098   0.81395   0.82471   0.83813
 Alpha virt. eigenvalues --    0.84752   0.85736   0.85990   0.87418   0.88618
 Alpha virt. eigenvalues --    0.88775   0.90659   0.92073   0.92180   0.93047
 Alpha virt. eigenvalues --    0.94900   0.96839   0.97422   0.99226   1.01544
 Alpha virt. eigenvalues --    1.02511   1.03709   1.04506   1.06735   1.09885
 Alpha virt. eigenvalues --    1.12187   1.12421   1.13844   1.16087   1.17331
 Alpha virt. eigenvalues --    1.19655   1.22263   1.24539   1.25448   1.26878
 Alpha virt. eigenvalues --    1.28412   1.30901   1.32168   1.33873   1.35084
 Alpha virt. eigenvalues --    1.36687   1.37255   1.38594   1.39498   1.41086
 Alpha virt. eigenvalues --    1.43036   1.43790   1.44364   1.46223   1.46967
 Alpha virt. eigenvalues --    1.48801   1.50680   1.51468   1.53208   1.54004
 Alpha virt. eigenvalues --    1.56055   1.59300   1.59720   1.61457   1.64285
 Alpha virt. eigenvalues --    1.64686   1.66088   1.66456   1.69101   1.69641
 Alpha virt. eigenvalues --    1.72203   1.73245   1.75621   1.76761   1.78857
 Alpha virt. eigenvalues --    1.80512   1.80987   1.84862   1.86096   1.86989
 Alpha virt. eigenvalues --    1.89176   1.90146   1.91548   1.92932   1.93767
 Alpha virt. eigenvalues --    1.95878   1.96540   1.99115   2.00837   2.01649
 Alpha virt. eigenvalues --    2.03829   2.04238   2.06478   2.09376   2.10670
 Alpha virt. eigenvalues --    2.11773   2.15242   2.16626   2.17552   2.19204
 Alpha virt. eigenvalues --    2.22905   2.24937   2.26247   2.27709   2.29238
 Alpha virt. eigenvalues --    2.30203   2.32566   2.33892   2.36143   2.36732
 Alpha virt. eigenvalues --    2.39379   2.42441   2.43839   2.44726   2.49014
 Alpha virt. eigenvalues --    2.50550   2.52070   2.53881   2.54393   2.56067
 Alpha virt. eigenvalues --    2.57391   2.64742   2.65424   2.66317   2.70589
 Alpha virt. eigenvalues --    2.72029   2.72776   2.76182   2.77235   2.78834
 Alpha virt. eigenvalues --    2.79092   2.81322   2.83200   2.84607   2.87061
 Alpha virt. eigenvalues --    2.90159   2.90487   2.91745   2.92463   2.94341
 Alpha virt. eigenvalues --    2.95960   2.97029   3.00262   3.01190   3.02161
 Alpha virt. eigenvalues --    3.04360   3.04638   3.05974   3.07862   3.08341
 Alpha virt. eigenvalues --    3.08938   3.10143   3.12011   3.15434   3.16243
 Alpha virt. eigenvalues --    3.17156   3.17539   3.20379   3.22551   3.24639
 Alpha virt. eigenvalues --    3.25444   3.25846   3.28321   3.29861   3.32093
 Alpha virt. eigenvalues --    3.33517   3.35975   3.36825   3.38509   3.40418
 Alpha virt. eigenvalues --    3.40902   3.42577   3.43974   3.45292   3.46250
 Alpha virt. eigenvalues --    3.48389   3.50535   3.52101   3.55199   3.57213
 Alpha virt. eigenvalues --    3.58289   3.60427   3.61571   3.62637   3.62875
 Alpha virt. eigenvalues --    3.65825   3.68920   3.70878   3.71106   3.73812
 Alpha virt. eigenvalues --    3.74434   3.78552   3.80070   3.81498   3.83070
 Alpha virt. eigenvalues --    3.84927   3.86662   3.88167   3.91850   3.95523
 Alpha virt. eigenvalues --    3.97418   4.00006   4.01262   4.05541   4.06255
 Alpha virt. eigenvalues --    4.07170   4.10909   4.12242   4.17774   4.19431
 Alpha virt. eigenvalues --    4.24509   4.24829   4.26749   4.27559   4.29481
 Alpha virt. eigenvalues --    4.30146   4.32223   4.34526   4.35252   4.36334
 Alpha virt. eigenvalues --    4.38492   4.42042   4.42964   4.45118   4.46390
 Alpha virt. eigenvalues --    4.47353   4.50042   4.51634   4.54142   4.55334
 Alpha virt. eigenvalues --    4.56051   4.58122   4.58898   4.61718   4.63158
 Alpha virt. eigenvalues --    4.66597   4.67637   4.69619   4.71081   4.72728
 Alpha virt. eigenvalues --    4.74037   4.75526   4.78777   4.80226   4.83261
 Alpha virt. eigenvalues --    4.84166   4.85290   4.88804   4.89239   4.90476
 Alpha virt. eigenvalues --    4.92986   4.94351   4.98414   5.00614   5.02910
 Alpha virt. eigenvalues --    5.04279   5.09279   5.09809   5.14177   5.16100
 Alpha virt. eigenvalues --    5.17822   5.21444   5.22526   5.26060   5.28785
 Alpha virt. eigenvalues --    5.31845   5.36171   5.40950   5.46451   5.47693
 Alpha virt. eigenvalues --    5.54793   5.56234   5.61245   5.67025   5.72676
 Alpha virt. eigenvalues --    5.75971   5.77511   5.88510   5.96353   6.03075
 Alpha virt. eigenvalues --    6.65941   9.99532  10.31108  10.46316  10.93795
 Alpha virt. eigenvalues --   11.23725  11.33694  11.57149  11.73721  11.91382
 Alpha virt. eigenvalues --   11.97357  12.25682  14.32219
          Condensed to atoms (all electrons):
               1          2          3          4          5          6
     1  C    5.214275   0.556335  -0.041588   0.003581   0.001392  -0.001023
     2  C    0.556335   4.484696   0.412073  -0.000351  -0.022172   0.008359
     3  C   -0.041588   0.412073   4.874911   0.580017   0.002359  -0.020125
     4  C    0.003581  -0.000351   0.580017   4.799384   0.442879   0.008335
     5  C    0.001392  -0.022172   0.002359   0.442879   4.878235   0.563492
     6  C   -0.001023   0.008359  -0.020125   0.008335   0.563492   5.065162
     7  C   -0.000013  -0.000112   0.000430   0.004390  -0.039137   0.388620
     8  C    0.000000   0.000010  -0.000030   0.000721  -0.010901  -0.063377
     9  C   -0.000000  -0.000000   0.000002  -0.000065  -0.001622   0.004275
    10  C    0.000001  -0.000064  -0.000034   0.000045   0.004914   0.013779
    11  S   -0.000089  -0.001293   0.000965  -0.000370   0.000749   0.000751
    12  S    0.005842  -0.089623   0.000460  -0.012416  -0.033277   0.154186
    13  N   -0.035024   0.461905  -0.075041   0.004745   0.002885  -0.061371
    14  H    0.364925  -0.009320  -0.010283   0.000777  -0.000027   0.000020
    15  H    0.337441  -0.000262   0.004964  -0.000259  -0.000022   0.000052
    16  H   -0.011369  -0.051101   0.358165  -0.038116   0.006934   0.000260
    17  H   -0.000310   0.005837  -0.038636   0.363604  -0.053549   0.006687
    18  H    0.000006   0.000409   0.006002  -0.042644   0.365243  -0.064255
    19  H    0.000001   0.000063  -0.000035  -0.000110   0.006006  -0.067183
    20  H    0.000000   0.000002  -0.000004   0.000051   0.003668  -0.018798
    21  H    0.000000   0.000000  -0.000000   0.000001   0.000055  -0.000668
    22  H   -0.000014   0.000352  -0.000194   0.000090   0.000692  -0.004061
               7          8          9         10         11         12
     1  C   -0.000013   0.000000  -0.000000   0.000001  -0.000089   0.005842
     2  C   -0.000112   0.000010  -0.000000  -0.000064  -0.001293  -0.089623
     3  C    0.000430  -0.000030   0.000002  -0.000034   0.000965   0.000460
     4  C    0.004390   0.000721  -0.000065   0.000045  -0.000370  -0.012416
     5  C   -0.039137  -0.010901  -0.001622   0.004914   0.000749  -0.033277
     6  C    0.388620  -0.063377   0.004275   0.013779   0.000751   0.154186
     7  C    5.054995   0.648431  -0.058979  -0.076550  -0.001832  -0.037368
     8  C    0.648431   4.992965   0.352761  -0.047521   0.002135  -0.000542
     9  C   -0.058979   0.352761   5.071982   0.659144  -0.079374   0.008570
    10  C   -0.076550  -0.047521   0.659144   4.933639   0.565241  -0.079807
    11  S   -0.001832   0.002135  -0.079374   0.565241  15.541120  -0.271417
    12  S   -0.037368  -0.000542   0.008570  -0.079807  -0.271417  15.732135
    13  N    0.001140   0.000118  -0.000028   0.001208  -0.009947   0.487876
    14  H   -0.000000  -0.000000   0.000000  -0.000000   0.000002  -0.000260
    15  H    0.000000  -0.000000  -0.000000   0.000000   0.000026   0.001119
    16  H    0.000007   0.000000   0.000000  -0.000000  -0.000003  -0.000382
    17  H   -0.000170  -0.000002  -0.000000   0.000004   0.000006  -0.000311
    18  H   -0.017457   0.001991   0.000043   0.000083   0.000095   0.006067
    19  H    0.357943  -0.049641  -0.019367   0.000509   0.003379  -0.000842
    20  H   -0.027976   0.352884  -0.047167  -0.003260   0.000436  -0.000596
    21  H    0.000874  -0.067223   0.354119  -0.034969   0.002356  -0.000948
    22  H    0.000001  -0.000362   0.002256  -0.013715   0.196912   0.008093
              13         14         15         16         17         18
     1  C   -0.035024   0.364925   0.337441  -0.011369  -0.000310   0.000006
     2  C    0.461905  -0.009320  -0.000262  -0.051101   0.005837   0.000409
     3  C   -0.075041  -0.010283   0.004964   0.358165  -0.038636   0.006002
     4  C    0.004745   0.000777  -0.000259  -0.038116   0.363604  -0.042644
     5  C    0.002885  -0.000027  -0.000022   0.006934  -0.053549   0.365243
     6  C   -0.061371   0.000020   0.000052   0.000260   0.006687  -0.064255
     7  C    0.001140  -0.000000   0.000000   0.000007  -0.000170  -0.017457
     8  C    0.000118  -0.000000  -0.000000   0.000000  -0.000002   0.001991
     9  C   -0.000028   0.000000  -0.000000   0.000000  -0.000000   0.000043
    10  C    0.001208  -0.000000   0.000000  -0.000000   0.000004   0.000083
    11  S   -0.009947   0.000002   0.000026  -0.000003   0.000006   0.000095
    12  S    0.487876  -0.000260   0.001119  -0.000382  -0.000311   0.006067
    13  N    6.556663   0.002539  -0.003458   0.004034   0.000056  -0.000523
    14  H    0.002539   0.582902  -0.045686   0.001381  -0.000034   0.000000
    15  H   -0.003458  -0.045686   0.607549   0.000187   0.000005  -0.000000
    16  H    0.004034   0.001381   0.000187   0.657502  -0.012672  -0.000374
    17  H    0.000056  -0.000034   0.000005  -0.012672   0.658517  -0.011952
    18  H   -0.000523   0.000000  -0.000000  -0.000374  -0.011952   0.662068
    19  H    0.000221  -0.000000  -0.000000  -0.000000   0.000005   0.000088
    20  H    0.000001  -0.000000   0.000000  -0.000000   0.000015   0.005418
    21  H    0.000001  -0.000000   0.000000  -0.000000   0.000000   0.000011
    22  H    0.012000  -0.000000  -0.000001   0.000002  -0.000000  -0.000047
              19         20         21         22
     1  C    0.000001   0.000000   0.000000  -0.000014
     2  C    0.000063   0.000002   0.000000   0.000352
     3  C   -0.000035  -0.000004  -0.000000  -0.000194
     4  C   -0.000110   0.000051   0.000001   0.000090
     5  C    0.006006   0.003668   0.000055   0.000692
     6  C   -0.067183  -0.018798  -0.000668  -0.004061
     7  C    0.357943  -0.027976   0.000874   0.000001
     8  C   -0.049641   0.352884  -0.067223  -0.000362
     9  C   -0.019367  -0.047167   0.354119   0.002256
    10  C    0.000509  -0.003260  -0.034969  -0.013715
    11  S    0.003379   0.000436   0.002356   0.196912
    12  S   -0.000842  -0.000596  -0.000948   0.008093
    13  N    0.000221   0.000001   0.000001   0.012000
    14  H   -0.000000  -0.000000  -0.000000  -0.000000
    15  H   -0.000000   0.000000   0.000000  -0.000001
    16  H   -0.000000  -0.000000  -0.000000   0.000002
    17  H    0.000005   0.000015   0.000000  -0.000000
    18  H    0.000088   0.005418   0.000011  -0.000047
    19  H    0.670291   0.008042   0.003243   0.000196
    20  H    0.008042   0.613715   0.004651   0.000058
    21  H    0.003243   0.004651   0.602168  -0.000014
    22  H    0.000196   0.000058  -0.000014   0.593795
 Mulliken charges:
               1
     1  C   -0.394368
     2  C    0.244257
     3  C   -0.054376
     4  C   -0.114288
     5  C   -0.118795
     6  C    0.086882
     7  C   -0.197236
     8  C   -0.112418
     9  C   -0.246550
    10  C    0.077353
    11  S    0.050155
    12  S    0.123443
    13  N   -0.350000
    14  H    0.113064
    15  H    0.098344
    16  H    0.085545
    17  H    0.082904
    18  H    0.089730
    19  H    0.087191
    20  H    0.108859
    21  H    0.136343
    22  H    0.203962
 Sum of Mulliken charges =  -0.00000
 Mulliken charges with hydrogens summed into heavy atoms:
               1
     1  C   -0.182961
     2  C    0.244257
     3  C    0.031169
     4  C   -0.031384
     5  C   -0.029065
     6  C    0.086882
     7  C   -0.110045
     8  C   -0.003559
     9  C   -0.110207
    10  C    0.077353
    11  S    0.254117
    12  S    0.123443
    13  N   -0.350000
 Electronic spatial extent (au):  <R**2>=           2667.3525
 Charge=             -0.0000 electrons
 Dipole moment (field-independent basis, Debye):
    X=             -1.6106    Y=             -0.5412    Z=             -1.2772  Tot=              2.1255
 Quadrupole moment (field-independent basis, Debye-Ang):
   XX=            -90.1548   YY=            -85.9853   ZZ=            -89.6913
   XY=              2.9603   XZ=             -0.5453   YZ=             -1.2898
 Traceless Quadrupole moment (field-independent basis, Debye-Ang):
   XX=             -1.5444   YY=              2.6252   ZZ=             -1.0808
   XY=              2.9603   XZ=             -0.5453   YZ=             -1.2898
 Octapole moment (field-independent basis, Debye-Ang**2):
  XXX=             15.7293  YYY=             -9.5003  ZZZ=             -7.8222  XYY=              0.6664
  XXY=              5.9690  XXZ=              5.4791  XZZ=             -3.0954  YZZ=            -10.0655
  YYZ=            -13.0592  XYZ=             -1.4575
 Hexadecapole moment (field-independent basis, Debye-Ang**3):
 XXXX=          -2397.1219 YYYY=           -918.7223 ZZZZ=           -290.6773 XXXY=              8.9677
 XXXZ=            -45.0400 YYYX=             12.8766 YYYZ=            -16.4111 ZZZX=              3.6476
 ZZZY=              8.4566 XXYY=           -582.5814 XXZZ=           -489.7158 YYZZ=           -200.1992
 XXYZ=            -28.3196 YYXZ=              8.9916 ZZXY=             11.1024
 N-N= 9.871964849424D+02 E-N=-4.888782506374D+03  KE= 1.232243830674D+03
 PrsmSu:  requested number of processors reduced to:  13 ShMem   1 Linda.
 Calling FoFJK, ICntrl=      2127 FMM=F ISym2X=0 I1Cent= 0 IOpClX= 0 NMat=1 NMatS=1 NMatT=0.
 ***** Axes restored to original set *****
 -------------------------------------------------------------------
 Center     Atomic                   Forces (Hartrees/Bohr)
 Number     Number              X              Y              Z
 -------------------------------------------------------------------
      1        6           0.001311975   -0.018626056    0.002156469
      2        6          -0.034300266    0.043502685    0.014066215
      3        6           0.004910608    0.016025838   -0.006017605
      4        6          -0.007134000   -0.000004278    0.003190939
      5        6          -0.006333212    0.014286873    0.008232422
      6        6           0.022899500    0.006213136   -0.030244143
      7        6          -0.030747467   -0.022238175    0.018059656
      8        6          -0.009694314    0.026389247   -0.000651776
      9        6           0.002544263   -0.045313547   -0.038524889
     10        6           0.010141969   -0.024911371    0.046356114
     11       16           0.069661842   -0.026370184    0.012787258
     12       16          -0.011403306    0.011772773   -0.102597204
     13        7          -0.045859694   -0.002131338    0.033285971
     14        1           0.007979978   -0.004365539   -0.002313377
     15        1           0.000195614   -0.004759279    0.000265432
     16        1          -0.005487485   -0.002705282    0.000189176
     17        1          -0.000095735    0.004592412    0.002201889
     18        1           0.007107221   -0.001533561   -0.010333538
     19        1           0.006092062    0.004480488   -0.004050957
     20        1           0.001480119    0.002691076   -0.002926596
     21        1           0.021297545    0.004334931    0.038059539
     22        1          -0.004567218    0.018669152    0.018809005
 -------------------------------------------------------------------
 Cartesian Forces:  Max     0.102597204 RMS     0.023853384

 GradGradGradGradGradGradGradGradGradGradGradGradGradGradGradGradGradGrad
 Berny optimization.
 FormGI is forming the generalized inverse of G from B-inverse, IUseBI=4.
 Internal  Forces:  Max     0.088995526 RMS     0.018067836
 Search for a local minimum.
 Step number   1 out of a maximum of  116
 All quantities printed in internal units (Hartrees-Bohrs-Radians)
 Mixed Optimization -- RFO/linear search
 Second derivative matrix not updated -- first step.
 ITU=  0
     Eigenvalues ---    0.01127   0.01581   0.01791   0.02035   0.02071
     Eigenvalues ---    0.02313   0.02410   0.02510   0.02563   0.02579
     Eigenvalues ---    0.02604   0.02710   0.02849   0.03425   0.03894
     Eigenvalues ---    0.04249   0.04984   0.06702   0.07895   0.10231
     Eigenvalues ---    0.11004   0.12338   0.13670   0.14332   0.15792
     Eigenvalues ---    0.15940   0.16000   0.16000   0.16000   0.16969
     Eigenvalues ---    0.18005   0.20662   0.22043   0.22448   0.22629
     Eigenvalues ---    0.22822   0.23786   0.24386   0.26259   0.28318
     Eigenvalues ---    0.33168   0.33950   0.34482   0.34615   0.34870
     Eigenvalues ---    0.34944   0.35538   0.35824   0.35887   0.35941
     Eigenvalues ---    0.36236   0.41864   0.45414   0.48369   0.52111
     Eigenvalues ---    0.52999   0.54001   0.54638   0.59175   0.69854
 RFO step:  Lambda=-1.06009652D-01 EMin= 1.12712725D-02
 Linear search not attempted -- first point.
 Maximum step size (   0.300) exceeded in Quadratic search.
    -- Step size scaled by   0.627
 Iteration  1 RMS(Cart)=  0.08026087 RMS(Int)=  0.00200376
 Iteration  2 RMS(Cart)=  0.00315295 RMS(Int)=  0.00070182
 Iteration  3 RMS(Cart)=  0.00000478 RMS(Int)=  0.00070182
 Iteration  4 RMS(Cart)=  0.00000000 RMS(Int)=  0.00070182
 Variable       Old X    -DE/DX   Delta X   Delta X   Delta X     New X
                                 (Linear)    (Quad)   (Total)
    R1        2.57793  -0.00954   0.00000  -0.00953  -0.00953   2.56840
    R2        2.06304  -0.00735   0.00000  -0.01018  -0.01018   2.05286
    R3        2.04259   0.00382   0.00000   0.00515   0.00515   2.04774
    R4        2.75689   0.01487   0.00000   0.02014   0.02016   2.77705
    R5        2.59633   0.01778   0.00000   0.01865   0.01879   2.61512
    R6        2.54224   0.01728   0.00000   0.01636   0.01639   2.55863
    R7        2.04811   0.00163   0.00000   0.00222   0.00222   2.05032
    R8        2.66845   0.02891   0.00000   0.03298   0.03306   2.70151
    R9        2.04173   0.00451   0.00000   0.00607   0.00607   2.04780
   R10        2.54307   0.02568   0.00000   0.02368   0.02377   2.56684
   R11        2.04358   0.00552   0.00000   0.00745   0.00745   2.05103
   R12        2.79053   0.00388   0.00000   0.00857   0.00858   2.79912
   R13        3.37706  -0.00278   0.00000  -0.00203  -0.00211   3.37496
   R14        2.55768   0.02921   0.00000   0.02786   0.02816   2.58584
   R15        2.08757  -0.00460   0.00000  -0.00658  -0.00658   2.08099
   R16        2.78418   0.04851   0.00000   0.06337   0.06361   2.84779
   R17        2.05766   0.00206   0.00000   0.00283   0.00283   2.06049
   R18        2.50395  -0.00081   0.00000  -0.00304  -0.00302   2.50092
   R19        2.06525   0.00277   0.00000   0.00386   0.00386   2.06911
   R20        3.07042  -0.01426   0.00000  -0.01773  -0.01785   3.05257
   R21        4.03594   0.08900   0.00000   0.17015   0.16985   4.20579
   R22        2.48948   0.02633   0.00000   0.04239   0.04239   2.53187
   R23        2.86019   0.06682   0.00000   0.05070   0.05051   2.91071
    A1        2.13830  -0.00415   0.00000  -0.00959  -0.00962   2.12867
    A2        2.14018  -0.00062   0.00000  -0.00127  -0.00131   2.13887
    A3        2.00231   0.00498   0.00000   0.01192   0.01188   2.01419
    A4        1.92582   0.03299   0.00000   0.06117   0.06109   1.98690
    A5        2.24219  -0.02713   0.00000  -0.04830  -0.04924   2.19296
    A6        2.04781  -0.00215   0.00000   0.00532   0.00523   2.05303
    A7        2.24948  -0.00541   0.00000  -0.00735  -0.00757   2.24192
    A8        2.04549  -0.00333   0.00000  -0.01055  -0.01046   2.03504
    A9        1.98821   0.00874   0.00000   0.01789   0.01799   2.00620
   A10        2.22708   0.01120   0.00000   0.02183   0.02156   2.24864
   A11        2.04745  -0.00616   0.00000  -0.01197  -0.01190   2.03554
   A12        1.99679  -0.00427   0.00000  -0.00711  -0.00709   1.98970
   A13        2.27632   0.00439   0.00000   0.00690   0.00675   2.28307
   A14        1.94040   0.00608   0.00000   0.01575   0.01584   1.95624
   A15        2.06085  -0.01043   0.00000  -0.02261  -0.02255   2.03830
   A16        2.10964   0.03001   0.00000   0.05659   0.05654   2.16618
   A17        2.18621  -0.00781   0.00000  -0.01583  -0.01594   2.17027
   A18        1.95267  -0.02355   0.00000  -0.04611  -0.04604   1.90663
   A19        2.05114   0.01114   0.00000   0.03408   0.03469   2.08583
   A20        1.88988   0.00782   0.00000   0.02293   0.02227   1.91215
   A21        1.98557  -0.00904   0.00000  -0.01771  -0.01851   1.96707
   A22        1.93830   0.03298   0.00000   0.05689   0.05788   1.99617
   A23        2.08793  -0.01744   0.00000  -0.02995  -0.03059   2.05734
   A24        1.98204  -0.00493   0.00000   0.00112   0.00055   1.98259
   A25        1.98389  -0.01389   0.00000  -0.03033  -0.03207   1.95181
   A26        1.91880   0.03514   0.00000   0.10652   0.10382   2.02262
   A27        2.13002  -0.00072   0.00000   0.01908   0.01556   2.14557
   A28        2.83972  -0.04522   0.00000  -0.08619  -0.08528   2.75444
   A29        1.84145   0.04299   0.00000   0.07715   0.07705   1.91850
   A30        1.85523  -0.00575   0.00000  -0.01942  -0.01905   1.83619
   A31        1.78161  -0.01273   0.00000  -0.02210  -0.02188   1.75973
   A32        1.73501  -0.01096   0.00000  -0.01401  -0.01412   1.72089
   A33        1.89208   0.00621   0.00000   0.02126   0.02069   1.91277
   A34        1.80447   0.00097   0.00000  -0.00930  -0.00881   1.79567
   A35        2.13640   0.00107   0.00000   0.00820   0.00807   2.14446
    D1        0.05301  -0.00317   0.00000  -0.01385  -0.01351   0.03950
    D2        2.79178   0.00952   0.00000   0.04404   0.04370   2.83548
    D3       -3.01034  -0.00690   0.00000  -0.03159  -0.03125  -3.04159
    D4       -0.27157   0.00578   0.00000   0.02629   0.02596  -0.24561
    D5       -2.98354  -0.00201   0.00000   0.00471   0.00609  -2.97745
    D6        0.16058   0.00032   0.00000   0.01175   0.01296   0.17354
    D7        0.51082  -0.00544   0.00000  -0.03016  -0.03072   0.48010
    D8       -2.62824  -0.00311   0.00000  -0.02312  -0.02385  -2.65210
    D9        2.18539  -0.00991   0.00000  -0.03036  -0.02884   2.15655
   D10       -1.38278   0.00968   0.00000   0.04044   0.04043  -1.34234
   D11        0.21942  -0.00159   0.00000  -0.00748  -0.00725   0.21217
   D12       -3.09740   0.00344   0.00000   0.01163   0.01174  -3.08566
   D13       -2.92464  -0.00387   0.00000  -0.01436  -0.01406  -2.93869
   D14        0.04173   0.00116   0.00000   0.00476   0.00494   0.04666
   D15        0.04468   0.00484   0.00000   0.01645   0.01654   0.06123
   D16        3.06820   0.00463   0.00000   0.01545   0.01557   3.08377
   D17       -2.92597   0.00015   0.00000  -0.00167  -0.00153  -2.92751
   D18        0.09754  -0.00006   0.00000  -0.00268  -0.00251   0.09503
   D19        2.91490   0.01529   0.00000   0.05792   0.05822   2.97312
   D20       -0.52973   0.00597   0.00000   0.02809   0.02808  -0.50165
   D21       -0.10187   0.01452   0.00000   0.05670   0.05700  -0.04487
   D22        2.73669   0.00521   0.00000   0.02687   0.02686   2.76355
   D23        0.84468  -0.00218   0.00000  -0.00854  -0.00964   0.83504
   D24        3.12398   0.00228   0.00000   0.01838   0.01842  -3.14079
   D25       -2.03121   0.00486   0.00000   0.01542   0.01471  -2.01650
   D26        0.24809   0.00932   0.00000   0.04235   0.04276   0.29085
   D27       -1.75891  -0.00880   0.00000  -0.03407  -0.03458  -1.79348
   D28        0.11922  -0.01041   0.00000  -0.04389  -0.04433   0.07489
   D29        1.10304  -0.00949   0.00000  -0.04643  -0.04581   1.05723
   D30        2.98117  -0.01110   0.00000  -0.05626  -0.05556   2.92561
   D31        1.55467   0.01925   0.00000   0.06971   0.06942   1.62409
   D32       -0.80813   0.00722   0.00000   0.03333   0.03319  -0.77493
   D33       -0.67968   0.00596   0.00000   0.02054   0.02040  -0.65928
   D34       -3.04248  -0.00607   0.00000  -0.01585  -0.01583  -3.05830
   D35       -0.64210  -0.00756   0.00000  -0.03582  -0.03830  -0.68040
   D36        1.81572   0.01589   0.00000   0.08152   0.08196   1.89768
   D37        1.77051  -0.00361   0.00000  -0.01855  -0.01985   1.75066
   D38       -2.05486   0.01984   0.00000   0.09879   0.10040  -1.95445
   D39        0.52273   0.00850   0.00000   0.03851   0.03770   0.56043
   D40       -1.84266  -0.03270   0.00000  -0.12907  -0.12887  -1.97153
   D41       -0.28284  -0.00840   0.00000  -0.02398  -0.02442  -0.30725
   D42       -2.16607  -0.00910   0.00000  -0.02255  -0.02247  -2.18854
   D43       -0.36576  -0.00723   0.00000  -0.00979  -0.00973  -0.37549
   D44       -2.31392  -0.01057   0.00000  -0.02536  -0.02487  -2.33879
   D45        1.57029  -0.00391   0.00000  -0.01348  -0.01385   1.55645
   D46       -0.37787  -0.00725   0.00000  -0.02905  -0.02899  -0.40686
   D47        0.97569   0.00438   0.00000   0.01121   0.01190   0.98759
   D48        2.80570  -0.00526   0.00000  -0.00096  -0.00058   2.80512
         Item               Value     Threshold  Converged?
 Maximum Force            0.088996     0.000450     NO 
 RMS     Force            0.018068     0.000300     NO 
 Maximum Displacement     0.222356     0.001800     NO 
 RMS     Displacement     0.079711     0.001200     NO 
 Predicted change in Energy=-5.425989D-02
 GradGradGradGradGradGradGradGradGradGradGradGradGradGradGradGradGradGrad

                          Input orientation:                          
 ---------------------------------------------------------------------
 Center     Atomic      Atomic             Coordinates (Angstroms)
 Number     Number       Type             X           Y           Z
 ---------------------------------------------------------------------
      1          6           0        1.019068   -0.173466    0.017679
      2          6           0        2.369144   -0.094220    0.152841
      3          6           0        2.894477    1.276025    0.075137
      4          6           0        4.184405    1.680075   -0.002703
      5          6           0        5.353800    0.900540   -0.264487
      6          6           0        5.493736   -0.416866   -0.564267
      7          6           0        6.762840   -1.037139   -1.009996
      8          6           0        7.917388   -0.778393   -0.322608
      9          6           0        8.237458   -1.781626    0.755391
     10          6           0        7.150787   -2.173927    1.400926
     11         16           0        5.595125   -2.549497    1.620509
     12         16           0        4.368933   -1.696941   -0.029621
     13          7           0        3.181296   -1.061847    0.717798
     14          1           0        0.407300    0.704547   -0.169242
     15          1           0        0.474156   -1.101759    0.142444
     16          1           0        2.163785    2.077952    0.089037
     17          1           0        4.359535    2.749468    0.002278
     18          1           0        6.247987    1.512989   -0.322274
     19          1           0        6.605373   -2.112595   -1.186817
     20          1           0        8.117348    0.253314   -0.031929
     21          1           0        9.082564   -2.447693    0.552887
     22          1           0        5.192765   -1.792382    2.650056
 ---------------------------------------------------------------------
                    Distance matrix (angstroms):
                    1          2          3          4          5
     1  C    0.000000
     2  C    1.359137   0.000000
     3  C    2.370967   1.469552   0.000000
     4  C    3.668158   2.543126   1.353968   0.000000
     5  C    4.474707   3.173623   2.510896   1.429577   0.000000
     6  C    4.518911   3.222021   3.167154   2.535126   1.358312
     7  C    5.898556   4.641751   4.635997   3.878946   2.509139
     8  C    6.933148   5.610450   5.441366   4.481246   3.064992
     9  C    7.432062   6.135757   6.193498   5.383802   4.068126
    10  C    6.596453   5.361624   5.637025   5.061910   3.931299
    11  S    5.399526   4.311541   4.931155   4.744916   3.938808
    12  S    3.680327   2.569273   3.320169   3.382161   2.787837
    13  N    2.440208   1.383860   2.441500   3.007239   3.087980
    14  H    1.086327   2.142568   2.563661   3.904602   4.951298
    15  H    1.083616   2.146211   3.393574   4.639571   5.290153
    16  H    2.526727   2.182791   1.084985   2.061463   3.418695
    17  H    4.438749   3.474318   2.079119   1.083649   2.116190
    18  H    5.504661   4.225432   3.385279   2.094854   1.085358
    19  H    6.034719   4.879975   5.181314   4.652693   3.390592
    20  H    7.111271   5.761664   5.323136   4.183843   2.847839
    21  H    8.395149   7.125228   7.237868   6.429550   5.077642
    22  H    5.193269   4.134328   4.618165   4.484627   3.971438
                    6          7          8          9         10
     6  C    0.000000
     7  C    1.481228   0.000000
     8  C    2.462354   1.368368   0.000000
     9  C    3.336476   2.417716   1.506985   0.000000
    10  C    3.113689   2.693574   2.346437   1.323431   0.000000
    11  S    3.054773   3.251207   3.507908   2.884437   1.615349
    12  S    1.785951   2.669694   3.677105   3.948278   3.164284
    13  N    2.721593   3.976600   4.857300   5.107277   4.178546
    14  H    5.223547   6.643284   7.656634   8.267247   7.498377
    15  H    5.115145   6.393735   7.464753   7.817083   6.878279
    16  H    4.211829   5.662418   6.436778   7.227024   6.683541
    17  H    3.410727   4.597713   5.020923   6.011346   5.829848
    18  H    2.086096   2.690945   2.835018   3.996729   4.168671
    19  H    2.121037   1.101212   2.061149   2.558401   2.645308
    20  H    2.759686   2.111060   1.090366   2.185241   2.979733
    21  H    4.272233   3.132633   2.216008   1.094923   2.127412
    22  H    3.509202   4.053581   4.157942   3.586088   2.353668
                   11         12         13         14         15
    11  S    0.000000
    12  S    2.225607   0.000000
    13  N    2.975662   1.540280   0.000000
    14  H    6.380089   4.634779   3.406176   0.000000
    15  H    5.523128   3.943747   2.767893   1.834219   0.000000
    16  H    5.960939   4.373394   3.359912   2.244591   3.601147
    17  H    5.676653   4.446534   4.052942   4.453233   5.472455
    18  H    4.550212   3.730971   4.137164   5.898358   6.355312
    19  H    3.015388   2.552163   4.056591   6.883884   6.354569
    20  H    4.116784   4.225413   5.162979   7.724462   7.764343
    21  H    3.648618   4.808457   6.064053   9.258417   8.722654
    22  H    1.339808   2.805081   2.883281   6.089644   5.387982
                   16         17         18         19         20
    16  H    0.000000
    17  H    2.297777   0.000000
    18  H    4.143558   2.280453   0.000000
    19  H    6.238284   5.486109   3.744331   0.000000
    20  H    6.228070   4.511443   2.272794   3.036010   0.000000
    21  H    8.280467   7.044193   4.948509   3.045544   2.927300
    22  H    5.541933   5.322913   4.568776   4.101170   4.464426
                   21         22
    21  H    0.000000
    22  H    4.467448   0.000000
 Stoichiometry    C10H9NS2
 Framework group  C1[X(C10H9NS2)]
 Deg. of freedom    60
 Full point group                 C1      NOp   1
 Largest Abelian subgroup         C1      NOp   1
 Largest concise Abelian subgroup C1      NOp   1
                         Standard orientation:                         
 ---------------------------------------------------------------------
 Center     Atomic      Atomic             Coordinates (Angstroms)
 Number     Number       Type             X           Y           Z
 ---------------------------------------------------------------------
      1          6           0        3.867688   -0.888827    0.310920
      2          6           0        2.652342   -0.343478    0.041139
      3          6           0        2.721145    1.014653   -0.515933
      4          6           0        1.710315    1.890435   -0.726785
      5          6           0        0.360916    1.831725   -0.258421
      6          6           0       -0.256727    0.940846    0.560030
      7          6           0       -1.615863    1.129157    1.117995
      8          6           0       -2.637244    1.509922    0.290813
      9          6           0       -3.433775    0.365624   -0.281134
     10          6           0       -2.660957   -0.659045   -0.604053
     11         16           0       -1.410422   -1.677264   -0.510544
     12         16           0        0.211676   -0.775355    0.717743
     13          7           0        1.471960   -1.046378   -0.125284
     14          1           0        4.791725   -0.338533    0.157822
     15          1           0        3.986467   -1.914627    0.639326
     16          1           0        3.703601    1.370904   -0.807579
     17          1           0        1.971924    2.829140   -1.200800
     18          1           0       -0.208242    2.711150   -0.542453
     19          1           0       -1.878739    0.265023    1.747944
     20          1           0       -2.441879    2.307329   -0.426733
     21          1           0       -4.448166    0.245154    0.113017
     22          1           0       -0.847520   -1.655069   -1.726165
 ---------------------------------------------------------------------
 Rotational constants (GHZ):           1.2926431           0.5132693           0.4094403
 Standard basis: 6-31G(2df,p) (6D, 7F)
 There are   456 symmetry adapted cartesian basis functions of A   symmetry.
 There are   417 symmetry adapted basis functions of A   symmetry.
   417 basis functions,   683 primitive gaussians,   456 cartesian basis functions
    54 alpha electrons       54 beta electrons
       nuclear repulsion energy       974.3462267847 Hartrees.
 NAtoms=   22 NActive=   22 NUniq=   22 SFac= 1.00D+00 NAtFMM=   60 NAOKFM=F Big=F
 Integral buffers will be    131072 words long.
 Raffenetti 2 integral format.
 Two-electron integral symmetry is turned on.
 One-electron integrals computed using PRISM.
 PrsmSu:  requested number of processors reduced to:  13 ShMem   1 Linda.
 NBasis=   417 RedAO= T EigKep=  3.04D-04  NBF=   417
 NBsUse=   417 1.00D-06 EigRej= -1.00D+00 NBFU=   417
 Initial guess from the checkpoint file:  "CdC1CdCCdC2CdCCdCd[SH]S2dN1.chk"
 B after Tr=     0.000000   -0.000000    0.000000
         Rot=    0.999972   -0.000127   -0.001290    0.007427 Ang=  -0.86 deg.
 ExpMin= 1.17D-01 ExpMax= 2.19D+04 ExpMxC= 3.30D+03 IAcc=2 IRadAn=         4 AccDes= 0.00D+00
 Harris functional with IExCor=  402 and IRadAn=       4 diagonalized for initial guess.
 HarFok:  IExCor=  402 AccDes= 0.00D+00 IRadAn=         4 IDoV= 1 UseB2=F ITyADJ=14
 ICtDFT=  3500011 ScaDFX=  1.000000  1.000000  1.000000  1.000000
 FoFCou: FMM=F IPFlag=           0 FMFlag=      100000 FMFlg1=           0
         NFxFlg=           0 DoJE=T BraDBF=F KetDBF=T FulRan=T
         wScrn=  0.000000 ICntrl=       500 IOpCl=  0 I1Cent=   200000004 NGrid=           0
         NMat0=    1 NMatS0=      1 NMatT0=    0 NMatD0=    1 NMtDS0=    0 NMtDT0=    0
 Petite list used in FoFCou.
 Requested convergence on RMS density matrix=1.00D-08 within 128 cycles.
 Requested convergence on MAX density matrix=1.00D-06.
 Requested convergence on             energy=1.00D-06.
 No special actions if energy rises.
 Integral accuracy reduced to 1.0D-05 until final iterations.
 Initial convergence to 1.0D-05 achieved.  Increase integral accuracy.
 SCF Done:  E(RB3LYP) =  -1237.25680127     A.U. after   15 cycles
            NFock= 15  Conv=0.81D-08     -V/T= 2.0044
 PrsmSu:  requested number of processors reduced to:  13 ShMem   1 Linda.
 Calling FoFJK, ICntrl=      2127 FMM=F ISym2X=0 I1Cent= 0 IOpClX= 0 NMat=1 NMatS=1 NMatT=0.
 ***** Axes restored to original set *****
 -------------------------------------------------------------------
 Center     Atomic                   Forces (Hartrees/Bohr)
 Number     Number              X              Y              Z
 -------------------------------------------------------------------
      1        6           0.003247339   -0.013251436    0.001092067
      2        6          -0.020390053    0.034128901    0.014208774
      3        6           0.006617317    0.007498545   -0.005315602
      4        6          -0.007763155   -0.005295658    0.001475654
      5        6          -0.004944031    0.004470268    0.002210626
      6        6           0.020089721    0.015775610   -0.020975633
      7        6          -0.012912110   -0.017649931    0.028278649
      8        6          -0.017405573    0.012249476    0.004604099
      9        6          -0.006442178   -0.028759800   -0.045167008
     10        6           0.016311295   -0.020613307    0.033310811
     11       16           0.045342988   -0.016255766    0.015624094
     12       16          -0.020931135    0.016500488   -0.075184203
     13        7          -0.024645797   -0.010257646    0.020562793
     14        1           0.004880192   -0.000681459   -0.002779477
     15        1           0.001893710   -0.002200871    0.000715282
     16        1          -0.003938531   -0.002021954    0.000338197
     17        1           0.000205778    0.002298835    0.001433592
     18        1           0.003680943   -0.000962422   -0.008777179
     19        1           0.002488832    0.003059264   -0.003687734
     20        1           0.002950525    0.000708823   -0.000673989
     21        1           0.013399753    0.011336477    0.029633963
     22        1          -0.001735828    0.009923562    0.009072222
 -------------------------------------------------------------------
 Cartesian Forces:  Max     0.075184203 RMS     0.018016380

 GradGradGradGradGradGradGradGradGradGradGradGradGradGradGradGradGradGrad
 Berny optimization.
 Using GEDIIS/GDIIS optimizer.
 FormGI is forming the generalized inverse of G from B-inverse, IUseBI=4.
 Internal  Forces:  Max     0.065336896 RMS     0.011748343
 Search for a local minimum.
 Step number   2 out of a maximum of  116
 All quantities printed in internal units (Hartrees-Bohrs-Radians)
 Mixed Optimization -- RFO/linear search
 Update second derivatives using D2CorX and points    1    2
 DE= -5.56D-02 DEPred=-5.43D-02 R= 1.03D+00
 TightC=F SS=  1.41D+00  RLast= 4.03D-01 DXNew= 5.0454D-01 1.2103D+00
 Trust test= 1.03D+00 RLast= 4.03D-01 DXMaxT set to 5.05D-01
 ITU=  1  0
 Use linear search instead of GDIIS.
 Linear search step of   0.598 exceeds DXMaxT=   0.505 but not scaled.
 Quartic linear search produced a step of  2.00000.
 Iteration  1 RMS(Cart)=  0.15299494 RMS(Int)=  0.01611760
 Iteration  2 RMS(Cart)=  0.02169770 RMS(Int)=  0.00462360
 Iteration  3 RMS(Cart)=  0.00019336 RMS(Int)=  0.00462141
 Iteration  4 RMS(Cart)=  0.00000153 RMS(Int)=  0.00462141
 Iteration  5 RMS(Cart)=  0.00000002 RMS(Int)=  0.00462141
 Variable       Old X    -DE/DX   Delta X   Delta X   Delta X     New X
                                 (Linear)    (Quad)   (Total)
    R1        2.56840  -0.00892  -0.01907   0.00000  -0.01907   2.54933
    R2        2.05286  -0.00282  -0.02036   0.00000  -0.02036   2.03250
    R3        2.04774   0.00102   0.01030   0.00000   0.01030   2.05804
    R4        2.77705   0.00419   0.04031   0.00000   0.04054   2.81759
    R5        2.61512   0.01169   0.03758   0.00000   0.03837   2.65349
    R6        2.55863   0.00494   0.03277   0.00000   0.03300   2.59162
    R7        2.05032   0.00116   0.00443   0.00000   0.00443   2.05476
    R8        2.70151   0.01382   0.06612   0.00000   0.06650   2.76801
    R9        2.04780   0.00231   0.01214   0.00000   0.01214   2.05994
   R10        2.56684   0.00692   0.04753   0.00000   0.04797   2.61480
   R11        2.05103   0.00296   0.01490   0.00000   0.01490   2.06593
   R12        2.79912  -0.00238   0.01717   0.00000   0.01766   2.81677
   R13        3.37496  -0.00115  -0.00421   0.00000  -0.00496   3.37000
   R14        2.58584   0.00736   0.05632   0.00000   0.05842   2.64426
   R15        2.08099  -0.00275  -0.01316   0.00000  -0.01316   2.06783
   R16        2.84779   0.01806   0.12721   0.00000   0.12921   2.97700
   R17        2.06049   0.00103   0.00566   0.00000   0.00566   2.06616
   R18        2.50092  -0.00386  -0.00605   0.00000  -0.00561   2.49531
   R19        2.06911  -0.00203   0.00771   0.00000   0.00771   2.07682
   R20        3.05257  -0.00540  -0.03570   0.00000  -0.03664   3.01593
   R21        4.20579   0.06534   0.33970   0.00000   0.33733   4.54312
   R22        2.53187   0.01310   0.08477   0.00000   0.08477   2.61664
   R23        2.91071   0.03551   0.10103   0.00000   0.09991   3.01062
    A1        2.12867  -0.00294  -0.01925   0.00000  -0.01948   2.10919
    A2        2.13887  -0.00135  -0.00262   0.00000  -0.00285   2.13602
    A3        2.01419   0.00441   0.02376   0.00000   0.02352   2.03772
    A4        1.98690   0.01867   0.12218   0.00000   0.12082   2.10772
    A5        2.19296  -0.01822  -0.09848   0.00000  -0.10321   2.08974
    A6        2.05303   0.00214   0.01045   0.00000   0.00922   2.06226
    A7        2.24192  -0.00292  -0.01513   0.00000  -0.01616   2.22575
    A8        2.03504  -0.00293  -0.02092   0.00000  -0.02048   2.01456
    A9        2.00620   0.00584   0.03598   0.00000   0.03648   2.04268
   A10        2.24864   0.00742   0.04312   0.00000   0.04145   2.29009
   A11        2.03554  -0.00369  -0.02381   0.00000  -0.02343   2.01212
   A12        1.98970  -0.00327  -0.01417   0.00000  -0.01396   1.97574
   A13        2.28307   0.00098   0.01351   0.00000   0.01241   2.29548
   A14        1.95624   0.00498   0.03168   0.00000   0.03231   1.98856
   A15        2.03830  -0.00596  -0.04510   0.00000  -0.04463   1.99367
   A16        2.16618   0.01846   0.11307   0.00000   0.11194   2.27812
   A17        2.17027  -0.00186  -0.03188   0.00000  -0.03255   2.13772
   A18        1.90663  -0.01747  -0.09208   0.00000  -0.09050   1.81613
   A19        2.08583   0.00742   0.06938   0.00000   0.07200   2.15783
   A20        1.91215   0.00513   0.04455   0.00000   0.04080   1.95295
   A21        1.96707  -0.00390  -0.03701   0.00000  -0.04158   1.92549
   A22        1.99617   0.02459   0.11575   0.00000   0.12233   2.11850
   A23        2.05734  -0.01062  -0.06119   0.00000  -0.06566   1.99168
   A24        1.98259  -0.00511   0.00110   0.00000  -0.00289   1.97971
   A25        1.95181  -0.00605  -0.06415   0.00000  -0.07614   1.87567
   A26        2.02262   0.02092   0.20763   0.00000   0.18851   2.21113
   A27        2.14557  -0.00057   0.03111   0.00000   0.00779   2.15336
   A28        2.75444  -0.03550  -0.17056   0.00000  -0.16389   2.59055
   A29        1.91850   0.02686   0.15410   0.00000   0.15342   2.07192
   A30        1.83619  -0.00462  -0.03809   0.00000  -0.03579   1.80039
   A31        1.75973  -0.00812  -0.04376   0.00000  -0.04204   1.71769
   A32        1.72089  -0.00753  -0.02824   0.00000  -0.02977   1.69112
   A33        1.91277   0.00348   0.04138   0.00000   0.03794   1.95071
   A34        1.79567  -0.00151  -0.01761   0.00000  -0.01424   1.78142
   A35        2.14446  -0.00342   0.01614   0.00000   0.01516   2.15962
    D1        0.03950  -0.00214  -0.02702   0.00000  -0.02497   0.01452
    D2        2.83548   0.00777   0.08741   0.00000   0.08537   2.92085
    D3       -3.04159  -0.00480  -0.06251   0.00000  -0.06047  -3.10206
    D4       -0.24561   0.00512   0.05192   0.00000   0.04987  -0.19574
    D5       -2.97745   0.00027   0.01218   0.00000   0.02008  -2.95737
    D6        0.17354   0.00160   0.02591   0.00000   0.03269   0.20622
    D7        0.48010  -0.00410  -0.06144   0.00000  -0.06422   0.41587
    D8       -2.65210  -0.00276  -0.04771   0.00000  -0.05162  -2.70372
    D9        2.15655  -0.00416  -0.05768   0.00000  -0.04761   2.10894
   D10       -1.34234   0.00879   0.08087   0.00000   0.08050  -1.26185
   D11        0.21217  -0.00104  -0.01450   0.00000  -0.01330   0.19887
   D12       -3.08566   0.00246   0.02349   0.00000   0.02396  -3.06170
   D13       -2.93869  -0.00240  -0.02811   0.00000  -0.02634  -2.96503
   D14        0.04666   0.00110   0.00988   0.00000   0.01092   0.05759
   D15        0.06123   0.00388   0.03309   0.00000   0.03341   0.09464
   D16        3.08377   0.00346   0.03114   0.00000   0.03171   3.11548
   D17       -2.92751   0.00052  -0.00307   0.00000  -0.00241  -2.92992
   D18        0.09503   0.00010  -0.00502   0.00000  -0.00411   0.09092
   D19        2.97312   0.01232   0.11644   0.00000   0.11805   3.09117
   D20       -0.50165   0.00567   0.05616   0.00000   0.05635  -0.44530
   D21       -0.04487   0.01213   0.11399   0.00000   0.11548   0.07060
   D22        2.76355   0.00548   0.05372   0.00000   0.05377   2.81732
   D23        0.83504  -0.00372  -0.01927   0.00000  -0.02599   0.80905
   D24       -3.14079   0.00331   0.03683   0.00000   0.03686  -3.10393
   D25       -2.01650   0.00058   0.02942   0.00000   0.02507  -1.99143
   D26        0.29085   0.00761   0.08552   0.00000   0.08792   0.37877
   D27       -1.79348  -0.00752  -0.06915   0.00000  -0.07238  -1.86587
   D28        0.07489  -0.01139  -0.08866   0.00000  -0.09133  -0.01644
   D29        1.05723  -0.00770  -0.09161   0.00000  -0.08770   0.96953
   D30        2.92561  -0.01157  -0.11112   0.00000  -0.10665   2.81896
   D31        1.62409   0.01717   0.13884   0.00000   0.13734   1.76143
   D32       -0.77493   0.00762   0.06638   0.00000   0.06561  -0.70932
   D33       -0.65928   0.00580   0.04080   0.00000   0.04031  -0.61897
   D34       -3.05830  -0.00375  -0.03166   0.00000  -0.03142  -3.08972
   D35       -0.68040  -0.00920  -0.07660   0.00000  -0.09138  -0.77178
   D36        1.89768   0.01217   0.16391   0.00000   0.16669   2.06437
   D37        1.75066  -0.00316  -0.03970   0.00000  -0.04752   1.70315
   D38       -1.95445   0.01821   0.20081   0.00000   0.21056  -1.74390
   D39        0.56043   0.00453   0.07540   0.00000   0.06571   0.62614
   D40       -1.97153  -0.02643  -0.25774   0.00000  -0.25097  -2.22250
   D41       -0.30725  -0.00585  -0.04883   0.00000  -0.05078  -0.35803
   D42       -2.18854  -0.00524  -0.04494   0.00000  -0.04437  -2.23290
   D43       -0.37549  -0.00311  -0.01946   0.00000  -0.01923  -0.39471
   D44       -2.33879  -0.00407  -0.04975   0.00000  -0.04679  -2.38558
   D45        1.55645  -0.00284  -0.02769   0.00000  -0.02986   1.52658
   D46       -0.40686  -0.00380  -0.05799   0.00000  -0.05743  -0.46429
   D47        0.98759   0.00247   0.02380   0.00000   0.02850   1.01609
   D48        2.80512  -0.00540  -0.00116   0.00000   0.00106   2.80618
         Item               Value     Threshold  Converged?
 Maximum Force            0.065337     0.000450     NO 
 RMS     Force            0.011748     0.000300     NO 
 Maximum Displacement     0.466657     0.001800     NO 
 RMS     Displacement     0.155134     0.001200     NO 
 Predicted change in Energy=-4.817385D-02
 GradGradGradGradGradGradGradGradGradGradGradGradGradGradGradGradGradGrad

                          Input orientation:                          
 ---------------------------------------------------------------------
 Center     Atomic      Atomic             Coordinates (Angstroms)
 Number     Number       Type             X           Y           Z
 ---------------------------------------------------------------------
      1          6           0        0.950879   -0.236898    0.072143
      2          6           0        2.272586    0.014816    0.170405
      3          6           0        2.793692    1.407689    0.063392
      4          6           0        4.101208    1.803469   -0.057338
      5          6           0        5.319364    1.038683   -0.334369
      6          6           0        5.513208   -0.293558   -0.654007
      7          6           0        6.760740   -1.037974   -0.987649
      8          6           0        7.947608   -0.929481   -0.254464
      9          6           0        8.368274   -2.028570    0.792820
     10          6           0        7.295100   -2.335000    1.498526
     11         16           0        5.715094   -2.555387    1.544314
     12         16           0        4.360974   -1.569571   -0.180301
     13          7           0        3.137184   -0.980924    0.652742
     14          1           0        0.248898    0.559933   -0.098446
     15          1           0        0.538107   -1.238682    0.182209
     16          1           0        2.041820    2.191997    0.106261
     17          1           0        4.264752    2.881099   -0.042471
     18          1           0        6.223138    1.650777   -0.395276
     19          1           0        6.558290   -2.085620   -1.230197
     20          1           0        8.183330    0.089007    0.065783
     21          1           0        9.269618   -2.656487    0.759500
     22          1           0        5.315405   -1.752759    2.599463
 ---------------------------------------------------------------------
                    Distance matrix (angstroms):
                    1          2          3          4          5
     1  C    0.000000
     2  C    1.349046   0.000000
     3  C    2.469960   1.491006   0.000000
     4  C    3.755588   2.568074   1.371429   0.000000
     5  C    4.569028   3.253607   2.583292   1.464768   0.000000
     6  C    4.620103   3.358033   3.287046   2.597552   1.383694
     7  C    5.959813   4.753208   4.777387   4.001548   2.610908
     8  C    7.038506   5.768716   5.668002   4.722570   3.284467
     9  C    7.664673   6.459121   6.589075   5.797857   4.469279
    10  C    6.832697   5.701859   6.027438   5.454226   4.317959
[...]
 Solved reduced A of dimension   430 with    69 vectors.
 Isotropic polarizability for W=    0.000000      277.30 Bohr**3.
 End of Minotr F.D. properties file   721 does not exist.
 End of Minotr F.D. properties file   722 does not exist.
 End of Minotr F.D. properties file   788 does not exist.

 **********************************************************************

            Population analysis using the SCF density.

 **********************************************************************

 Orbital symmetries:
       Occupied  (A) (A) (A) (A) (A) (A) (A) (A) (A) (A) (A) (A)
                 (A) (A) (A) (A) (A) (A) (A) (A) (A) (A) (A) (A)
                 (A) (A) (A) (A) (A) (A) (A) (A) (A) (A) (A) (A)
                 (A) (A) (A) (A) (A) (A) (A) (A) (A) (A) (A) (A)
                 (A) (A) (A) (A) (A) (A)
       Virtual   (A) (A) (A) (A) (A) (A) (A) (A) (A) (A) (A) (A)
                 (A) (A) (A) (A) (A) (A) (A) (A) (A) (A) (A) (A)
                 (A) (A) (A) (A) (A) (A) (A) (A) (A) (A) (A) (A)
                 (A) (A) (A) (A) (A) (A) (A) (A) (A) (A) (A) (A)
                 (A) (A) (A) (A) (A) (A) (A) (A) (A) (A) (A) (A)
                 (A) (A) (A) (A) (A) (A) (A) (A) (A) (A) (A) (A)
                 (A) (A) (A) (A) (A) (A) (A) (A) (A) (A) (A) (A)
                 (A) (A) (A) (A) (A) (A) (A) (A) (A) (A) (A) (A)
                 (A) (A) (A) (A) (A) (A) (A) (A) (A) (A) (A) (A)
                 (A) (A) (A) (A) (A) (A) (A) (A) (A) (A) (A) (A)
                 (A) (A) (A) (A) (A) (A) (A) (A) (A) (A) (A) (A)
                 (A) (A) (A) (A) (A) (A) (A) (A) (A) (A) (A) (A)
                 (A) (A) (A) (A) (A) (A) (A) (A) (A) (A) (A) (A)
                 (A) (A) (A) (A) (A) (A) (A) (A) (A) (A) (A) (A)
                 (A) (A) (A) (A) (A) (A) (A) (A) (A) (A) (A) (A)
                 (A) (A) (A) (A) (A) (A) (A) (A) (A) (A) (A) (A)
                 (A) (A) (A) (A) (A) (A) (A) (A) (A) (A) (A) (A)
                 (A) (A) (A) (A) (A) (A) (A) (A) (A) (A) (A) (A)
                 (A) (A) (A) (A) (A) (A) (A) (A) (A) (A) (A) (A)
                 (A) (A) (A) (A) (A) (A) (A) (A) (A) (A) (A) (A)
                 (A) (A) (A) (A) (A) (A) (A) (A) (A) (A) (A) (A)
                 (A) (A) (A) (A) (A) (A) (A) (A) (A) (A) (A) (A)
                 (A) (A) (A) (A) (A) (A) (A) (A) (A) (A) (A) (A)
                 (A) (A) (A) (A) (A) (A) (A) (A) (A) (A) (A) (A)
                 (A) (A) (A) (A) (A) (A) (A) (A) (A) (A) (A) (A)
                 (A) (A) (A) (A) (A) (A) (A) (A) (A) (A) (A) (A)
                 (A) (A) (A) (A) (A) (A) (A) (A) (A) (A) (A) (A)
                 (A) (A) (A) (A) (A) (A) (A) (A) (A) (A) (A) (A)
                 (A) (A) (A) (A) (A) (A) (A) (A) (A) (A) (A) (A)
                 (A) (A) (A) (A) (A) (A) (A) (A) (A) (A) (A) (A)
                 (A) (A) (A)
 The electronic state is 1-A.
 Alpha  occ. eigenvalues --  -88.93899 -88.93171 -14.34529 -10.23450 -10.22995
 Alpha  occ. eigenvalues --  -10.21915 -10.21737 -10.21299 -10.20943 -10.20147
 Alpha  occ. eigenvalues --  -10.18657 -10.17549 -10.17424  -7.99504  -7.99484
 Alpha  occ. eigenvalues --   -5.95966  -5.95812  -5.95515  -5.95459  -5.95332
 Alpha  occ. eigenvalues --   -5.95328  -0.93614  -0.85121  -0.83008  -0.80396
 Alpha  occ. eigenvalues --   -0.78502  -0.74393  -0.69367  -0.68691  -0.63610
 Alpha  occ. eigenvalues --   -0.60398  -0.56276  -0.53024  -0.51661  -0.49713
 Alpha  occ. eigenvalues --   -0.46764  -0.45837  -0.43251  -0.42901  -0.41261
 Alpha  occ. eigenvalues --   -0.40842  -0.40207  -0.38758  -0.38113  -0.36500
 Alpha  occ. eigenvalues --   -0.35382  -0.33592  -0.32898  -0.30978  -0.30394
 Alpha  occ. eigenvalues --   -0.26518  -0.24599  -0.20004  -0.16261
 Alpha virt. eigenvalues --   -0.13201  -0.07762  -0.02969   0.02125   0.04017
 Alpha virt. eigenvalues --    0.04795   0.05801   0.07665   0.09627   0.10164
 Alpha virt. eigenvalues --    0.11233   0.13008   0.13644   0.14459   0.15242
 Alpha virt. eigenvalues --    0.17170   0.19679   0.20798   0.22779   0.23332
 Alpha virt. eigenvalues --    0.23886   0.25513   0.26379   0.29531   0.30509
 Alpha virt. eigenvalues --    0.30996   0.31278   0.32175   0.33064   0.33388
 Alpha virt. eigenvalues --    0.34085   0.35240   0.37775   0.38292   0.38849
 Alpha virt. eigenvalues --    0.39536   0.40008   0.42848   0.43448   0.44423
 Alpha virt. eigenvalues --    0.46257   0.46523   0.48090   0.48289   0.48708
 Alpha virt. eigenvalues --    0.50269   0.51360   0.51484   0.52007   0.52783
 Alpha virt. eigenvalues --    0.53907   0.54321   0.55271   0.56984   0.57163
 Alpha virt. eigenvalues --    0.59722   0.61040   0.61978   0.63393   0.64177
 Alpha virt. eigenvalues --    0.64988   0.66433   0.67452   0.68280   0.69282
 Alpha virt. eigenvalues --    0.70439   0.71565   0.72402   0.73438   0.73866
 Alpha virt. eigenvalues --    0.74446   0.75908   0.76095   0.76470   0.77289
 Alpha virt. eigenvalues --    0.78817   0.79638   0.80073   0.80423   0.81716
 Alpha virt. eigenvalues --    0.83208   0.83320   0.85067   0.85451   0.87330
 Alpha virt. eigenvalues --    0.87632   0.89026   0.90110   0.92024   0.92416
 Alpha virt. eigenvalues --    0.93563   0.94878   0.95597   0.97150   0.97885
 Alpha virt. eigenvalues --    0.98159   0.99617   1.02174   1.03562   1.04831
 Alpha virt. eigenvalues --    1.07582   1.09900   1.10609   1.13653   1.15132
 Alpha virt. eigenvalues --    1.16658   1.18525   1.21930   1.22399   1.23670
 Alpha virt. eigenvalues --    1.25428   1.26882   1.28142   1.29543   1.31930
 Alpha virt. eigenvalues --    1.32268   1.33100   1.34225   1.36027   1.38055
 Alpha virt. eigenvalues --    1.38872   1.41045   1.41843   1.44805   1.46324
 Alpha virt. eigenvalues --    1.46897   1.48287   1.49512   1.50762   1.52753
 Alpha virt. eigenvalues --    1.53205   1.53708   1.57021   1.57921   1.59507
 Alpha virt. eigenvalues --    1.62312   1.63062   1.65708   1.67192   1.68184
 Alpha virt. eigenvalues --    1.69193   1.70299   1.72035   1.73221   1.75548
 Alpha virt. eigenvalues --    1.76308   1.77958   1.78838   1.80305   1.80961
 Alpha virt. eigenvalues --    1.85804   1.86715   1.88610   1.89516   1.91746
 Alpha virt. eigenvalues --    1.93574   1.95192   1.97626   1.99044   2.00527
 Alpha virt. eigenvalues --    2.00783   2.02845   2.04130   2.05406   2.06145
 Alpha virt. eigenvalues --    2.08791   2.12105   2.12617   2.14293   2.15189
 Alpha virt. eigenvalues --    2.16449   2.20056   2.20955   2.22415   2.23202
 Alpha virt. eigenvalues --    2.24772   2.26877   2.28943   2.30553   2.31130
 Alpha virt. eigenvalues --    2.33166   2.35162   2.36618   2.36868   2.39533
 Alpha virt. eigenvalues --    2.40642   2.42487   2.43628   2.44803   2.48922
 Alpha virt. eigenvalues --    2.54784   2.57666   2.57754   2.62023   2.64504
 Alpha virt. eigenvalues --    2.67207   2.69822   2.71528   2.75642   2.76876
 Alpha virt. eigenvalues --    2.77393   2.79264   2.80958   2.82403   2.85146
 Alpha virt. eigenvalues --    2.86471   2.86690   2.89976   2.90137   2.93107
 Alpha virt. eigenvalues --    2.93711   2.94969   2.96533   2.98563   2.99105
 Alpha virt. eigenvalues --    3.00442   3.02097   3.03061   3.04990   3.06833
 Alpha virt. eigenvalues --    3.09187   3.09609   3.12156   3.13806   3.14072
 Alpha virt. eigenvalues --    3.14770   3.16242   3.17673   3.18149   3.21760
 Alpha virt. eigenvalues --    3.23218   3.24718   3.26178   3.27612   3.29567
 Alpha virt. eigenvalues --    3.30559   3.31653   3.33430   3.35564   3.37251
 Alpha virt. eigenvalues --    3.37959   3.39078   3.39679   3.41702   3.43456
 Alpha virt. eigenvalues --    3.45301   3.47939   3.48447   3.49990   3.52562
 Alpha virt. eigenvalues --    3.53758   3.54605   3.56822   3.58259   3.59445
 Alpha virt. eigenvalues --    3.60571   3.64382   3.64457   3.67329   3.69731
 Alpha virt. eigenvalues --    3.70292   3.71321   3.73223   3.78947   3.79537
 Alpha virt. eigenvalues --    3.81246   3.83117   3.84950   3.87716   3.89538
 Alpha virt. eigenvalues --    3.91345   3.93261   3.93971   3.95156   3.98841
 Alpha virt. eigenvalues --    4.02368   4.03232   4.06991   4.08892   4.10394
 Alpha virt. eigenvalues --    4.14576   4.17761   4.19023   4.23212   4.24472
 Alpha virt. eigenvalues --    4.25014   4.26942   4.28902   4.29919   4.32435
 Alpha virt. eigenvalues --    4.33172   4.33753   4.37914   4.39233   4.41317
 Alpha virt. eigenvalues --    4.43155   4.44347   4.44944   4.47408   4.48743
 Alpha virt. eigenvalues --    4.50368   4.52310   4.53193   4.54180   4.54943
 Alpha virt. eigenvalues --    4.57284   4.59805   4.61314   4.62789   4.64578
 Alpha virt. eigenvalues --    4.66617   4.67113   4.71618   4.72883   4.73471
 Alpha virt. eigenvalues --    4.75451   4.78861   4.80347   4.83599   4.85725
 Alpha virt. eigenvalues --    4.86066   4.87667   4.89275   4.92937   4.98133
 Alpha virt. eigenvalues --    5.01533   5.03258   5.07582   5.08997   5.13013
 Alpha virt. eigenvalues --    5.14745   5.18959   5.23962   5.26083   5.27025
 Alpha virt. eigenvalues --    5.34081   5.38910   5.40537   5.43418   5.46799
 Alpha virt. eigenvalues --    5.53719   5.58296   5.65036   5.70366   5.76330
 Alpha virt. eigenvalues --    5.78535   5.86406   5.91012   6.02210   6.25028
 Alpha virt. eigenvalues --    6.67025   9.90356   9.97286  10.23846  10.52676
 Alpha virt. eigenvalues --   10.84117  11.21747  11.30280  11.53183  11.76327
 Alpha virt. eigenvalues --   11.95029  12.23406  14.65520
          Condensed to atoms (all electrons):
               1          2          3          4          5          6
     1  C    5.172526   0.516712  -0.048113   0.001914   0.000725  -0.000208
     2  C    0.516712   4.400386   0.411126  -0.002621  -0.015409  -0.000870
     3  C   -0.048113   0.411126   4.966494   0.605839  -0.015027  -0.017603
     4  C    0.001914  -0.002621   0.605839   4.713337   0.465950   0.004372
     5  C    0.000725  -0.015409  -0.015027   0.465950   4.996077   0.552859
     6  C   -0.000208  -0.000870  -0.017603   0.004372   0.552859   4.753746
     7  C   -0.000006  -0.000258   0.000698   0.004644  -0.013710   0.408874
     8  C   -0.000000   0.000005  -0.000043   0.000311  -0.021818   0.008187
     9  C    0.000000   0.000000  -0.000000  -0.000012   0.000463   0.004213
    10  C   -0.000000   0.000000  -0.000000  -0.000000  -0.000059   0.001071
    11  S   -0.000000  -0.000000   0.000000   0.000000   0.000025   0.000093
    12  S    0.004766  -0.073193   0.000238  -0.011089  -0.042516   0.251177
    13  N   -0.026880   0.455654  -0.048337  -0.008180   0.002384  -0.020928
    14  H    0.360140  -0.014945  -0.004603   0.000592  -0.000014   0.000007
    15  H    0.344422   0.000932   0.004723  -0.000123  -0.000013   0.000023
    16  H   -0.010281  -0.049238   0.353198  -0.027446   0.005980   0.000197
    17  H   -0.000263   0.005700  -0.037098   0.359027  -0.049977   0.004718
    18  H    0.000005   0.000117   0.004795  -0.038895   0.353984  -0.038909
    19  H    0.000000   0.000022  -0.000015  -0.000064   0.005266  -0.044859
    20  H   -0.000000   0.000002  -0.000024  -0.000014   0.006016  -0.009945
    21  H   -0.000000   0.000000  -0.000000  -0.000000   0.000000  -0.000033
    22  H    0.000000   0.000000  -0.000000  -0.000000  -0.000000   0.000000
               7          8          9         10         11         12
     1  C   -0.000006  -0.000000   0.000000  -0.000000  -0.000000   0.004766
     2  C   -0.000258   0.000005   0.000000   0.000000  -0.000000  -0.073193
     3  C    0.000698  -0.000043  -0.000000  -0.000000   0.000000   0.000238
     4  C    0.004644   0.000311  -0.000012  -0.000000   0.000000  -0.011089
     5  C   -0.013710  -0.021818   0.000463  -0.000059   0.000025  -0.042516
     6  C    0.408874   0.008187   0.004213   0.001071   0.000093   0.251177
     7  C    5.019114   0.498488   0.001549  -0.032202   0.004451  -0.028392
     8  C    0.498488   4.900204   0.466095  -0.012551  -0.016905   0.001694
     9  C    0.001549   0.466095   4.737366   0.610429  -0.037451  -0.000197
    10  C   -0.032202  -0.012551   0.610429   5.176410   0.422398  -0.000107
    11  S    0.004451  -0.016905  -0.037451   0.422398  15.452149  -0.000070
    12  S   -0.028392   0.001694  -0.000197  -0.000107  -0.000070  15.379229
    13  N   -0.000584  -0.000025   0.000000   0.000000  -0.000000   0.455379
    14  H    0.000000   0.000000  -0.000000  -0.000000   0.000000  -0.000281
    15  H    0.000000   0.000000  -0.000000   0.000000  -0.000000   0.000214
    16  H    0.000004  -0.000000   0.000000  -0.000000   0.000000  -0.000404
    17  H   -0.000190   0.000005  -0.000000   0.000000  -0.000000  -0.000124
    18  H   -0.020743   0.005644   0.000062  -0.000012   0.000005   0.006166
    19  H    0.362707  -0.044077  -0.009591   0.001222   0.003993  -0.005070
    20  H   -0.057229   0.354548  -0.038763   0.007945  -0.000279  -0.000186
    21  H    0.004750  -0.048813   0.370015  -0.050810   0.005958   0.000001
    22  H   -0.000046   0.000118  -0.001675  -0.039769   0.263354  -0.000002
              13         14         15         16         17         18
     1  C   -0.026880   0.360140   0.344422  -0.010281  -0.000263   0.000005
     2  C    0.455654  -0.014945   0.000932  -0.049238   0.005700   0.000117
     3  C   -0.048337  -0.004603   0.004723   0.353198  -0.037098   0.004795
     4  C   -0.008180   0.000592  -0.000123  -0.027446   0.359027  -0.038895
     5  C    0.002384  -0.000014  -0.000013   0.005980  -0.049977   0.353984
     6  C   -0.020928   0.000007   0.000023   0.000197   0.004718  -0.038909
     7  C   -0.000584   0.000000   0.000000   0.000004  -0.000190  -0.020743
     8  C   -0.000025   0.000000   0.000000  -0.000000   0.000005   0.005644
     9  C    0.000000  -0.000000  -0.000000   0.000000  -0.000000   0.000062
    10  C    0.000000  -0.000000   0.000000  -0.000000   0.000000  -0.000012
    11  S   -0.000000   0.000000  -0.000000   0.000000  -0.000000   0.000005
    12  S    0.455379  -0.000281   0.000214  -0.000404  -0.000124   0.006166
    13  N    6.505823   0.002549  -0.003000   0.004042  -0.000037  -0.000138
    14  H    0.002549   0.559578  -0.036724   0.002987  -0.000012   0.000000
    15  H   -0.003000  -0.036724   0.551872  -0.000046   0.000004  -0.000000
    16  H    0.004042   0.002987  -0.000046   0.653623  -0.014027  -0.000244
    17  H   -0.000037  -0.000012   0.000004  -0.014027   0.651788  -0.009789
    18  H   -0.000138   0.000000  -0.000000  -0.000244  -0.009789   0.648912
    19  H    0.000038  -0.000000  -0.000000  -0.000000   0.000003  -0.000165
    20  H    0.000002  -0.000000   0.000000  -0.000000   0.000016   0.003467
    21  H    0.000000   0.000000   0.000000  -0.000000   0.000000  -0.000004
    22  H    0.000000  -0.000000   0.000000  -0.000000   0.000000  -0.000000
              19         20         21         22
     1  C    0.000000  -0.000000  -0.000000   0.000000
     2  C    0.000022   0.000002   0.000000   0.000000
     3  C   -0.000015  -0.000024  -0.000000  -0.000000
     4  C   -0.000064  -0.000014  -0.000000  -0.000000
     5  C    0.005266   0.006016   0.000000  -0.000000
     6  C   -0.044859  -0.009945  -0.000033   0.000000
     7  C    0.362707  -0.057229   0.004750  -0.000046
     8  C   -0.044077   0.354548  -0.048813   0.000118
     9  C   -0.009591  -0.038763   0.370015  -0.001675
    10  C    0.001222   0.007945  -0.050810  -0.039769
    11  S    0.003993  -0.000279   0.005958   0.263354
    12  S   -0.005070  -0.000186   0.000001  -0.000002
    13  N    0.000038   0.000002   0.000000   0.000000
    14  H   -0.000000  -0.000000   0.000000  -0.000000
    15  H   -0.000000   0.000000   0.000000   0.000000
    16  H   -0.000000  -0.000000  -0.000000  -0.000000
    17  H    0.000003   0.000016   0.000000   0.000000
    18  H   -0.000165   0.003467  -0.000004  -0.000000
    19  H    0.593663   0.006188  -0.000118  -0.000036
    20  H    0.006188   0.630587  -0.008973   0.000005
    21  H   -0.000118  -0.008973   0.600735  -0.000071
    22  H   -0.000036   0.000005  -0.000071   0.606210
 Mulliken charges:
               1
     1  C   -0.315459
     2  C    0.365878
     3  C   -0.176249
     4  C   -0.067541
     5  C   -0.231184
     6  C    0.143820
     7  C   -0.151920
     8  C   -0.091065
     9  C   -0.102504
    10  C   -0.083967
    11  S   -0.097720
    12  S    0.062766
    13  N   -0.317762
    14  H    0.130727
    15  H    0.137717
    16  H    0.081654
    17  H    0.090255
    18  H    0.085743
    19  H    0.130895
    20  H    0.106639
    21  H    0.127363
    22  H    0.171913
 Sum of Mulliken charges =  -0.00000
 Mulliken charges with hydrogens summed into heavy atoms:
               1
     1  C   -0.047015
     2  C    0.365878
     3  C   -0.094594
     4  C    0.022714
     5  C   -0.145441
     6  C    0.143820
     7  C   -0.021025
     8  C    0.015573
     9  C    0.024859
    10  C   -0.083967
    11  S    0.074193
    12  S    0.062766
    13  N   -0.317762
 APT charges:
               1
     1  C   -0.007169
     2  C    0.010214
     3  C   -0.215166
     4  C    0.253838
     5  C   -0.322315
     6  C    0.112829
     7  C    0.056120
     8  C   -0.081751
     9  C    0.118979
    10  C   -0.489732
    11  S    0.323525
    12  S    0.406957
    13  N   -0.395583
    14  H    0.036864
    15  H    0.059778
    16  H    0.006917
    17  H    0.002656
    18  H    0.018534
    19  H    0.008073
    20  H    0.069852
    21  H    0.103062
    22  H   -0.076484
 Sum of APT charges =  -0.00000
 APT charges with hydrogens summed into heavy atoms:
               1
     1  C    0.089472
     2  C    0.010214
     3  C   -0.208249
     4  C    0.256494
     5  C   -0.303781
     6  C    0.112829
     7  C    0.064193
     8  C   -0.011899
     9  C    0.222041
    10  C   -0.489732
    11  S    0.247042
    12  S    0.406957
    13  N   -0.395583
 Electronic spatial extent (au):  <R**2>=           4403.0618
 Charge=              0.0000 electrons
 Dipole moment (field-independent basis, Debye):
    X=             -0.9471    Y=              0.5106    Z=              0.3225  Tot=              1.1232
 Quadrupole moment (field-independent basis, Debye-Ang):
   XX=            -75.5666   YY=            -83.8920   ZZ=            -94.0744
   XY=              4.7569   XZ=             -2.0111   YZ=             -0.8429
 Traceless Quadrupole moment (field-independent basis, Debye-Ang):
   XX=              8.9444   YY=              0.6190   ZZ=             -9.5634
   XY=              4.7569   XZ=             -2.0111   YZ=             -0.8429
 Octapole moment (field-independent basis, Debye-Ang**2):
  XXX=             36.9152  YYY=              2.4214  ZZZ=              2.6129  XYY=            -22.1468
  XXY=            -29.2826  XXZ=              4.8787  XZZ=              1.9321  YZZ=             -3.4990
  YYZ=             -0.5161  XYZ=              6.8375
 Hexadecapole moment (field-independent basis, Debye-Ang**3):
 XXXX=          -4540.8950 YYYY=           -795.5891 ZZZZ=           -206.3697 XXXY=            132.8000
 XXXZ=            -84.3803 YYYX=             27.5657 YYYZ=             -1.4010 ZZZX=            -22.5411
 ZZZY=             -4.0723 XXYY=           -857.0109 XXZZ=           -935.5152 YYZZ=           -173.6069
 XXYZ=              6.9770 YYXZ=             11.0394 ZZXY=             -3.5749
 N-N= 8.616907135864D+02 E-N=-4.638085953558D+03  KE= 1.231478014336D+03
  Exact polarizability: 582.368 -19.631 168.481   4.489   0.337  81.061
 Approx polarizability:3275.480-475.579 423.205 101.456 -15.920 153.214
 PrsmSu:  requested number of processors reduced to:  13 ShMem   1 Linda.
 PrsmSu:  requested number of processors reduced to:  13 ShMem   1 Linda.
 Calling FoFJK, ICntrl=    100127 FMM=F ISym2X=0 I1Cent= 0 IOpClX= 0 NMat=1 NMatS=1 NMatT=0.
 CoulSu:  requested number of processors reduced to:  13 ShMem   1 Linda.
slurmstepd: error: *** JOB 27446626 ON lewis4-r630-hpc4rc-node351 CANCELLED AT 2023-05-17T05:26:05 DUE TO TIME LIMIT ***
