### Starting Gaussian ###
 Entering Gaussian System, Link 0=g16
 Initial command:
 /cluster/software/gaussian/gaussian-16-A.03/avx2/g16/l1.exe "/local/scratch/linjian/Gau-14472.inp" -scrdir="/local/scratch/linjian/"
 Entering Link 1 = /cluster/software/gaussian/gaussian-16-A.03/avx2/g16/l1.exe PID=     14473.
  
 Copyright (c) 1988,1990,1992,1993,1995,1998,2003,2009,2016,
            Gaussian, Inc.  All Rights Reserved.
  
 This is part of the Gaussian(R) 16 program.  It is based on
 the Gaussian(R) 09 system (copyright 2009, Gaussian, Inc.),
 the Gaussian(R) 03 system (copyright 2003, Gaussian, Inc.),
 the Gaussian(R) 98 system (copyright 1998, Gaussian, Inc.),
 the Gaussian(R) 94 system (copyright 1995, Gaussian, Inc.),
 the Gaussian 92(TM) system (copyright 1992, Gaussian, Inc.),
 the Gaussian 90(TM) system (copyright 1990, Gaussian, Inc.),
 the Gaussian 88(TM) system (copyright 1988, Gaussian, Inc.),
 the Gaussian 86(TM) system (copyright 1986, Carnegie Mellon
 University), and the Gaussian 82(TM) system (copyright 1983,
 Carnegie Mellon University). Gaussian is a federally registered
 trademark of Gaussian, Inc.
  
 This software contains proprietary and confidential information,
 including trade secrets, belonging to Gaussian, Inc.
  
 This software is provided under written license and may be
 used, copied, transmitted, or stored only in accord with that
 written license.
  
 The following legend is applicable only to US Government
 contracts under FAR:
  
                    RESTRICTED RIGHTS LEGEND
  
 Use, reproduction and disclosure by the US Government is
 subject to restrictions as set forth in subparagraphs (a)
 and (c) of the Commercial Computer Software - Restricted
 Rights clause in FAR 52.227-19.
  
 Gaussian, Inc.
 340 Quinnipiac St., Bldg. 40, Wallingford CT 06492
  
  
 ---------------------------------------------------------------
 Warning -- This program may not be used in any manner that
 competes with the business of Gaussian, Inc. or will provide
 assistance to any competitor of Gaussian, Inc.  The licensee
 of this program is prohibited from giving any competitor of
 Gaussian, Inc. access to this program.  By using this program,
 the user acknowledges that Gaussian, Inc. is engaged in the
 business of creating and licensing software in the field of
 computational chemistry and represents and warrants to the
 licensee that it is not a competitor of Gaussian, Inc. and that
 it will not use this program in any manner prohibited above.
 ---------------------------------------------------------------
  

 Cite this work as:
 Gaussian 16, Revision A.03,
 M. J. Frisch, G. W. Trucks, H. B. Schlegel, G. E. Scuseria, 
 M. A. Robb, J. R. Cheeseman, G. Scalmani, V. Barone, 
 G. A. Petersson, H. Nakatsuji, X. Li, M. Caricato, A. V. Marenich, 
 J. Bloino, B. G. Janesko, R. Gomperts, B. Mennucci, H. P. Hratchian, 
 J. V. Ortiz, A. F. Izmaylov, J. L. Sonnenberg, D. Williams-Young, 
 F. Ding, F. Lipparini, F. Egidi, J. Goings, B. Peng, A. Petrone, 
 T. Henderson, D. Ranasinghe, V. G. Zakrzewski, J. Gao, N. Rega, 
 G. Zheng, W. Liang, M. Hada, M. Ehara, K. Toyota, R. Fukuda, 
 J. Hasegawa, M. Ishida, T. Nakajima, Y. Honda, O. Kitao, H. Nakai, 
 T. Vreven, K. Throssell, J. A. Montgomery, Jr., J. E. Peralta, 
 F. Ogliaro, M. J. Bearpark, J. J. Heyd, E. N. Brothers, K. N. Kudin, 
 V. N. Staroverov, T. A. Keith, R. Kobayashi, J. Normand, 
 K. Raghavachari, A. P. Rendell, J. C. Burant, S. S. Iyengar, 
 J. Tomasi, M. Cossi, J. M. Millam, M. Klene, C. Adamo, R. Cammi, 
 J. W. Ochterski, R. L. Martin, K. Morokuma, O. Farkas, 
 J. B. Foresman, and D. J. Fox, Gaussian, Inc., Wallingford CT, 2016.
 
 ******************************************
 Gaussian 16:  ES64L-G16RevA.03 25-Dec-2016
                19-May-2023 
 ******************************************
 %chk=CdC1CdCC2dCCdC1SCdCC2SCCSC.chk
 %NProcShared=20
 Will use up to   20 processors via shared memory.
 -----------------------------
 # opt freq b3lyp/6-31g(2df,p)
 -----------------------------
 1/18=20,19=15,26=3,38=1/1,3;
 2/9=110,12=2,17=6,18=5,40=1/2;
 3/5=1,6=6,7=104,11=2,25=1,30=1,71=1,74=-5/1,2,3;
 4//1;
 5/5=2,38=5/2;
 6/7=2,8=2,9=2,10=2,28=1/1;
 7//1,2,3,16;
 1/18=20,19=15,26=3/3(2);
 2/9=110/2;
 99//99;
 2/9=110/2;
 3/5=1,6=6,7=104,11=2,25=1,30=1,71=1,74=-5/1,2,3;
 4/5=5,16=3,69=1/1;
 5/5=2,38=5/2;
 7//1,2,3,16;
 1/18=20,19=15,26=3/3(-5);
 2/9=110/2;
 6/7=2,8=2,9=2,10=2,19=2,28=1/1;
 99/9=1/99;
 -------------------
 Title Card Required
 -------------------
 Symbolic Z-matrix:
 Charge =  0 Multiplicity = 1
 C                     1.60054  -0.20656  -0.46271 
 C                     2.89892   0.04681  -0.79829 
 C                     3.24351   1.38878  -0.4086 
 C                     4.44365   1.6981    0.12181 
 C                     5.59281   0.8346    0.40405 
 C                     5.53016  -0.51002   0.66678 
 C                     4.48446  -1.40059   0.12491 
 C                     3.99278  -0.9903   -1.06558 
 S                     5.34155  -0.62596  -2.442 
 C                     7.02817  -0.41696  -1.66824 
 C                     7.48026   0.81253  -1.28761 
 C                     6.99245   1.42775   0.05361 
 S                     6.85238   3.28558  -0.10401 
 C                     8.53904   3.88869  -0.08327 
 C                     8.44794   5.42569  -0.08597 
 S                     10.14915   6.08323  -0.10114 
 C                     9.82881   7.86476  -0.10606 
 H                     0.96175   0.60715  -0.08847 
 H                     1.10304  -1.16491  -0.4159 
 H                     2.48611   2.16529  -0.36958 
 H                     4.51454   2.74969   0.35107 
 H                     6.44256  -1.0828    0.82463 
 H                     4.80551  -2.44682   0.13751 
 H                     7.38389  -1.23889  -1.03532 
 H                     7.63821   1.55995  -2.06568 
 H                     7.67748   1.20291   0.87658 
 H                     9.04788   3.52667  -0.97977 
 H                     9.04496   3.52554   0.81528 
 H                     7.9182    5.78941   0.80522 
 H                     7.90533   5.78488  -0.97122 
 H                     10.79999   8.36892  -0.11597 
 H                     9.29411   8.1802    0.79371 
 H                     9.27896   8.17412  -0.99884 
 

 GradGradGradGradGradGradGradGradGradGradGradGradGradGradGradGradGradGrad
 Berny optimization.
 Initialization pass.
                           ----------------------------
                           !    Initial Parameters    !
                           ! (Angstroms and Degrees)  !
 --------------------------                            --------------------------
 ! Name  Definition              Value          Derivative Info.                !
 --------------------------------------------------------------------------------
 ! R1    R(1,2)                  1.3648         estimate D2E/DX2                !
 ! R2    R(1,18)                 1.1001         estimate D2E/DX2                !
 ! R3    R(1,19)                 1.0808         estimate D2E/DX2                !
 ! R4    R(2,3)                  1.4393         estimate D2E/DX2                !
 ! R5    R(2,8)                  1.5309         estimate D2E/DX2                !
 ! R6    R(3,4)                  1.3481         estimate D2E/DX2                !
 ! R7    R(3,20)                 1.0854         estimate D2E/DX2                !
 ! R8    R(4,5)                  1.4649         estimate D2E/DX2                !
 ! R9    R(4,21)                 1.0786         estimate D2E/DX2                !
 ! R10   R(5,6)                  1.3715         estimate D2E/DX2                !
 ! R11   R(5,12)                 1.56           estimate D2E/DX2                !
 ! R12   R(6,7)                  1.4766         estimate D2E/DX2                !
 ! R13   R(6,22)                 1.0888         estimate D2E/DX2                !
 ! R14   R(7,8)                  1.3518         estimate D2E/DX2                !
 ! R15   R(7,23)                 1.0945         estimate D2E/DX2                !
 ! R16   R(8,9)                  1.9612         estimate D2E/DX2                !
 ! R17   R(9,10)                 1.8674         estimate D2E/DX2                !
 ! R18   R(10,11)                1.3642         estimate D2E/DX2                !
 ! R19   R(10,24)                1.0967         estimate D2E/DX2                !
 ! R20   R(11,12)                1.5541         estimate D2E/DX2                !
 ! R21   R(11,25)                1.0904         estimate D2E/DX2                !
 ! R22   R(12,13)                1.8698         estimate D2E/DX2                !
 ! R23   R(12,26)                1.0941         estimate D2E/DX2                !
 ! R24   R(13,14)                1.7914         estimate D2E/DX2                !
 ! R25   R(14,15)                1.5397         estimate D2E/DX2                !
 ! R26   R(14,27)                1.0926         estimate D2E/DX2                !
 ! R27   R(14,28)                1.0933         estimate D2E/DX2                !
 ! R28   R(15,16)                1.8239         estimate D2E/DX2                !
 ! R29   R(15,29)                1.0987         estimate D2E/DX2                !
 ! R30   R(15,30)                1.0987         estimate D2E/DX2                !
 ! R31   R(16,17)                1.8101         estimate D2E/DX2                !
 ! R32   R(17,31)                1.0943         estimate D2E/DX2                !
 ! R33   R(17,32)                1.0932         estimate D2E/DX2                !
 ! R34   R(17,33)                1.0932         estimate D2E/DX2                !
 ! A1    A(2,1,18)             119.9169         estimate D2E/DX2                !
 ! A2    A(2,1,19)             127.8198         estimate D2E/DX2                !
 ! A3    A(18,1,19)            111.9531         estimate D2E/DX2                !
 ! A4    A(1,2,3)              109.5299         estimate D2E/DX2                !
 ! A5    A(1,2,8)              126.6507         estimate D2E/DX2                !
 ! A6    A(3,2,8)              120.5218         estimate D2E/DX2                !
 ! A7    A(2,3,4)              122.25           estimate D2E/DX2                !
 ! A8    A(2,3,20)             120.6441         estimate D2E/DX2                !
 ! A9    A(4,3,20)             116.2902         estimate D2E/DX2                !
 ! A10   A(3,4,5)              129.7124         estimate D2E/DX2                !
 ! A11   A(3,4,21)             111.4591         estimate D2E/DX2                !
 ! A12   A(5,4,21)             118.8283         estimate D2E/DX2                !
 ! A13   A(4,5,6)              125.3802         estimate D2E/DX2                !
 ! A14   A(4,5,12)             115.8757         estimate D2E/DX2                !
 ! A15   A(6,5,12)             117.1804         estimate D2E/DX2                !
 ! A16   A(5,6,7)              123.599          estimate D2E/DX2                !
 ! A17   A(5,6,22)             120.3486         estimate D2E/DX2                !
 ! A18   A(7,6,22)             109.2311         estimate D2E/DX2                !
 ! A19   A(6,7,8)              113.4356         estimate D2E/DX2                !
 ! A20   A(6,7,23)             111.3825         estimate D2E/DX2                !
 ! A21   A(8,7,23)             114.015          estimate D2E/DX2                !
 ! A22   A(2,8,7)              108.1646         estimate D2E/DX2                !
 ! A23   A(2,8,9)              119.2143         estimate D2E/DX2                !
 ! A24   A(7,8,9)              115.1072         estimate D2E/DX2                !
 ! A25   A(8,9,10)             110.5569         estimate D2E/DX2                !
 ! A26   A(9,10,11)            121.0522         estimate D2E/DX2                !
 ! A27   A(9,10,24)            116.6296         estimate D2E/DX2                !
 ! A28   A(11,10,24)           114.0142         estimate D2E/DX2                !
 ! A29   A(10,11,12)           119.5748         estimate D2E/DX2                !
 ! A30   A(10,11,25)           117.8199         estimate D2E/DX2                !
 ! A31   A(12,11,25)           112.9501         estimate D2E/DX2                !
 ! A32   A(5,12,11)            108.9633         estimate D2E/DX2                !
 ! A33   A(5,12,13)            109.2397         estimate D2E/DX2                !
 ! A34   A(5,12,26)            108.3388         estimate D2E/DX2                !
 ! A35   A(11,12,13)           110.1268         estimate D2E/DX2                !
 ! A36   A(11,12,26)           111.7934         estimate D2E/DX2                !
 ! A37   A(13,12,26)           108.3306         estimate D2E/DX2                !
 ! A38   A(12,13,14)           105.2492         estimate D2E/DX2                !
 ! A39   A(13,14,15)           106.2815         estimate D2E/DX2                !
 ! A40   A(13,14,27)           108.5089         estimate D2E/DX2                !
 ! A41   A(13,14,28)           109.4749         estimate D2E/DX2                !
 ! A42   A(15,14,27)           110.9091         estimate D2E/DX2                !
 ! A43   A(15,14,28)           111.1254         estimate D2E/DX2                !
 ! A44   A(27,14,28)           110.4151         estimate D2E/DX2                !
 ! A45   A(14,15,16)           107.7404         estimate D2E/DX2                !
 ! A46   A(14,15,29)           110.9511         estimate D2E/DX2                !
 ! A47   A(14,15,30)           110.9153         estimate D2E/DX2                !
 ! A48   A(16,15,29)           109.7012         estimate D2E/DX2                !
 ! A49   A(16,15,30)           109.6384         estimate D2E/DX2                !
 ! A50   A(29,15,30)           107.8911         estimate D2E/DX2                !
 ! A51   A(15,16,17)           100.9395         estimate D2E/DX2                !
 ! A52   A(16,17,31)           107.2419         estimate D2E/DX2                !
 ! A53   A(16,17,32)           111.6126         estimate D2E/DX2                !
 ! A54   A(16,17,33)           111.7001         estimate D2E/DX2                !
 ! A55   A(31,17,32)           107.9758         estimate D2E/DX2                !
 ! A56   A(31,17,33)           107.9757         estimate D2E/DX2                !
 ! A57   A(32,17,33)           110.152          estimate D2E/DX2                !
 ! D1    D(18,1,2,3)             7.7209         estimate D2E/DX2                !
 ! D2    D(18,1,2,8)           167.0427         estimate D2E/DX2                !
 ! D3    D(19,1,2,3)          -165.3395         estimate D2E/DX2                !
 ! D4    D(19,1,2,8)            -6.0177         estimate D2E/DX2                !
 ! D5    D(1,2,3,4)            140.4289         estimate D2E/DX2                !
 ! D6    D(1,2,3,20)           -28.8423         estimate D2E/DX2                !
 ! D7    D(8,2,3,4)            -20.3707         estimate D2E/DX2                !
 ! D8    D(8,2,3,20)           170.3581         estimate D2E/DX2                !
 ! D9    D(1,2,8,7)            -81.4787         estimate D2E/DX2                !
 ! D10   D(1,2,8,9)            144.4842         estimate D2E/DX2                !
 ! D11   D(3,2,8,7)             75.7947         estimate D2E/DX2                !
 ! D12   D(3,2,8,9)            -58.2425         estimate D2E/DX2                !
 ! D13   D(2,3,4,5)              0.2773         estimate D2E/DX2                !
 ! D14   D(2,3,4,21)          -179.886          estimate D2E/DX2                !
 ! D15   D(20,3,4,5)           169.9867         estimate D2E/DX2                !
 ! D16   D(20,3,4,21)          -10.1766         estimate D2E/DX2                !
 ! D17   D(3,4,5,6)            -26.7261         estimate D2E/DX2                !
 ! D18   D(3,4,5,12)           138.5458         estimate D2E/DX2                !
 ! D19   D(21,4,5,6)           153.4474         estimate D2E/DX2                !
 ! D20   D(21,4,5,12)          -41.2807         estimate D2E/DX2                !
 ! D21   D(4,5,6,7)             29.4868         estimate D2E/DX2                !
 ! D22   D(4,5,6,22)           177.3976         estimate D2E/DX2                !
 ! D23   D(12,5,6,7)          -135.6128         estimate D2E/DX2                !
 ! D24   D(12,5,6,22)           12.298          estimate D2E/DX2                !
 ! D25   D(4,5,12,11)         -101.6263         estimate D2E/DX2                !
 ! D26   D(4,5,12,13)           18.7245         estimate D2E/DX2                !
 ! D27   D(4,5,12,26)          136.5392         estimate D2E/DX2                !
 ! D28   D(6,5,12,11)           64.8991         estimate D2E/DX2                !
 ! D29   D(6,5,12,13)         -174.75           estimate D2E/DX2                !
 ! D30   D(6,5,12,26)          -56.9354         estimate D2E/DX2                !
 ! D31   D(5,6,7,8)             28.7908         estimate D2E/DX2                !
 ! D32   D(5,6,7,23)           159.0375         estimate D2E/DX2                !
 ! D33   D(22,6,7,8)          -122.1617         estimate D2E/DX2                !
 ! D34   D(22,6,7,23)            8.0851         estimate D2E/DX2                !
 ! D35   D(6,7,8,2)            -84.0325         estimate D2E/DX2                !
 ! D36   D(6,7,8,9)             52.1061         estimate D2E/DX2                !
 ! D37   D(23,7,8,2)           147.0528         estimate D2E/DX2                !
 ! D38   D(23,7,8,9)           -76.8086         estimate D2E/DX2                !
 ! D39   D(2,8,9,10)           113.4963         estimate D2E/DX2                !
 ! D40   D(7,8,9,10)           -17.5363         estimate D2E/DX2                !
 ! D41   D(8,9,10,11)          -91.3144         estimate D2E/DX2                !
 ! D42   D(8,9,10,24)           55.1254         estimate D2E/DX2                !
 ! D43   D(9,10,11,12)          79.4682         estimate D2E/DX2                !
 ! D44   D(9,10,11,25)         -64.277          estimate D2E/DX2                !
 ! D45   D(24,10,11,12)        -67.7802         estimate D2E/DX2                !
 ! D46   D(24,10,11,25)        148.4747         estimate D2E/DX2                !
 ! D47   D(10,11,12,5)         -26.2423         estimate D2E/DX2                !
 ! D48   D(10,11,12,13)       -146.0452         estimate D2E/DX2                !
 ! D49   D(10,11,12,26)         93.4728         estimate D2E/DX2                !
 ! D50   D(25,11,12,5)         119.1479         estimate D2E/DX2                !
 ! D51   D(25,11,12,13)         -0.655          estimate D2E/DX2                !
 ! D52   D(25,11,12,26)       -121.137          estimate D2E/DX2                !
 ! D53   D(5,12,13,14)         165.9096         estimate D2E/DX2                !
 ! D54   D(11,12,13,14)        -74.4551         estimate D2E/DX2                !
 ! D55   D(26,12,13,14)         48.0898         estimate D2E/DX2                !
 ! D56   D(12,13,14,15)       -175.1039         estimate D2E/DX2                !
 ! D57   D(12,13,14,27)         65.5653         estimate D2E/DX2                !
 ! D58   D(12,13,14,28)        -55.0022         estimate D2E/DX2                !
 ! D59   D(13,14,15,16)       -178.8114         estimate D2E/DX2                !
 ! D60   D(13,14,15,29)         61.0897         estimate D2E/DX2                !
 ! D61   D(13,14,15,30)        -58.8104         estimate D2E/DX2                !
 ! D62   D(27,14,15,16)        -61.0616         estimate D2E/DX2                !
 ! D63   D(27,14,15,29)        178.8395         estimate D2E/DX2                !
 ! D64   D(27,14,15,30)         58.9394         estimate D2E/DX2                !
 ! D65   D(28,14,15,16)         62.1633         estimate D2E/DX2                !
 ! D66   D(28,14,15,29)        -57.9356         estimate D2E/DX2                !
 ! D67   D(28,14,15,30)       -177.8357         estimate D2E/DX2                !
 ! D68   D(14,15,16,17)        179.8865         estimate D2E/DX2                !
 ! D69   D(29,15,16,17)        -59.2282         estimate D2E/DX2                !
 ! D70   D(30,15,16,17)         59.0815         estimate D2E/DX2                !
 ! D71   D(15,16,17,31)       -179.9603         estimate D2E/DX2                !
 ! D72   D(15,16,17,32)         61.971          estimate D2E/DX2                !
 ! D73   D(15,16,17,33)        -61.8424         estimate D2E/DX2                !
 --------------------------------------------------------------------------------
 Trust Radius=3.00D-01 FncErr=1.00D-07 GrdErr=1.00D-06 EigMax=2.50D+02 EigMin=1.00D-04
 Number of steps in this run=    174 maximum allowed number of steps=    198.
 GradGradGradGradGradGradGradGradGradGradGradGradGradGradGradGradGradGrad

                          Input orientation:                          
 ---------------------------------------------------------------------
 Center     Atomic      Atomic             Coordinates (Angstroms)
 Number     Number       Type             X           Y           Z
 ---------------------------------------------------------------------
      1          6           0        1.600540   -0.206560   -0.462710
      2          6           0        2.898920    0.046810   -0.798290
      3          6           0        3.243510    1.388780   -0.408600
      4          6           0        4.443650    1.698100    0.121810
      5          6           0        5.592810    0.834600    0.404050
      6          6           0        5.530160   -0.510020    0.666780
      7          6           0        4.484460   -1.400590    0.124910
      8          6           0        3.992780   -0.990300   -1.065580
      9         16           0        5.341550   -0.625960   -2.442000
     10          6           0        7.028170   -0.416960   -1.668240
     11          6           0        7.480260    0.812530   -1.287610
     12          6           0        6.992450    1.427750    0.053610
     13         16           0        6.852380    3.285580   -0.104010
     14          6           0        8.539040    3.888690   -0.083270
     15          6           0        8.447940    5.425690   -0.085970
     16         16           0       10.149150    6.083230   -0.101140
     17          6           0        9.828810    7.864760   -0.106060
     18          1           0        0.961750    0.607150   -0.088470
     19          1           0        1.103040   -1.164910   -0.415900
     20          1           0        2.486110    2.165290   -0.369580
     21          1           0        4.514540    2.749690    0.351070
     22          1           0        6.442560   -1.082800    0.824630
     23          1           0        4.805510   -2.446820    0.137510
     24          1           0        7.383890   -1.238890   -1.035320
     25          1           0        7.638210    1.559950   -2.065680
     26          1           0        7.677480    1.202910    0.876580
     27          1           0        9.047880    3.526670   -0.979770
     28          1           0        9.044960    3.525540    0.815280
     29          1           0        7.918200    5.789410    0.805220
     30          1           0        7.905330    5.784880   -0.971220
     31          1           0       10.799990    8.368920   -0.115970
     32          1           0        9.294110    8.180200    0.793710
     33          1           0        9.278960    8.174120   -0.998840
 ---------------------------------------------------------------------
                    Distance matrix (angstroms):
                    1          2          3          4          5
     1  C    0.000000
     2  C    1.364771   0.000000
     3  C    2.290718   1.439265   0.000000
     4  C    3.471695   2.441216   1.348091   0.000000
     5  C    4.215864   3.053404   2.546905   1.464876   0.000000
     6  C    4.099969   3.062664   3.160799   2.520573   1.371479
     7  C    3.176161   2.336921   3.099222   3.098960   2.510465
     8  C    2.588535   1.530873   2.579351   2.973327   2.837282
     9  S    4.253074   3.020073   3.549037   3.574997   3.208795
    10  C    5.563878   4.245303   4.378475   3.789129   2.814435
    11  C    6.024127   4.670593   4.365177   3.462903   2.534693
    12  C    5.657760   4.403376   3.777527   2.564005   1.560009
    13  S    6.317082   5.157664   4.088345   2.893625   2.802132
    14  C    8.065843   6.861651   5.864983   4.648974   4.271442
    15  C    8.874179   7.760887   6.594454   5.474709   5.428627
    16  S   10.619366   9.459927   8.355852   7.199431   6.968757
    17  C   11.531601  10.470096   9.240997   8.190212   8.223567
    18  H    1.100106   2.137862   2.433076   3.654862   4.662727
    19  H    1.080802   2.199926   3.332116   4.432340   4.982810
    20  H    2.533492   2.200491   1.085424   2.071640   3.467106
    21  H    4.230017   3.352136   2.011142   1.078623   2.198418
    22  H    5.086276   4.057989   4.226522   3.496141   2.139015
    23  H    3.956117   3.275515   4.177309   4.160715   3.385056
    24  H    5.902603   4.671634   4.943700   4.313916   3.095014
    25  H    6.491805   5.133882   4.699851   3.874198   3.287759
    26  H    6.380400   5.193880   4.620208   3.357461   2.169052
    27  H    8.346690   7.067678   6.211885   5.075045   4.593442
    28  H    8.425035   7.244238   6.302416   4.999249   4.396318
    29  H    8.801825   7.793707   6.533883   5.410949   5.488034
    30  H    8.712423   7.617053   6.432325   5.466234   5.634216
    31  H   12.581294  11.495651  10.291180   9.217344   9.173392
    32  H   11.450212  10.468283   9.174895   8.123794   8.234640
    33  H   11.378988  10.334326   9.100323   8.159345   8.332128
                    6          7          8          9         10
     6  C    0.000000
     7  C    1.476559   0.000000
     8  C    2.365434   1.351796   0.000000
     9  S    3.116653   2.814904   1.961238   0.000000
    10  C    2.775790   3.263951   3.147302   1.867370   0.000000
    11  C    3.061318   3.983457   3.932176   2.824172   1.364152
    12  C    2.503841   3.780821   4.012178   3.629224   2.523687
    13  S    4.092550   5.255439   5.233075   4.800932   4.023247
    14  C    5.381875   6.667791   6.740768   6.014118   4.830474
    15  C    6.656780   7.896312   7.872294   7.198820   6.217386
    16  S    8.086762   9.388683   9.426869   8.579387   7.378942
    17  C    9.445243  10.698698  10.648569   9.883544   8.880928
    18  H    4.763281   4.060300   3.562827   5.122725   6.351844
    19  H    4.604397   3.432495   2.967014   4.728691   6.102045
    20  H    4.183009   4.117453   3.565420   4.498837   5.383757
    21  H    3.428829   4.156546   4.033194   4.458722   4.519250
    22  H    1.088792   2.103510   3.095621   3.477326   2.645880
    23  H    2.134582   1.094454   2.056552   3.202615   3.510168
    24  H    2.620059   3.127135   3.400344   2.554522   1.096674
    25  H    4.024300   4.848672   4.559949   3.192877   2.106723
    26  H    2.754837   4.187911   4.707353   4.451327   3.085724
    27  H    5.601816   6.806101   6.779706   5.754940   4.483909
    28  H    5.353654   6.748446   7.032423   6.446710   5.077265
    29  H    6.738302   7.996843   8.054395   7.638098   6.740118
    30  H    6.924611   8.033357   7.824322   7.059393   6.302227
    31  H   10.354679  11.635603  11.611842  10.775567   9.686478
    32  H    9.471185  10.741116  10.754493  10.180423   9.225337
    33  H    9.604274  10.766853  10.579922   9.748196   8.906223
                   11         12         13         14         15
    11  C    0.000000
    12  C    1.554132   0.000000
    13  S    2.812671   1.869758   0.000000
    14  C    3.469036   2.909794   1.791366   0.000000
    15  C    4.864318   4.256931   2.669496   1.539700   0.000000
    16  S    6.025858   5.626917   4.323835   2.721907   1.823926
    17  C    7.526333   7.036017   5.461504   4.180091   2.802903
    18  H    6.631070   6.087932   6.470993   8.257352   8.902886
    19  H    6.733430   6.451936   7.277297   8.996867   9.873825
    20  H    5.254928   4.585865   4.515517   6.300003   6.801034
    21  H    3.902993   2.824189   2.441264   4.205065   4.777407
    22  H    3.021697   2.683228   4.484760   5.471309   6.871039
    23  H    4.450687   4.449948   6.091668   7.357083   8.677192
    24  H    2.069121   2.906882   4.649803   5.341615   6.815431
    25  H    1.090403   2.219431   2.728274   3.188177   4.418015
    26  H    2.207943   1.094120   2.445375   2.979431   4.399089
    27  H    3.149405   3.114182   2.375984   1.092561   2.182907
    28  H    3.772381   3.032105   2.389578   1.093263   2.186151
    29  H    5.416739   4.521726   2.869118   2.188057   1.098698
    30  H    5.000505   4.568173   2.847325   2.187597   1.098686
    31  H    8.336209   7.918709   6.436157   5.018508   3.767710
    32  H    7.867942   7.172236   5.543036   4.444804   3.012834
    33  H    7.583648   7.200645   5.530537   4.444171   3.012938
                   16         17         18         19         20
    16  S    0.000000
    17  C    1.810108   0.000000
    18  H   10.695603  11.458532   0.000000
    19  H   11.595978  12.560653   1.807587   0.000000
    20  H    8.610720   9.298852   2.197839   3.606281   0.000000
    21  H    6.562455   7.390154   4.172049   5.248873   2.230558
    22  H    8.120828   9.612060   5.807664   5.482347   5.256398
    23  H   10.068426  11.472644   4.914498   3.956999   5.187323
    24  H    7.882436   9.471938   6.748946   6.311753   6.001658
    25  H    5.533923   6.956254   7.027966   7.270150   5.457777
    26  H    5.557213   7.069232   6.810821   7.106359   5.424888
    27  H    2.919038   4.493578   8.643119   9.243882   6.729228
    28  H    2.932719   4.504677   8.641299   9.305387   6.802403
    29  H    2.425893   2.964446   8.720476   9.813262   6.634908
    30  H    2.425032   2.962124   8.706402   9.740591   6.544566
    31  H    2.376592   1.094288  12.531432  13.602011  10.376413
    32  H    2.434981   1.093157  11.294138  12.485506   9.158671
    33  H    2.436168   1.093204  11.281125  12.425899   9.090919
                   21         22         23         24         25
    21  H    0.000000
    22  H    4.316190   0.000000
    23  H    5.209029   2.238887   0.000000
    24  H    5.105293   2.090426   3.079394   0.000000
    25  H    4.124740   4.094826   5.378888   2.993297   0.000000
    26  H    3.559899   2.598499   4.702655   3.115115   2.964104
    27  H    4.788111   5.593815   7.411383   5.048020   2.652236
    28  H    4.619755   5.292388   7.355365   5.374353   3.760641
    29  H    4.585962   7.028880   8.830071   7.284921   5.119452
    30  H    4.739017   7.247745   8.865611   7.043391   4.372554
    31  H    8.443977  10.450212  12.368439  10.238406   7.756307
    32  H    7.247804   9.692031  11.554726   9.783330   7.399042
    33  H    7.344821   9.851943  11.580475   9.601947   6.897641
                   26         27         28         29         30
    26  H    0.000000
    27  H    3.274735   0.000000
    28  H    2.695991   1.795053   0.000000
    29  H    4.593367   3.095538   2.528794   0.000000
    30  H    4.945779   2.530811   3.097573   1.776492   0.000000
    31  H    7.879526   5.221439   5.235044   3.975824   3.973383
    32  H    7.162607   4.986101   4.661373   2.758467   3.283481
    33  H    7.394573   4.653230   4.995506   3.285292   2.756101
                   31         32         33
    31  H    0.000000
    32  H    1.769409   0.000000
    33  H    1.769446   1.792624   0.000000
 Stoichiometry    C14H16S3
 Framework group  C1[X(C14H16S3)]
 Deg. of freedom    93
 Full point group                 C1      NOp   1
 Largest Abelian subgroup         C1      NOp   1
 Largest concise Abelian subgroup C1      NOp   1
                         Standard orientation:                         
 ---------------------------------------------------------------------
 Center     Atomic      Atomic             Coordinates (Angstroms)
 Number     Number       Type             X           Y           Z
 ---------------------------------------------------------------------
      1          6           0       -4.772999    2.254749   -0.351421
      2          6           0       -3.782708    1.322282   -0.462912
      3          6           0       -2.500244    1.972422   -0.398987
      4          6           0       -1.455347    1.438507    0.264696
      5          6           0       -1.364510    0.181747    1.011799
      6          6           0       -2.414211   -0.458542    1.619345
      7          6           0       -3.808297   -0.378666    1.139374
      8          6           0       -3.907257   -0.179636   -0.194023
      9         16           0       -2.888745   -1.437991   -1.301105
     10          6           0       -1.591165   -2.308958   -0.278963
     11          6           0       -0.327575   -1.806684   -0.169547
     12          6           0       -0.050313   -0.634966    0.813067
     13         16           0        1.273686    0.487701    0.118343
     14          6           0        2.809511   -0.410899    0.325110
     15          6           0        3.931520    0.542720   -0.124761
     16         16           0        5.515305   -0.347449    0.036260
     17          6           0        6.679307    0.916889   -0.532103
     18          1           0       -4.521871    3.325756   -0.361994
     19          1           0       -5.820706    2.087415   -0.145410
     20          1           0       -2.381648    2.996605   -0.738295
     21          1           0       -0.583339    2.070203    0.201520
     22          1           0       -2.261134   -1.413713    2.119028
     23          1           0       -4.406639   -1.216676    1.510257
     24          1           0       -1.942251   -2.833258    0.618000
     25          1           0        0.280065   -1.756312   -1.073546
     26          1           0        0.282389   -0.995157    1.791162
     27          1           0        2.778023   -1.301557   -0.306890
     28          1           0        2.928751   -0.692175    1.374820
     29          1           0        3.950588    1.448095    0.497387
     30          1           0        3.787079    0.853485   -1.168635
     31          1           0        7.682226    0.482597   -0.477226
     32          1           0        6.658891    1.801000    0.110488
     33          1           0        6.491367    1.201734   -1.570677
 ---------------------------------------------------------------------
 Rotational constants (GHZ):           0.8896988           0.1416016           0.1319326
 Standard basis: 6-31G(2df,p) (6D, 7F)
 There are   619 symmetry adapted cartesian basis functions of A   symmetry.
 There are   568 symmetry adapted basis functions of A   symmetry.
   568 basis functions,   932 primitive gaussians,   619 cartesian basis functions
    74 alpha electrons       74 beta electrons
       nuclear repulsion energy      1482.9345448142 Hartrees.
 NAtoms=   33 NActive=   33 NUniq=   33 SFac= 1.00D+00 NAtFMM=   60 NAOKFM=F Big=F
 Integral buffers will be    131072 words long.
 Raffenetti 2 integral format.
 Two-electron integral symmetry is turned on.
 One-electron integrals computed using PRISM.
 PrsmSu:  requested number of processors reduced to:  12 ShMem   1 Linda.
 NBasis=   568 RedAO= T EigKep=  3.34D-04  NBF=   568
 NBsUse=   568 1.00D-06 EigRej= -1.00D+00 NBFU=   568
 ExpMin= 1.17D-01 ExpMax= 2.19D+04 ExpMxC= 3.30D+03 IAcc=3 IRadAn=         5 AccDes= 0.00D+00
 Harris functional with IExCor=  402 and IRadAn=       5 diagonalized for initial guess.
 HarFok:  IExCor=  402 AccDes= 0.00D+00 IRadAn=         5 IDoV= 1 UseB2=F ITyADJ=14
 ICtDFT=  3500011 ScaDFX=  1.000000  1.000000  1.000000  1.000000
 FoFCou: FMM=F IPFlag=           0 FMFlag=      100000 FMFlg1=           0
         NFxFlg=           0 DoJE=T BraDBF=F KetDBF=T FulRan=T
         wScrn=  0.000000 ICntrl=       500 IOpCl=  0 I1Cent=   200000004 NGrid=           0
         NMat0=    1 NMatS0=      1 NMatT0=    0 NMatD0=    1 NMtDS0=    0 NMtDT0=    0
 Petite list used in FoFCou.
 Requested convergence on RMS density matrix=1.00D-08 within 128 cycles.
 Requested convergence on MAX density matrix=1.00D-06.
 Requested convergence on             energy=1.00D-06.
 No special actions if energy rises.
 Integral accuracy reduced to 1.0D-05 until final iterations.
 Problem detected with inexpensive integrals.
 Switching to full accuracy and repeating last cycle.
 EnCoef did    21 forward-backward iterations
 EnCoef did     3 forward-backward iterations
 EnCoef did     2 forward-backward iterations
 EnCoef did     2 forward-backward iterations
 Restarting incremental Fock formation.
 Rare condition: small coef for last iteration:  0.000D+00
 Rare condition: small coef for last iteration:  0.000D+00
 Rare condition: small coef for last iteration:  0.000D+00
 Rare condition: small coef for last iteration:  0.000D+00
 Restarting incremental Fock formation.
 SCF Done:  E(RB3LYP) =  -1737.36025480     A.U. after   52 cycles
            NFock= 52  Conv=0.15D-08     -V/T= 2.0047

 **********************************************************************

            Population analysis using the SCF density.

 **********************************************************************

 Orbital symmetries:
       Occupied  (A) (A) (A) (A) (A) (A) (A) (A) (A) (A) (A) (A)
                 (A) (A) (A) (A) (A) (A) (A) (A) (A) (A) (A) (A)
                 (A) (A) (A) (A) (A) (A) (A) (A) (A) (A) (A) (A)
                 (A) (A) (A) (A) (A) (A) (A) (A) (A) (A) (A) (A)
                 (A) (A) (A) (A) (A) (A) (A) (A) (A) (A) (A) (A)
                 (A) (A) (A) (A) (A) (A) (A) (A) (A) (A) (A) (A)
                 (A) (A)
       Virtual   (A) (A) (A) (A) (A) (A) (A) (A) (A) (A) (A) (A)
                 (A) (A) (A) (A) (A) (A) (A) (A) (A) (A) (A) (A)
                 (A) (A) (A) (A) (A) (A) (A) (A) (A) (A) (A) (A)
                 (A) (A) (A) (A) (A) (A) (A) (A) (A) (A) (A) (A)
                 (A) (A) (A) (A) (A) (A) (A) (A) (A) (A) (A) (A)
                 (A) (A) (A) (A) (A) (A) (A) (A) (A) (A) (A) (A)
                 (A) (A) (A) (A) (A) (A) (A) (A) (A) (A) (A) (A)
                 (A) (A) (A) (A) (A) (A) (A) (A) (A) (A) (A) (A)
                 (A) (A) (A) (A) (A) (A) (A) (A) (A) (A) (A) (A)
                 (A) (A) (A) (A) (A) (A) (A) (A) (A) (A) (A) (A)
                 (A) (A) (A) (A) (A) (A) (A) (A) (A) (A) (A) (A)
                 (A) (A) (A) (A) (A) (A) (A) (A) (A) (A) (A) (A)
                 (A) (A) (A) (A) (A) (A) (A) (A) (A) (A) (A) (A)
                 (A) (A) (A) (A) (A) (A) (A) (A) (A) (A) (A) (A)
                 (A) (A) (A) (A) (A) (A) (A) (A) (A) (A) (A) (A)
                 (A) (A) (A) (A) (A) (A) (A) (A) (A) (A) (A) (A)
                 (A) (A) (A) (A) (A) (A) (A) (A) (A) (A) (A) (A)
                 (A) (A) (A) (A) (A) (A) (A) (A) (A) (A) (A) (A)
                 (A) (A) (A) (A) (A) (A) (A) (A) (A) (A) (A) (A)
                 (A) (A) (A) (A) (A) (A) (A) (A) (A) (A) (A) (A)
                 (A) (A) (A) (A) (A) (A) (A) (A) (A) (A) (A) (A)
                 (A) (A) (A) (A) (A) (A) (A) (A) (A) (A) (A) (A)
                 (A) (A) (A) (A) (A) (A) (A) (A) (A) (A) (A) (A)
                 (A) (A) (A) (A) (A) (A) (A) (A) (A) (A) (A) (A)
                 (A) (A) (A) (A) (A) (A) (A) (A) (A) (A) (A) (A)
                 (A) (A) (A) (A) (A) (A) (A) (A) (A) (A) (A) (A)
                 (A) (A) (A) (A) (A) (A) (A) (A) (A) (A) (A) (A)
                 (A) (A) (A) (A) (A) (A) (A) (A) (A) (A) (A) (A)
                 (A) (A) (A) (A) (A) (A) (A) (A) (A) (A) (A) (A)
                 (A) (A) (A) (A) (A) (A) (A) (A) (A) (A) (A) (A)
                 (A) (A) (A) (A) (A) (A) (A) (A) (A) (A) (A) (A)
                 (A) (A) (A) (A) (A) (A) (A) (A) (A) (A) (A) (A)
                 (A) (A) (A) (A) (A) (A) (A) (A) (A) (A) (A) (A)
                 (A) (A) (A) (A) (A) (A) (A) (A) (A) (A) (A) (A)
                 (A) (A) (A) (A) (A) (A) (A) (A) (A) (A) (A) (A)
                 (A) (A) (A) (A) (A) (A) (A) (A) (A) (A) (A) (A)
                 (A) (A) (A) (A) (A) (A) (A) (A) (A) (A) (A) (A)
                 (A) (A) (A) (A) (A) (A) (A) (A) (A) (A) (A) (A)
                 (A) (A) (A) (A) (A) (A) (A) (A) (A) (A) (A) (A)
                 (A) (A) (A) (A) (A) (A) (A) (A) (A) (A) (A) (A)
                 (A) (A) (A) (A) (A) (A) (A) (A) (A) (A) (A) (A)
                 (A) (A)
 The electronic state is 1-A.
 Alpha  occ. eigenvalues --  -88.88900 -88.87668 -88.87132 -10.24555 -10.22645
 Alpha  occ. eigenvalues --  -10.22542 -10.22190 -10.21835 -10.21767 -10.21664
 Alpha  occ. eigenvalues --  -10.21445 -10.21349 -10.21312 -10.21255 -10.19525
 Alpha  occ. eigenvalues --  -10.19258 -10.19100  -7.94600  -7.94013  -7.93475
 Alpha  occ. eigenvalues --   -5.91093  -5.90806  -5.90500  -5.90144  -5.90140
 Alpha  occ. eigenvalues --   -5.89971  -5.89620  -5.89530  -5.88971  -0.87641
 Alpha  occ. eigenvalues --   -0.83930  -0.82100  -0.80154  -0.77940  -0.77410
 Alpha  occ. eigenvalues --   -0.73542  -0.71392  -0.67727  -0.66957  -0.62386
 Alpha  occ. eigenvalues --   -0.62188  -0.59541  -0.58931  -0.55112  -0.52459
 Alpha  occ. eigenvalues --   -0.51410  -0.48849  -0.48116  -0.46148  -0.45483
 Alpha  occ. eigenvalues --   -0.44269  -0.43943  -0.43477  -0.42937  -0.42163
 Alpha  occ. eigenvalues --   -0.41698  -0.41343  -0.39459  -0.38558  -0.38181
 Alpha  occ. eigenvalues --   -0.36918  -0.36477  -0.35303  -0.34026  -0.31603
 Alpha  occ. eigenvalues --   -0.31480  -0.30812  -0.27773  -0.24811  -0.23957
 Alpha  occ. eigenvalues --   -0.23558  -0.22226  -0.19890  -0.16704
 Alpha virt. eigenvalues --   -0.12987  -0.09041  -0.04032   0.01076   0.01716
 Alpha virt. eigenvalues --    0.04124   0.05290   0.06032   0.06690   0.08156
 Alpha virt. eigenvalues --    0.08435   0.09601   0.10017   0.10716   0.11297
 Alpha virt. eigenvalues --    0.12246   0.12964   0.14290   0.14645   0.15613
 Alpha virt. eigenvalues --    0.15830   0.16002   0.16600   0.17132   0.17697
 Alpha virt. eigenvalues --    0.19002   0.20401   0.21906   0.22480   0.22989
 Alpha virt. eigenvalues --    0.24432   0.25214   0.26069   0.27332   0.28336
 Alpha virt. eigenvalues --    0.30027   0.30565   0.31592   0.32511   0.32791
 Alpha virt. eigenvalues --    0.33373   0.35054   0.35790   0.35858   0.36319
 Alpha virt. eigenvalues --    0.37190   0.38424   0.38891   0.39427   0.40155
 Alpha virt. eigenvalues --    0.40688   0.41059   0.41537   0.42267   0.42825
 Alpha virt. eigenvalues --    0.43934   0.44231   0.44939   0.45498   0.46694
 Alpha virt. eigenvalues --    0.47341   0.47778   0.48602   0.49113   0.49827
 Alpha virt. eigenvalues --    0.50785   0.51156   0.52263   0.52387   0.53034
 Alpha virt. eigenvalues --    0.54155   0.54337   0.55672   0.56344   0.57389
 Alpha virt. eigenvalues --    0.59002   0.59558   0.59898   0.60774   0.61220
 Alpha virt. eigenvalues --    0.61516   0.62418   0.63044   0.64165   0.65391
 Alpha virt. eigenvalues --    0.65767   0.66898   0.67604   0.68559   0.69990
 Alpha virt. eigenvalues --    0.71242   0.71655   0.71944   0.72348   0.72574
 Alpha virt. eigenvalues --    0.72900   0.73615   0.74123   0.74875   0.75346
 Alpha virt. eigenvalues --    0.75641   0.76267   0.76716   0.77145   0.78004
 Alpha virt. eigenvalues --    0.78397   0.78732   0.78897   0.79474   0.80098
 Alpha virt. eigenvalues --    0.81025   0.82095   0.82778   0.83097   0.83669
 Alpha virt. eigenvalues --    0.84808   0.85661   0.86726   0.87609   0.87720
 Alpha virt. eigenvalues --    0.88352   0.90038   0.91319   0.91583   0.92474
 Alpha virt. eigenvalues --    0.92900   0.94109   0.94649   0.95743   0.96181
 Alpha virt. eigenvalues --    0.97010   0.97712   0.98466   1.00135   1.02717
 Alpha virt. eigenvalues --    1.04179   1.04598   1.06799   1.08264   1.11188
 Alpha virt. eigenvalues --    1.12873   1.14256   1.16474   1.17083   1.17466
 Alpha virt. eigenvalues --    1.18380   1.19019   1.22333   1.22714   1.24886
 Alpha virt. eigenvalues --    1.26471   1.28011   1.28492   1.29811   1.29972
 Alpha virt. eigenvalues --    1.32798   1.33595   1.33970   1.35120   1.37005
 Alpha virt. eigenvalues --    1.37833   1.38730   1.38888   1.39966   1.41409
 Alpha virt. eigenvalues --    1.41884   1.42918   1.45445   1.46013   1.46263
 Alpha virt. eigenvalues --    1.47626   1.48828   1.49554   1.50014   1.50729
 Alpha virt. eigenvalues --    1.51888   1.52786   1.53694   1.54263   1.55473
 Alpha virt. eigenvalues --    1.57509   1.58012   1.58915   1.60004   1.61169
 Alpha virt. eigenvalues --    1.64166   1.64943   1.65307   1.67079   1.67307
 Alpha virt. eigenvalues --    1.68957   1.70830   1.71317   1.72029   1.72258
 Alpha virt. eigenvalues --    1.73217   1.73810   1.74935   1.75499   1.76170
 Alpha virt. eigenvalues --    1.77875   1.79158   1.79484   1.80190   1.81036
 Alpha virt. eigenvalues --    1.81758   1.82604   1.83495   1.85909   1.86560
 Alpha virt. eigenvalues --    1.88204   1.89021   1.89394   1.89581   1.90655
 Alpha virt. eigenvalues --    1.91403   1.92434   1.92974   1.94381   1.94769
 Alpha virt. eigenvalues --    1.96676   1.97432   1.98881   2.00065   2.02965
 Alpha virt. eigenvalues --    2.03245   2.05674   2.06393   2.06743   2.09600
 Alpha virt. eigenvalues --    2.10482   2.11954   2.13362   2.14430   2.17435
 Alpha virt. eigenvalues --    2.19719   2.19935   2.20578   2.21631   2.23727
 Alpha virt. eigenvalues --    2.24583   2.26681   2.28001   2.29772   2.29890
 Alpha virt. eigenvalues --    2.31436   2.32117   2.33930   2.35332   2.36927
 Alpha virt. eigenvalues --    2.37597   2.39834   2.40853   2.42094   2.43253
 Alpha virt. eigenvalues --    2.43579   2.44387   2.46083   2.47703   2.48171
 Alpha virt. eigenvalues --    2.48613   2.48834   2.51199   2.52409   2.53388
 Alpha virt. eigenvalues --    2.56298   2.58398   2.59356   2.61031   2.62142
 Alpha virt. eigenvalues --    2.65586   2.66212   2.67140   2.71951   2.73767
 Alpha virt. eigenvalues --    2.74213   2.75286   2.76657   2.78126   2.78551
 Alpha virt. eigenvalues --    2.80642   2.81598   2.81923   2.82524   2.83491
 Alpha virt. eigenvalues --    2.83884   2.85098   2.85357   2.86896   2.87663
 Alpha virt. eigenvalues --    2.89418   2.90446   2.90830   2.91245   2.91899
 Alpha virt. eigenvalues --    2.92735   2.94047   2.94866   2.95176   2.96349
 Alpha virt. eigenvalues --    2.97704   2.97885   2.98993   3.01276   3.02361
 Alpha virt. eigenvalues --    3.03485   3.04696   3.05987   3.06950   3.10441
 Alpha virt. eigenvalues --    3.11404   3.13167   3.15219   3.15912   3.16946
 Alpha virt. eigenvalues --    3.17467   3.18258   3.19056   3.20807   3.22096
 Alpha virt. eigenvalues --    3.22388   3.24484   3.24971   3.26118   3.27676
 Alpha virt. eigenvalues --    3.28026   3.28846   3.30058   3.30639   3.31764
 Alpha virt. eigenvalues --    3.33196   3.33919   3.36100   3.36872   3.38153
 Alpha virt. eigenvalues --    3.39472   3.41684   3.42362   3.42902   3.44427
 Alpha virt. eigenvalues --    3.45747   3.46579   3.47732   3.48286   3.50417
 Alpha virt. eigenvalues --    3.51843   3.53243   3.54036   3.54603   3.55907
 Alpha virt. eigenvalues --    3.57938   3.58038   3.59539   3.60602   3.61021
 Alpha virt. eigenvalues --    3.62342   3.63996   3.66375   3.66543   3.67249
 Alpha virt. eigenvalues --    3.68534   3.69512   3.69836   3.71509   3.73349
 Alpha virt. eigenvalues --    3.73606   3.77088   3.78266   3.79113   3.83732
 Alpha virt. eigenvalues --    3.85787   3.86027   3.87736   3.90689   3.91712
 Alpha virt. eigenvalues --    3.93958   3.94790   3.95646   3.96420   4.00943
 Alpha virt. eigenvalues --    4.01812   4.02493   4.03370   4.05663   4.08857
 Alpha virt. eigenvalues --    4.13255   4.14664   4.14938   4.18393   4.20863
 Alpha virt. eigenvalues --    4.22517   4.23871   4.25131   4.28198   4.28872
 Alpha virt. eigenvalues --    4.28989   4.31643   4.34352   4.35195   4.36946
 Alpha virt. eigenvalues --    4.39404   4.40253   4.41890   4.42969   4.44872
 Alpha virt. eigenvalues --    4.46350   4.48361   4.50354   4.51124   4.52706
 Alpha virt. eigenvalues --    4.53778   4.54321   4.56085   4.57910   4.58378
 Alpha virt. eigenvalues --    4.60064   4.61378   4.61937   4.62420   4.62855
 Alpha virt. eigenvalues --    4.64775   4.65751   4.66983   4.67429   4.68707
 Alpha virt. eigenvalues --    4.70104   4.71054   4.71542   4.72538   4.73236
 Alpha virt. eigenvalues --    4.73692   4.74490   4.76810   4.77480   4.78767
 Alpha virt. eigenvalues --    4.79644   4.81597   4.82823   4.84365   4.85025
 Alpha virt. eigenvalues --    4.85476   4.86224   4.87534   4.91002   4.91939
 Alpha virt. eigenvalues --    4.92954   4.94167   4.95174   4.97507   4.99478
 Alpha virt. eigenvalues --    5.01499   5.03643   5.05795   5.09758   5.12046
 Alpha virt. eigenvalues --    5.12808   5.14294   5.18464   5.22827   5.25467
 Alpha virt. eigenvalues --    5.29442   5.31090   5.32842   5.36549   5.38663
 Alpha virt. eigenvalues --    5.42363   5.44868   5.47282   5.50868   5.52076
 Alpha virt. eigenvalues --    5.55133   5.56813   5.63013   5.65996   5.73369
 Alpha virt. eigenvalues --    5.81412   5.86772   5.99829   6.13032   6.85949
 Alpha virt. eigenvalues --   10.22914  10.61566  10.69114  10.97181  11.35318
 Alpha virt. eigenvalues --   11.41327  11.48761  11.71235  11.77735  11.97467
 Alpha virt. eigenvalues --   12.08655  12.14562  12.43898  12.53709
          Condensed to atoms (all electrons):
               1          2          3          4          5          6
     1  C    5.128737   0.563258  -0.017108  -0.002309   0.001712  -0.000049
     2  C    0.563258   4.535226   0.409968  -0.005488  -0.022436  -0.008918
     3  C   -0.017108   0.409968   4.877700   0.560636   0.003937  -0.017983
     4  C   -0.002309  -0.005488   0.560636   4.862841   0.450430  -0.000193
     5  C    0.001712  -0.022436   0.003937   0.450430   4.719410   0.521421
     6  C   -0.000049  -0.008918  -0.017983  -0.000193   0.521421   5.119796
     7  C    0.000194  -0.027147   0.000446  -0.013033  -0.005522   0.394525
     8  C   -0.040563   0.424936  -0.033691  -0.022521  -0.026493  -0.066718
     9  S    0.003174  -0.031114  -0.003320   0.003240  -0.001641  -0.042684
    10  C   -0.000028   0.000292  -0.000217   0.000172  -0.039729   0.000727
    11  C   -0.000007  -0.000082  -0.000325  -0.001121  -0.036846  -0.007284
    12  C   -0.000011   0.000347   0.005026  -0.046369   0.420774  -0.057900
    13  S    0.000003   0.000036   0.000624  -0.003433  -0.042925   0.003035
    14  C    0.000000   0.000000  -0.000004   0.000172   0.001070  -0.000015
    15  C    0.000000   0.000000  -0.000000   0.000010  -0.000025   0.000000
    16  S    0.000000  -0.000000  -0.000000  -0.000000   0.000001  -0.000000
    17  C    0.000000  -0.000000   0.000000  -0.000000  -0.000000   0.000000
    18  H    0.359549  -0.013220  -0.014630   0.000322   0.000066  -0.000063
    19  H    0.348519  -0.017477   0.007291  -0.000090  -0.000048   0.000255
    20  H   -0.009039  -0.048913   0.366577  -0.042475   0.005673  -0.000266
    21  H   -0.000172   0.005063  -0.044723   0.368613  -0.043866   0.005630
    22  H   -0.000005   0.000071  -0.000024   0.005192  -0.046371   0.365392
    23  H    0.000223   0.002697  -0.000052  -0.000375   0.004301  -0.053490
    24  H   -0.000001  -0.000030  -0.000036   0.000043  -0.005080   0.006063
    25  H   -0.000000  -0.000004  -0.000067   0.000238  -0.000776   0.000654
    26  H    0.000000  -0.000010  -0.000207   0.003598  -0.038696  -0.002078
    27  H    0.000000  -0.000000   0.000001   0.000003   0.000048  -0.000000
    28  H   -0.000000   0.000000  -0.000000  -0.000001  -0.000038   0.000001
    29  H    0.000000  -0.000000  -0.000000  -0.000001   0.000001  -0.000000
    30  H   -0.000000  -0.000000   0.000000  -0.000000   0.000002   0.000000
    31  H    0.000000  -0.000000  -0.000000  -0.000000   0.000000  -0.000000
    32  H   -0.000000   0.000000  -0.000000  -0.000000   0.000000  -0.000000
    33  H    0.000000  -0.000000   0.000000  -0.000000   0.000000   0.000000
               7          8          9         10         11         12
     1  C    0.000194  -0.040563   0.003174  -0.000028  -0.000007  -0.000011
     2  C   -0.027147   0.424936  -0.031114   0.000292  -0.000082   0.000347
     3  C    0.000446  -0.033691  -0.003320  -0.000217  -0.000325   0.005026
     4  C   -0.013033  -0.022521   0.003240   0.000172  -0.001121  -0.046369
     5  C   -0.005522  -0.026493  -0.001641  -0.039729  -0.036846   0.420774
     6  C    0.394525  -0.066718  -0.042684   0.000727  -0.007284  -0.057900
     7  C    5.015761   0.499636  -0.030753  -0.007641  -0.001043   0.005346
     8  C    0.499636   5.183218   0.240906  -0.004784  -0.003035  -0.000429
     9  S   -0.030753   0.240906  15.793384   0.272665  -0.052083   0.001530
    10  C   -0.007641  -0.004784   0.272665   5.112697   0.610573  -0.047277
    11  C   -0.001043  -0.003035  -0.052083   0.610573   4.984494   0.314412
    12  C    0.005346  -0.000429   0.001530  -0.047277   0.314412   5.047762
    13  S   -0.000163   0.000081  -0.000785   0.004474  -0.035267   0.256193
    14  C   -0.000000   0.000000   0.000012   0.000092  -0.000663  -0.008536
    15  C   -0.000000   0.000000   0.000000  -0.000001   0.000012   0.001167
    16  S    0.000000  -0.000000   0.000000  -0.000000  -0.000001  -0.000065
    17  C   -0.000000   0.000000   0.000000  -0.000000   0.000000   0.000000
    18  H    0.000037   0.003851  -0.000112   0.000000   0.000000   0.000000
    19  H    0.002817  -0.001348   0.000030  -0.000000   0.000000  -0.000000
    20  H   -0.000322   0.004751  -0.000187   0.000008  -0.000009  -0.000144
    21  H   -0.000191  -0.000463  -0.000023   0.000026   0.000134  -0.010902
    22  H   -0.047296   0.003204  -0.001989   0.006618   0.000765  -0.011785
    23  H    0.357058  -0.059325   0.006420   0.000312  -0.000093  -0.000167
    24  H   -0.003831  -0.002064  -0.043356   0.348114  -0.049859  -0.006325
    25  H   -0.000046  -0.000185  -0.006221  -0.055537   0.370049  -0.064144
    26  H   -0.000441  -0.000127  -0.000201   0.002049  -0.045936   0.339795
    27  H   -0.000000  -0.000000   0.000006  -0.000014   0.004050  -0.000894
    28  H    0.000000  -0.000000  -0.000001  -0.000004  -0.000596  -0.001911
    29  H   -0.000000  -0.000000   0.000000   0.000000   0.000002   0.000024
    30  H    0.000000   0.000000  -0.000000  -0.000000  -0.000004   0.000061
    31  H    0.000000  -0.000000   0.000000   0.000000   0.000000  -0.000000
    32  H    0.000000   0.000000  -0.000000  -0.000000  -0.000000   0.000000
    33  H   -0.000000  -0.000000  -0.000000   0.000000   0.000000   0.000000
              13         14         15         16         17         18
     1  C    0.000003   0.000000   0.000000   0.000000   0.000000   0.359549
     2  C    0.000036   0.000000   0.000000  -0.000000  -0.000000  -0.013220
     3  C    0.000624  -0.000004  -0.000000  -0.000000   0.000000  -0.014630
     4  C   -0.003433   0.000172   0.000010  -0.000000  -0.000000   0.000322
     5  C   -0.042925   0.001070  -0.000025   0.000001  -0.000000   0.000066
     6  C    0.003035  -0.000015   0.000000  -0.000000   0.000000  -0.000063
     7  C   -0.000163  -0.000000  -0.000000   0.000000  -0.000000   0.000037
     8  C    0.000081   0.000000   0.000000  -0.000000   0.000000   0.003851
     9  S   -0.000785   0.000012   0.000000   0.000000   0.000000  -0.000112
    10  C    0.004474   0.000092  -0.000001  -0.000000  -0.000000   0.000000
    11  C   -0.035267  -0.000663   0.000012  -0.000001   0.000000   0.000000
    12  C    0.256193  -0.008536   0.001167  -0.000065   0.000000   0.000000
    13  S   15.847893   0.282123  -0.039290   0.003444  -0.000097   0.000000
    14  C    0.282123   4.872299   0.411495  -0.036593   0.001466  -0.000000
    15  C   -0.039290   0.411495   4.858409   0.294432  -0.015522  -0.000000
    16  S    0.003444  -0.036593   0.294432  15.787938   0.302742  -0.000000
    17  C   -0.000097   0.001466  -0.015522   0.302742   4.951267   0.000000
    18  H    0.000000  -0.000000  -0.000000  -0.000000   0.000000   0.571595
    19  H   -0.000000   0.000000   0.000000   0.000000  -0.000000  -0.046756
    20  H    0.000173  -0.000000   0.000000  -0.000000   0.000000   0.006454
    21  H    0.001759   0.000018   0.000003  -0.000000  -0.000000  -0.000060
    22  H    0.000223  -0.000004  -0.000000   0.000000   0.000000   0.000000
    23  H    0.000006  -0.000000   0.000000  -0.000000   0.000000   0.000019
    24  H    0.000183  -0.000008  -0.000000  -0.000000   0.000000  -0.000000
    25  H    0.001047  -0.001630  -0.000091   0.000000  -0.000000   0.000000
    26  H   -0.041994  -0.002540   0.000016   0.000000   0.000000   0.000000
    27  H   -0.052416   0.372434  -0.027519   0.000998   0.000040   0.000000
    28  H   -0.051462   0.376499  -0.027001   0.000890   0.000039   0.000000
    29  H    0.001181  -0.027053   0.372808  -0.049860  -0.001120   0.000000
    30  H    0.001451  -0.027210   0.372892  -0.049416  -0.001163  -0.000000
    31  H    0.000001  -0.000058   0.001797  -0.030168   0.378398  -0.000000
    32  H   -0.000002   0.000053  -0.002509  -0.046735   0.382231  -0.000000
    33  H    0.000002   0.000050  -0.002548  -0.046445   0.382409   0.000000
              19         20         21         22         23         24
     1  C    0.348519  -0.009039  -0.000172  -0.000005   0.000223  -0.000001
     2  C   -0.017477  -0.048913   0.005063   0.000071   0.002697  -0.000030
     3  C    0.007291   0.366577  -0.044723  -0.000024  -0.000052  -0.000036
     4  C   -0.000090  -0.042475   0.368613   0.005192  -0.000375   0.000043
     5  C   -0.000048   0.005673  -0.043866  -0.046371   0.004301  -0.005080
     6  C    0.000255  -0.000266   0.005630   0.365392  -0.053490   0.006063
     7  C    0.002817  -0.000322  -0.000191  -0.047296   0.357058  -0.003831
     8  C   -0.001348   0.004751  -0.000463   0.003204  -0.059325  -0.002064
     9  S    0.000030  -0.000187  -0.000023  -0.001989   0.006420  -0.043356
    10  C   -0.000000   0.000008   0.000026   0.006618   0.000312   0.348114
    11  C    0.000000  -0.000009   0.000134   0.000765  -0.000093  -0.049859
    12  C   -0.000000  -0.000144  -0.010902  -0.011785  -0.000167  -0.006325
    13  S   -0.000000   0.000173   0.001759   0.000223   0.000006   0.000183
    14  C    0.000000  -0.000000   0.000018  -0.000004  -0.000000  -0.000008
    15  C    0.000000   0.000000   0.000003  -0.000000   0.000000  -0.000000
    16  S    0.000000  -0.000000  -0.000000   0.000000  -0.000000  -0.000000
    17  C   -0.000000   0.000000  -0.000000   0.000000   0.000000   0.000000
    18  H   -0.046756   0.006454  -0.000060   0.000000   0.000019  -0.000000
    19  H    0.576294  -0.000130   0.000011   0.000001  -0.000252   0.000000
    20  H   -0.000130   0.628434  -0.013345   0.000005   0.000013   0.000000
    21  H    0.000011  -0.013345   0.604426  -0.000134   0.000000   0.000004
    22  H    0.000001   0.000005  -0.000134   0.597836  -0.010647   0.007888
    23  H   -0.000252   0.000013   0.000000  -0.010647   0.636967  -0.000124
    24  H    0.000000   0.000000   0.000004   0.007888  -0.000124   0.631447
    25  H    0.000000  -0.000001   0.000056   0.000100  -0.000001   0.007415
    26  H    0.000000   0.000002   0.000129   0.004696  -0.000021   0.001192
    27  H   -0.000000   0.000000   0.000008   0.000000  -0.000000   0.000003
    28  H   -0.000000   0.000000  -0.000017   0.000001   0.000000   0.000001
    29  H    0.000000  -0.000000   0.000003   0.000000  -0.000000   0.000000
    30  H   -0.000000   0.000000  -0.000002   0.000000   0.000000   0.000000
    31  H    0.000000  -0.000000   0.000000  -0.000000  -0.000000  -0.000000
    32  H   -0.000000  -0.000000  -0.000000   0.000000   0.000000  -0.000000
    33  H    0.000000  -0.000000   0.000000   0.000000  -0.000000   0.000000
              25         26         27         28         29         30
     1  C   -0.000000   0.000000   0.000000  -0.000000   0.000000  -0.000000
     2  C   -0.000004  -0.000010  -0.000000   0.000000  -0.000000  -0.000000
     3  C   -0.000067  -0.000207   0.000001  -0.000000  -0.000000   0.000000
     4  C    0.000238   0.003598   0.000003  -0.000001  -0.000001  -0.000000
     5  C   -0.000776  -0.038696   0.000048  -0.000038   0.000001   0.000002
     6  C    0.000654  -0.002078  -0.000000   0.000001  -0.000000   0.000000
     7  C   -0.000046  -0.000441  -0.000000   0.000000  -0.000000   0.000000
     8  C   -0.000185  -0.000127  -0.000000  -0.000000  -0.000000   0.000000
     9  S   -0.006221  -0.000201   0.000006  -0.000001   0.000000  -0.000000
    10  C   -0.055537   0.002049  -0.000014  -0.000004   0.000000  -0.000000
    11  C    0.370049  -0.045936   0.004050  -0.000596   0.000002  -0.000004
    12  C   -0.064144   0.339795  -0.000894  -0.001911   0.000024   0.000061
    13  S    0.001047  -0.041994  -0.052416  -0.051462   0.001181   0.001451
    14  C   -0.001630  -0.002540   0.372434   0.376499  -0.027053  -0.027210
    15  C   -0.000091   0.000016  -0.027519  -0.027001   0.372808   0.372892
    16  S    0.000000   0.000000   0.000998   0.000890  -0.049860  -0.049416
    17  C   -0.000000   0.000000   0.000040   0.000039  -0.001120  -0.001163
    18  H    0.000000   0.000000   0.000000   0.000000   0.000000  -0.000000
    19  H    0.000000   0.000000  -0.000000  -0.000000   0.000000  -0.000000
    20  H   -0.000001   0.000002   0.000000   0.000000  -0.000000   0.000000
    21  H    0.000056   0.000129   0.000008  -0.000017   0.000003  -0.000002
    22  H    0.000100   0.004696   0.000000   0.000001   0.000000   0.000000
    23  H   -0.000001  -0.000021  -0.000000   0.000000  -0.000000   0.000000
    24  H    0.007415   0.001192   0.000003   0.000001   0.000000   0.000000
    25  H    0.614500   0.005997   0.001811   0.000189   0.000001   0.000003
    26  H    0.005997   0.653315  -0.000405   0.005606   0.000000   0.000006
    27  H    0.001811  -0.000405   0.596907  -0.041106   0.005199  -0.004984
    28  H    0.000189   0.005606  -0.041106   0.597777  -0.005172   0.005217
    29  H    0.000001   0.000000   0.005199  -0.005172   0.603815  -0.043847
    30  H    0.000003   0.000006  -0.004984   0.005217  -0.043847   0.601362
    31  H    0.000000  -0.000000   0.000001   0.000000  -0.000049  -0.000048
    32  H   -0.000000   0.000000   0.000006  -0.000004   0.005142  -0.000786
    33  H   -0.000000  -0.000000  -0.000005   0.000006  -0.000786   0.005142
              31         32         33
     1  C    0.000000  -0.000000   0.000000
     2  C   -0.000000   0.000000  -0.000000
     3  C   -0.000000  -0.000000   0.000000
     4  C   -0.000000  -0.000000  -0.000000
     5  C    0.000000   0.000000   0.000000
     6  C   -0.000000  -0.000000   0.000000
     7  C    0.000000   0.000000  -0.000000
     8  C   -0.000000   0.000000  -0.000000
     9  S    0.000000  -0.000000  -0.000000
    10  C    0.000000  -0.000000   0.000000
    11  C    0.000000  -0.000000   0.000000
    12  C   -0.000000   0.000000   0.000000
    13  S    0.000001  -0.000002   0.000002
    14  C   -0.000058   0.000053   0.000050
    15  C    0.001797  -0.002509  -0.002548
    16  S   -0.030168  -0.046735  -0.046445
    17  C    0.378398   0.382231   0.382409
    18  H   -0.000000  -0.000000   0.000000
    19  H    0.000000  -0.000000   0.000000
    20  H   -0.000000  -0.000000  -0.000000
    21  H    0.000000  -0.000000   0.000000
    22  H   -0.000000   0.000000   0.000000
    23  H   -0.000000   0.000000  -0.000000
    24  H   -0.000000  -0.000000   0.000000
    25  H    0.000000  -0.000000  -0.000000
    26  H   -0.000000   0.000000  -0.000000
    27  H    0.000001   0.000006  -0.000005
    28  H    0.000000  -0.000004   0.000006
    29  H   -0.000049   0.005142  -0.000786
    30  H   -0.000048  -0.000786   0.005142
    31  H    0.553086  -0.027646  -0.027565
    32  H   -0.027646   0.586257  -0.037571
    33  H   -0.027565  -0.037571   0.584969
 Mulliken charges:
               1
     1  C   -0.336077
     2  C    0.232946
     3  C   -0.099817
     4  C   -0.118101
     5  C    0.181648
     6  C   -0.159859
     7  C   -0.138393
     8  C   -0.098835
     9  S   -0.106901
    10  C   -0.203586
    11  C   -0.050237
    12  C   -0.135580
    13  S   -0.136097
    14  C   -0.213470
    15  C   -0.198536
    16  S   -0.131162
    17  C   -0.380691
    18  H    0.132947
    19  H    0.130884
    20  H    0.102740
    21  H    0.128016
    22  H    0.126264
    23  H    0.116531
    24  H    0.108360
    25  H    0.126640
    26  H    0.116254
    27  H    0.145829
    28  H    0.141087
    29  H    0.139713
    30  H    0.141325
    31  H    0.152250
    32  H    0.141564
    33  H    0.142342
 Sum of Mulliken charges =  -0.00000
 Mulliken charges with hydrogens summed into heavy atoms:
               1
     1  C   -0.072245
     2  C    0.232946
     3  C    0.002924
     4  C    0.009914
     5  C    0.181648
     6  C   -0.033596
     7  C   -0.021861
     8  C   -0.098835
     9  S   -0.106901
    10  C   -0.095226
    11  C    0.076403
    12  C   -0.019325
    13  S   -0.136097
    14  C    0.073446
    15  C    0.082502
    16  S   -0.131162
    17  C    0.055466
 Electronic spatial extent (au):  <R**2>=           8008.4635
 Charge=             -0.0000 electrons
 Dipole moment (field-independent basis, Debye):
    X=              1.1059    Y=              2.7656    Z=              1.8127  Tot=              3.4867
 Quadrupole moment (field-independent basis, Debye-Ang):
   XX=           -112.8592   YY=           -119.1647   ZZ=           -125.5087
   XY=             -1.6488   XZ=            -10.0301   YZ=             -7.5966
 Traceless Quadrupole moment (field-independent basis, Debye-Ang):
   XX=              6.3183   YY=              0.0128   ZZ=             -6.3312
   XY=             -1.6488   XZ=            -10.0301   YZ=             -7.5966
 Octapole moment (field-independent basis, Debye-Ang**2):
  XXX=             71.4869  YYY=             34.0590  ZZZ=              1.0259  XYY=             -2.8634
  XXY=             92.7369  XXZ=              0.1195  XZZ=             15.7833  YZZ=             -4.2953
  YYZ=              5.9071  XYZ=             15.2330
 Hexadecapole moment (field-independent basis, Debye-Ang**3):
 XXXX=          -8347.8324 YYYY=          -1263.8229 ZZZZ=           -570.1529 XXXY=            104.7894
 XXXZ=           -248.4358 YYYX=            -72.9843 YYYZ=            -38.3345 ZZZX=            -20.2544
 ZZZY=            -17.5545 XXYY=          -1670.9205 XXZZ=          -1677.8572 YYZZ=           -313.0677
 XXYZ=            -79.2313 YYXZ=            -16.4208 ZZXY=             19.8528
 N-N= 1.482934544814D+03 E-N=-7.061440649737D+03  KE= 1.729159245954D+03
 PrsmSu:  requested number of processors reduced to:  13 ShMem   1 Linda.
 Calling FoFJK, ICntrl=      2127 FMM=F ISym2X=0 I1Cent= 0 IOpClX= 0 NMat=1 NMatS=1 NMatT=0.
 ***** Axes restored to original set *****
 -------------------------------------------------------------------
 Center     Atomic                   Forces (Hartrees/Bohr)
 Number     Number              X              Y              Z
 -------------------------------------------------------------------
      1        6           0.001038951   -0.009519198   -0.000843170
      2        6          -0.006050390    0.004515334    0.014813919
      3        6           0.014856157   -0.001851890    0.005351810
      4        6           0.011161898   -0.002000674    0.002463702
      5        6           0.008995287    0.036008429   -0.010494940
      6        6          -0.036210507   -0.011384450    0.001416507
      7        6           0.080852464   -0.021205914    0.028253802
      8        6          -0.052626403    0.052149893   -0.064715070
      9       16          -0.004533847   -0.035211333   -0.007912169
     10        6          -0.005073392   -0.021382076   -0.001593002
     11        6          -0.032155726    0.021687137   -0.008944957
     12        6           0.020370382    0.001109338    0.035172921
     13       16          -0.014814621   -0.012874005    0.001886169
     14        6           0.003460648    0.001989546   -0.000129742
     15        6           0.000838136   -0.000955077    0.000014750
     16       16           0.004167022   -0.000969770   -0.000169931
     17        6           0.000179979    0.005125678    0.000076619
     18        1           0.006787631   -0.003367811   -0.008057183
     19        1           0.004920729   -0.008079630   -0.005895635
     20        1          -0.000912185   -0.000849683   -0.009530382
     21        1           0.010428920    0.003223092    0.005554912
     22        1          -0.002628215    0.002814082    0.013158803
     23        1           0.006778128   -0.000622001    0.006424540
     24        1          -0.017053046   -0.002844801    0.002124506
     25        1          -0.013907670    0.006156769   -0.000787611
     26        1           0.002270271    0.003474116    0.002733111
     27        1           0.004761526    0.001152485    0.001166322
     28        1           0.002830808    0.001299854   -0.001369456
     29        1           0.001742459   -0.002344962   -0.001744953
     30        1           0.001705689   -0.002109942    0.001551677
     31        1          -0.000276579   -0.002001273    0.000011746
     32        1          -0.000975132   -0.000492249   -0.000351661
     33        1          -0.000929372   -0.000639014    0.000364049
 -------------------------------------------------------------------
 Cartesian Forces:  Max     0.080852464 RMS     0.016828264

 GradGradGradGradGradGradGradGradGradGradGradGradGradGradGradGradGradGrad
 Berny optimization.
 FormGI is forming the generalized inverse of G from B-inverse, IUseBI=4.
 Internal  Forces:  Max     0.066405925 RMS     0.012481290
 Search for a local minimum.
 Step number   1 out of a maximum of  174
 All quantities printed in internal units (Hartrees-Bohrs-Radians)
 Mixed Optimization -- RFO/linear search
 Second derivative matrix not updated -- first step.
 ITU=  0
     Eigenvalues ---    0.00230   0.00230   0.00237   0.00241   0.00404
     Eigenvalues ---    0.00485   0.00952   0.01502   0.01643   0.01745
     Eigenvalues ---    0.01883   0.02038   0.02062   0.02243   0.02286
     Eigenvalues ---    0.02555   0.02591   0.02983   0.03531   0.04228
     Eigenvalues ---    0.05075   0.05111   0.05370   0.05579   0.05611
     Eigenvalues ---    0.06303   0.06849   0.07556   0.07611   0.09442
     Eigenvalues ---    0.09887   0.10103   0.10832   0.10860   0.11356
     Eigenvalues ---    0.11502   0.13353   0.13474   0.14103   0.14805
     Eigenvalues ---    0.15012   0.15750   0.16000   0.16000   0.16000
     Eigenvalues ---    0.16000   0.16000   0.16000   0.16750   0.18375
     Eigenvalues ---    0.18665   0.20542   0.21226   0.21311   0.21876
     Eigenvalues ---    0.21949   0.22023   0.22097   0.23495   0.23757
     Eigenvalues ---    0.24319   0.25000   0.25000   0.25336   0.26398
     Eigenvalues ---    0.26809   0.26913   0.28546   0.28587   0.32865
     Eigenvalues ---    0.33670   0.33827   0.33828   0.34053   0.34303
     Eigenvalues ---    0.34322   0.34341   0.34438   0.34445   0.34450
     Eigenvalues ---    0.34518   0.34766   0.34953   0.35338   0.35347
     Eigenvalues ---    0.35898   0.36161   0.38567   0.47007   0.50558
     Eigenvalues ---    0.51301   0.51995   0.53799
 RFO step:  Lambda=-9.69705052D-02 EMin= 2.30000000D-03
 Linear search not attempted -- first point.
 Maximum step size (   0.300) exceeded in Quadratic search.
    -- Step size scaled by   0.724
 Iteration  1 RMS(Cart)=  0.16369980 RMS(Int)=  0.00458500
 Iteration  2 RMS(Cart)=  0.01165898 RMS(Int)=  0.00106026
 Iteration  3 RMS(Cart)=  0.00001900 RMS(Int)=  0.00106020
 Iteration  4 RMS(Cart)=  0.00000002 RMS(Int)=  0.00106020
 Variable       Old X    -DE/DX   Delta X   Delta X   Delta X     New X
                                 (Linear)    (Quad)   (Total)
    R1        2.57904  -0.01187   0.00000  -0.01394  -0.01394   2.56511
    R2        2.07890  -0.00917   0.00000  -0.01532  -0.01532   2.06358
    R3        2.04242   0.00464   0.00000   0.00738   0.00738   2.04980
    R4        2.71982   0.02159   0.00000   0.03242   0.03163   2.75145
    R5        2.89293  -0.02184   0.00000  -0.03919  -0.03947   2.85346
    R6        2.54752   0.01918   0.00000   0.01935   0.01878   2.56631
    R7        2.05115  -0.00031   0.00000  -0.00050  -0.00050   2.05065
    R8        2.76821  -0.01615   0.00000  -0.02925  -0.02916   2.73905
    R9        2.03830   0.00501   0.00000   0.00791   0.00791   2.04621
   R10        2.59172   0.01150   0.00000   0.00587   0.00520   2.59692
   R11        2.94799  -0.02235   0.00000  -0.04613  -0.04641   2.90158
   R12        2.79029  -0.01861   0.00000  -0.03327  -0.03285   2.75744
   R13        2.05752  -0.00178   0.00000  -0.00288  -0.00288   2.05464
   R14        2.55452   0.06641   0.00000   0.08071   0.08185   2.63637
   R15        2.06822   0.00266   0.00000   0.00437   0.00437   2.07259
   R16        3.70620  -0.03055   0.00000  -0.08540  -0.08499   3.62121
   R17        3.52882  -0.01775   0.00000  -0.03940  -0.03975   3.48907
   R18        2.57787   0.02887   0.00000   0.03833   0.03917   2.61704
   R19        2.07241  -0.00217   0.00000  -0.00360  -0.00360   2.06882
   R20        2.93688   0.00698   0.00000   0.01937   0.01944   2.95632
   R21        2.06056   0.00277   0.00000   0.00451   0.00451   2.06507
   R22        3.53333  -0.01305   0.00000  -0.03048  -0.03048   3.50285
   R23        2.06759   0.00276   0.00000   0.00454   0.00454   2.07213
   R24        3.38519   0.01650   0.00000   0.03272   0.03272   3.41792
   R25        2.90961  -0.00476   0.00000  -0.00902  -0.00902   2.90059
   R26        2.06464   0.00088   0.00000   0.00144   0.00144   2.06608
   R27        2.06597  -0.00025   0.00000  -0.00041  -0.00041   2.06556
   R28        3.44672   0.00239   0.00000   0.00509   0.00509   3.45181
   R29        2.07624  -0.00303   0.00000  -0.00505  -0.00505   2.07119
   R30        2.07622  -0.00278   0.00000  -0.00463  -0.00463   2.07159
   R31        3.42061   0.00231   0.00000   0.00479   0.00479   3.42539
   R32        2.06790  -0.00117   0.00000  -0.00192  -0.00192   2.06598
   R33        2.06577   0.00005   0.00000   0.00007   0.00007   2.06584
   R34        2.06586  -0.00001   0.00000  -0.00002  -0.00002   2.06584
    A1        2.09294   0.00143   0.00000   0.00463   0.00447   2.09742
    A2        2.23088  -0.01015   0.00000  -0.02801  -0.02816   2.20272
    A3        1.95395   0.00924   0.00000   0.02666   0.02650   1.98045
    A4        1.91166   0.03037   0.00000   0.07132   0.07169   1.98334
    A5        2.21047  -0.03033   0.00000  -0.07231  -0.07276   2.13772
    A6        2.10350   0.00049   0.00000   0.00902   0.00898   2.11248
    A7        2.13366   0.01100   0.00000   0.03072   0.03014   2.16380
    A8        2.10564  -0.00882   0.00000  -0.02651  -0.02632   2.07932
    A9        2.02965  -0.00257   0.00000  -0.00277  -0.00239   2.02726
   A10        2.26391  -0.00734   0.00000  -0.01885  -0.01847   2.24544
   A11        1.94533   0.01504   0.00000   0.04146   0.04126   1.98659
   A12        2.07394  -0.00768   0.00000  -0.02259  -0.02279   2.05116
   A13        2.18830   0.00002   0.00000   0.00094   0.00138   2.18968
   A14        2.02241   0.01324   0.00000   0.02293   0.02093   2.04334
   A15        2.04518  -0.01412   0.00000  -0.03334  -0.03281   2.01237
   A16        2.15721   0.01015   0.00000   0.02339   0.02105   2.17826
   A17        2.10048  -0.00601   0.00000  -0.01453  -0.01436   2.08611
   A18        1.90644  -0.00242   0.00000  -0.00698  -0.00536   1.90108
   A19        1.97983   0.01495   0.00000   0.06592   0.06383   2.04366
   A20        1.94399  -0.00184   0.00000  -0.00409  -0.00771   1.93628
   A21        1.98994   0.00668   0.00000   0.03235   0.03149   2.02143
   A22        1.88783  -0.00818   0.00000  -0.00030  -0.00246   1.88537
   A23        2.08068   0.01112   0.00000   0.02078   0.02067   2.10135
   A24        2.00900  -0.00295   0.00000  -0.00998  -0.00786   2.00114
   A25        1.92958  -0.03378   0.00000  -0.09951  -0.09932   1.83026
   A26        2.11276   0.01584   0.00000   0.04376   0.04863   2.16139
   A27        2.03557  -0.01194   0.00000  -0.03706  -0.03968   1.99589
   A28        1.98992   0.00019   0.00000   0.00688   0.00487   1.99479
   A29        2.08697   0.03084   0.00000   0.08118   0.07959   2.16656
   A30        2.05635  -0.01261   0.00000  -0.01830  -0.01808   2.03826
   A31        1.97135  -0.00942   0.00000  -0.02218  -0.02318   1.94817
   A32        1.90177  -0.02995   0.00000  -0.08495  -0.08447   1.81730
   A33        1.90659   0.01856   0.00000   0.03346   0.03015   1.93675
   A34        1.89087   0.00862   0.00000   0.04137   0.04336   1.93423
   A35        1.92207  -0.00219   0.00000  -0.01510  -0.01338   1.90870
   A36        1.95116   0.01480   0.00000   0.04777   0.04712   1.99828
   A37        1.89073  -0.00908   0.00000  -0.02063  -0.02127   1.86945
   A38        1.83694  -0.02296   0.00000  -0.04792  -0.04792   1.78903
   A39        1.85496   0.00415   0.00000   0.01132   0.01133   1.86629
   A40        1.89384   0.00156   0.00000   0.00903   0.00906   1.90290
   A41        1.91070   0.00011   0.00000   0.00330   0.00333   1.91403
   A42        1.93573  -0.00272   0.00000  -0.00857  -0.00865   1.92707
   A43        1.93950  -0.00209   0.00000  -0.00725  -0.00732   1.93218
   A44        1.92711  -0.00071   0.00000  -0.00658  -0.00669   1.92042
   A45        1.88042   0.00433   0.00000   0.00986   0.00987   1.89030
   A46        1.93646  -0.00219   0.00000  -0.00619  -0.00620   1.93026
   A47        1.93584  -0.00197   0.00000  -0.00550  -0.00551   1.93033
   A48        1.91465  -0.00084   0.00000  -0.00096  -0.00095   1.91370
   A49        1.91355  -0.00097   0.00000  -0.00137  -0.00136   1.91219
   A50        1.88306   0.00158   0.00000   0.00407   0.00405   1.88711
   A51        1.76173  -0.00440   0.00000  -0.00919  -0.00919   1.75253
   A52        1.87172  -0.00185   0.00000  -0.00487  -0.00487   1.86685
   A53        1.94801  -0.00024   0.00000  -0.00082  -0.00083   1.94718
   A54        1.94954  -0.00051   0.00000  -0.00164  -0.00164   1.94789
   A55        1.88453   0.00152   0.00000   0.00465   0.00465   1.88919
   A56        1.88453   0.00156   0.00000   0.00469   0.00469   1.88922
   A57        1.92252  -0.00038   0.00000  -0.00163  -0.00164   1.92088
    D1        0.13476   0.00209   0.00000   0.00810   0.00864   0.14340
    D2        2.91544   0.00595   0.00000   0.03932   0.03880   2.95424
    D3       -2.88572  -0.00443   0.00000  -0.03035  -0.02982  -2.91554
    D4       -0.10503  -0.00057   0.00000   0.00088   0.00034  -0.10469
    D5        2.45095  -0.01752   0.00000  -0.03292  -0.03150   2.41944
    D6       -0.50339  -0.01465   0.00000  -0.04192  -0.04066  -0.54405
    D7       -0.35553  -0.01313   0.00000  -0.04114  -0.04119  -0.39672
    D8        2.97331  -0.01026   0.00000  -0.05013  -0.05034   2.92297
    D9       -1.42207  -0.02349   0.00000  -0.09097  -0.08978  -1.51185
   D10        2.52172  -0.02115   0.00000  -0.09620  -0.09592   2.42581
   D11        1.32287  -0.01481   0.00000  -0.04796  -0.04771   1.27515
   D12       -1.01652  -0.01247   0.00000  -0.05319  -0.05386  -1.07038
   D13        0.00484  -0.00364   0.00000  -0.00497  -0.00458   0.00026
   D14       -3.13960   0.00095   0.00000   0.00061   0.00059  -3.13901
   D15        2.96683  -0.00711   0.00000   0.00105   0.00177   2.96860
   D16       -0.17762  -0.00252   0.00000   0.00663   0.00694  -0.17067
   D17       -0.46646   0.00638   0.00000   0.02943   0.02966  -0.43680
   D18        2.41808   0.00054   0.00000  -0.01888  -0.02003   2.39805
   D19        2.67816   0.00148   0.00000   0.02342   0.02424   2.70241
   D20       -0.72048  -0.00436   0.00000  -0.02490  -0.02545  -0.74593
[...]
 1030,0.00001399,-0.00000234,-0.00000494,-0.00001087,-0.00006745,0.0000
 3402,0.00005487,0.00009317,0.00008686,-0.00016168,-0.00122730,-0.00009
 609,-0.00259653,0.00290717,-0.00240840,0.21813173,0.00000981,-0.000012
 42,-0.00000543,-0.00001825,0.00001883,-0.00002715,0.00004581,-0.000093
 45,0.00000756,-0.00016462,0.00006359,-0.00003426,0.00006684,0.00001158
 ,0.00009962,0.00002181,0.00002663,0.00002935,-0.00000485,-0.00001119,-
 0.00002948,-0.00001034,-0.00000779,0.00000779,-0.00000622,-0.00001666,
 0.00000771,-0.00000614,0.00001096,0.00000012,0.00012397,-0.00011173,-0
 .00017535,-0.00054294,0.00207119,-0.00043812,-0.00828129,0.00241072,-0
 .00009377,0.09814242,-0.10895079,0.04844281,0.02593503,-0.01835367,0.0
 1439824,0.00070008,0.00068462,0.00026355,-0.00030552,-0.00008279,-0.00
 036277,0.00000119,0.00000185,-0.00000096,-0.00000369,-0.00000393,0.000
 00193,-0.00000016,0.00000067,0.00001328,0.00010942,-0.00007715,0.00000
 532,0.00000593,-0.00001738,0.00000696,0.00000224,0.00000027,0.00000205
 ,-0.00000308,-0.00002605,0.00000317,0.00006483,0.00001515,0.00007754,0
 .00081111,-0.00009376,0.00019611,-0.00793991,0.00561212,-0.00438162,-0
 .10690926,0.12130248,-0.00001111,0.00003395,0.00001879,0.00001916,-0.0
 0004001,0.00002907,-0.00007347,0.00015245,-0.00001710,0.00029136,-0.00
 017964,-0.00005670,-0.00005287,-0.00024180,0.00006346,-0.00001702,0.00
 002170,-0.00007842,-0.00007226,-0.00005639,-0.00000543,0.00005691,-0.0
 0000005,0.00007707,0.00004827,0.00003446,0.00000208,-0.00004111,0.0000
 6711,0.00005635,-0.00008182,0.00012109,-0.00022975,-0.00098429,-0.0010
 4517,-0.00005274,0.01930719,-0.00567575,0.00265025,-0.08518467,0.04881
 146,-0.09023167,0.00061740,-0.00069005,0.00021428,-0.00070949,0.000505
 22,0.00003518,0.00039834,0.00000032,0.00007430,-0.00000098,-0.00000697
 ,0.00000356,0.00000643,0.00000820,-0.00000319,0.00000429,-0.00000753,-
 0.00000399,-0.00018173,0.00014562,-0.00001031,0.00000444,0.00001295,0.
 00000489,-0.00000976,0.00000031,0.00000052,-0.00000695,-0.00005397,0.0
 0002601,0.00014181,-0.00001804,-0.00005063,-0.00046973,0.00043220,0.00
 014941,-0.02309076,0.01512357,-0.01066960,0.08892284,-0.05716885,0.096
 52813,-0.00000621,-0.00000244,-0.00000173,0.00001405,0.00000473,-0.000
 00021,-0.00000502,-0.00000250,0.00000990,-0.00000061,-0.00001754,0.000
 00286,-0.00001290,-0.00003582,0.00000068,-0.00000124,0.00002049,-0.000
 00140,-0.00004685,-0.00001655,-0.00001851,-0.00000612,-0.00002849,0.00
 003426,0.00002754,0.00002324,0.00000746,0.00002647,0.00003539,0.000021
 96,-0.00011737,-0.00000156,0.00004392,-0.00006256,-0.00006219,0.000149
 90,0.00055264,-0.00024023,-0.00091151,-0.00118373,-0.00206466,-0.00568
 524,-0.04677764,-0.00707344,-0.03437461,-0.00783736,0.00378198,0.02698
 023,0.00122179,0.00197596,-0.00101272,-0.00000054,0.00000222,-0.000001
 91,0.00000104,-0.00000009,-0.00000036,0.00000016,0.00000098,-0.0000021
 3,0.00000692,0.00000060,-0.00001343,0.00000590,0.00000271,-0.00000239,
 0.00000528,0.00000370,-0.00000370,-0.00001055,-0.00000725,0.00000927,0
 .00003513,0.00001889,0.00000171,0.00001203,0.00005454,-0.00000517,0.00
 066763,-0.00116577,0.00051350,0.00004752,-0.00007050,0.00085516,0.0554
 4143,-0.00000893,-0.00000094,-0.00000240,0.00000782,-0.00000074,-0.000
 00287,-0.00000449,-0.00000172,0.00000505,0.00001991,-0.00003327,-0.000
 01632,-0.00007356,0.00001884,0.00008831,0.00002227,0.00007175,0.000010
 81,-0.00010968,-0.00005207,-0.00004511,0.00001603,-0.00003058,0.000110
 63,0.00007499,0.00006201,0.00000708,-0.00001624,0.00008704,0.00006122,
 -0.00012403,-0.00005433,0.00011607,0.00029747,-0.00028486,-0.00002842,
 0.00005947,0.00085785,-0.00050125,-0.00541848,-0.01236025,-0.03218196,
 -0.00763981,-0.07288875,-0.07455370,-0.00314548,0.00078234,0.00644108,
 0.00058255,0.00165453,0.00133201,-0.00000171,0.00000108,-0.00000094,0.
 00000092,0.00000108,-0.00000171,-0.00000392,-0.00000024,-0.00000025,0.
 00000576,0.00000559,0.00000398,0.00001298,-0.00000154,-0.00000388,0.00
 000828,0.00000864,-0.00000719,-0.00001980,-0.00000233,0.00000656,0.000
 06252,0.00001810,0.00000454,0.00000262,0.00002107,-0.00004511,-0.00101
 192,-0.00620646,0.00065355,0.00031865,0.00140292,0.00021543,0.01340906
 ,0.08121051,0.00000533,0.00000080,0.00000630,-0.00000998,-0.00000262,-
 0.00000724,0.00000556,0.00001409,0.00000464,-0.00001512,-0.00000853,-0
 .00001136,0.00001954,0.00000404,-0.00001307,0.00000100,-0.00000732,0.0
 0000801,0.00001102,-0.00000342,0.00001623,0.00001582,0.00002281,0.0000
 0931,0.00001494,0.00000385,0.00000495,0.00000819,-0.00002030,0.0000390
 7,0.00003055,0.00027970,-0.00003267,-0.00004987,-0.00032909,0.00034349
 ,-0.00058095,-0.00004482,0.00025210,0.00004221,0.00032097,0.00131441,-
 0.04180285,-0.07910784,-0.27930098,0.00695608,-0.00209769,-0.01120994,
 -0.00078115,-0.00045312,0.00127409,0.00000016,-0.00000178,0.00000182,-
 0.00000030,0.00000126,-0.00000180,0.00000066,-0.00000171,-0.00000084,-
 0.00000086,0.00000161,0.00000009,0.00000107,-0.00000299,0.00000137,-0.
 00000121,-0.00000032,-0.00000105,0.00001469,0.00000892,-0.00001811,0.0
 0000074,-0.00000345,-0.00000493,0.00000148,0.00001397,-0.00000347,0.00
 042911,0.00050396,0.00112034,0.00025753,-0.00027323,0.00044022,0.03752
 824,0.08454350,0.29750352,-0.00000415,-0.00000149,-0.00000049,0.000010
 73,0.00000388,0.00000419,-0.00000685,0.00000259,0.00000425,0.00000475,
 -0.00000635,0.00001023,0.00000766,0.00002106,-0.00002784,-0.00000775,-
 0.00000164,-0.00000218,-0.00001323,0.00000402,0.00000142,-0.00001055,-
 0.00001686,0.00000096,0.00000871,0.00000024,0.00000570,0.00001256,0.00
 000950,-0.00001887,-0.00003679,0.00001465,0.00002780,0.00029902,-0.000
 05357,0.00012330,0.00090268,-0.00018777,-0.00036627,0.00523704,-0.0035
 2930,0.00314962,-0.19831080,0.10237266,-0.09428913,-0.02265743,0.00599
 691,0.00121692,0.00185654,0.00119226,-0.00034074,0.00000041,0.00000140
 ,-0.00000151,0.00000085,-0.00000063,-0.00000041,0.00000223,0.00000195,
 -0.00000279,-0.00000112,0.00000589,-0.00000348,-0.00000004,0.00000422,
 -0.00000176,0.00000254,0.00000048,-0.00000187,-0.00000341,-0.00000555,
 0.00000771,0.00001290,0.00001086,-0.00000755,-0.00012900,-0.00007338,-
 0.00003026,0.00003588,0.00030743,0.00026088,0.00045129,-0.00175468,0.0
 0034634,-0.00209398,0.00248302,-0.00229276,0.21412223,-0.00000421,0.00
 000159,-0.00000453,0.00001387,-0.00000167,-0.00000102,-0.00000617,0.00
 001438,0.00000114,-0.00000680,-0.00005853,-0.00001039,-0.00006422,0.00
 005824,-0.00004147,0.00001949,0.00003028,0.00001745,-0.00001313,-0.000
 00323,-0.00001677,-0.00000726,-0.00001096,0.00001578,0.00000096,0.0000
 0677,-0.00001206,-0.00001183,0.00002009,0.00000078,0.00006123,-0.00007
 267,0.00003348,-0.00026710,0.00000071,-0.00041444,0.00075153,0.0007987
 1,0.00015376,0.02566796,-0.01840163,0.01453132,0.09635851,-0.10763372,
 0.05064575,-0.00793322,0.00180397,-0.00018798,-0.00078301,0.00203265,-
 0.00072594,-0.00000247,0.00000015,0.00000041,0.,0.00000035,0.00000151,
 -0.00001055,-0.00000216,-0.00000105,0.00001227,0.00000658,0.00002324,0
 .00000396,0.00000485,-0.00000135,0.00000231,0.00000202,-0.00000004,-0.
 00000447,0.00002479,-0.00000384,-0.00004013,-0.00003098,-0.00000989,0.
 00003173,0.00031431,-0.00001239,-0.00004148,0.00146981,-0.00023260,-0.
 00176374,-0.00618180,-0.00038448,-0.00789211,0.00562728,-0.00470199,-0
 .10526318,0.12010834,0.00000581,-0.00000088,-0.00000273,-0.00001146,0.
 00000487,0.00000235,0.00000474,-0.00001328,-0.00000944,-0.00001368,0.0
 0003402,0.00000810,-0.00002180,0.00004063,-0.00000192,0.00001260,0.000
 00095,0.00000152,0.00002343,0.00000642,-0.00000519,-0.00000336,0.00000
 774,-0.00001702,-0.00002477,-0.00001696,-0.00000337,-0.00000815,-0.000
 00028,-0.00000277,0.00004677,0.00001698,-0.00001298,0.00042741,-0.0000
 2221,0.00019720,-0.00074847,0.00040491,-0.00007580,0.00080375,-0.00083
 783,0.00018211,-0.08759597,0.05133220,-0.09446297,0.01863027,-0.005424
 57,0.00331352,-0.00105403,-0.00123416,0.00014341,0.00000093,-0.0000010
 1,0.00000145,-0.00000093,-0.00000130,0.00000048,0.00000205,0.00000121,
 0.00000318,-0.00000096,-0.00000599,0.00000177,-0.00000429,-0.00000265,
 -0.00000088,-0.00000186,-0.00000209,0.00000265,0.00000171,0.00000484,-
 0.00000056,-0.00003375,-0.00000731,0.00000112,-0.00002770,-0.00012269,
 -0.00004795,0.00086116,0.00014951,0.00048823,0.00033030,-0.00049285,0.
 00108411,-0.02295816,0.01486474,-0.01174300,0.09217070,-0.05893218,0.1
 0114025,-0.00000235,-0.00000126,-0.00000151,0.00000479,0.00000198,0.00
 000064,-0.00000116,-0.00000190,0.00000194,-0.00000281,0.00000178,0.000
 00115,0.00000322,0.00001101,-0.00000761,0.00000090,-0.00000012,0.00000
 287,-0.00000587,0.00000153,-0.00000109,-0.00000399,-0.00000642,0.00000
 258,0.00000364,0.00000020,-0.00000033,0.00000189,0.00000511,-0.0000036
 9,-0.00000724,-0.00001273,0.00000288,0.00004512,0.00002722,-0.00001371
 ,0.00002296,0.00007825,0.00001161,0.00035088,0.00012253,0.00006594,0.0
 0003762,0.00029474,-0.00035450,0.00051782,-0.00057607,-0.00102012,-0.2
 2686612,-0.07046724,0.11026615,-0.00000025,0.00000068,-0.00000014,0.00
 000041,-0.00000015,0.00000007,0.00000043,0.00000097,-0.00000015,0.0000
 0250,-0.00000070,-0.00000103,0.00000016,0.00000084,0.00000004,0.000001
 54,0.00000075,-0.00000057,-0.00000224,-0.00000020,0.00000106,0.0000018
 8,0.00000225,0.00000008,0.00000029,-0.00000207,-0.00000469,-0.00000584
 ,0.00001034,0.00000207,-0.00000784,-0.00007178,-0.00000642,-0.00000635
 ,0.00005186,-0.00002508,0.00042789,0.00011607,-0.00000217,0.24175760,-
 0.00001589,-0.00000687,-0.00000996,0.00004447,0.00001645,0.00000766,-0
 .00001219,-0.00001426,0.00001486,0.00000501,-0.00001941,0.00002726,0.0
 0010095,-0.00017536,-0.00008761,-0.00009726,-0.00003549,-0.00001972,-0
 .00003081,0.00000490,0.00001610,-0.00004562,-0.00006934,-0.00001165,0.
 00001529,-0.00000810,0.00000180,-0.00000212,0.00004789,-0.00005601,-0.
 00002158,-0.00005121,0.00005878,-0.00027830,0.00024143,0.00033335,-0.0
 0000665,-0.00073632,-0.00019663,-0.00205065,0.00036377,0.00134109,0.00
 128075,-0.00768940,-0.00176341,-0.02118566,-0.00895368,0.01290650,-0.0
 7338415,-0.06913387,0.04507914,-0.00000340,0.00000584,-0.00000414,0.00
 000223,-0.00000165,0.00000064,-0.00000616,0.00000418,-0.00000509,0.000
 03204,0.00000007,-0.00000143,0.00000518,0.00000516,-0.00000142,0.00001
 182,0.00000162,-0.00001116,-0.00001281,-0.00000914,0.00001745,0.000013
 00,0.00000778,-0.00001142,0.00000609,-0.00002577,-0.00001801,-0.000037
 05,0.00008329,-0.00002173,0.00002633,0.00006390,0.00006446,0.00048683,
 0.00010405,-0.00010422,0.00019528,0.00012657,-0.00036862,0.07732114,0.
 07767210,-0.00000024,0.00000001,-0.00000172,0.00000379,0.00000230,0.00
 000103,-0.00000083,-0.00000142,0.00000096,0.00000248,-0.00000266,0.000
 00342,0.00000880,-0.00003018,-0.00001118,-0.00001170,-0.00000437,-0.00
 000460,-0.00000011,0.00000011,0.00000113,-0.00000630,-0.00000692,-0.00
 000263,-0.00000140,-0.00000254,0.00000066,0.00000159,0.00000461,-0.000
 00651,0.00000212,0.00000487,0.00000386,-0.00005295,0.00001662,0.000071
 33,-0.00001283,-0.00015688,-0.00001662,-0.00021355,-0.00008804,0.00056
 643,-0.00022204,-0.00114229,-0.00058435,-0.00376123,-0.00069767,0.0014
 5960,0.10987031,0.04316895,-0.11163900,-0.00000044,0.00000043,-0.00000
 017,0.00000004,-0.00000058,0.00000037,-0.00000110,0.00000013,-0.000000
 16,0.00000274,0.00000034,0.00000008,-0.00000015,0.00000023,-0.00000032
 ,0.00000073,-0.00000021,-0.00000079,-0.00000059,-0.00000117,0.00000216
 ,-0.00000061,0.00000010,-0.00000099,0.00000001,-0.00000237,-0.00000081
 ,-0.00000075,0.00009565,-0.00000115,0.00000379,-0.00003020,-0.00000104
 ,-0.00014286,-0.00013492,0.00039336,0.00018983,0.00002027,-0.00007021,
 -0.11968529,-0.04645417,0.11684764,0.00000512,0.00000252,0.00000344,-0
 .00001269,-0.00000537,-0.00000322,0.00000320,0.00000655,-0.00000411,0.
 00000062,-0.00000077,-0.00000697,-0.00001991,0.00002635,0.00002239,0.0
 0001963,0.00000706,0.00000027,0.00001092,-0.00000287,-0.00000327,0.000
 01278,0.00001978,0.00000213,-0.00000508,0.00000260,0.00000120,0.000003
 18,-0.00001674,0.00001514,0.00001078,0.00003966,-0.00001552,0.00000656
 ,-0.00008473,-0.00002074,-0.00004236,0.00002084,0.00004561,-0.00002554
 ,-0.00012935,0.00011690,0.00004109,0.00003641,-0.00192941,0.00089840,-
 0.00189728,0.00127662,-0.05053243,-0.00321094,-0.02329022,0.00000095,-
 0.00000192,0.00000111,-0.00000083,0.00000080,0.00000012,0.00000081,-0.
 00000205,0.00000106,-0.00000818,0.00000144,0.00000048,-0.00000098,-0.0
 0000173,0.00000016,-0.00000388,-0.00000075,0.00000302,0.00000460,0.000
 00291,-0.00000519,-0.00000489,-0.00000338,0.00000196,-0.00000071,0.000
 01340,0.00000780,-0.00002765,0.00008712,0.00005947,0.00000214,0.000056
 91,-0.00001233,0.00030009,0.00013757,0.00032030,-0.00016145,0.00001954
 ,-0.00005037,0.00296693,0.00691708,0.02527928,0.04772429,-0.00000700,-
 0.00000328,-0.00000169,0.00001215,0.00000255,0.00000211,-0.00000369,-0
 .00000364,0.00000862,-0.00000044,-0.00000973,0.00000316,0.00001339,-0.
 00001032,-0.00000881,-0.00001855,-0.00000176,0.00000266,-0.00001769,0.
 00000069,0.00000508,-0.00000061,-0.00001230,0.00000487,0.00001606,0.00
 000744,-0.00000788,-0.00001444,0.00000968,0.00001699,-0.00002474,-0.00
 003687,-0.00000248,0.00004888,0.00007357,-0.00000578,-0.00007926,0.000
 01986,0.00021468,0.00033642,0.00011641,-0.00013458,0.00164555,0.002309
 88,-0.00092089,-0.00140627,-0.02027502,-0.02412284,-0.00576914,-0.0523
 0931,-0.06392611,-0.00000162,0.00000223,-0.00000162,0.00000110,0.00000
 031,-0.00000103,-0.00000228,0.00000145,-0.00000273,0.00000895,-0.00000
 012,-0.00000301,0.00000393,0.00000160,-0.00000196,0.00000303,0.0000015
 6,-0.00000323,-0.00000242,0.00000292,-0.00000580,0.00001354,0.00000435
 ,-0.00000343,0.00000025,-0.00000725,-0.00001039,0.00013277,0.00027975,
 0.00018365,0.00001819,-0.00001743,-0.00004468,-0.00087315,0.00011851,0
 .00126268,-0.00023844,-0.00013908,0.00021268,0.00194811,0.00292828,0.0
 1064306,0.00416922,0.06285110,-0.00000473,-0.00000228,-0.00000028,0.00
 000805,0.00000105,0.00000103,-0.00000292,-0.00000232,0.00000491,-0.000
 00093,-0.00000565,0.00000449,0.00001328,-0.00001972,-0.00000931,-0.000
 01577,-0.00000534,-0.00000160,-0.00000854,0.00000058,0.00000443,-0.000
 00225,-0.00000888,-0.00000093,0.00000602,0.00000200,-0.00000337,-0.000
 00448,0.00000476,0.00000286,-0.00001673,-0.00001864,0.00000434,-0.0000
 1855,0.00004580,0.00002892,-0.00001039,-0.00006506,-0.00001281,0.00004
 262,0.00020554,0.00029202,-0.00021324,0.00038213,0.00162229,0.00150134
 ,-0.00139118,0.00257434,-0.02213940,-0.05686708,-0.30130887,-0.0000008
 5,0.00000173,-0.00000144,0.00000081,0.00000030,-0.00000064,-0.00000094
 ,0.00000100,-0.00000213,0.00000637,-0.00000012,-0.00000307,0.00000241,
 0.00000116,-0.00000095,0.00000208,0.00000064,-0.00000219,-0.00000148,0
 .00000002,-0.00000062,0.00000624,0.00000301,-0.00000288,0.00000203,-0.
 00000354,-0.00000471,0.00006081,0.00010578,-0.00009660,-0.00000596,0.0
 0001545,-0.00001047,-0.00090998,-0.00093397,-0.00016551,-0.00012104,0.
 00002734,-0.00024324,-0.00256721,-0.00324412,-0.01343700,0.02397761,0.
 06401221,0.32156941,0.00000538,0.00000260,0.00000345,-0.00001292,-0.00
 000459,-0.00000228,0.00000305,0.00000433,-0.00000538,0.00000040,0.0000
 0331,-0.00000635,-0.00001961,0.00002720,0.00002032,0.00001866,0.000007
 58,0.00000121,0.00001159,-0.00000211,-0.00000424,0.00001003,0.00001721
 ,0.00000066,-0.00000603,0.00000110,0.00000288,0.00000130,-0.00001271,0
 .00000874,0.00001361,0.00002205,-0.00001109,-0.00000043,-0.00005908,-0
 .00005905,-0.00003118,0.00008441,0.00001986,0.00019628,-0.00027499,0.0
 0005055,0.00227672,-0.00040890,0.00052234,0.00364597,-0.00292928,0.002
 48829,-0.22766327,0.08988310,-0.08804900,0.00000154,-0.00000192,0.0000
 0085,-0.00000081,0.00000047,0.00000007,0.00000184,-0.00000167,0.000001
 61,-0.00000783,0.00000076,0.00000176,-0.00000051,-0.00000205,0.0000002
 5,-0.00000357,-0.00000096,0.00000271,0.00000373,0.00000167,-0.00000258
 ,-0.00000513,-0.00000376,0.00000270,0.00000438,0.00001306,0.00000731,0
 .00000024,0.00000270,-0.00000554,-0.00015140,-0.00000421,-0.00001316,-
 0.00019662,0.00000425,-0.00010409,0.00004064,0.00105562,-0.00075976,-0
 .01923638,0.01072686,-0.01125054,-0.00116551,0.00008825,0.00041572,0.2
 4226584,-0.00000558,-0.00000298,-0.00000556,0.00001397,0.00000539,0.00
 000181,-0.00000141,-0.00000621,0.00000760,-0.00000480,-0.00000984,0.00
 000314,0.00001732,-0.00001298,-0.00001930,-0.00001842,-0.00000485,0.00
 000371,-0.00001456,0.00000255,0.00000337,-0.00000691,-0.00001535,0.000
 00303,0.00000733,0.00000392,-0.00000800,-0.00000644,0.00000976,0.00000
 533,-0.00001207,-0.00003246,0.00000952,0.00002886,0.00007578,0.0000228
 4,-0.00022307,0.00002853,-0.00001049,0.00023179,0.00010867,-0.00022564
 ,0.00165427,0.00230062,-0.00070373,0.01796652,-0.02406184,0.00585313,0
 .09550482,-0.08438511,0.04858496,-0.00000239,0.00000214,-0.00000090,0.
 00000077,-0.00000026,0.00000016,-0.00000555,0.00000053,-0.00000138,0.0
 0001218,-0.00000374,0.00000126,0.00000109,0.00000352,-0.00000162,0.000
 00395,0.00000203,-0.00000298,-0.00000351,0.00000568,-0.00000365,0.0000
 0057,0.00000002,-0.00000129,0.00000602,0.00000008,-0.00001549,0.000039
 43,-0.00001122,-0.00000921,-0.00011482,0.00036050,-0.00013713,-0.00026
 701,-0.00013515,0.00018225,-0.00149544,0.00008395,0.00040523,-0.008856
 72,0.00525262,-0.00520112,-0.00620988,0.00409402,-0.00224259,-0.098240
 28,0.09634167,-0.00000363,-0.00000201,-0.00000415,0.00001075,0.0000063
 7,0.00000322,-0.00000251,-0.00000690,0.00000304,-0.00000261,0.00000381
 ,0.00000627,0.00001453,-0.00001663,-0.00002264,-0.00001363,-0.00000510
 ,0.00000149,-0.00000852,0.00000288,0.00000055,-0.00001323,-0.00001758,
 -0.00000089,0.00000327,-0.00000319,-0.00000028,0.00000097,0.00001440,-
 0.00001428,-0.00000658,-0.00002298,0.00001360,0.00003439,0.00006194,0.
 00004563,-0.00000871,0.00000789,-0.00003730,0.00025760,0.00002350,0.00
 003178,-0.00071309,0.00045935,-0.00063200,0.00511535,-0.00283501,0.003
 71064,-0.08878024,0.04357513,-0.09224177,-0.00000065,0.00000151,-0.000
 00062,0.00000064,-0.00000111,0.00000018,-0.00000027,0.00000195,-0.0000
 0017,0.00000675,-0.00000175,-0.00000067,0.00000022,0.00000141,-0.00000
 035,0.00000361,0.00000082,-0.00000233,-0.00000417,-0.00000161,0.000004
 55,0.00000096,0.00000305,-0.00000055,-0.00000083,-0.00001628,-0.000011
 75,-0.00001230,-0.00004754,-0.00001318,-0.00001743,-0.00006454,-0.0000
 3665,-0.00011302,-0.00000458,-0.00021938,-0.00001090,0.00022217,0.0001
 2857,0.01333620,-0.00747857,0.00642722,-0.02579472,0.01263648,-0.01080
 043,0.09672182,-0.04649727,0.09366263\\0.00000166,0.00000402,0.0000022
 3,-0.00000169,-0.00000727,-0.00000345,0.00000439,0.00001423,0.00000583
 ,-0.00001056,-0.00000615,0.00000003,0.00001287,0.00001853,-0.00000645,
 0.00000220,-0.00002740,-0.00000245,-0.00000372,0.00000858,-0.00000127,
 0.00000567,0.00000032,-0.00000304,0.00000712,0.00000395,0.00000548,-0.
 00000593,-0.00000837,-0.00000551,-0.00000334,-0.00000064,0.00000154,-0
 .00001069,0.00001145,0.00001464,0.00000021,-0.00000337,-0.00000236,-0.
 00000172,0.00000343,0.00000251,0.00000196,-0.00000004,-0.00000152,0.00
 000058,-0.00000154,0.00000169,-0.00000015,-0.00000119,0.00000024,-0.00
 000151,-0.00000009,-0.00000223,-0.00000128,-0.00000080,-0.00000073,0.0
 0000075,-0.00000228,-0.00000481,-0.00000037,0.00000137,0.00000008,-0.0
 0000155,0.00000444,0.00000308,0.00000131,-0.00000045,0.00000223,0.0000
 0200,0.00000003,0.00000099,0.00000156,-0.00000214,-0.00000923,0.000000
 07,-0.00000696,-0.00000139,-0.00000147,-0.00000151,0.00000063,0.000000
 08,0.00000011,0.00000141,0.00000011,0.00000098,0.00000016,-0.00000024,
 -0.00000042,0.00000003,0.00000081,-0.00000074,0.00000081,0.00000023,-0
 .00000004,0.00000056,0.00000068,-0.00000004,0.00000026\\\@


 DESK:  A WASTEBASKET WITH DRAWERS.
 Job cpu time:       0 days 13 hours 41 minutes 48.1 seconds.
 Elapsed time:       0 days  3 hours 25 minutes 29.3 seconds.
 File lengths (MBytes):  RWF=    862 Int=      0 D2E=      0 Chk=     27 Scr=      1
 Normal termination of Gaussian 16 at Fri May 19 21:27:44 2023.
### All Done ###
