### Starting Gaussian ###
 Entering Gaussian System, Link 0=g16
 Initial command:
 /cluster/software/gaussian/gaussian-16-A.03/avx2/g16/l1.exe "/local/scratch/cz9n3/Gau-504.inp" -scrdir="/local/scratch/cz9n3/"
 Entering Link 1 = /cluster/software/gaussian/gaussian-16-A.03/avx2/g16/l1.exe PID=       506.
  
 Copyright (c) 1988,1990,1992,1993,1995,1998,2003,2009,2016,
            Gaussian, Inc.  All Rights Reserved.
  
 This is part of the Gaussian(R) 16 program.  It is based on
 the Gaussian(R) 09 system (copyright 2009, Gaussian, Inc.),
 the Gaussian(R) 03 system (copyright 2003, Gaussian, Inc.),
 the Gaussian(R) 98 system (copyright 1998, Gaussian, Inc.),
 the Gaussian(R) 94 system (copyright 1995, Gaussian, Inc.),
 the Gaussian 92(TM) system (copyright 1992, Gaussian, Inc.),
 the Gaussian 90(TM) system (copyright 1990, Gaussian, Inc.),
 the Gaussian 88(TM) system (copyright 1988, Gaussian, Inc.),
 the Gaussian 86(TM) system (copyright 1986, Carnegie Mellon
 University), and the Gaussian 82(TM) system (copyright 1983,
 Carnegie Mellon University). Gaussian is a federally registered
 trademark of Gaussian, Inc.
  
 This software contains proprietary and confidential information,
 including trade secrets, belonging to Gaussian, Inc.
  
 This software is provided under written license and may be
 used, copied, transmitted, or stored only in accord with that
 written license.
  
 The following legend is applicable only to US Government
 contracts under FAR:
  
                    RESTRICTED RIGHTS LEGEND
  
 Use, reproduction and disclosure by the US Government is
 subject to restrictions as set forth in subparagraphs (a)
 and (c) of the Commercial Computer Software - Restricted
 Rights clause in FAR 52.227-19.
  
 Gaussian, Inc.
 340 Quinnipiac St., Bldg. 40, Wallingford CT 06492
  
  
 ---------------------------------------------------------------
 Warning -- This program may not be used in any manner that
 competes with the business of Gaussian, Inc. or will provide
 assistance to any competitor of Gaussian, Inc.  The licensee
 of this program is prohibited from giving any competitor of
 Gaussian, Inc. access to this program.  By using this program,
 the user acknowledges that Gaussian, Inc. is engaged in the
 business of creating and licensing software in the field of
 computational chemistry and represents and warrants to the
 licensee that it is not a competitor of Gaussian, Inc. and that
 it will not use this program in any manner prohibited above.
 ---------------------------------------------------------------
  

 Cite this work as:
 Gaussian 16, Revision A.03,
 M. J. Frisch, G. W. Trucks, H. B. Schlegel, G. E. Scuseria, 
 M. A. Robb, J. R. Cheeseman, G. Scalmani, V. Barone, 
 G. A. Petersson, H. Nakatsuji, X. Li, M. Caricato, A. V. Marenich, 
 J. Bloino, B. G. Janesko, R. Gomperts, B. Mennucci, H. P. Hratchian, 
 J. V. Ortiz, A. F. Izmaylov, J. L. Sonnenberg, D. Williams-Young, 
 F. Ding, F. Lipparini, F. Egidi, J. Goings, B. Peng, A. Petrone, 
 T. Henderson, D. Ranasinghe, V. G. Zakrzewski, J. Gao, N. Rega, 
 G. Zheng, W. Liang, M. Hada, M. Ehara, K. Toyota, R. Fukuda, 
 J. Hasegawa, M. Ishida, T. Nakajima, Y. Honda, O. Kitao, H. Nakai, 
 T. Vreven, K. Throssell, J. A. Montgomery, Jr., J. E. Peralta, 
 F. Ogliaro, M. J. Bearpark, J. J. Heyd, E. N. Brothers, K. N. Kudin, 
 V. N. Staroverov, T. A. Keith, R. Kobayashi, J. Normand, 
 K. Raghavachari, A. P. Rendell, J. C. Burant, S. S. Iyengar, 
 J. Tomasi, M. Cossi, J. M. Millam, M. Klene, C. Adamo, R. Cammi, 
 J. W. Ochterski, R. L. Martin, K. Morokuma, O. Farkas, 
 J. B. Foresman, and D. J. Fox, Gaussian, Inc., Wallingford CT, 2016.
 
 ******************************************
 Gaussian 16:  ES64L-G16RevA.03 25-Dec-2016
                16-May-2023 
 ******************************************
 %chk=CdC1CdCCdCCdC[C]1NNS[S].chk
 %NProcShared=20
 Will use up to   20 processors via shared memory.
 -----------------------------
 # opt freq b3lyp/6-31g(2df,p)
 -----------------------------
 1/18=20,19=15,26=3,38=1/1,3;
 2/9=110,12=2,17=6,18=5,40=1/2;
 3/5=1,6=6,7=104,11=2,25=1,30=1,71=1,74=-5/1,2,3;
 4//1;
 5/5=2,38=5/2;
 6/7=2,8=2,9=2,10=2,28=1/1;
 7//1,2,3,16;
 1/18=20,19=15,26=3/3(2);
 2/9=110/2;
 99//99;
 2/9=110/2;
 3/5=1,6=6,7=104,11=2,25=1,30=1,71=1,74=-5/1,2,3;
 4/5=5,16=3,69=1/1;
 5/5=2,38=5/2;
 7//1,2,3,16;
 1/18=20,19=15,26=3/3(-5);
 2/9=110/2;
 6/7=2,8=2,9=2,10=2,19=2,28=1/1;
 99/9=1/99;
 -------------------
 Title Card Required
 -------------------
 Symbolic Z-matrix:
 Charge =  0 Multiplicity = 1
 C                     1.7196    0.08601   0.03506 
 C                     3.03212  -0.12965   0.43817 
 C                     2.95642  -1.16067   1.40634 
 C                     4.07504  -1.67934   1.41151 
 C                     5.08397  -2.5414    1.84828 
 C                     6.3273   -2.23687   1.30054 
 C                     6.68316  -1.29551   2.32728 
 C                     6.12986  -0.03185   1.44416 
 C                     4.82997   0.38924   0.20865 
 N                     3.89824   1.71106  -0.78366 
 N                     3.77055   2.41291  -2.44794 
 S                     2.15395   3.18913  -3.00057 
 S                     2.81761   4.44996  -4.59594 
 H                     0.90148  -0.47442   0.55817 
 H                     1.06788   0.6919   -0.63483 
 H                     2.09618  -1.57645   1.89881 
 H                     4.64558  -1.37982   0.5697 
 H                     4.80859  -2.73155   2.89839 
 H                     6.87897  -1.65549   0.35504 
 H                     6.80747  -2.40222   3.00875 
 H                     7.48251  -0.28216   1.48219 
 H                     2.87906   1.5933   -0.62875 
 H                     3.76682   1.73985  -3.20947 
 
 Add virtual bond connecting atoms H20        and C7         Dist= 2.47D+00.
 Add virtual bond connecting atoms H21        and C8         Dist= 2.60D+00.
 Add virtual bond connecting atoms N11        and N10        Dist= 3.42D+00.
 Add virtual bond connecting atoms C2         and C9         Dist= 3.56D+00.
 Add virtual bond connecting atoms C8         and C9         Dist= 3.48D+00.
 Add virtual bond connecting atoms H17        and C9         Dist= 3.43D+00.
 Add virtual bond connecting atoms N10        and C9         Dist= 3.59D+00.
 Add virtual bond connecting atoms H22        and C1         Dist= 3.81D+00.
 Add virtual bond connecting atoms H22        and C2         Dist= 3.84D+00.
 Add virtual bond connecting atoms H22        and H15        Dist= 3.82D+00.

 GradGradGradGradGradGradGradGradGradGradGradGradGradGradGradGradGradGrad
 Berny optimization.
 Initialization pass.
                           ----------------------------
                           !    Initial Parameters    !
                           ! (Angstroms and Degrees)  !
 --------------------------                            --------------------------
 ! Name  Definition              Value          Derivative Info.                !
 --------------------------------------------------------------------------------
 ! R1    R(1,2)                  1.3899         estimate D2E/DX2                !
 ! R2    R(1,14)                 1.1212         estimate D2E/DX2                !
 ! R3    R(1,15)                 1.1138         estimate D2E/DX2                !
 ! R4    R(1,22)                 2.0142         estimate D2E/DX2                !
 ! R5    R(2,3)                  1.4164         estimate D2E/DX2                !
 ! R6    R(2,9)                  1.8853         estimate D2E/DX2                !
 ! R7    R(2,22)                 2.0323         estimate D2E/DX2                !
 ! R8    R(3,4)                  1.233          estimate D2E/DX2                !
 ! R9    R(3,16)                 1.0749         estimate D2E/DX2                !
 ! R10   R(4,5)                  1.3971         estimate D2E/DX2                !
 ! R11   R(4,17)                 1.0601         estimate D2E/DX2                !
 ! R12   R(5,6)                  1.3923         estimate D2E/DX2                !
 ! R13   R(5,18)                 1.1021         estimate D2E/DX2                !
 ! R14   R(6,7)                  1.4377         estimate D2E/DX2                !
 ! R15   R(6,19)                 1.2395         estimate D2E/DX2                !
 ! R16   R(7,8)                  1.6379         estimate D2E/DX2                !
 ! R17   R(7,20)                 1.3056         estimate D2E/DX2                !
 ! R18   R(8,9)                  1.8421         estimate D2E/DX2                !
 ! R19   R(8,21)                 1.3761         estimate D2E/DX2                !
 ! R20   R(9,10)                 1.8974         estimate D2E/DX2                !
 ! R21   R(9,17)                 1.8149         estimate D2E/DX2                !
 ! R22   R(10,11)                1.8107         estimate D2E/DX2                !
 ! R23   R(10,22)                1.0376         estimate D2E/DX2                !
 ! R24   R(11,12)                1.8765         estimate D2E/DX2                !
 ! R25   R(11,23)                1.0163         estimate D2E/DX2                !
 ! R26   R(12,13)                2.139          estimate D2E/DX2                !
 ! R27   R(15,22)                2.0231         estimate D2E/DX2                !
 ! A1    A(2,1,14)             118.4379         estimate D2E/DX2                !
 ! A2    A(2,1,15)             144.2335         estimate D2E/DX2                !
 ! A3    A(14,1,15)             97.2132         estimate D2E/DX2                !
 ! A4    A(14,1,22)            161.4197         estimate D2E/DX2                !
 ! A5    A(1,2,3)              105.1137         estimate D2E/DX2                !
 ! A6    A(1,2,9)              145.3411         estimate D2E/DX2                !
 ! A7    A(3,2,9)              109.5447         estimate D2E/DX2                !
 ! A8    A(9,2,22)              76.9718         estimate D2E/DX2                !
 ! A9    A(2,3,4)              105.1046         estimate D2E/DX2                !
 ! A10   A(2,3,16)             129.6071         estimate D2E/DX2                !
 ! A11   A(4,3,16)             124.1534         estimate D2E/DX2                !
 ! A12   A(3,4,5)              156.352          estimate D2E/DX2                !
 ! A13   A(3,4,17)             111.4734         estimate D2E/DX2                !
 ! A14   A(5,4,17)              91.9442         estimate D2E/DX2                !
 ! A15   A(4,5,6)              112.7638         estimate D2E/DX2                !
 ! A16   A(4,5,18)             102.9374         estimate D2E/DX2                !
 ! A17   A(6,5,18)             129.4699         estimate D2E/DX2                !
 ! A18   A(5,6,7)               94.778          estimate D2E/DX2                !
 ! A19   A(5,6,19)             143.142          estimate D2E/DX2                !
 ! A20   A(7,6,19)              97.3242         estimate D2E/DX2                !
 ! A21   A(6,7,8)               92.0911         estimate D2E/DX2                !
 ! A22   A(6,7,20)              80.869          estimate D2E/DX2                !
 ! A23   A(7,8,9)              140.9255         estimate D2E/DX2                !
 ! A24   A(7,8,21)              60.8392         estimate D2E/DX2                !
 ! A25   A(9,8,21)             138.9124         estimate D2E/DX2                !
 ! A26   A(2,9,8)              121.8943         estimate D2E/DX2                !
 ! A27   A(2,9,10)              77.7088         estimate D2E/DX2                !
 ! A28   A(2,9,17)              67.0836         estimate D2E/DX2                !
 ! A29   A(8,9,10)             148.9287         estimate D2E/DX2                !
 ! A30   A(8,9,17)              73.4685         estimate D2E/DX2                !
 ! A31   A(10,9,17)            137.156          estimate D2E/DX2                !
 ! A32   A(9,10,11)            141.7535         estimate D2E/DX2                !
 ! A33   A(9,10,22)            108.9779         estimate D2E/DX2                !
 ! A34   A(11,10,22)            96.4275         estimate D2E/DX2                !
 ! A35   A(10,11,12)           119.4566         estimate D2E/DX2                !
 ! A36   A(10,11,23)           115.6108         estimate D2E/DX2                !
 ! A37   A(12,11,23)            92.8723         estimate D2E/DX2                !
 ! A38   A(11,12,13)           101.3139         estimate D2E/DX2                !
 ! A39   A(4,17,9)             119.2116         estimate D2E/DX2                !
 ! A40   A(1,22,10)            134.3926         estimate D2E/DX2                !
 ! A41   A(2,22,10)             95.7748         estimate D2E/DX2                !
 ! A42   A(2,22,15)             72.0174         estimate D2E/DX2                !
 ! A43   A(10,22,15)           158.3546         estimate D2E/DX2                !
 ! A44   L(3,2,22,9,-1)        186.5165         estimate D2E/DX2                !
 ! A45   L(8,7,20,6,-1)        172.9601         estimate D2E/DX2                !
 ! A46   L(3,2,22,9,-2)        192.4483         estimate D2E/DX2                !
 ! A47   L(8,7,20,6,-2)        192.9082         estimate D2E/DX2                !
 ! D1    D(14,1,2,3)             4.7873         estimate D2E/DX2                !
 ! D2    D(14,1,2,9)          -175.5209         estimate D2E/DX2                !
 ! D3    D(15,1,2,3)           179.7336         estimate D2E/DX2                !
 ! D4    D(15,1,2,9)            -0.5746         estimate D2E/DX2                !
 ! D5    D(14,1,22,10)         142.2507         estimate D2E/DX2                !
 ! D6    D(1,2,3,4)            156.5806         estimate D2E/DX2                !
 ! D7    D(1,2,3,16)           -11.4097         estimate D2E/DX2                !
 ! D8    D(9,2,3,4)            -23.2334         estimate D2E/DX2                !
 ! D9    D(9,2,3,16)           168.7763         estimate D2E/DX2                !
 ! D10   D(4,3,22,10)          -12.2811         estimate D2E/DX2                !
 ! D11   D(4,3,22,15)          148.1811         estimate D2E/DX2                !
 ! D12   D(16,3,22,10)         173.3842         estimate D2E/DX2                !
 ! D13   D(16,3,22,15)         -26.1535         estimate D2E/DX2                !
 ! D14   D(1,2,9,8)            163.0127         estimate D2E/DX2                !
 ! D15   D(1,2,9,10)             9.2569         estimate D2E/DX2                !
 ! D16   D(1,2,9,17)          -145.8122         estimate D2E/DX2                !
 ! D17   D(3,2,9,8)            -17.3031         estimate D2E/DX2                !
 ! D18   D(3,2,9,10)          -171.0589         estimate D2E/DX2                !
 ! D19   D(3,2,9,17)            33.8721         estimate D2E/DX2                !
 ! D20   D(22,2,9,8)           150.2487         estimate D2E/DX2                !
 ! D21   D(22,2,9,10)           -3.5072         estimate D2E/DX2                !
 ! D22   D(22,2,9,17)         -158.5762         estimate D2E/DX2                !
 ! D23   D(9,2,22,10)            6.3071         estimate D2E/DX2                !
 ! D24   D(9,2,22,15)          167.9989         estimate D2E/DX2                !
 ! D25   D(2,3,4,5)            174.6444         estimate D2E/DX2                !
 ! D26   D(2,3,4,17)           -13.7713         estimate D2E/DX2                !
 ! D27   D(16,3,4,5)           -16.5255         estimate D2E/DX2                !
 ! D28   D(16,3,4,17)          155.0588         estimate D2E/DX2                !
 ! D29   D(3,4,5,6)           -168.1775         estimate D2E/DX2                !
 ! D30   D(3,4,5,18)           -24.6909         estimate D2E/DX2                !
 ! D31   D(17,4,5,6)            19.6548         estimate D2E/DX2                !
 ! D32   D(17,4,5,18)          163.1414         estimate D2E/DX2                !
 ! D33   D(3,4,17,9)            52.2436         estimate D2E/DX2                !
 ! D34   D(5,4,17,9)          -131.1238         estimate D2E/DX2                !
 ! D35   D(4,5,6,7)             87.8651         estimate D2E/DX2                !
 ! D36   D(4,5,6,19)           -21.0865         estimate D2E/DX2                !
 ! D37   D(18,5,6,7)           -43.4392         estimate D2E/DX2                !
 ! D38   D(18,5,6,19)         -152.3908         estimate D2E/DX2                !
 ! D39   D(5,6,7,8)            -94.3857         estimate D2E/DX2                !
 ! D40   D(5,6,7,20)            72.7061         estimate D2E/DX2                !
 ! D41   D(19,6,7,8)            50.7254         estimate D2E/DX2                !
 ! D42   D(19,6,7,20)         -142.1828         estimate D2E/DX2                !
 ! D43   D(6,7,8,9)             32.3254         estimate D2E/DX2                !
 ! D44   D(6,7,8,21)          -100.679          estimate D2E/DX2                !
 ! D45   D(7,8,9,2)             46.8483         estimate D2E/DX2                !
 ! D46   D(7,8,9,10)           170.0069         estimate D2E/DX2                !
 ! D47   D(7,8,9,17)            -1.614          estimate D2E/DX2                !
 ! D48   D(21,8,9,2)           150.5121         estimate D2E/DX2                !
 ! D49   D(21,8,9,10)          -86.3293         estimate D2E/DX2                !
 ! D50   D(21,8,9,17)          102.0498         estimate D2E/DX2                !
 ! D51   D(2,9,10,11)         -121.7761         estimate D2E/DX2                !
 ! D52   D(2,9,10,22)            7.091          estimate D2E/DX2                !
 ! D53   D(8,9,10,11)          104.8963         estimate D2E/DX2                !
 ! D54   D(8,9,10,22)         -126.2366         estimate D2E/DX2                !
 ! D55   D(17,9,10,11)         -86.9588         estimate D2E/DX2                !
 ! D56   D(17,9,10,22)          41.9083         estimate D2E/DX2                !
 ! D57   D(2,9,17,4)           -51.7574         estimate D2E/DX2                !
 ! D58   D(8,9,17,4)            84.6151         estimate D2E/DX2                !
 ! D59   D(10,9,17,4)          -89.0351         estimate D2E/DX2                !
 ! D60   D(9,10,11,12)         152.7109         estimate D2E/DX2                !
 ! D61   D(9,10,11,23)          43.166          estimate D2E/DX2                !
 ! D62   D(22,10,11,12)         20.5224         estimate D2E/DX2                !
 ! D63   D(22,10,11,23)        -89.0225         estimate D2E/DX2                !
 ! D64   D(9,10,22,1)          -19.1002         estimate D2E/DX2                !
 ! D65   D(9,10,22,2)           -6.4571         estimate D2E/DX2                !
 ! D66   D(9,10,22,15)         -60.5545         estimate D2E/DX2                !
 ! D67   D(11,10,22,1)         131.8847         estimate D2E/DX2                !
 ! D68   D(11,10,22,2)         144.5278         estimate D2E/DX2                !
 ! D69   D(11,10,22,15)         90.4303         estimate D2E/DX2                !
 ! D70   D(10,11,12,13)        158.7293         estimate D2E/DX2                !
 ! D71   D(23,11,12,13)        -79.5761         estimate D2E/DX2                !
 --------------------------------------------------------------------------------
 Trust Radius=3.00D-01 FncErr=1.00D-07 GrdErr=1.00D-06 EigMax=2.50D+02 EigMin=1.00D-04
 Number of steps in this run=    138 maximum allowed number of steps=    138.
 GradGradGradGradGradGradGradGradGradGradGradGradGradGradGradGradGradGrad

                          Input orientation:                          
 ---------------------------------------------------------------------
 Center     Atomic      Atomic             Coordinates (Angstroms)
 Number     Number       Type             X           Y           Z
 ---------------------------------------------------------------------
      1          6           0        1.719600    0.086010    0.035060
      2          6           0        3.032120   -0.129650    0.438170
      3          6           0        2.956420   -1.160670    1.406340
      4          6           0        4.075040   -1.679340    1.411510
      5          6           0        5.083970   -2.541400    1.848280
      6          6           0        6.327300   -2.236870    1.300540
      7          6           0        6.683160   -1.295510    2.327280
      8          6           0        6.129860   -0.031850    1.444160
      9          6           0        4.829970    0.389240    0.208650
     10          7           0        3.898240    1.711060   -0.783660
     11          7           0        3.770550    2.412910   -2.447940
     12         16           0        2.153950    3.189130   -3.000570
     13         16           0        2.817610    4.449960   -4.595940
     14          1           0        0.901480   -0.474420    0.558170
     15          1           0        1.067880    0.691900   -0.634830
     16          1           0        2.096180   -1.576450    1.898810
     17          1           0        4.645580   -1.379820    0.569700
     18          1           0        4.808590   -2.731550    2.898390
     19          1           0        6.878970   -1.655490    0.355040
     20          1           0        6.807470   -2.402220    3.008750
     21          1           0        7.482510   -0.282160    1.482190
     22          1           0        2.879060    1.593300   -0.628750
     23          1           0        3.766820    1.739850   -3.209470
 ---------------------------------------------------------------------
                    Distance matrix (angstroms):
                    1          2          3          4          5
     1  C    0.000000
     2  C    1.389862   0.000000
     3  C    2.228081   1.416364   0.000000
     4  C    3.249488   2.106327   1.233027   0.000000
     5  C    4.637891   3.466271   2.574528   1.397088   0.000000
     6  C    5.313013   4.005280   3.540089   2.322892   1.392346
     7  C    5.639131   4.272945   3.841211   2.790744   2.083049
     8  C    4.631398   3.258462   3.368440   2.633928   2.748643
     9  C    3.129933   1.885256   2.710511   2.509146   3.367722
    10  N    2.838585   2.373025   3.732286   4.042875   5.139696
    11  N    3.973179   3.916570   5.318718   5.633345   6.687882
    12  S    4.362690   4.859055   6.243843   6.845366   8.058247
    13  S    6.457232   6.808899   8.217408   8.674036   9.774634
    14  H    1.121181   2.161688   2.326609   3.500215   4.840456
    15  H    1.113820   2.384222   3.341403   4.342038   5.722678
    16  H    2.525698   2.258912   1.074901   2.040572   3.140155
    17  H    3.316000   2.045355   1.897697   1.060128   1.782195
    18  H    5.067461   3.997301   2.850335   1.963684   1.102144
    19  H    5.454751   4.139245   4.091024   2.996451   2.497324
    20  H    6.396917   5.101541   4.351982   3.246522   2.082430
    21  H    5.953223   4.573752   4.611185   3.683471   3.315295
    22  H    2.014178   2.032315   3.425190   4.037722   5.300288
    23  H    4.177711   4.164144   5.511394   5.756676   6.756095
                    6          7          8          9         10
     6  C    0.000000
     7  C    1.437703   0.000000
     8  C    2.218496   1.637949   0.000000
     9  C    3.214137   3.280440   1.842150   0.000000
    10  N    5.082359   5.145210   3.602922   1.897369   0.000000
    11  N    6.496809   6.711066   5.166395   3.503581   1.810725
    12  S    8.084422   8.307330   6.777772   5.029867   3.184639
    13  S    9.581237   9.792031   8.218298   6.604780   4.816930
    14  H    5.752988   6.101784   5.321354   4.037463   3.944287
    15  H    6.323357   6.652463   5.519933   3.867348   3.011939
    16  H    4.323940   4.615506   4.343164   3.767517   4.609858
    17  H    2.024066   2.692198   2.187416   1.814919   3.455957
    18  H    2.259273   2.429484   3.339000   4.120011   5.841491
    19  H    1.239481   2.014363   2.093694   2.898405   4.638432
    20  H    1.782101   1.305627   2.919889   4.420782   6.305955
    21  H    2.277806   1.542730   1.376141   3.018054   4.685509
    22  H    5.502974   5.617340   4.183990   2.440707   1.037590
    23  H    6.535331   6.955146   5.511729   3.825961   2.429538
                   11         12         13         14         15
    11  N    0.000000
    12  S    1.876516   0.000000
    13  S    3.109915   2.139005   0.000000
    14  H    5.060132   5.258794   7.381458   0.000000
    15  H    3.681531   3.607275   5.733669   1.676675   0.000000
    16  H    6.132923   6.835058   8.889311   2.106916   3.552766
    17  H    4.925102   6.311129   8.000728   3.852034   4.306141
    18  H    7.491745   8.769224  10.568967   5.082989   6.180337
    19  H    5.837024   7.553560   8.847789   6.096440   6.344986
    20  H    7.885672   9.435591  10.986476   6.678508   7.469414
    21  H    6.040527   7.780652   9.005438   6.648363   6.824811
    22  H    2.185399   2.949235   4.889057   3.097591   2.023100
    23  H    1.016342   2.178394   3.188729   5.225732   3.874435
                   16         17         18         19         20
    16  H    0.000000
    17  H    2.881777   0.000000
    18  H    3.112970   2.697507   0.000000
    19  H    5.026386   2.260554   3.451523   0.000000
    20  H    4.910205   3.415851   2.028832   2.757697   0.000000
    21  H    5.555296   3.175794   3.892940   1.876370   2.698281
    22  H    4.129016   3.660098   5.904924   5.246118   6.680419
    23  H    6.315331   4.978623   7.640985   5.824049   8.066508
                   21         22         23
    21  H    0.000000
    22  H    5.400479   0.000000
    23  H    6.317163   2.733077   0.000000
 Stoichiometry    C9H10N2S2
 Framework group  C1[X(C9H10N2S2)]
 Deg. of freedom    63
 Full point group                 C1      NOp   1
 Largest Abelian subgroup         C1      NOp   1
 Largest concise Abelian subgroup C1      NOp   1
                         Standard orientation:                         
 ---------------------------------------------------------------------
 Center     Atomic      Atomic             Coordinates (Angstroms)
 Number     Number       Type             X           Y           Z
 ---------------------------------------------------------------------
      1          6           0        0.305116    2.320356   -0.080826
      2          6           0        1.148236    1.217745   -0.152335
      3          6           0        2.459304    1.752728   -0.121022
      4          6           0        3.170953    0.835097    0.293542
      5          6           0        4.365387    0.196870    0.636835
      6          6           0        4.199815   -1.165269    0.873033
      7          6           0        4.386341   -1.548448   -0.500055
      8          6           0        2.773536   -1.534514   -0.785613
      9          6           0        1.236634   -0.662015   -0.265812
     10          7           0       -0.611853   -0.327724   -0.532935
     11          7           0       -2.241489   -0.720513    0.151701
     12         16           0       -3.655642    0.491296   -0.078530
     13         16           0       -5.350346   -0.782997    0.203418
     14          1           0        0.762109    3.344007   -0.099321
     15          1           0       -0.760670    2.643335   -0.061303
     16          1           0        2.786167    2.771809   -0.221260
     17          1           0        2.590619    0.051544    0.709630
     18          1           0        5.110309    0.713814    0.010270
     19          1           0        3.356842   -2.026048    1.164182
     20          1           0        5.619184   -1.238648   -0.202090
     21          1           0        3.406193   -2.737669   -0.571307
     22          1           0       -0.761922    0.696060   -0.609986
     23          1           0       -2.311562   -0.688611    1.165123
 ---------------------------------------------------------------------
 Rotational constants (GHZ):           1.5785812           0.1983441           0.1808277
 Standard basis: 6-31G(2df,p) (6D, 7F)
 There are   461 symmetry adapted cartesian basis functions of A   symmetry.
 There are   422 symmetry adapted basis functions of A   symmetry.
   422 basis functions,   690 primitive gaussians,   461 cartesian basis functions
    55 alpha electrons       55 beta electrons
       nuclear repulsion energy       833.6129811427 Hartrees.
 NAtoms=   23 NActive=   23 NUniq=   23 SFac= 1.00D+00 NAtFMM=   60 NAOKFM=F Big=F
 Integral buffers will be    131072 words long.
 Raffenetti 2 integral format.
 Two-electron integral symmetry is turned on.
 One-electron integrals computed using PRISM.
 PrsmSu:  requested number of processors reduced to:  13 ShMem   1 Linda.
 NBasis=   422 RedAO= T EigKep=  2.70D-04  NBF=   422
 NBsUse=   422 1.00D-06 EigRej= -1.00D+00 NBFU=   422
 ExpMin= 1.17D-01 ExpMax= 2.19D+04 ExpMxC= 3.30D+03 IAcc=3 IRadAn=         5 AccDes= 0.00D+00
 Harris functional with IExCor=  402 and IRadAn=       5 diagonalized for initial guess.
 HarFok:  IExCor=  402 AccDes= 0.00D+00 IRadAn=         5 IDoV= 1 UseB2=F ITyADJ=14
 ICtDFT=  3500011 ScaDFX=  1.000000  1.000000  1.000000  1.000000
 FoFCou: FMM=F IPFlag=           0 FMFlag=      100000 FMFlg1=           0
         NFxFlg=           0 DoJE=T BraDBF=F KetDBF=T FulRan=T
         wScrn=  0.000000 ICntrl=       500 IOpCl=  0 I1Cent=   200000004 NGrid=           0
         NMat0=    1 NMatS0=      1 NMatT0=    0 NMatD0=    1 NMtDS0=    0 NMtDT0=    0
 Petite list used in FoFCou.
 Requested convergence on RMS density matrix=1.00D-08 within 128 cycles.
 Requested convergence on MAX density matrix=1.00D-06.
 Requested convergence on             energy=1.00D-06.
 No special actions if energy rises.
 Integral accuracy reduced to 1.0D-05 until final iterations.
 EnCoef did     4 forward-backward iterations
 EnCoef did   100 forward-backward iterations
 EnCoef did   100 forward-backward iterations
 EnCoef did     5 forward-backward iterations
 EnCoef did     8 forward-backward iterations
 EnCoef did    13 forward-backward iterations
 EnCoef did     5 forward-backward iterations
 EnCoef did     2 forward-backward iterations
 EnCoef did   100 forward-backward iterations
 EnCoef did   100 forward-backward iterations
 Initial convergence to 1.0D-05 achieved.  Increase integral accuracy.
 SCF Done:  E(RB3LYP) =  -1253.83257732     A.U. after   32 cycles
            NFock= 32  Conv=0.78D-08     -V/T= 2.0050

 **********************************************************************

            Population analysis using the SCF density.

 **********************************************************************

 Orbital symmetries:
       Occupied  (A) (A) (A) (A) (A) (A) (A) (A) (A) (A) (A) (A)
                 (A) (A) (A) (A) (A) (A) (A) (A) (A) (A) (A) (A)
                 (A) (A) (A) (A) (A) (A) (A) (A) (A) (A) (A) (A)
                 (A) (A) (A) (A) (A) (A) (A) (A) (A) (A) (A) (A)
                 (A) (A) (A) (A) (A) (A) (A)
       Virtual   (A) (A) (A) (A) (A) (A) (A) (A) (A) (A) (A) (A)
                 (A) (A) (A) (A) (A) (A) (A) (A) (A) (A) (A) (A)
                 (A) (A) (A) (A) (A) (A) (A) (A) (A) (A) (A) (A)
                 (A) (A) (A) (A) (A) (A) (A) (A) (A) (A) (A) (A)
                 (A) (A) (A) (A) (A) (A) (A) (A) (A) (A) (A) (A)
                 (A) (A) (A) (A) (A) (A) (A) (A) (A) (A) (A) (A)
                 (A) (A) (A) (A) (A) (A) (A) (A) (A) (A) (A) (A)
                 (A) (A) (A) (A) (A) (A) (A) (A) (A) (A) (A) (A)
                 (A) (A) (A) (A) (A) (A) (A) (A) (A) (A) (A) (A)
                 (A) (A) (A) (A) (A) (A) (A) (A) (A) (A) (A) (A)
                 (A) (A) (A) (A) (A) (A) (A) (A) (A) (A) (A) (A)
                 (A) (A) (A) (A) (A) (A) (A) (A) (A) (A) (A) (A)
                 (A) (A) (A) (A) (A) (A) (A) (A) (A) (A) (A) (A)
                 (A) (A) (A) (A) (A) (A) (A) (A) (A) (A) (A) (A)
                 (A) (A) (A) (A) (A) (A) (A) (A) (A) (A) (A) (A)
                 (A) (A) (A) (A) (A) (A) (A) (A) (A) (A) (A) (A)
                 (A) (A) (A) (A) (A) (A) (A) (A) (A) (A) (A) (A)
                 (A) (A) (A) (A) (A) (A) (A) (A) (A) (A) (A) (A)
                 (A) (A) (A) (A) (A) (A) (A) (A) (A) (A) (A) (A)
                 (A) (A) (A) (A) (A) (A) (A) (A) (A) (A) (A) (A)
                 (A) (A) (A) (A) (A) (A) (A) (A) (A) (A) (A) (A)
                 (A) (A) (A) (A) (A) (A) (A) (A) (A) (A) (A) (A)
                 (A) (A) (A) (A) (A) (A) (A) (A) (A) (A) (A) (A)
                 (A) (A) (A) (A) (A) (A) (A) (A) (A) (A) (A) (A)
                 (A) (A) (A) (A) (A) (A) (A) (A) (A) (A) (A) (A)
                 (A) (A) (A) (A) (A) (A) (A) (A) (A) (A) (A) (A)
                 (A) (A) (A) (A) (A) (A) (A) (A) (A) (A) (A) (A)
                 (A) (A) (A) (A) (A) (A) (A) (A) (A) (A) (A) (A)
                 (A) (A) (A) (A) (A) (A) (A) (A) (A) (A) (A) (A)
                 (A) (A) (A) (A) (A) (A) (A) (A) (A) (A) (A) (A)
                 (A) (A) (A) (A) (A) (A) (A)
 The electronic state is 1-A.
 Alpha  occ. eigenvalues --  -88.94562 -88.86962 -14.38364 -14.37803 -10.32888
 Alpha  occ. eigenvalues --  -10.30179 -10.27844 -10.26102 -10.25169 -10.24900
 Alpha  occ. eigenvalues --  -10.23239 -10.21577 -10.19129  -8.00022  -7.93231
 Alpha  occ. eigenvalues --   -5.96461  -5.96128  -5.95771  -5.89767  -5.89253
 Alpha  occ. eigenvalues --   -5.88771  -0.92594  -0.87899  -0.86726  -0.79898
 Alpha  occ. eigenvalues --   -0.77282  -0.73576  -0.71401  -0.67088  -0.63570
 Alpha  occ. eigenvalues --   -0.59552  -0.58884  -0.56519  -0.55714  -0.50390
 Alpha  occ. eigenvalues --   -0.48708  -0.47003  -0.44404  -0.43458  -0.41866
 Alpha  occ. eigenvalues --   -0.41259  -0.38820  -0.38177  -0.35679  -0.34631
 Alpha  occ. eigenvalues --   -0.33337  -0.31795  -0.29999  -0.29090  -0.26775
 Alpha  occ. eigenvalues --   -0.25329  -0.23458  -0.23158  -0.22261  -0.18698
 Alpha virt. eigenvalues --   -0.16374  -0.13373  -0.10373  -0.08374  -0.04339
 Alpha virt. eigenvalues --   -0.02774  -0.02369  -0.01053   0.00027   0.02268
 Alpha virt. eigenvalues --    0.03092   0.06112   0.07464   0.09992   0.10709
 Alpha virt. eigenvalues --    0.12347   0.13208   0.13619   0.15634   0.16156
 Alpha virt. eigenvalues --    0.17785   0.20863   0.22437   0.23449   0.28002
 Alpha virt. eigenvalues --    0.29633   0.29652   0.30313   0.30619   0.31277
 Alpha virt. eigenvalues --    0.32890   0.34317   0.34526   0.35689   0.36410
 Alpha virt. eigenvalues --    0.38706   0.39361   0.39926   0.40752   0.42465
 Alpha virt. eigenvalues --    0.42868   0.43482   0.43822   0.45128   0.45400
 Alpha virt. eigenvalues --    0.45812   0.46811   0.48883   0.50439   0.50846
 Alpha virt. eigenvalues --    0.52845   0.53833   0.55137   0.56268   0.56505
 Alpha virt. eigenvalues --    0.57138   0.58059   0.58966   0.59327   0.60627
 Alpha virt. eigenvalues --    0.61826   0.62367   0.63685   0.64148   0.64461
 Alpha virt. eigenvalues --    0.65123   0.65447   0.66118   0.66971   0.67503
 Alpha virt. eigenvalues --    0.69027   0.69845   0.70255   0.71106   0.72783
 Alpha virt. eigenvalues --    0.73029   0.73716   0.75210   0.76591   0.77116
 Alpha virt. eigenvalues --    0.77902   0.79101   0.81576   0.82034   0.83015
 Alpha virt. eigenvalues --    0.83458   0.84618   0.85076   0.87394   0.87652
 Alpha virt. eigenvalues --    0.88311   0.89975   0.91165   0.93238   0.93426
 Alpha virt. eigenvalues --    0.95062   0.95566   0.99072   1.00571   1.01791
 Alpha virt. eigenvalues --    1.02543   1.04931   1.05556   1.06442   1.08113
 Alpha virt. eigenvalues --    1.08689   1.12347   1.15900   1.16975   1.18502
 Alpha virt. eigenvalues --    1.19634   1.19910   1.20346   1.22279   1.23908
 Alpha virt. eigenvalues --    1.26168   1.27402   1.28800   1.30469   1.31827
 Alpha virt. eigenvalues --    1.33404   1.34692   1.36628   1.37219   1.38855
 Alpha virt. eigenvalues --    1.40226   1.43014   1.44689   1.46230   1.46633
 Alpha virt. eigenvalues --    1.48921   1.49607   1.51899   1.52555   1.53459
 Alpha virt. eigenvalues --    1.54662   1.56104   1.57132   1.57274   1.58752
 Alpha virt. eigenvalues --    1.60163   1.63118   1.63971   1.64746   1.66709
 Alpha virt. eigenvalues --    1.67567   1.68512   1.69191   1.71164   1.72155
 Alpha virt. eigenvalues --    1.73697   1.75625   1.77641   1.78067   1.80233
 Alpha virt. eigenvalues --    1.81700   1.82072   1.86800   1.88682   1.90725
 Alpha virt. eigenvalues --    1.92032   1.95682   1.96836   1.98525   1.99695
 Alpha virt. eigenvalues --    2.01691   2.04753   2.06014   2.07608   2.08787
 Alpha virt. eigenvalues --    2.09860   2.10732   2.13688   2.14555   2.15001
 Alpha virt. eigenvalues --    2.16840   2.17279   2.18406   2.21248   2.23365
 Alpha virt. eigenvalues --    2.24113   2.28196   2.30616   2.31091   2.31830
 Alpha virt. eigenvalues --    2.34267   2.35549   2.39023   2.40959   2.43466
 Alpha virt. eigenvalues --    2.44407   2.45530   2.46144   2.47715   2.49117
 Alpha virt. eigenvalues --    2.49372   2.51933   2.53234   2.55460   2.56272
 Alpha virt. eigenvalues --    2.57026   2.59807   2.60693   2.64079   2.66094
 Alpha virt. eigenvalues --    2.69330   2.70909   2.72795   2.74029   2.75972
 Alpha virt. eigenvalues --    2.77345   2.78774   2.79760   2.82955   2.83304
 Alpha virt. eigenvalues --    2.83673   2.85943   2.88303   2.89575   2.89862
 Alpha virt. eigenvalues --    2.90885   2.94079   2.95226   2.95775   2.99217
 Alpha virt. eigenvalues --    3.01018   3.02387   3.04281   3.05158   3.06388
 Alpha virt. eigenvalues --    3.09856   3.11440   3.11913   3.14519   3.17088
 Alpha virt. eigenvalues --    3.19410   3.20139   3.22408   3.23997   3.24826
 Alpha virt. eigenvalues --    3.28014   3.28880   3.30975   3.33927   3.34136
 Alpha virt. eigenvalues --    3.36212   3.38758   3.39621   3.43556   3.44458
 Alpha virt. eigenvalues --    3.47184   3.48599   3.50143   3.52538   3.54870
 Alpha virt. eigenvalues --    3.56008   3.60356   3.61343   3.61918   3.65429
 Alpha virt. eigenvalues --    3.67469   3.69175   3.70181   3.72455   3.73286
 Alpha virt. eigenvalues --    3.74449   3.77095   3.78002   3.80003   3.81038
 Alpha virt. eigenvalues --    3.82323   3.85940   3.88239   3.90873   3.94180
 Alpha virt. eigenvalues --    3.95609   3.97246   3.98112   4.00290   4.02008
 Alpha virt. eigenvalues --    4.05559   4.06332   4.07081   4.10008   4.14099
 Alpha virt. eigenvalues --    4.15537   4.16153   4.18527   4.20535   4.23373
 Alpha virt. eigenvalues --    4.25559   4.27790   4.28502   4.30533   4.31153
 Alpha virt. eigenvalues --    4.33433   4.35835   4.37012   4.37704   4.38315
 Alpha virt. eigenvalues --    4.40116   4.41350   4.44959   4.45335   4.47172
 Alpha virt. eigenvalues --    4.49216   4.50063   4.50762   4.52187   4.54314
 Alpha virt. eigenvalues --    4.56399   4.58751   4.60064   4.61236   4.61947
 Alpha virt. eigenvalues --    4.64126   4.65407   4.66925   4.69548   4.71932
 Alpha virt. eigenvalues --    4.74011   4.76389   4.77732   4.79166   4.80049
 Alpha virt. eigenvalues --    4.81286   4.83048   4.86030   4.86895   4.89992
 Alpha virt. eigenvalues --    4.93571   4.96763   4.97686   4.99416   5.01636
 Alpha virt. eigenvalues --    5.04490   5.08993   5.10243   5.13397   5.15071
 Alpha virt. eigenvalues --    5.16573   5.18812   5.23295   5.25863   5.35304
 Alpha virt. eigenvalues --    5.41646   5.47219   5.51345   5.56609   5.59818
 Alpha virt. eigenvalues --    5.64541   5.76925   6.13485   6.29326   6.59049
 Alpha virt. eigenvalues --    9.93966  10.11001  10.31946  10.55293  10.78642
 Alpha virt. eigenvalues --   11.11893  11.29811  11.41925  11.56399  11.69974
 Alpha virt. eigenvalues --   11.75920  12.51974
          Condensed to atoms (all electrons):
               1          2          3          4          5          6
     1  C    5.210795   0.540349  -0.004846  -0.015273  -0.000607  -0.000098
     2  C    0.540349   4.855163   0.376418  -0.028412   0.011979   0.001331
     3  C   -0.004846   0.376418   5.094708   0.616999  -0.079837   0.006710
     4  C   -0.015273  -0.028412   0.616999   4.559165   0.386712  -0.054281
     5  C   -0.000607   0.011979  -0.079837   0.386712   5.364764   0.504301
     6  C   -0.000098   0.001331   0.006710  -0.054281   0.504301   5.250748
     7  C   -0.000008  -0.000063  -0.000149  -0.013972  -0.069346   0.347726
     8  C    0.000156  -0.006121   0.008668   0.008225  -0.078873  -0.037875
     9  C   -0.026404   0.248495  -0.053297  -0.032700  -0.006967   0.005819
    10  N   -0.008305  -0.014985   0.002230   0.000963  -0.000049  -0.000076
    11  N    0.000594   0.000052  -0.000027  -0.000001   0.000000   0.000000
    12  S    0.000014  -0.000186  -0.000001  -0.000001  -0.000000  -0.000000
    13  S    0.000003  -0.000002  -0.000000   0.000000   0.000000   0.000000
    14  H    0.349334  -0.010742  -0.017781   0.001758   0.000001  -0.000001
    15  H    0.353613  -0.014891   0.004659   0.000227   0.000009   0.000000
    16  H   -0.005540  -0.038070   0.344034  -0.022544  -0.006541  -0.000468
    17  H    0.003517  -0.060979  -0.045959   0.413958  -0.111891  -0.037769
    18  H    0.000015  -0.000744  -0.005221  -0.028513   0.332827  -0.046199
    19  H   -0.000014   0.000255   0.000189  -0.013582  -0.000364   0.321579
    20  H   -0.000001  -0.000003  -0.000047  -0.001564  -0.020059  -0.070781
    21  H   -0.000000   0.000157  -0.000147  -0.000064   0.012152  -0.021882
    22  H    0.011274  -0.022395  -0.000876   0.000201   0.000016   0.000011
    23  H    0.000123  -0.000256   0.000001   0.000001   0.000000   0.000000
               7          8          9         10         11         12
     1  C   -0.000008   0.000156  -0.026404  -0.008305   0.000594   0.000014
     2  C   -0.000063  -0.006121   0.248495  -0.014985   0.000052  -0.000186
     3  C   -0.000149   0.008668  -0.053297   0.002230  -0.000027  -0.000001
     4  C   -0.013972   0.008225  -0.032700   0.000963  -0.000001  -0.000001
     5  C   -0.069346  -0.078873  -0.006967  -0.000049   0.000000  -0.000000
     6  C    0.347726  -0.037875   0.005819  -0.000076   0.000000  -0.000000
     7  C    5.550796   0.182775   0.000604   0.000041  -0.000000   0.000000
     8  C    0.182775   5.798179   0.092000  -0.001089  -0.000004   0.000000
     9  C    0.000604   0.092000   5.618526   0.147822  -0.001062   0.000126
    10  N    0.000041  -0.001089   0.147822   6.854498   0.148084  -0.004622
    11  N   -0.000000  -0.000004  -0.001062   0.148084   6.761214   0.180017
    12  S    0.000000   0.000000   0.000126  -0.004622   0.180017  15.520300
    13  S   -0.000000  -0.000000  -0.000004   0.000674  -0.024477   0.234582
    14  H    0.000000  -0.000005   0.001356   0.000891   0.000001  -0.000010
    15  H    0.000000   0.000002  -0.000258  -0.003375   0.000076   0.001805
    16  H   -0.000060   0.000161   0.001612  -0.000029   0.000000  -0.000000
    17  H   -0.006076   0.001098   0.008754   0.000948  -0.000021   0.000001
    18  H   -0.004240  -0.000736  -0.000150   0.000000   0.000000  -0.000000
    19  H   -0.106185   0.025794  -0.002300   0.000003   0.000000  -0.000000
    20  H    0.261622   0.003173  -0.000434   0.000000  -0.000000  -0.000000
    21  H    0.032446   0.158205  -0.001525  -0.000050   0.000000   0.000000
    22  H   -0.000001  -0.000325  -0.009898   0.263529  -0.009121   0.000396
    23  H    0.000000  -0.000003  -0.000290  -0.011641   0.295421  -0.039977
              13         14         15         16         17         18
     1  C    0.000003   0.349334   0.353613  -0.005540   0.003517   0.000015
     2  C   -0.000002  -0.010742  -0.014891  -0.038070  -0.060979  -0.000744
     3  C   -0.000000  -0.017781   0.004659   0.344034  -0.045959  -0.005221
     4  C    0.000000   0.001758   0.000227  -0.022544   0.413958  -0.028513
     5  C    0.000000   0.000001   0.000009  -0.006541  -0.111891   0.332827
     6  C    0.000000  -0.000001   0.000000  -0.000468  -0.037769  -0.046199
     7  C   -0.000000   0.000000   0.000000  -0.000060  -0.006076  -0.004240
     8  C   -0.000000  -0.000005   0.000002   0.000161   0.001098  -0.000736
     9  C   -0.000004   0.001356  -0.000258   0.001612   0.008754  -0.000150
    10  N    0.000674   0.000891  -0.003375  -0.000029   0.000948   0.000000
    11  N   -0.024477   0.000001   0.000076   0.000000  -0.000021   0.000000
    12  S    0.234582  -0.000010   0.001805  -0.000000   0.000001  -0.000000
    13  S   15.993010  -0.000000   0.000006  -0.000000  -0.000000   0.000000
    14  H   -0.000000   0.602811  -0.061666   0.002422  -0.000077  -0.000002
    15  H    0.000006  -0.061666   0.550562   0.000001  -0.000064  -0.000000
    16  H   -0.000000   0.002422   0.000001   0.587081   0.009155   0.002230
    17  H   -0.000000  -0.000077  -0.000064   0.009155   0.643187   0.011508
    18  H    0.000000  -0.000002  -0.000000   0.002230   0.011508   0.580081
    19  H   -0.000000   0.000000   0.000000  -0.000005   0.002573   0.002103
    20  H   -0.000000   0.000000  -0.000000   0.000012   0.001306   0.002842
    21  H    0.000000   0.000000  -0.000000   0.000002   0.000778   0.000157
    22  H    0.000054  -0.000953   0.006326  -0.000105  -0.000177   0.000000
    23  H    0.005112  -0.000002   0.000072   0.000000   0.000000   0.000000
              19         20         21         22         23
     1  C   -0.000014  -0.000001  -0.000000   0.011274   0.000123
     2  C    0.000255  -0.000003   0.000157  -0.022395  -0.000256
     3  C    0.000189  -0.000047  -0.000147  -0.000876   0.000001
     4  C   -0.013582  -0.001564  -0.000064   0.000201   0.000001
     5  C   -0.000364  -0.020059   0.012152   0.000016   0.000000
     6  C    0.321579  -0.070781  -0.021882   0.000011   0.000000
     7  C   -0.106185   0.261622   0.032446  -0.000001   0.000000
     8  C    0.025794   0.003173   0.158205  -0.000325  -0.000003
     9  C   -0.002300  -0.000434  -0.001525  -0.009898  -0.000290
    10  N    0.000003   0.000000  -0.000050   0.263529  -0.011641
    11  N    0.000000  -0.000000   0.000000  -0.009121   0.295421
    12  S   -0.000000  -0.000000   0.000000   0.000396  -0.039977
    13  S   -0.000000  -0.000000   0.000000   0.000054   0.005112
    14  H    0.000000   0.000000   0.000000  -0.000953  -0.000002
    15  H    0.000000  -0.000000  -0.000000   0.006326   0.000072
    16  H   -0.000005   0.000012   0.000002  -0.000105   0.000000
    17  H    0.002573   0.001306   0.000778  -0.000177   0.000000
    18  H    0.002103   0.002842   0.000157   0.000000   0.000000
    19  H    0.581382   0.012196   0.011204  -0.000000  -0.000000
    20  H    0.012196   0.626004   0.001631  -0.000000  -0.000000
    21  H    0.011204   0.001631   0.644846   0.000003   0.000000
    22  H   -0.000000  -0.000000   0.000003   0.468331   0.001328
    23  H   -0.000000  -0.000000   0.000000   0.001328   0.473799
 Mulliken charges:
               1
     1  C   -0.408689
     2  C    0.163651
     3  C   -0.246428
     4  C    0.222699
     5  C   -0.238225
     6  C   -0.168797
     7  C   -0.175911
     8  C   -0.153404
     9  C    0.010175
    10  N   -0.375463
    11  N   -0.350748
    12  S    0.107557
    13  S   -0.208957
    14  H    0.132664
    15  H    0.162896
    16  H    0.126650
    17  H    0.166231
    18  H    0.154041
    19  H    0.165172
    20  H    0.184103
    21  H    0.162088
    22  H    0.292384
    23  H    0.276312
 Sum of Mulliken charges =  -0.00000
 Mulliken charges with hydrogens summed into heavy atoms:
               1
     1  C   -0.113130
     2  C    0.163651
     3  C   -0.119778
     4  C    0.388930
     5  C   -0.084183
     6  C   -0.003625
     7  C    0.008192
     8  C    0.008684
     9  C    0.010175
    10  N   -0.083079
    11  N   -0.074436
    12  S    0.107557
    13  S   -0.208957
 Electronic spatial extent (au):  <R**2>=           5526.9034
 Charge=             -0.0000 electrons
 Dipole moment (field-independent basis, Debye):
    X=              8.2243    Y=              3.4981    Z=              1.8144  Tot=              9.1197
 Quadrupole moment (field-independent basis, Debye-Ang):
   XX=            -96.1217   YY=            -84.7214   ZZ=            -96.3596
   XY=             -4.8500   XZ=             -0.3834   YZ=             -3.5935
 Traceless Quadrupole moment (field-independent basis, Debye-Ang):
   XX=             -3.7208   YY=              7.6795   ZZ=             -3.9587
   XY=             -4.8500   XZ=             -0.3834   YZ=             -3.5935
 Octapole moment (field-independent basis, Debye-Ang**2):
  XXX=            182.0413  YYY=             29.4223  ZZZ=              7.1085  XYY=             12.7809
  XXY=             12.6272  XXZ=             10.8910  XZZ=            -21.9224  YZZ=              1.8266
  YYZ=              1.8979  XYZ=             -5.0195
 Hexadecapole moment (field-independent basis, Debye-Ang**3):
 XXXX=          -6803.2104 YYYY=           -825.8234 ZZZZ=           -215.8062 XXXY=            -15.9831
 XXXZ=            -11.7212 YYYX=             17.1496 YYYZ=            -12.9344 ZZZX=             -0.2803
 ZZZY=             -9.0753 XXYY=          -1206.3299 XXZZ=          -1212.6076 YYZZ=           -198.1040
 XXYZ=            -32.7482 YYXZ=              3.9838 ZZXY=             16.5032
 N-N= 8.336129811427D+02 E-N=-4.620917282161D+03  KE= 1.247580462648D+03
 PrsmSu:  requested number of processors reduced to:  13 ShMem   1 Linda.
 Calling FoFJK, ICntrl=      2127 FMM=F ISym2X=0 I1Cent= 0 IOpClX= 0 NMat=1 NMatS=1 NMatT=0.
 ***** Axes restored to original set *****
 -------------------------------------------------------------------
 Center     Atomic                   Forces (Hartrees/Bohr)
 Number     Number              X              Y              Z
 -------------------------------------------------------------------
      1        6          -0.019292667    0.007876898   -0.000749102
      2        6          -0.050960737    0.037131902    0.002208116
      3        6          -0.099348698    0.022542556    0.020721024
      4        6           0.148943151   -0.109541220   -0.040752745
      5        6          -0.043967855   -0.022430714    0.036313767
      6        6           0.063333445    0.046316887   -0.045233529
      7        6          -0.010274435   -0.066354213    0.022399944
      8        6           0.061641783    0.004150261    0.016880376
      9        6          -0.093311140    0.023611558   -0.025524279
     10        7           0.015419337    0.003937646   -0.044118614
     11        7          -0.021345907    0.014166111    0.027097125
     12       16           0.049038348    0.017031321   -0.019757184
     13       16          -0.017963948   -0.029387626    0.042769610
     14        1           0.022638359    0.002235986    0.001402686
     15        1           0.034308994    0.003625838   -0.007384703
     16        1          -0.010549196    0.009516748    0.004825789
     17        1          -0.004266374    0.025237018   -0.021091751
     18        1           0.031605078   -0.019503004    0.001497394
     19        1          -0.052968285   -0.050100099    0.009380688
     20        1          -0.001929694    0.076518433    0.015270068
     21        1          -0.035410717    0.025352360   -0.009075040
     22        1           0.021641581    0.001723987    0.001862791
     23        1           0.013019576   -0.023658634    0.011057568
 -------------------------------------------------------------------
 Cartesian Forces:  Max     0.148943151 RMS     0.040111372

 GradGradGradGradGradGradGradGradGradGradGradGradGradGradGradGradGradGrad
 Berny optimization.
 FormGI is forming the generalized inverse of G from B-inverse, IUseBI=4.
 Internal  Forces:  Max     0.138933148 RMS     0.023551383
 Search for a local minimum.
 Step number   1 out of a maximum of  138
 All quantities printed in internal units (Hartrees-Bohrs-Radians)
 Mixed Optimization -- RFO/linear search
 Second derivative matrix not updated -- first step.
 ITU=  0
     Eigenvalues ---    0.00230   0.00230   0.00363   0.00463   0.00842
     Eigenvalues ---    0.00889   0.01115   0.01205   0.01241   0.01419
     Eigenvalues ---    0.01700   0.01881   0.02112   0.02227   0.02633
     Eigenvalues ---    0.02787   0.03458   0.03706   0.03951   0.04078
     Eigenvalues ---    0.06343   0.06600   0.07294   0.08311   0.08898
     Eigenvalues ---    0.10143   0.10339   0.10826   0.10950   0.11263
     Eigenvalues ---    0.12299   0.12554   0.13124   0.13425   0.13589
     Eigenvalues ---    0.14434   0.14979   0.15253   0.15537   0.16235
     Eigenvalues ---    0.17732   0.18321   0.18489   0.18972   0.20741
     Eigenvalues ---    0.20910   0.21994   0.22538   0.23574   0.25000
     Eigenvalues ---    0.27351   0.31253   0.31444   0.33446   0.36617
     Eigenvalues ---    0.36944   0.37599   0.40242   0.42512   0.42994
     Eigenvalues ---    0.44927   0.45153   0.79585
 RFO step:  Lambda=-1.94942124D-01 EMin= 2.30000000D-03
 Linear search not attempted -- first point.
 Maximum step size (   0.300) exceeded in Quadratic search.
    -- Step size scaled by   0.447
 Iteration  1 RMS(Cart)=  0.05856674 RMS(Int)=  0.00251451
 Iteration  2 RMS(Cart)=  0.00275246 RMS(Int)=  0.00025712
 Iteration  3 RMS(Cart)=  0.00000778 RMS(Int)=  0.00025706
 Iteration  4 RMS(Cart)=  0.00000000 RMS(Int)=  0.00025706
 Variable       Old X    -DE/DX   Delta X   Delta X   Delta X     New X
                                 (Linear)    (Quad)   (Total)
    R1        2.62646  -0.01807   0.00000  -0.01416  -0.01397   2.61248
    R2        2.11872  -0.01698   0.00000  -0.01491  -0.01491   2.10381
    R3        2.10481  -0.00824   0.00000  -0.00785  -0.00767   2.09714
    R4        3.80625   0.00400   0.00000   0.00988   0.00974   3.81599
    R5        2.67654   0.04103   0.00000   0.03639   0.03640   2.71294
    R6        3.56262   0.00552   0.00000  -0.01237  -0.01248   3.55013
    R7        3.84052   0.00637   0.00000   0.01179   0.01163   3.85215
    R8        2.33008   0.13893   0.00000   0.06451   0.06466   2.39475
    R9        2.03127   0.00697   0.00000   0.00556   0.00556   2.03683
   R10        2.64011   0.02379   0.00000   0.02039   0.02077   2.66088
   R11        2.00335   0.01748   0.00000   0.01694   0.01679   2.02014
   R12        2.63115   0.00846   0.00000   0.00669   0.00696   2.63811
   R13        2.08275  -0.00311   0.00000  -0.00262  -0.00262   2.08013
   R14        2.71686   0.05576   0.00000   0.04378   0.04370   2.76057
   R15        2.34228  -0.05423   0.00000  -0.05846  -0.05846   2.28382
   R16        3.09528   0.00482   0.00000  -0.00118  -0.00146   3.09381
   R17        2.46728  -0.05707   0.00000  -0.06751  -0.06751   2.39977
   R18        3.48116   0.00501   0.00000  -0.00215  -0.00243   3.47872
   R19        2.60053  -0.03967   0.00000  -0.05106  -0.05106   2.54947
   R20        3.58551  -0.05193   0.00000  -0.07893  -0.07894   3.50656
   R21        3.42970   0.02143   0.00000   0.02394   0.02430   3.45400
   R22        3.42177  -0.06629   0.00000  -0.08962  -0.08962   3.33215
   R23        1.96076  -0.02444   0.00000  -0.01499  -0.01511   1.94565
   R24        3.54610  -0.03866   0.00000  -0.04279  -0.04279   3.50331
   R25        1.92061   0.00733   0.00000   0.00509   0.00509   1.92570
   R26        4.04213  -0.05480   0.00000  -0.05831  -0.05831   3.98383
   R27        3.82310  -0.02116   0.00000  -0.03343  -0.03343   3.78968
    A1        2.06713  -0.00521   0.00000  -0.00653  -0.00653   2.06060
    A2        2.51735  -0.00807   0.00000  -0.01699  -0.01704   2.50031
    A3        1.69669   0.01345   0.00000   0.02374   0.02379   1.72048
    A4        2.81731  -0.00139   0.00000   0.00116   0.00125   2.81856
    A5        1.83458   0.01824   0.00000   0.03150   0.03167   1.86625
    A6        2.53668  -0.02140   0.00000  -0.02790  -0.02794   2.50874
    A7        1.91192   0.00315   0.00000  -0.00363  -0.00379   1.90813
    A8        1.34341  -0.02215   0.00000  -0.02885  -0.02882   1.31459
    A9        1.83442  -0.00347   0.00000   0.01471   0.01464   1.84906
   A10        2.26207  -0.00739   0.00000  -0.01769  -0.01783   2.24424
   A11        2.16689   0.01287   0.00000   0.00680   0.00680   2.17369
   A12        2.72886  -0.01274   0.00000  -0.01806  -0.01798   2.71088
   A13        1.94558  -0.03013   0.00000  -0.03117  -0.03116   1.91442
   A14        1.60473   0.04393   0.00000   0.05082   0.05061   1.65533
   A15        1.96810  -0.03625   0.00000  -0.03748  -0.03737   1.93073
   A16        1.79660   0.03405   0.00000   0.04397   0.04372   1.84032
   A17        2.25968  -0.00871   0.00000  -0.02003  -0.01985   2.23983
   A18        1.65419   0.00500   0.00000   0.00738   0.00797   1.66216
   A19        2.49830  -0.02209   0.00000  -0.03913  -0.03951   2.45879
   A20        1.69863   0.01137   0.00000   0.02523   0.02575   1.72438
   A21        1.60729   0.01393   0.00000   0.03024   0.03006   1.63735
   A22        1.41143   0.05735   0.00000   0.09338   0.09347   1.50490
   A23        2.45961   0.01370   0.00000   0.00396   0.00358   2.46319
   A24        1.06184   0.00565   0.00000   0.01899   0.01947   1.08132
   A25        2.42448  -0.01563   0.00000  -0.01967  -0.01973   2.40474
   A26        2.12746   0.01065   0.00000   0.00820   0.00848   2.13593
   A27        1.35627   0.01177   0.00000   0.02488   0.02516   1.38143
   A28        1.17083   0.02628   0.00000   0.01847   0.01831   1.18915
   A29        2.59930  -0.02980   0.00000  -0.03917  -0.03953   2.55976
   A30        1.28227  -0.00653   0.00000  -0.00044  -0.00040   1.28187
   A31        2.39382   0.03829   0.00000   0.04237   0.04251   2.43633
   A32        2.47406  -0.01398   0.00000  -0.01606  -0.01615   2.45792
   A33        1.90202   0.00521   0.00000  -0.00029  -0.00058   1.90144
   A34        1.68298   0.00547   0.00000   0.01291   0.01336   1.69634
   A35        2.08491  -0.02792   0.00000  -0.02859  -0.02871   2.05621
   A36        2.01779  -0.02107   0.00000  -0.03039  -0.03033   1.98746
   A37        1.62093   0.02891   0.00000   0.03552   0.03525   1.65618
   A38        1.76826   0.00608   0.00000   0.00611   0.00611   1.77437
   A39        2.08064   0.01022   0.00000   0.00785   0.00834   2.08897
   A40        2.34559   0.00011   0.00000  -0.00083  -0.00077   2.34482
   A41        1.67159   0.00629   0.00000   0.00538   0.00536   1.67695
   A42        1.25694  -0.00719   0.00000  -0.00664  -0.00660   1.25034
   A43        2.76381  -0.00400   0.00000  -0.00528  -0.00534   2.75847
   A44        3.25533  -0.01900   0.00000  -0.03248  -0.03261   3.22272
   A45        3.01872   0.07128   0.00000   0.12363   0.12353   3.14226
   A46        3.35886   0.00360   0.00000  -0.00380  -0.00372   3.35513
   A47        3.36688  -0.00230   0.00000   0.00444   0.00460   3.37148
    D1        0.08355  -0.00072   0.00000   0.00461   0.00470   0.08825
    D2       -3.06342  -0.00428   0.00000  -0.00520  -0.00518  -3.06859
    D3        3.13694   0.00369   0.00000   0.01082   0.01085  -3.13539
    D4       -0.01003   0.00013   0.00000   0.00101   0.00098  -0.00905
    D5        2.48274  -0.00497   0.00000  -0.00622  -0.00619   2.47656
    D6        2.73285   0.00926   0.00000   0.00878   0.00856   2.74141
    D7       -0.19914  -0.00301   0.00000  -0.01296  -0.01289  -0.21202
    D8       -0.40550   0.01151   0.00000   0.01482   0.01488  -0.39062
    D9        2.94570  -0.00076   0.00000  -0.00691  -0.00657   2.93913
   D10       -0.21435   0.00885   0.00000   0.01144   0.01133  -0.20302
   D11        2.58625   0.00414   0.00000   0.00653   0.00638   2.59263
   D12        3.02612  -0.00666   0.00000  -0.01142  -0.01129   3.01483
   D13       -0.45647  -0.01136   0.00000  -0.01632  -0.01624  -0.47270
   D14        2.84511  -0.01127   0.00000  -0.01513  -0.01492   2.83018
   D15        0.16156   0.01109   0.00000   0.00965   0.00973   0.17130
   D16       -2.54490  -0.00273   0.00000  -0.00334  -0.00354  -2.54844
   D17       -0.30200  -0.01491   0.00000  -0.02512  -0.02488  -0.32687
   D18       -2.98554   0.00746   0.00000  -0.00034  -0.00022  -2.98576
   D19        0.59118  -0.00636   0.00000  -0.01333  -0.01349   0.57769
   D20        2.62233  -0.01851   0.00000  -0.02132  -0.02116   2.60118
   D21       -0.06121   0.00386   0.00000   0.00346   0.00350  -0.05771
   D22       -2.76768  -0.00996   0.00000  -0.00954  -0.00977  -2.77745
   D23        0.11008  -0.00683   0.00000  -0.00716  -0.00723   0.10285
   D24        2.93213  -0.01163   0.00000  -0.01325  -0.01341   2.91873
   D25        3.04812  -0.02455   0.00000  -0.04099  -0.04072   3.00740
   D26       -0.24035  -0.00203   0.00000  -0.00777  -0.00763  -0.24798
   D27       -0.28842  -0.01609   0.00000  -0.02462  -0.02422  -0.31265
   D28        2.70629   0.00643   0.00000   0.00860   0.00887   2.71515
   D29       -2.93525   0.00491   0.00000   0.00995   0.01017  -2.92508
   D30       -0.43094  -0.00763   0.00000  -0.01002  -0.01014  -0.44108
   D31        0.34304  -0.01420   0.00000  -0.01901  -0.01903   0.32401
   D32        2.84735  -0.02673   0.00000  -0.03899  -0.03934   2.80802
   D33        0.91182  -0.00831   0.00000  -0.00505  -0.00505   0.90677
   D34       -2.28854  -0.00115   0.00000   0.00563   0.00612  -2.28242
   D35        1.53354  -0.01466   0.00000  -0.01830  -0.01790   1.51563
   D36       -0.36803  -0.02973   0.00000  -0.05181  -0.05125  -0.41928
   D37       -0.75816  -0.01245   0.00000  -0.01786  -0.01814  -0.77630
   D38       -2.65972  -0.02752   0.00000  -0.05136  -0.05149  -2.71121
   D39       -1.64734  -0.00763   0.00000  -0.00608  -0.00598  -1.65332
   D40        1.26896  -0.00533   0.00000  -0.01052  -0.01057   1.25839
   D41        0.88533  -0.02559   0.00000  -0.03672  -0.03635   0.84898
   D42       -2.48156  -0.02329   0.00000  -0.04116  -0.04094  -2.52250
   D43        0.56418  -0.00379   0.00000  -0.00503  -0.00502   0.55917
   D44       -1.75718   0.00987   0.00000   0.00346   0.00294  -1.75424
   D45        0.81766   0.00900   0.00000   0.00264   0.00243   0.82008
   D46        2.96718   0.01134   0.00000   0.01691   0.01621   2.98339
   D47       -0.02817  -0.01349   0.00000  -0.01702  -0.01682  -0.04499
   D48        2.62693   0.01737   0.00000   0.01928   0.01913   2.64606
   D49       -1.50673   0.01970   0.00000   0.03354   0.03291  -1.47382
   D50        1.78111  -0.00513   0.00000  -0.00039  -0.00011   1.78099
   D51       -2.12539  -0.00789   0.00000  -0.01061  -0.01101  -2.13640
   D52        0.12376  -0.00649   0.00000  -0.00653  -0.00670   0.11706
   D53        1.83079  -0.01925   0.00000  -0.03164  -0.03138   1.79941
   D54       -2.20324  -0.01786   0.00000  -0.02756  -0.02707  -2.23032
   D55       -1.51772   0.00787   0.00000   0.00715   0.00768  -1.51003
   D56        0.73144   0.00927   0.00000   0.01124   0.01199   0.74343
   D57       -0.90334  -0.01023   0.00000  -0.00838  -0.00833  -0.91166
   D58        1.47681  -0.01232   0.00000  -0.01268  -0.01201   1.46480
   D59       -1.55396  -0.02098   0.00000  -0.02600  -0.02691  -1.58086
   D60        2.66531   0.00152   0.00000   0.00026   0.00040   2.66571
   D61        0.75339  -0.00149   0.00000  -0.00403  -0.00422   0.74917
   D62        0.35818  -0.00102   0.00000  -0.00166  -0.00146   0.35672
   D63       -1.55373  -0.00402   0.00000  -0.00595  -0.00608  -1.55982
   D64       -0.33336   0.00571   0.00000   0.00608   0.00618  -0.32718
   D65       -0.11270   0.00556   0.00000   0.00600   0.00618  -0.10651
   D66       -1.05688   0.00267   0.00000   0.00193   0.00206  -1.05481
   D67        2.30182  -0.00384   0.00000  -0.00421  -0.00407   2.29775
   D68        2.52249  -0.00399   0.00000  -0.00428  -0.00407   2.51842
   D69        1.57831  -0.00689   0.00000  -0.00836  -0.00819   1.57012
   D70        2.77035   0.00199   0.00000  -0.00273  -0.00249   2.76786
   D71       -1.38887  -0.01499   0.00000  -0.02674  -0.02699  -1.41585
         Item               Value     Threshold  Converged?
 Maximum Force            0.138933     0.000450     NO 
 RMS     Force            0.023551     0.000300     NO 
 Maximum Displacement     0.344509     0.001800     NO 
 RMS     Displacement     0.058625     0.001200     NO 
 Predicted change in Energy=-7.865030D-02
 GradGradGradGradGradGradGradGradGradGradGradGradGradGradGradGradGradGrad

                          Input orientation:                          
 ---------------------------------------------------------------------
 Center     Atomic      Atomic             Coordinates (Angstroms)
 Number     Number       Type             X           Y           Z
 ---------------------------------------------------------------------
      1          6           0        1.694834    0.101124    0.014779
      2          6           0        2.993597   -0.138532    0.423431
      3          6           0        2.937670   -1.191219    1.397979
      4          6           0        4.088603   -1.721528    1.403991
      5          6           0        5.098828   -2.581155    1.876400
      6          6           0        6.327343   -2.262311    1.295037
      7          6           0        6.685357   -1.250760    2.286307
      8          6           0        6.103227   -0.009960    1.390828
      9          6           0        4.781381    0.380293    0.170502
     10          7           0        3.895803    1.700461   -0.786648
     11          7           0        3.811859    2.390762   -2.407037
     12         16           0        2.217220    3.178363   -2.930149
     13         16           0        2.857874    4.441614   -4.491576
     14          1           0        0.874172   -0.447736    0.529251
     15          1           0        1.076681    0.726302   -0.662427
     16          1           0        2.074517   -1.598384    1.898906
     17          1           0        4.636297   -1.403258    0.542874
     18          1           0        4.869316   -2.746353    2.940212
     19          1           0        6.790262   -1.731004    0.313204
     20          1           0        6.866275   -2.219914    3.086724
     21          1           0        7.435074   -0.225115    1.386587
     22          1           0        2.882208    1.598716   -0.637195
     23          1           0        3.813933    1.695554   -3.152099
 ---------------------------------------------------------------------
                    Distance matrix (angstroms):
                    1          2          3          4          5
     1  C    0.000000
     2  C    1.382467   0.000000
     3  C    2.264516   1.435626   0.000000
     4  C    3.313925   2.160189   1.267246   0.000000
     5  C    4.716718   3.536881   2.613698   1.408078   0.000000
     6  C    5.355840   4.047715   3.556363   2.305704   1.396027
     7  C    5.647367   4.282109   3.851991   2.782667   2.110699
     8  C    4.619500   3.259170   3.378784   2.643548   2.802792
     9  C    3.103056   1.878650   2.715810   2.533592   3.432352
    10  N    2.836271   2.379110   3.748657   4.067687   5.183756
    11  N    3.948346   3.883095   5.298391   5.613506   6.687607
    12  S    4.291257   4.780277   6.192333   6.804100   8.036083
    13  S    6.363942   6.719631   8.149971   8.617234   9.741267
    14  H    1.113290   2.144473   2.359126   3.566551   4.920773
    15  H    1.109761   2.366768   3.374231   4.397002   5.793322
    16  H    2.565622   2.270001   1.077842   2.077655   3.180064
    17  H    3.345782   2.076599   1.913505   1.069012   1.838388
    18  H    5.171423   4.080839   2.920306   2.004933   1.100756
    19  H    5.423019   4.118591   4.038635   2.913566   2.455053
    20  H    6.447314   5.140323   4.398183   3.285641   2.172383
    21  H    5.910892   4.545535   4.600015   3.665845   3.353936
    22  H    2.019334   2.038471   3.453802   4.079933   5.357508
    23  H    4.130606   4.101370   5.459350   5.701741   6.725102
                    6          7          8          9         10
     6  C    0.000000
     7  C    1.460830   0.000000
     8  C    2.265499   1.637175   0.000000
     9  C    3.261585   3.280563   1.840861   0.000000
    10  N    5.094051   5.092580   3.541138   1.855593   0.000000
    11  N    6.456323   6.598875   5.043571   3.409643   1.763299
    12  S    8.021611   8.172686   6.628521   4.900831   3.097811
    13  S    9.511294   9.643259   8.059249   6.475274   4.724162
    14  H    5.797946   6.123885   5.317610   4.010064   3.934031
    15  H    6.350821   6.637850   5.479425   3.812911   2.985275
    16  H    4.346491   4.640126   4.360245   3.772222   4.627274
    17  H    2.040431   2.694710   2.193670   1.827776   3.456737
    18  H    2.250942   2.441802   3.378014   4.177912   5.883143
    19  H    1.208543   2.033414   2.143661   2.917798   4.621961
    20  H    1.871466   1.269904   2.888287   4.428567   6.260675
    21  H    2.320693   1.556765   1.349120   2.981186   4.577907
    22  H    5.523586   5.579456   4.132273   2.396620   1.029595
    23  H    6.462116   6.819245   5.365429   3.702100   2.366872
                   11         12         13         14         15
    11  N    0.000000
    12  S    1.853870   0.000000
    13  S    3.075936   2.108150   0.000000
    14  H    5.030792   5.188431   7.283510   0.000000
    15  H    3.646272   3.529305   5.624818   1.685073   0.000000
    16  H    6.121502   6.793927   8.827994   2.154245   3.600037
    17  H    4.876091   6.237393   7.916502   3.881597   4.319565
    18  H    7.490077   8.751972  10.533008   5.201687   6.278728
    19  H    5.767110   7.452110   8.755045   6.057522   6.295651
    20  H    7.795460   9.325120  10.856973   6.751783   7.500381
    21  H    5.861918   7.579174   8.791014   6.620424   6.747801
    22  H    2.150333   2.862714   4.789459   3.095282   2.005410
    23  H    1.019037   2.190314   3.201421   5.175734   3.824979
                   16         17         18         19         20
    16  H    0.000000
    17  H    2.905102   0.000000
    18  H    3.195787   2.757795   0.000000
    19  H    4.976976   2.190829   3.409126   0.000000
    20  H    4.975757   3.480071   2.070374   2.817307   0.000000
    21  H    5.557329   3.151670   3.918355   1.958478   2.682018
    22  H    4.160002   3.671681   5.968758   5.221416   6.657499
    23  H    6.276005   4.892008   7.613188   5.710356   7.973116
                   21         22         23
    21  H    0.000000
    22  H    5.305718   0.000000
    23  H    6.115661   2.683697   0.000000
 Stoichiometry    C9H10N2S2
 Framework group  C1[X(C9H10N2S2)]
 Deg. of freedom    63
 Full point group                 C1      NOp   1
 Largest Abelian subgroup         C1      NOp   1
 Largest concise Abelian subgroup C1      NOp   1
                         Standard orientation:                         
 ---------------------------------------------------------------------
 Center     Atomic      Atomic             Coordinates (Angstroms)
 Number     Number       Type             X           Y           Z
 ---------------------------------------------------------------------
      1          6           0        0.261511    2.338405   -0.085943
      2          6           0        1.114608    1.252252   -0.146878
      3          6           0        2.453302    1.770056   -0.118576
      4          6           0        3.183470    0.824358    0.303823
      5          6           0        4.400833    0.187791    0.612844
      6          6           0        4.194712   -1.168516    0.871375
      7          6           0        4.297463   -1.587362   -0.524344
      8          6           0        2.679981   -1.537090   -0.772470
      9          6           0        1.175152   -0.623375   -0.234524
     10          7           0       -0.634645   -0.319119   -0.508911
     11          7           0       -2.208582   -0.731138    0.170931
     12         16           0       -3.600324    0.467283   -0.081415
     13         16           0       -5.284169   -0.770639    0.195195
     14          1           0        0.708312    3.357659   -0.116016
     15          1           0       -0.809650    2.627808   -0.065219
     16          1           0        2.782543    2.789238   -0.239457
     17          1           0        2.570677    0.058507    0.728965
     18          1           0        5.149661    0.650753   -0.047904
     19          1           0        3.331226   -1.933799    1.230974
     20          1           0        5.540108   -1.348694   -0.416969
     21          1           0        3.250867   -2.739479   -0.552298
     22          1           0       -0.793614    0.694295   -0.597142
     23          1           0       -2.241844   -0.689909    1.188590
 ---------------------------------------------------------------------
 Rotational constants (GHZ):           1.5696058           0.2026423           0.1842077
 Standard basis: 6-31G(2df,p) (6D, 7F)
 There are   461 symmetry adapted cartesian basis functions of A   symmetry.
 There are   422 symmetry adapted basis functions of A   symmetry.
   422 basis functions,   690 primitive gaussians,   461 cartesian basis functions
    55 alpha electrons       55 beta electrons
       nuclear repulsion energy       836.7506623501 Hartrees.
 NAtoms=   23 NActive=   23 NUniq=   23 SFac= 1.00D+00 NAtFMM=   60 NAOKFM=F Big=F
 Integral buffers will be    131072 words long.
 Raffenetti 2 integral format.
 Two-electron integral symmetry is turned on.
 One-electron integrals computed using PRISM.
 PrsmSu:  requested number of processors reduced to:  13 ShMem   1 Linda.
 NBasis=   422 RedAO= T EigKep=  3.07D-04  NBF=   422
 NBsUse=   422 1.00D-06 EigRej= -1.00D+00 NBFU=   422
 Initial guess from the checkpoint file:  "CdC1CdCCdCCdC[C]1NNS[S].chk"
 B after Tr=    -0.000000   -0.000000    0.000000
         Rot=    0.999999    0.000681   -0.001085    0.000586 Ang=   0.16 deg.
 ExpMin= 1.17D-01 ExpMax= 2.19D+04 ExpMxC= 3.30D+03 IAcc=2 IRadAn=         4 AccDes= 0.00D+00
 Harris functional with IExCor=  402 and IRadAn=       4 diagonalized for initial guess.
 HarFok:  IExCor=  402 AccDes= 0.00D+00 IRadAn=         4 IDoV= 1 UseB2=F ITyADJ=14
 ICtDFT=  3500011 ScaDFX=  1.000000  1.000000  1.000000  1.000000
 FoFCou: FMM=F IPFlag=           0 FMFlag=      100000 FMFlg1=           0
         NFxFlg=           0 DoJE=T BraDBF=F KetDBF=T FulRan=T
         wScrn=  0.000000 ICntrl=       500 IOpCl=  0 I1Cent=   200000004 NGrid=           0
         NMat0=    1 NMatS0=      1 NMatT0=    0 NMatD0=    1 NMtDS0=    0 NMtDT0=    0
 Petite list used in FoFCou.
 Requested convergence on RMS density matrix=1.00D-08 within 128 cycles.
 Requested convergence on MAX density matrix=1.00D-06.
 Requested convergence on             energy=1.00D-06.
 No special actions if energy rises.
 Integral accuracy reduced to 1.0D-05 until final iterations.
 EnCoef did     5 forward-backward iterations
 Initial convergence to 1.0D-05 achieved.  Increase integral accuracy.
 SCF Done:  E(RB3LYP) =  -1253.91468233     A.U. after   22 cycles
            NFock= 22  Conv=0.92D-08     -V/T= 2.0053
 PrsmSu:  requested number of processors reduced to:  13 ShMem   1 Linda.
 Calling FoFJK, ICntrl=      2127 FMM=F ISym2X=0 I1Cent= 0 IOpClX= 0 NMat=1 NMatS=1 NMatT=0.
 ***** Axes restored to original set *****
 -------------------------------------------------------------------
 Center     Atomic                   Forces (Hartrees/Bohr)
 Number     Number              X              Y              Z
 -------------------------------------------------------------------
      1        6          -0.015745297    0.006960748   -0.000136411
      2        6          -0.035090870    0.021013529    0.012606341
      3        6          -0.054551099    0.009676939    0.012702831
      4        6           0.094942754   -0.083453736   -0.042411461
      5        6          -0.039021980   -0.009243216    0.027644871
      6        6           0.059255840    0.051012476   -0.032592836
      7        6          -0.013105477   -0.072194733    0.011462152
      8        6           0.061017955    0.001753362    0.019024843
      9        6          -0.092423952    0.026289452   -0.025403890
     10        7           0.022493439    0.003221328   -0.041447009
     11        7          -0.014029985    0.007181436    0.026282928
     12       16           0.041426384    0.014632037   -0.016933838
     13       16          -0.015261826   -0.025363786    0.037700364
     14        1           0.018821415    0.000036441    0.002657481
     15        1           0.031987727    0.003238987   -0.006438092
     16        1          -0.008104976    0.009198614    0.003914834
     17        1          -0.006872549    0.016871317   -0.011686410
     18        1           0.027402165   -0.016278864   -0.000220122
     19        1          -0.046442866   -0.046671253    0.013280604
     20        1          -0.008720904    0.075530111    0.005149728
     21        1          -0.036520049    0.026942468   -0.012592231
     22        1           0.017118353   -0.000443575    0.004269074
     23        1           0.011425800   -0.019910082    0.013166249
 -------------------------------------------------------------------
 Cartesian Forces:  Max     0.094942754 RMS     0.033294911

 GradGradGradGradGradGradGradGradGradGradGradGradGradGradGradGradGradGrad
 Berny optimization.
 Using GEDIIS/GDIIS optimizer.
 FormGI is forming the generalized inverse of G from B-inverse, IUseBI=4.
 Internal  Forces:  Max     0.083628935 RMS     0.019703816
 Search for a local minimum.
 Step number   2 out of a maximum of  138
 All quantities printed in internal units (Hartrees-Bohrs-Radians)
 Mixed Optimization -- RFO/linear search
 Update second derivatives using D2CorX and points    1    2
 DE= -8.21D-02 DEPred=-7.87D-02 R= 1.04D+00
 TightC=F SS=  1.41D+00  RLast= 3.36D-01 DXNew= 5.0454D-01 1.0074D+00
 Trust test= 1.04D+00 RLast= 3.36D-01 DXMaxT set to 5.05D-01
 ITU=  1  0
 Use linear search instead of GDIIS.
 Linear search step of   0.600 exceeds DXMaxT=   0.505 but not scaled.
 Quartic linear search produced a step of  2.00000.
 Iteration  1 RMS(Cart)=  0.11509942 RMS(Int)=  0.00880662
 Iteration  2 RMS(Cart)=  0.00984151 RMS(Int)=  0.00160149
 Iteration  3 RMS(Cart)=  0.00009943 RMS(Int)=  0.00159992
 Iteration  4 RMS(Cart)=  0.00000006 RMS(Int)=  0.00159992
 Variable       Old X    -DE/DX   Delta X   Delta X   Delta X     New X
                                 (Linear)    (Quad)   (Total)
    R1        2.61248  -0.01801  -0.02795   0.00000  -0.02676   2.58573
    R2        2.10381  -0.01266  -0.02982   0.00000  -0.02982   2.07399
    R3        2.09714  -0.00688  -0.01534   0.00000  -0.01418   2.08297
    R4        3.81599   0.00552   0.01949   0.00000   0.01844   3.83443
    R5        2.71294   0.02498   0.07280   0.00000   0.07273   2.78567
    R6        3.55013  -0.00496  -0.02497   0.00000  -0.02509   3.52504
    R7        3.85215   0.00619   0.02327   0.00000   0.02199   3.87414
    R8        2.39475   0.08363   0.12933   0.00000   0.12996   2.52471
    R9        2.03683   0.00484   0.01112   0.00000   0.01112   2.04794
   R10        2.66088   0.01240   0.04154   0.00000   0.04368   2.70457
   R11        2.02014   0.00989   0.03358   0.00000   0.03264   2.05278
   R12        2.63811   0.00627   0.01391   0.00000   0.01545   2.65356
   R13        2.08013  -0.00348  -0.00525   0.00000  -0.00525   2.07488
   R14        2.76057   0.03502   0.08741   0.00000   0.08677   2.84734
   R15        2.28382  -0.04910  -0.11693   0.00000  -0.11693   2.16689
   R16        3.09381  -0.00319  -0.00293   0.00000  -0.00456   3.08926
   R17        2.39977  -0.05564  -0.13501   0.00000  -0.13501   2.26476
   R18        3.47872  -0.00423  -0.00487   0.00000  -0.00649   3.47223
   R19        2.54947  -0.04031  -0.10212   0.00000  -0.10212   2.44735
   R20        3.50656  -0.05944  -0.15789   0.00000  -0.15763   3.34893
   R21        3.45400   0.01619   0.04859   0.00000   0.05095   3.50495
   R22        3.33215  -0.06564  -0.17925   0.00000  -0.17925   3.15291
   R23        1.94565  -0.01714  -0.03022   0.00000  -0.03129   1.91436
   R24        3.50331  -0.03293  -0.08559   0.00000  -0.08559   3.41772
[...]
   R23        1.93198  -0.00063  -0.00093  -0.00124  -0.00232   1.92966
   R24        3.43958  -0.00249   0.01166  -0.01375  -0.00209   3.43748
   R25        1.92668   0.00024   0.00009   0.00015   0.00024   1.92692
   R26        3.89746  -0.00129  -0.00684   0.00365  -0.00320   3.89427
   R27        4.02264  -0.00003   0.02717  -0.03533  -0.00841   4.01423
    A1        2.09242   0.00007  -0.00124   0.00307   0.00247   2.09489
    A2        2.14715   0.00008   0.00087  -0.00082   0.00005   2.14719
    A3        2.04166  -0.00013   0.00047  -0.00232  -0.00249   2.03917
    A4        2.59053  -0.00023  -0.01291   0.00875  -0.00395   2.58659
    A5        2.20091   0.00022   0.00176  -0.00115   0.00053   2.20144
    A6        2.12360   0.00006  -0.00072   0.00100   0.00046   2.12406
    A7        1.94936  -0.00030  -0.00085  -0.00024  -0.00118   1.94818
    A8        0.96284   0.00006   0.00201  -0.00208  -0.00012   0.96272
    A9        1.93586   0.00010  -0.00467   0.00626   0.00168   1.93754
   A10        2.00247  -0.00038  -0.00147   0.00084  -0.00065   2.00181
   A11        2.03697   0.00015   0.00009   0.00352   0.00358   2.04055
   A12        1.93169   0.00056   0.00211   0.00416   0.00616   1.93784
   A13        2.09132  -0.00003  -0.00103  -0.00207  -0.00314   2.08819
   A14        2.04321  -0.00062  -0.00171  -0.00456  -0.00613   2.03708
   A15        1.90147   0.00092   0.00571   0.00126   0.00703   1.90850
   A16        2.03537  -0.00035   0.00210   0.00358   0.00562   2.04099
   A17        2.07011   0.00001   0.00182   0.00379   0.00558   2.07568
   A18        2.04563  -0.00166  -0.00678  -0.00979  -0.01651   2.02912
   A19        2.07596   0.00078   0.00419  -0.00175   0.00224   2.07819
   A20        2.01542   0.00045   0.00391  -0.00317   0.00054   2.01596
   A21        2.15245  -0.00018   0.00167   0.00165   0.00334   2.15580
   A22        2.10612   0.00031   0.00206  -0.00500  -0.00295   2.10317
   A23        2.41742   0.00035  -0.00281   0.00677   0.00379   2.42120
   A24        2.00128   0.00062   0.00111  -0.00035   0.00076   2.00204
   A25        1.86446  -0.00096   0.00115  -0.00629  -0.00512   1.85934
   A26        2.19124   0.00071   0.00935  -0.00350   0.00579   2.19704
   A27        1.92306  -0.00041  -0.00388   0.00279  -0.00101   1.92204
   A28        0.68882   0.00009   0.00501  -0.00018   0.00486   0.69368
   A29        1.87928  -0.00001   0.00529  -0.00124   0.00431   1.88359
   A30        1.50258   0.00062   0.00439  -0.00360   0.00078   1.50336
   A31        2.30654  -0.00025   0.00949  -0.01246  -0.00291   2.30363
   A32        1.93419  -0.00140   0.00667  -0.00677  -0.00004   1.93415
   A33        1.90029  -0.00020  -0.00131  -0.00030  -0.00153   1.89876
   A34        1.92134   0.00116   0.00746  -0.00302   0.00450   1.92584
   A35        1.83483  -0.00342  -0.00241   0.00654   0.00415   1.83899
   A36        1.87636   0.00128  -0.00271  -0.00143  -0.00408   1.87227
   A37        1.86311   0.00157  -0.00739   0.00290  -0.00444   1.85867
   A38        1.57738  -0.00899   0.00437  -0.00607  -0.00169   1.57568
   A39        1.05368  -0.00027   0.00003   0.00383   0.00386   1.05754
   A40        1.71243   0.00046  -0.00107   0.00420   0.00325   1.71568
   A41        1.36369   0.00045   0.00331  -0.00194   0.00135   1.36504
   A42        0.95992   0.00028   0.00097   0.00103   0.00208   0.96200
   A43        1.73509   0.00025  -0.01105   0.01361   0.00260   1.73769
   A44        2.91220  -0.00024   0.00116  -0.00232  -0.00130   2.91090
   A45        4.25858   0.00013   0.00373  -0.00336   0.00039   4.25897
   A46        3.63515  -0.00005   0.01817  -0.02510  -0.00689   3.62826
   A47        3.01565  -0.00017  -0.00647   0.00111  -0.00537   3.01028
    D1        0.17668   0.00048   0.00509   0.00443   0.00944   0.18612
    D2       -3.12358   0.00034   0.00670   0.00106   0.00770  -3.11588
    D3       -2.89564   0.00023   0.00325   0.00591   0.00912  -2.88652
    D4        0.08729   0.00009   0.00487   0.00254   0.00738   0.09466
    D5        3.00420   0.00001  -0.00746   0.00957   0.00143   3.00563
    D6        1.37636   0.00007   0.01304  -0.00649   0.00670   1.38306
    D7       -2.55243   0.00002   0.00704   0.00603   0.01312  -2.53931
    D8       -1.62000   0.00017   0.01159  -0.00352   0.00818  -1.61183
    D9        0.73439   0.00013   0.00558   0.00901   0.01460   0.74899
   D10       -0.89084   0.00031   0.02142  -0.01481   0.00663  -0.88421
   D11        0.96466   0.00026   0.00282   0.00691   0.00938   0.97404
   D12        1.39168   0.00008   0.01388  -0.00377   0.01027   1.40195
   D13       -3.03600   0.00003  -0.00473   0.01796   0.01302  -3.02298
   D14       -1.92500  -0.00024   0.00181  -0.02108  -0.01928  -1.94428
   D15        0.36696   0.00001   0.01655  -0.02351  -0.00682   0.36013
   D16       -1.94953  -0.00006  -0.00133   0.00112  -0.00028  -1.94981
   D17        1.07877  -0.00032   0.00342  -0.02410  -0.02067   1.05810
   D18       -2.91246  -0.00007   0.01817  -0.02653  -0.00821  -2.92067
   D19        1.05424  -0.00014   0.00028  -0.00190  -0.00167   1.05257
   D20       -2.55638  -0.00027  -0.01474   0.00100  -0.01378  -2.57016
   D21       -0.26443  -0.00002   0.00000  -0.00143  -0.00132  -0.26575
   D22       -2.58092  -0.00009  -0.01788   0.02320   0.00522  -2.57569
   D23        0.35960   0.00019  -0.00087   0.00264   0.00165   0.36125
   D24        2.28920   0.00001  -0.01839   0.02165   0.00294   2.29215
   D25        1.72315  -0.00051  -0.00815   0.00484  -0.00335   1.71980
   D26       -0.73751  -0.00016  -0.00672   0.00976   0.00296  -0.73455
   D27       -0.61428  -0.00021  -0.00115  -0.00669  -0.00782  -0.62210
   D28       -3.07493   0.00015   0.00027  -0.00176  -0.00151  -3.07645
   D29       -1.85323  -0.00033  -0.01364   0.00672  -0.00692  -1.86016
   D30        0.54810   0.00034  -0.00182   0.01775   0.01595   0.56405
   D31        0.62810  -0.00044  -0.01479   0.00289  -0.01193   0.61616
   D32        3.02943   0.00024  -0.00296   0.01392   0.01093   3.04037
   D33        0.83990   0.00020   0.00812  -0.00787   0.00027   0.84017
   D34       -1.57899   0.00012   0.00819  -0.00595   0.00229  -1.57670
   D35        1.80168  -0.00030   0.00062  -0.00337  -0.00274   1.79894
   D36       -0.76080   0.00032  -0.00293   0.02404   0.02110  -0.73970
   D37       -0.58277  -0.00083  -0.01165  -0.01452  -0.02618  -0.60895
   D38        3.13794  -0.00021  -0.01520   0.01289  -0.00234   3.13559
   D39       -0.96218   0.00015   0.01678  -0.00616   0.01058  -0.95160
   D40        2.30536   0.00032   0.02326  -0.00727   0.01595   2.32130
   D41        1.62021  -0.00031   0.02047  -0.03206  -0.01157   1.60864
   D42       -1.39544  -0.00014   0.02694  -0.03318  -0.00620  -1.40164
   D43        0.05188   0.00015  -0.01264  -0.01260  -0.02516   0.02673
   D44       -3.09803   0.00149   0.01480   0.01185   0.02682  -3.07121
   D45       -0.22382   0.00073   0.00430   0.03386   0.03821  -0.18562
   D46       -2.53257   0.00065  -0.00677   0.03464   0.02805  -2.50452
   D47       -0.20819   0.00061   0.00643   0.01972   0.02612  -0.18207
   D48        2.92567  -0.00055  -0.02174   0.01064  -0.01107   2.91461
   D49        0.61692  -0.00063  -0.03282   0.01142  -0.02122   0.59570
   D50        2.94130  -0.00067  -0.01961  -0.00351  -0.02315   2.91815
   D51        2.68905   0.00052   0.01071  -0.00376   0.00676   2.69581
   D52        0.57335   0.00010  -0.00210   0.00445   0.00219   0.57554
   D53       -1.14878   0.00113   0.02564  -0.00731   0.01822  -1.13056
   D54        3.01871   0.00070   0.01284   0.00090   0.01365   3.03236
   D55       -2.91276   0.00037   0.00863   0.00536   0.01433  -2.89843
   D56        1.25473  -0.00005  -0.00418   0.01357   0.00976   1.26449
   D57       -1.63494  -0.00015   0.00207   0.00204   0.00407  -1.63087
   D58        1.52666  -0.00031   0.00444  -0.01601  -0.01145   1.51521
   D59       -2.82959   0.00019   0.01900  -0.02440  -0.00557  -2.83516
   D60       -1.18321   0.00177  -0.00342   0.00147  -0.00186  -1.18507
   D61        3.11952   0.00101   0.00713  -0.00422   0.00304   3.12256
   D62        0.92002   0.00137   0.00457  -0.00528  -0.00083   0.91919
   D63       -1.06043   0.00061   0.01512  -0.01097   0.00406  -1.05636
   D64       -0.76690  -0.00044  -0.00635   0.00423  -0.00202  -0.76892
   D65       -0.33610  -0.00020  -0.00079  -0.00109  -0.00177  -0.33787
   D66       -1.22669  -0.00058  -0.00721   0.00404  -0.00351  -1.23020
   D67       -2.89044   0.00069  -0.01863   0.01469  -0.00382  -2.89426
   D68       -2.45963   0.00094  -0.01308   0.00937  -0.00357  -2.46320
   D69        2.93296   0.00056  -0.01949   0.01450  -0.00531   2.92765
   D70        0.97292  -0.00180  -0.00482  -0.00368  -0.00846   0.96446
   D71        2.96265  -0.00121  -0.01198  -0.00111  -0.01313   2.94953
         Item               Value     Threshold  Converged?
 Maximum Force            0.008995     0.000450     NO 
 RMS     Force            0.001064     0.000300     NO 
 Maximum Displacement     0.034134     0.001800     NO 
 RMS     Displacement     0.009891     0.001200     NO 
 Predicted change in Energy=-2.241632D-04
 GradGradGradGradGradGradGradGradGradGradGradGradGradGradGradGradGradGrad

                          Input orientation:                          
 ---------------------------------------------------------------------
 Center     Atomic      Atomic             Coordinates (Angstroms)
 Number     Number       Type             X           Y           Z
 ---------------------------------------------------------------------
      1          6           0        1.848078   -0.792693   -0.244945
      2          6           0        2.840304   -0.274626    0.487348
      3          6           0        3.071580   -0.504711    1.933478
      4          6           0        3.675400   -1.713850    2.147529
      5          6           0        5.103617   -1.556897    2.327102
      6          6           0        5.749867   -2.001705    1.214046
      7          6           0        6.257329   -0.963757    0.294620
      8          6           0        5.481022    0.012961   -0.232258
      9          6           0        4.018639    0.492603   -0.164486
     10          7           0        3.645177    0.954188   -1.468375
     11          7           0        4.401865    2.089551   -1.834917
     12         16           0        3.852184    3.416185   -0.718320
     13         16           0        4.297946    2.240480    0.914387
     14          1           0        1.024824   -1.303596    0.241128
     15          1           0        1.847657   -0.785039   -1.327656
     16          1           0        3.476595    0.349376    2.470138
     17          1           0        3.346362   -2.585064    1.588614
     18          1           0        5.442356   -0.639314    2.800029
     19          1           0        5.415424   -2.925424    0.740753
     20          1           0        7.274861   -1.019158   -0.095884
     21          1           0        5.985349    0.658990   -0.944228
     22          1           0        2.648774    1.177523   -1.465346
     23          1           0        4.107120    2.359936   -2.772877
 ---------------------------------------------------------------------
                    Distance matrix (angstroms):
                    1          2          3          4          5
     1  C    0.000000
     2  C    1.337594   0.000000
     3  C    2.515038   1.482470   0.000000
     4  C    3.148264   2.350521   1.368369   0.000000
     5  C    4.218763   3.186141   2.321897   1.447993   0.000000
     6  C    4.337547   3.460700   3.151474   2.292960   1.361759
     7  C    4.445434   3.491147   3.611866   3.265313   2.411193
     8  C    3.721225   2.752078   3.280824   3.450440   3.026089
     9  C    2.523845   1.549840   2.508587   3.214291   3.403768
    10  N    2.788896   2.445947   3.745664   4.493785   4.778937
    11  N    4.166194   3.663430   4.764520   5.554591   5.577763
    12  S    4.685635   4.012433   4.797374   5.878911   5.964245
    13  S    4.067683   2.938169   3.174680   4.188667   4.130973
    14  H    1.083991   2.101279   2.773351   3.290627   4.588246
    15  H    1.082738   2.130753   3.494505   4.034878   4.955229
    16  H    3.365719   2.173868   1.086971   2.097737   2.510286
    17  H    2.969745   2.609024   2.126572   1.086125   2.165742
    18  H    4.713197   3.500309   2.527767   2.168529   1.086445
    19  H    4.271545   3.704347   3.574360   2.544527   2.118158
    20  H    5.433551   4.534290   4.695800   4.297862   3.297624
    21  H    4.439976   3.579435   4.257398   4.530474   4.048359
    22  H    2.451987   2.440990   3.815845   4.739922   5.280716
    23  H    4.629555   4.378905   5.606097   6.402539   6.507255
                    6          7          8          9         10
     6  C    0.000000
     7  C    1.476549   0.000000
     8  C    2.494584   1.354338   0.000000
     9  C    3.334527   2.709888   1.540524   0.000000
    10  N    4.512471   3.689173   2.405040   1.432711   0.000000
    11  N    5.277467   4.159371   2.836428   2.342529   1.412791
    12  S    6.057125   5.098495   3.804116   2.980229   2.582027
    13  S    4.493774   3.806630   2.770615   2.072934   2.785356
    14  H    4.874418   5.243802   4.670665   3.514795   3.858269
    15  H    4.813290   4.702013   3.877892   2.774617   2.505153
    16  H    3.503300   3.766919   3.381397   2.693617   3.988245
    17  H    2.501489   3.574464   3.823884   3.605185   4.686233
    18  H    2.113295   2.654528   3.101891   3.478011   4.897793
    19  H    1.090466   2.180821   3.095991   3.801760   4.802646
    20  H    2.237615   1.091299   2.074061   3.590698   4.353439
    21  H    3.434078   2.059618   1.085633   2.122175   2.416253
    22  H    5.186848   4.550190   3.301263   2.009448   1.021130
    23  H    6.133358   5.007980   3.721645   3.209122   1.972624
                   11         12         13         14         15
    11  N    0.000000
    12  S    1.819037   0.000000
    13  S    2.755404   2.060756   0.000000
    14  H    5.218028   5.584875   4.871045   0.000000
    15  H    3.878732   4.694646   4.492710   1.845816   0.000000
    16  H    4.734747   4.439892   2.582877   3.702970   4.285275
    17  H    5.889540   6.449247   4.964471   2.974461   3.740433
    18  H    5.478326   5.599509   3.627470   5.148188   5.475480
    19  H    5.728120   6.692430   5.288239   4.707156   4.646345
    20  H    4.576289   5.636880   4.528567   6.265576   5.570155
    21  H    2.312413   3.493358   2.966967   5.464762   4.399174
    22  H    2.010400   2.649123   3.084279   3.421288   2.124240
    23  H    1.019682   2.324190   3.694131   5.657406   4.133365
                   16         17         18         19         20
    16  H    0.000000
    17  H    3.066755   0.000000
    18  H    2.224984   3.105908   0.000000
    19  H    4.180209   2.261798   3.076954   0.000000
    20  H    4.783741   4.552219   3.447995   2.791293   0.000000
    21  H    4.248247   4.889114   3.999987   4.001500   2.280068
    22  H    4.105989   4.895953   5.412802   5.418062   5.301086
    23  H    5.650586   6.637348   6.468048   6.480146   5.349687
                   21         22         23
    21  H    0.000000
    22  H    3.416602   0.000000
    23  H    3.124887   2.287906   0.000000
 Stoichiometry    C9H10N2S2
 Framework group  C1[X(C9H10N2S2)]
 Deg. of freedom    63
 Full point group                 C1      NOp   1
 Largest Abelian subgroup         C1      NOp   1
 Largest concise Abelian subgroup C1      NOp   1
                         Standard orientation:                         
 ---------------------------------------------------------------------
 Center     Atomic      Atomic             Coordinates (Angstroms)
 Number     Number       Type             X           Y           Z
 ---------------------------------------------------------------------
      1          6           0        0.684163    2.470496    0.898969
      2          6           0        0.696025    1.406577    0.088355
      3          6           0        1.605939    1.194689   -1.062680
      4          6           0        2.836310    0.767202   -0.643308
      5          6           0        2.956147   -0.670676   -0.765091
      6          6           0        2.898812   -1.234669    0.473058
      7          6           0        1.620097   -1.874907    0.840727
      8          6           0        0.424718   -1.240135    0.792085
      9          6           0       -0.139107    0.138054    0.397234
     10          7           0       -1.201524    0.456091    1.304308
     11          7           0       -2.274952   -0.450747    1.158105
     12         16           0       -2.974926   -0.108145   -0.485536
     13         16           0       -1.124879   -0.399476   -1.345284
     14          1           0        1.260113    3.352841    0.644442
     15          1           0        0.167625    2.481656    1.850486
     16          1           0        1.161134    0.666153   -1.901908
     17          1           0        3.294778    1.223229    0.229340
     18          1           0        2.417842   -1.141978   -1.582688
     19          1           0        3.442827   -0.766740    1.294159
     20          1           0        1.607502   -2.869803    1.289008
     21          1           0       -0.414193   -1.823638    1.158629
     22          1           0       -1.515580    1.410359    1.121419
     23          1           0       -2.988473   -0.187346    1.837265
 ---------------------------------------------------------------------
 Rotational constants (GHZ):           1.1611745           0.4938584           0.4626847
 Standard basis: 6-31G(2df,p) (6D, 7F)
 There are   461 symmetry adapted cartesian basis functions of A   symmetry.
 There are   422 symmetry adapted basis functions of A   symmetry.
   422 basis functions,   690 primitive gaussians,   461 cartesian basis functions
    55 alpha electrons       55 beta electrons
       nuclear repulsion energy      1006.8651182602 Hartrees.
 NAtoms=   23 NActive=   23 NUniq=   23 SFac= 1.00D+00 NAtFMM=   60 NAOKFM=F Big=F
 Integral buffers will be    131072 words long.
 Raffenetti 2 integral format.
 Two-electron integral symmetry is turned on.
 One-electron integrals computed using PRISM.
 PrsmSu:  requested number of processors reduced to:  13 ShMem   1 Linda.
 NBasis=   422 RedAO= T EigKep=  2.42D-04  NBF=   422
 NBsUse=   422 1.00D-06 EigRej= -1.00D+00 NBFU=   422
 Initial guess from the checkpoint file:  "CdC1CdCCdCCdC[C]1NNS[S].chk"
 B after Tr=    -0.000000    0.000000   -0.000000
         Rot=    0.999999   -0.001361   -0.000147   -0.000232 Ang=  -0.16 deg.
 ExpMin= 1.17D-01 ExpMax= 2.19D+04 ExpMxC= 3.30D+03 IAcc=2 IRadAn=         4 AccDes= 0.00D+00
 Harris functional with IExCor=  402 and IRadAn=       4 diagonalized for initial guess.
 HarFok:  IExCor=  402 AccDes= 0.00D+00 IRadAn=         4 IDoV= 1 UseB2=F ITyADJ=14
 ICtDFT=  3500011 ScaDFX=  1.000000  1.000000  1.000000  1.000000
 FoFCou: FMM=F IPFlag=           0 FMFlag=      100000 FMFlg1=           0
         NFxFlg=           0 DoJE=T BraDBF=F KetDBF=T FulRan=T
         wScrn=  0.000000 ICntrl=       500 IOpCl=  0 I1Cent=   200000004 NGrid=           0
         NMat0=    1 NMatS0=      1 NMatT0=    0 NMatD0=    1 NMtDS0=    0 NMtDT0=    0
 Petite list used in FoFCou.
 Requested convergence on RMS density matrix=1.00D-08 within 128 cycles.
 Requested convergence on MAX density matrix=1.00D-06.
 Requested convergence on             energy=1.00D-06.
 No special actions if energy rises.
 Integral accuracy reduced to 1.0D-05 until final iterations.
 Initial convergence to 1.0D-05 achieved.  Increase integral accuracy.
slurmstepd: error: *** JOB 27447099 ON lewis4-r630-hpc4-node225 CANCELLED AT 2023-05-16T15:48:48 DUE TO TIME LIMIT ***
