### Starting Gaussian ###
 Entering Gaussian System, Link 0=g16
 Initial command:
 /cluster/software/gaussian/gaussian-16-A.03/avx2/g16/l1.exe "/local/scratch/linjian/Gau-10443.inp" -scrdir="/local/scratch/linjian/"
 Entering Link 1 = /cluster/software/gaussian/gaussian-16-A.03/avx2/g16/l1.exe PID=     10444.
  
 Copyright (c) 1988,1990,1992,1993,1995,1998,2003,2009,2016,
            Gaussian, Inc.  All Rights Reserved.
  
 This is part of the Gaussian(R) 16 program.  It is based on
 the Gaussian(R) 09 system (copyright 2009, Gaussian, Inc.),
 the Gaussian(R) 03 system (copyright 2003, Gaussian, Inc.),
 the Gaussian(R) 98 system (copyright 1998, Gaussian, Inc.),
 the Gaussian(R) 94 system (copyright 1995, Gaussian, Inc.),
 the Gaussian 92(TM) system (copyright 1992, Gaussian, Inc.),
 the Gaussian 90(TM) system (copyright 1990, Gaussian, Inc.),
 the Gaussian 88(TM) system (copyright 1988, Gaussian, Inc.),
 the Gaussian 86(TM) system (copyright 1986, Carnegie Mellon
 University), and the Gaussian 82(TM) system (copyright 1983,
 Carnegie Mellon University). Gaussian is a federally registered
 trademark of Gaussian, Inc.
  
 This software contains proprietary and confidential information,
 including trade secrets, belonging to Gaussian, Inc.
  
 This software is provided under written license and may be
 used, copied, transmitted, or stored only in accord with that
 written license.
  
 The following legend is applicable only to US Government
 contracts under FAR:
  
                    RESTRICTED RIGHTS LEGEND
  
 Use, reproduction and disclosure by the US Government is
 subject to restrictions as set forth in subparagraphs (a)
 and (c) of the Commercial Computer Software - Restricted
 Rights clause in FAR 52.227-19.
  
 Gaussian, Inc.
 340 Quinnipiac St., Bldg. 40, Wallingford CT 06492
  
  
 ---------------------------------------------------------------
 Warning -- This program may not be used in any manner that
 competes with the business of Gaussian, Inc. or will provide
 assistance to any competitor of Gaussian, Inc.  The licensee
 of this program is prohibited from giving any competitor of
 Gaussian, Inc. access to this program.  By using this program,
 the user acknowledges that Gaussian, Inc. is engaged in the
 business of creating and licensing software in the field of
 computational chemistry and represents and warrants to the
 licensee that it is not a competitor of Gaussian, Inc. and that
 it will not use this program in any manner prohibited above.
 ---------------------------------------------------------------
  

 Cite this work as:
 Gaussian 16, Revision A.03,
 M. J. Frisch, G. W. Trucks, H. B. Schlegel, G. E. Scuseria, 
 M. A. Robb, J. R. Cheeseman, G. Scalmani, V. Barone, 
 G. A. Petersson, H. Nakatsuji, X. Li, M. Caricato, A. V. Marenich, 
 J. Bloino, B. G. Janesko, R. Gomperts, B. Mennucci, H. P. Hratchian, 
 J. V. Ortiz, A. F. Izmaylov, J. L. Sonnenberg, D. Williams-Young, 
 F. Ding, F. Lipparini, F. Egidi, J. Goings, B. Peng, A. Petrone, 
 T. Henderson, D. Ranasinghe, V. G. Zakrzewski, J. Gao, N. Rega, 
 G. Zheng, W. Liang, M. Hada, M. Ehara, K. Toyota, R. Fukuda, 
 J. Hasegawa, M. Ishida, T. Nakajima, Y. Honda, O. Kitao, H. Nakai, 
 T. Vreven, K. Throssell, J. A. Montgomery, Jr., J. E. Peralta, 
 F. Ogliaro, M. J. Bearpark, J. J. Heyd, E. N. Brothers, K. N. Kudin, 
 V. N. Staroverov, T. A. Keith, R. Kobayashi, J. Normand, 
 K. Raghavachari, A. P. Rendell, J. C. Burant, S. S. Iyengar, 
 J. Tomasi, M. Cossi, J. M. Millam, M. Klene, C. Adamo, R. Cammi, 
 J. W. Ochterski, R. L. Martin, K. Morokuma, O. Farkas, 
 J. B. Foresman, and D. J. Fox, Gaussian, Inc., Wallingford CT, 2016.
 
 ******************************************
 Gaussian 16:  ES64L-G16RevA.03 25-Dec-2016
                17-May-2023 
 ******************************************
 %chk=CdC1CdCCdCC1d[SH]SCd[SH]SCdS.chk
 %NProcShared=20
 Will use up to   20 processors via shared memory.
 -----------------------------
 # opt freq b3lyp/6-31g(2df,p)
 -----------------------------
 1/18=20,19=15,26=3,38=1/1,3;
 2/9=110,12=2,17=6,18=5,40=1/2;
 3/5=1,6=6,7=104,11=2,25=1,30=1,71=1,74=-5/1,2,3;
 4//1;
 5/5=2,38=5/2;
 6/7=2,8=2,9=2,10=2,28=1/1;
 7//1,2,3,16;
 1/18=20,19=15,26=3/3(2);
 2/9=110/2;
 99//99;
 2/9=110/2;
 3/5=1,6=6,7=104,11=2,25=1,30=1,71=1,74=-5/1,2,3;
 4/5=5,16=3,69=1/1;
 5/5=2,38=5/2;
 7//1,2,3,16;
 1/18=20,19=15,26=3/3(-5);
 2/9=110/2;
 6/7=2,8=2,9=2,10=2,19=2,28=1/1;
 99/9=1/99;
 -------------------
 Title Card Required
 -------------------
 Symbolic Z-matrix:
 Charge =  0 Multiplicity = 1
 C                     0.87413  -0.43732   0.07689 
 C                     2.18081  -0.17151   0.08148 
 C                     3.04417  -1.34455   0.07388 
 C                     4.37239  -1.25748   0.07073 
 C                     5.0288    0.02525   0.06663 
 C                     4.34872   1.18372   0.06764 
 C                     2.84442   1.18904   0.09055 
 S                     2.05786   2.85138   0.1698 
 S                     0.0705    2.56647   0.01418 
 C                    -0.78783   4.04161   0.08674 
 S                    -2.5734    3.75758  -0.00924 
 S                    -3.19912   5.66132   0.22768 
 C                    -4.95191   5.58826   0.14447 
 S                    -5.85867   6.99777   0.13188 
 H                     0.47286  -1.44309   0.06782 
 H                     0.08762   0.28114   0.07941 
 H                     2.5663   -2.32165   0.07222 
 H                     4.97473  -2.16201   0.06878 
 H                     6.11525   0.01261   0.0654 
 H                     4.88005   2.12972   0.0679 
 H                     2.34125   3.27799  -1.04348 
 H                    -0.31908   5.02992   0.13329 
 H                    -2.83138   3.21739   1.16848 
 H                    -5.43142   4.59625   0.10918 
 

 GradGradGradGradGradGradGradGradGradGradGradGradGradGradGradGradGradGrad
 Berny optimization.
 Initialization pass.
                           ----------------------------
                           !    Initial Parameters    !
                           ! (Angstroms and Degrees)  !
 --------------------------                            --------------------------
 ! Name  Definition              Value          Derivative Info.                !
 --------------------------------------------------------------------------------
 ! R1    R(1,2)                  1.3334         estimate D2E/DX2                !
 ! R2    R(1,15)                 1.0829         estimate D2E/DX2                !
 ! R3    R(1,16)                 1.0653         estimate D2E/DX2                !
 ! R4    R(2,3)                  1.4565         estimate D2E/DX2                !
 ! R5    R(2,7)                  1.5138         estimate D2E/DX2                !
 ! R6    R(3,4)                  1.3311         estimate D2E/DX2                !
 ! R7    R(3,17)                 1.0877         estimate D2E/DX2                !
 ! R8    R(4,5)                  1.4409         estimate D2E/DX2                !
 ! R9    R(4,18)                 1.0867         estimate D2E/DX2                !
 ! R10   R(5,6)                  1.3433         estimate D2E/DX2                !
 ! R11   R(5,19)                 1.0865         estimate D2E/DX2                !
 ! R12   R(6,7)                  1.5045         estimate D2E/DX2                !
 ! R13   R(6,20)                 1.085          estimate D2E/DX2                !
 ! R14   R(7,8)                  1.8407         estimate D2E/DX2                !
 ! R15   R(8,9)                  2.0137         estimate D2E/DX2                !
 ! R16   R(8,21)                 1.3169         estimate D2E/DX2                !
 ! R17   R(9,10)                 1.7082         estimate D2E/DX2                !
 ! R18   R(10,11)                1.8106         estimate D2E/DX2                !
 ! R19   R(10,22)                1.0948         estimate D2E/DX2                !
 ! R20   R(11,12)                2.0179         estimate D2E/DX2                !
 ! R21   R(11,23)                1.3211         estimate D2E/DX2                !
 ! R22   R(12,13)                1.7563         estimate D2E/DX2                !
 ! R23   R(13,14)                1.676          estimate D2E/DX2                !
 ! R24   R(13,24)                1.1024         estimate D2E/DX2                !
 ! A1    A(2,1,15)             123.2493         estimate D2E/DX2                !
 ! A2    A(2,1,16)             126.0896         estimate D2E/DX2                !
 ! A3    A(15,1,16)            110.661          estimate D2E/DX2                !
 ! A4    A(1,2,3)              114.8531         estimate D2E/DX2                !
 ! A5    A(1,2,7)              127.4997         estimate D2E/DX2                !
 ! A6    A(3,2,7)              117.6471         estimate D2E/DX2                !
 ! A7    A(2,3,4)              122.6028         estimate D2E/DX2                !
 ! A8    A(2,3,17)             117.5851         estimate D2E/DX2                !
 ! A9    A(4,3,17)             119.8121         estimate D2E/DX2                !
 ! A10   A(3,4,5)              120.8509         estimate D2E/DX2                !
 ! A11   A(3,4,18)             119.9098         estimate D2E/DX2                !
 ! A12   A(5,4,18)             119.2391         estimate D2E/DX2                !
 ! A13   A(4,5,6)              122.4845         estimate D2E/DX2                !
 ! A14   A(4,5,19)             116.4336         estimate D2E/DX2                !
 ! A15   A(6,5,19)             121.0817         estimate D2E/DX2                !
 ! A16   A(5,6,7)              120.6145         estimate D2E/DX2                !
 ! A17   A(5,6,20)             120.2638         estimate D2E/DX2                !
 ! A18   A(7,6,20)             119.1146         estimate D2E/DX2                !
 ! A19   A(2,7,6)              115.7887         estimate D2E/DX2                !
 ! A20   A(2,7,8)              128.6529         estimate D2E/DX2                !
 ! A21   A(6,7,8)              115.5376         estimate D2E/DX2                !
 ! A22   A(7,8,9)              106.8948         estimate D2E/DX2                !
 ! A23   A(7,8,21)              99.2608         estimate D2E/DX2                !
 ! A24   A(9,8,21)             100.7782         estimate D2E/DX2                !
 ! A25   A(8,9,10)             111.7423         estimate D2E/DX2                !
 ! A26   A(9,10,11)            110.9659         estimate D2E/DX2                !
 ! A27   A(9,10,22)            124.4863         estimate D2E/DX2                !
 ! A28   A(11,10,22)           124.479          estimate D2E/DX2                !
 ! A29   A(10,11,12)            98.7186         estimate D2E/DX2                !
 ! A30   A(10,11,23)           102.0909         estimate D2E/DX2                !
 ! A31   A(12,11,23)           102.7407         estimate D2E/DX2                !
 ! A32   A(11,12,13)           105.3468         estimate D2E/DX2                !
 ! A33   A(12,13,14)           120.352          estimate D2E/DX2                !
 ! A34   A(12,13,24)           118.2331         estimate D2E/DX2                !
 ! A35   A(14,13,24)           121.4133         estimate D2E/DX2                !
 ! D1    D(15,1,2,3)            -0.0237         estimate D2E/DX2                !
 ! D2    D(15,1,2,7)           179.8368         estimate D2E/DX2                !
 ! D3    D(16,1,2,3)          -179.8907         estimate D2E/DX2                !
 ! D4    D(16,1,2,7)            -0.0301         estimate D2E/DX2                !
 ! D5    D(1,2,3,4)            179.6744         estimate D2E/DX2                !
 ! D6    D(1,2,3,17)            -0.4134         estimate D2E/DX2                !
 ! D7    D(7,2,3,4)             -0.2007         estimate D2E/DX2                !
 ! D8    D(7,2,3,17)           179.7115         estimate D2E/DX2                !
 ! D9    D(1,2,7,6)           -178.8799         estimate D2E/DX2                !
 ! D10   D(1,2,7,8)              2.8706         estimate D2E/DX2                !
 ! D11   D(3,2,7,6)              0.9773         estimate D2E/DX2                !
 ! D12   D(3,2,7,8)           -177.2723         estimate D2E/DX2                !
 ! D13   D(2,3,4,5)             -0.3771         estimate D2E/DX2                !
 ! D14   D(2,3,4,18)           179.7724         estimate D2E/DX2                !
 ! D15   D(17,3,4,5)           179.7126         estimate D2E/DX2                !
 ! D16   D(17,3,4,18)           -0.1379         estimate D2E/DX2                !
 ! D17   D(3,4,5,6)              0.0943         estimate D2E/DX2                !
 ! D18   D(3,4,5,19)           179.9308         estimate D2E/DX2                !
 ! D19   D(18,4,5,6)           179.9458         estimate D2E/DX2                !
 ! D20   D(18,4,5,19)           -0.2177         estimate D2E/DX2                !
 ! D21   D(4,5,6,7)              0.7677         estimate D2E/DX2                !
 ! D22   D(4,5,6,20)           179.7885         estimate D2E/DX2                !
 ! D23   D(19,5,6,7)          -179.0614         estimate D2E/DX2                !
 ! D24   D(19,5,6,20)           -0.0405         estimate D2E/DX2                !
 ! D25   D(5,6,7,2)             -1.2692         estimate D2E/DX2                !
 ! D26   D(5,6,7,8)            177.2158         estimate D2E/DX2                !
 ! D27   D(20,6,7,2)           179.6987         estimate D2E/DX2                !
 ! D28   D(20,6,7,8)            -1.8162         estimate D2E/DX2                !
 ! D29   D(2,7,8,9)             -6.9247         estimate D2E/DX2                !
 ! D30   D(2,7,8,21)          -111.2571         estimate D2E/DX2                !
 ! D31   D(6,7,8,9)            174.8221         estimate D2E/DX2                !
 ! D32   D(6,7,8,21)            70.4897         estimate D2E/DX2                !
 ! D33   D(7,8,9,10)           179.5343         estimate D2E/DX2                !
 ! D34   D(21,8,9,10)          -77.226          estimate D2E/DX2                !
 ! D35   D(8,9,10,11)         -178.4403         estimate D2E/DX2                !
 ! D36   D(8,9,10,22)            4.4674         estimate D2E/DX2                !
 ! D37   D(9,10,11,12)         176.4767         estimate D2E/DX2                !
 ! D38   D(9,10,11,23)          71.3455         estimate D2E/DX2                !
 ! D39   D(22,10,11,12)         -6.4308         estimate D2E/DX2                !
 ! D40   D(22,10,11,23)       -111.562          estimate D2E/DX2                !
 ! D41   D(10,11,12,13)        179.4377         estimate D2E/DX2                !
 ! D42   D(23,11,12,13)        -75.9702         estimate D2E/DX2                !
 ! D43   D(11,12,13,14)       -173.339          estimate D2E/DX2                !
 ! D44   D(11,12,13,24)          7.1282         estimate D2E/DX2                !
 ! D45   D(12,13,14,24)       -179.5178         estimate D2E/DX2                !
 --------------------------------------------------------------------------------
 Trust Radius=3.00D-01 FncErr=1.00D-07 GrdErr=1.00D-06 EigMax=2.50D+02 EigMin=1.00D-04
 Number of steps in this run=    114 maximum allowed number of steps=    144.
 GradGradGradGradGradGradGradGradGradGradGradGradGradGradGradGradGradGrad

                          Input orientation:                          
 ---------------------------------------------------------------------
 Center     Atomic      Atomic             Coordinates (Angstroms)
 Number     Number       Type             X           Y           Z
 ---------------------------------------------------------------------
      1          6           0        0.874130   -0.437320    0.076890
      2          6           0        2.180810   -0.171510    0.081480
      3          6           0        3.044170   -1.344550    0.073880
      4          6           0        4.372390   -1.257480    0.070730
      5          6           0        5.028800    0.025250    0.066630
      6          6           0        4.348720    1.183720    0.067640
      7          6           0        2.844420    1.189040    0.090550
      8         16           0        2.057860    2.851380    0.169800
      9         16           0        0.070500    2.566470    0.014180
     10          6           0       -0.787830    4.041610    0.086740
     11         16           0       -2.573400    3.757580   -0.009240
     12         16           0       -3.199120    5.661320    0.227680
     13          6           0       -4.951910    5.588260    0.144470
     14         16           0       -5.858670    6.997770    0.131880
     15          1           0        0.472860   -1.443090    0.067820
     16          1           0        0.087620    0.281140    0.079410
     17          1           0        2.566300   -2.321650    0.072220
     18          1           0        4.974730   -2.162010    0.068780
     19          1           0        6.115250    0.012610    0.065400
     20          1           0        4.880050    2.129720    0.067900
     21          1           0        2.341250    3.277990   -1.043480
     22          1           0       -0.319080    5.029920    0.133290
     23          1           0       -2.831380    3.217390    1.168480
     24          1           0       -5.431420    4.596250    0.109180
 ---------------------------------------------------------------------
                    Distance matrix (angstroms):
                    1          2          3          4          5
     1  C    0.000000
     2  C    1.333450   0.000000
     3  C    2.352052   1.456527   0.000000
     4  C    3.593122   2.445909   1.331075   0.000000
     5  C    4.180354   2.854817   2.411464   1.440933   0.000000
     6  C    3.834140   2.556692   2.845002   2.441317   1.343340
     7  C    2.554853   1.513789   2.541507   2.884536   2.475176
     8  S    3.496483   3.026678   4.311361   4.716948   4.101724
     9  S    3.110066   3.457524   4.913487   5.756045   5.571830
    10  C    4.777345   5.153953   6.610228   7.396518   7.068574
    11  S    5.430476   6.168346   7.589185   8.567451   8.469326
    12  S    7.335360   7.936430   9.385336  10.257787   9.974462
    13  C    8.381821   9.168130  10.583295  11.567721  11.426623
    14  S   10.030662  10.771924  12.200747  13.146387  12.928933
    15  H    1.082900   2.129365   2.573205   3.903946   4.786712
    16  H    1.065265   2.141574   3.374031   4.552656   4.947818
    17  H    2.532619   2.184443   1.087698   2.096287   3.401746
    18  H    4.448544   3.430487   2.096504   1.086734   2.187929
    19  H    5.260409   3.938779   3.357601   2.156552   1.086524
    20  H    4.757854   3.547075   3.929509   3.425033   2.109721
    21  H    4.148638   3.631849   4.807335   5.092885   4.362979
    22  H    5.596217   5.771222   7.207555   7.845075   7.324683
    23  H    5.317826   6.147216   7.518745   8.551247   8.554897
    24  H    8.068323   8.982113  10.350361  11.418508  11.415431
                    6          7          8          9         10
     6  C    0.000000
     7  C    1.504484   0.000000
     8  S    2.835413   1.840742   0.000000
     9  S    4.496445   3.098028   2.013701   0.000000
    10  C    5.878099   4.618486   3.085692   1.708225   0.000000
    11  S    7.385554   5.996677   4.722481   2.899914   1.810565
    12  S    8.777494   7.519606   5.961120   4.507116   2.908203
    13  C   10.291142   8.952028   7.525160   5.862831   4.442412
    14  S   11.747260  10.463595   8.936746   7.403062   5.869782
    15  H    4.682139   3.543010   4.578766   4.030055   5.627755
    16  H    4.355659   2.902474   3.239776   2.286325   3.861036
    17  H    3.932513   3.521737   5.198872   5.488725   7.193155
    18  H    3.403792   3.970923   5.801070   6.812707   8.467132
    19  H    2.119465   3.476054   4.952972   6.562303   7.992860
    20  H    1.085001   2.242584   2.914778   4.829638   5.981684
    21  H    3.106524   2.429592   1.316949   2.604076   3.413452
    22  H    6.048630   4.976135   3.224471   2.496907   1.094829
    23  H    7.543308   6.122977   5.003598   3.190143   2.454709
    24  H   10.358486   8.949802   7.690095   5.865165   4.676650
                   11         12         13         14         15
    11  S    0.000000
    12  S    2.017891   0.000000
    13  C    3.005383   1.756284   0.000000
    14  S    4.616465   2.978000   1.676034   0.000000
    15  H    6.027653   7.998852   8.881097  10.551800   0.000000
    16  H    4.378872   6.306424   7.318922   8.970743   1.766780
    17  H    7.961168   9.848454  10.913083  12.563251   2.270326
    18  H    9.592805  11.315545  12.594070  14.186899   4.558912
    19  H    9.461660  10.894574  12.392585  13.862599   5.827146
    20  H    7.629534   8.818771  10.422802  11.790764   5.673473
    21  H    5.045141   6.163750   7.742012   9.080579   5.197544
    22  H    2.592513   2.949950   4.666367   5.878732   6.521604
    23  H    1.321130   2.644453   3.341597   4.952807   5.818035
    24  H    2.980884   2.476203   1.102388   2.439335   8.446056
                   16         17         18         19         20
    16  H    0.000000
    17  H    3.594221   0.000000
    18  H    5.463784   2.413717   0.000000
    19  H    6.033625   4.247807   2.455559   0.000000
    20  H    5.136610   5.016787   4.292774   2.451098   0.000000
    21  H    3.914184   5.714141   6.145400   5.112279   2.999866
    22  H    4.766468   7.897767   8.930422   8.159572   5.953687
    23  H    4.281145   7.811383   9.543722   9.567110   7.865142
    24  H    7.005774  10.574603  12.408210  12.423255  10.602447
                   21         22         23         24
    21  H    0.000000
    22  H    3.395792   0.000000
    23  H    5.626059   3.266272   0.000000
    24  H    7.967486   5.130757   3.127871   0.000000
 Stoichiometry    C9H10S5
 Framework group  C1[X(C9H10S5)]
 Deg. of freedom    66
 Full point group                 C1      NOp   1
 Largest Abelian subgroup         C1      NOp   1
 Largest concise Abelian subgroup C1      NOp   1
                         Standard orientation:                         
 ---------------------------------------------------------------------
 Center     Atomic      Atomic             Coordinates (Angstroms)
 Number     Number       Type             X           Y           Z
 ---------------------------------------------------------------------
      1          6           0        2.876926    2.005475   -0.008554
      2          6           0        3.773505    1.018470   -0.015932
      3          6           0        5.163385    1.454002   -0.019946
      4          6           0        6.183072    0.598434   -0.020957
      5          6           0        5.954043   -0.824137   -0.009931
      6          6           0        4.720631   -1.356267   -0.000094
      7          6           0        3.504176   -0.471166   -0.017538
      8         16           0        1.886414   -1.346972   -0.081904
      9         16           0        0.453278    0.058476    0.078816
     10          6           0       -1.111631   -0.623901    0.020043
     11         16           0       -2.382982    0.661300    0.120403
     12         16           0       -4.014897   -0.504871   -0.100458
     13          6           0       -5.384642    0.590762   -0.011457
     14         16           0       -6.949191   -0.009735    0.014616
     15          1           0        3.148054    3.053880   -0.005324
     16          1           0        1.817831    1.891118   -0.003032
     17          1           0        5.355735    2.524551   -0.023642
     18          1           0        7.203654    0.971744   -0.027734
     19          1           0        6.837694   -1.456345   -0.012712
     20          1           0        4.589793   -2.433340    0.004583
     21          1           0        1.871446   -1.854076    1.133405
     22          1           0       -1.318286   -1.698264   -0.021036
     23          1           0       -2.280111    1.245108   -1.060261
     24          1           0       -5.184558    1.674430    0.018374
 ---------------------------------------------------------------------
 Rotational constants (GHZ):           1.9801444           0.1049487           0.0998085
 Standard basis: 6-31G(2df,p) (6D, 7F)
 There are   504 symmetry adapted cartesian basis functions of A   symmetry.
 There are   462 symmetry adapted basis functions of A   symmetry.
   462 basis functions,   806 primitive gaussians,   504 cartesian basis functions
    72 alpha electrons       72 beta electrons
       nuclear repulsion energy      1303.9075750758 Hartrees.
 NAtoms=   24 NActive=   24 NUniq=   24 SFac= 1.00D+00 NAtFMM=   60 NAOKFM=F Big=F
 Integral buffers will be    131072 words long.
 Raffenetti 2 integral format.
 Two-electron integral symmetry is turned on.
 One-electron integrals computed using PRISM.
 PrsmSu:  requested number of processors reduced to:  12 ShMem   1 Linda.
 NBasis=   462 RedAO= T EigKep=  1.42D-04  NBF=   462
 NBsUse=   462 1.00D-06 EigRej= -1.00D+00 NBFU=   462
 ExpMin= 1.17D-01 ExpMax= 2.19D+04 ExpMxC= 3.30D+03 IAcc=3 IRadAn=         5 AccDes= 0.00D+00
 Harris functional with IExCor=  402 and IRadAn=       5 diagonalized for initial guess.
 HarFok:  IExCor=  402 AccDes= 0.00D+00 IRadAn=         5 IDoV= 1 UseB2=F ITyADJ=14
 ICtDFT=  3500011 ScaDFX=  1.000000  1.000000  1.000000  1.000000
 FoFCou: FMM=F IPFlag=           0 FMFlag=      100000 FMFlg1=           0
         NFxFlg=           0 DoJE=T BraDBF=F KetDBF=T FulRan=T
         wScrn=  0.000000 ICntrl=       500 IOpCl=  0 I1Cent=   200000004 NGrid=           0
         NMat0=    1 NMatS0=      1 NMatT0=    0 NMatD0=    1 NMtDS0=    0 NMtDT0=    0
 Petite list used in FoFCou.
 Requested convergence on RMS density matrix=1.00D-08 within 128 cycles.
 Requested convergence on MAX density matrix=1.00D-06.
 Requested convergence on             energy=1.00D-06.
 No special actions if energy rises.
 Integral accuracy reduced to 1.0D-05 until final iterations.
 Rare condition: small coef for last iteration:  0.000D+00
 EnCoef did   100 forward-backward iterations
 EnCoef did     4 forward-backward iterations
 EnCoef did   100 forward-backward iterations
 EnCoef did    18 forward-backward iterations
 Initial convergence to 1.0D-05 achieved.  Increase integral accuracy.
 SCF Done:  E(RB3LYP) =  -2339.61372577     A.U. after   31 cycles
            NFock= 31  Conv=0.77D-08     -V/T= 2.0037

 **********************************************************************

            Population analysis using the SCF density.

 **********************************************************************

 Orbital symmetries:
       Occupied  (A) (A) (A) (A) (A) (A) (A) (A) (A) (A) (A) (A)
                 (A) (A) (A) (A) (A) (A) (A) (A) (A) (A) (A) (A)
                 (A) (A) (A) (A) (A) (A) (A) (A) (A) (A) (A) (A)
                 (A) (A) (A) (A) (A) (A) (A) (A) (A) (A) (A) (A)
                 (A) (A) (A) (A) (A) (A) (A) (A) (A) (A) (A) (A)
                 (A) (A) (A) (A) (A) (A) (A) (A) (A) (A) (A) (A)
       Virtual   (A) (A) (A) (A) (A) (A) (A) (A) (A) (A) (A) (A)
                 (A) (A) (A) (A) (A) (A) (A) (A) (A) (A) (A) (A)
                 (A) (A) (A) (A) (A) (A) (A) (A) (A) (A) (A) (A)
                 (A) (A) (A) (A) (A) (A) (A) (A) (A) (A) (A) (A)
                 (A) (A) (A) (A) (A) (A) (A) (A) (A) (A) (A) (A)
                 (A) (A) (A) (A) (A) (A) (A) (A) (A) (A) (A) (A)
                 (A) (A) (A) (A) (A) (A) (A) (A) (A) (A) (A) (A)
                 (A) (A) (A) (A) (A) (A) (A) (A) (A) (A) (A) (A)
                 (A) (A) (A) (A) (A) (A) (A) (A) (A) (A) (A) (A)
                 (A) (A) (A) (A) (A) (A) (A) (A) (A) (A) (A) (A)
                 (A) (A) (A) (A) (A) (A) (A) (A) (A) (A) (A) (A)
                 (A) (A) (A) (A) (A) (A) (A) (A) (A) (A) (A) (A)
                 (A) (A) (A) (A) (A) (A) (A) (A) (A) (A) (A) (A)
                 (A) (A) (A) (A) (A) (A) (A) (A) (A) (A) (A) (A)
                 (A) (A) (A) (A) (A) (A) (A) (A) (A) (A) (A) (A)
                 (A) (A) (A) (A) (A) (A) (A) (A) (A) (A) (A) (A)
                 (A) (A) (A) (A) (A) (A) (A) (A) (A) (A) (A) (A)
                 (A) (A) (A) (A) (A) (A) (A) (A) (A) (A) (A) (A)
                 (A) (A) (A) (A) (A) (A) (A) (A) (A) (A) (A) (A)
                 (A) (A) (A) (A) (A) (A) (A) (A) (A) (A) (A) (A)
                 (A) (A) (A) (A) (A) (A) (A) (A) (A) (A) (A) (A)
                 (A) (A) (A) (A) (A) (A) (A) (A) (A) (A) (A) (A)
                 (A) (A) (A) (A) (A) (A) (A) (A) (A) (A) (A) (A)
                 (A) (A) (A) (A) (A) (A) (A) (A) (A) (A) (A) (A)
                 (A) (A) (A) (A) (A) (A) (A) (A) (A) (A) (A) (A)
                 (A) (A) (A) (A) (A) (A) (A) (A) (A) (A) (A) (A)
                 (A) (A) (A) (A) (A) (A) (A) (A) (A) (A) (A) (A)
                 (A) (A) (A) (A) (A) (A) (A) (A) (A) (A) (A) (A)
                 (A) (A) (A) (A) (A) (A) (A) (A) (A) (A) (A) (A)
                 (A) (A) (A) (A) (A) (A) (A) (A) (A) (A) (A) (A)
                 (A) (A) (A) (A) (A) (A) (A) (A) (A) (A) (A) (A)
                 (A) (A) (A) (A) (A) (A) (A) (A) (A) (A) (A) (A)
                 (A) (A) (A) (A) (A) (A)
 The electronic state is 1-A.
 Alpha  occ. eigenvalues --  -89.01570 -89.00217 -88.96442 -88.92644 -88.88621
 Alpha  occ. eigenvalues --  -10.30579 -10.21819 -10.21339 -10.19120 -10.18579
 Alpha  occ. eigenvalues --  -10.16260 -10.16084 -10.15708 -10.12316  -8.07223
 Alpha  occ. eigenvalues --   -8.05927  -8.02786  -7.98966  -7.94984  -6.03593
 Alpha  occ. eigenvalues --   -6.03420  -6.02949  -6.02315  -6.02112  -6.01635
 Alpha  occ. eigenvalues --   -5.99345  -5.98781  -5.98322  -5.95557  -5.95021
 Alpha  occ. eigenvalues --   -5.94418  -5.91340  -5.91190  -5.90544  -0.91536
 Alpha  occ. eigenvalues --   -0.88786  -0.83194  -0.82126  -0.77160  -0.75082
 Alpha  occ. eigenvalues --   -0.72558  -0.70870  -0.64208  -0.61240  -0.60090
 Alpha  occ. eigenvalues --   -0.58246  -0.55349  -0.53327  -0.50419  -0.49680
 Alpha  occ. eigenvalues --   -0.47885  -0.46103  -0.45037  -0.44111  -0.42564
 Alpha  occ. eigenvalues --   -0.41060  -0.40386  -0.39637  -0.38916  -0.37186
 Alpha  occ. eigenvalues --   -0.36599  -0.34926  -0.34340  -0.32451  -0.31471
 Alpha  occ. eigenvalues --   -0.30192  -0.28014  -0.26195  -0.25171  -0.23680
 Alpha  occ. eigenvalues --   -0.16875  -0.12983
 Alpha virt. eigenvalues --   -0.11295  -0.10098  -0.07182  -0.03684  -0.01251
 Alpha virt. eigenvalues --   -0.00448   0.00505   0.01341   0.02808   0.05790
 Alpha virt. eigenvalues --    0.06055   0.08794   0.09284   0.11353   0.12135
 Alpha virt. eigenvalues --    0.13661   0.16307   0.16869   0.17032   0.17668
 Alpha virt. eigenvalues --    0.18903   0.19492   0.19800   0.20554   0.21611
 Alpha virt. eigenvalues --    0.22791   0.23257   0.24376   0.24723   0.25625
 Alpha virt. eigenvalues --    0.26829   0.27203   0.28034   0.28395   0.28980
 Alpha virt. eigenvalues --    0.30245   0.30933   0.31213   0.32742   0.33879
 Alpha virt. eigenvalues --    0.34224   0.34975   0.35518   0.35974   0.37243
 Alpha virt. eigenvalues --    0.37829   0.39211   0.39729   0.40382   0.40780
 Alpha virt. eigenvalues --    0.42593   0.43495   0.45251   0.45716   0.46244
 Alpha virt. eigenvalues --    0.47871   0.48502   0.48817   0.49225   0.49697
 Alpha virt. eigenvalues --    0.50219   0.51377   0.52526   0.52649   0.53535
 Alpha virt. eigenvalues --    0.54683   0.55031   0.55963   0.56081   0.57201
 Alpha virt. eigenvalues --    0.57220   0.57965   0.58508   0.59664   0.60760
 Alpha virt. eigenvalues --    0.61693   0.62626   0.63118   0.63849   0.65073
 Alpha virt. eigenvalues --    0.65558   0.66243   0.68488   0.68745   0.69659
 Alpha virt. eigenvalues --    0.69904   0.70882   0.74210   0.75532   0.75718
 Alpha virt. eigenvalues --    0.76582   0.77059   0.77251   0.78823   0.79874
 Alpha virt. eigenvalues --    0.80582   0.81048   0.83303   0.83396   0.85022
 Alpha virt. eigenvalues --    0.85663   0.86845   0.87527   0.87823   0.89575
 Alpha virt. eigenvalues --    0.89752   0.90788   0.92298   0.92989   0.94415
 Alpha virt. eigenvalues --    0.95163   0.95506   0.96545   0.97836   0.98987
 Alpha virt. eigenvalues --    1.00367   1.01428   1.02459   1.04221   1.04893
 Alpha virt. eigenvalues --    1.05414   1.06366   1.08013   1.08470   1.10955
 Alpha virt. eigenvalues --    1.15885   1.16795   1.18946   1.21301   1.23880
 Alpha virt. eigenvalues --    1.24766   1.26659   1.29612   1.31179   1.31728
 Alpha virt. eigenvalues --    1.34409   1.37219   1.37618   1.38420   1.39804
 Alpha virt. eigenvalues --    1.40268   1.40644   1.41612   1.42374   1.43397
 Alpha virt. eigenvalues --    1.43704   1.44571   1.45798   1.46557   1.47664
 Alpha virt. eigenvalues --    1.49189   1.49779   1.51112   1.52079   1.53398
 Alpha virt. eigenvalues --    1.56023   1.57468   1.57690   1.58985   1.59834
 Alpha virt. eigenvalues --    1.62341   1.62434   1.63497   1.64098   1.64855
 Alpha virt. eigenvalues --    1.65774   1.67295   1.68246   1.69264   1.70530
 Alpha virt. eigenvalues --    1.71047   1.71969   1.74466   1.75308   1.76864
 Alpha virt. eigenvalues --    1.78322   1.79584   1.80598   1.81026   1.81777
 Alpha virt. eigenvalues --    1.82306   1.83739   1.84232   1.85268   1.86647
 Alpha virt. eigenvalues --    1.87122   1.88050   1.88919   1.90482   1.93603
 Alpha virt. eigenvalues --    1.94697   1.95363   1.96677   1.98549   1.99337
 Alpha virt. eigenvalues --    2.02732   2.04222   2.06771   2.07574   2.08666
 Alpha virt. eigenvalues --    2.10281   2.10618   2.11695   2.12569   2.13429
 Alpha virt. eigenvalues --    2.14558   2.16190   2.18345   2.20203   2.20933
 Alpha virt. eigenvalues --    2.23148   2.24844   2.25469   2.26219   2.26657
 Alpha virt. eigenvalues --    2.27198   2.28159   2.29217   2.30176   2.30820
 Alpha virt. eigenvalues --    2.31048   2.31392   2.32616   2.33426   2.34698
 Alpha virt. eigenvalues --    2.35848   2.39583   2.41180   2.42521   2.43444
 Alpha virt. eigenvalues --    2.44112   2.45492   2.52969   2.53546   2.57068
 Alpha virt. eigenvalues --    2.59523   2.60020   2.61638   2.63108   2.63731
 Alpha virt. eigenvalues --    2.66084   2.67178   2.69343   2.69779   2.71169
 Alpha virt. eigenvalues --    2.74580   2.76005   2.77344   2.78413   2.78923
 Alpha virt. eigenvalues --    2.82323   2.84434   2.87775   2.88203   2.91084
 Alpha virt. eigenvalues --    2.93793   2.96417   2.97646   2.98291   2.98698
 Alpha virt. eigenvalues --    3.00719   3.01540   3.03046   3.03337   3.05571
 Alpha virt. eigenvalues --    3.07423   3.08413   3.09686   3.10222   3.11372
 Alpha virt. eigenvalues --    3.13200   3.14229   3.14855   3.15835   3.17626
 Alpha virt. eigenvalues --    3.18842   3.20406   3.21969   3.23511   3.24525
 Alpha virt. eigenvalues --    3.24660   3.26779   3.28185   3.29350   3.29450
 Alpha virt. eigenvalues --    3.29902   3.31434   3.33025   3.34489   3.36150
 Alpha virt. eigenvalues --    3.39385   3.40042   3.40185   3.42549   3.43353
 Alpha virt. eigenvalues --    3.46379   3.47033   3.49019   3.49182   3.52129
 Alpha virt. eigenvalues --    3.58413   3.58794   3.63219   3.67706   3.69529
 Alpha virt. eigenvalues --    3.71471   3.74942   3.75971   3.77609   3.78780
 Alpha virt. eigenvalues --    3.79811   3.80437   3.84326   3.85085   3.92990
 Alpha virt. eigenvalues --    3.96957   3.99149   4.00187   4.00909   4.04098
 Alpha virt. eigenvalues --    4.05086   4.14952   4.16554   4.22504   4.25813
 Alpha virt. eigenvalues --    4.27678   4.29647   4.29808   4.31978   4.33088
 Alpha virt. eigenvalues --    4.33390   4.40585   4.41134   4.41850   4.42190
 Alpha virt. eigenvalues --    4.44784   4.45875   4.48006   4.49520   4.50755
 Alpha virt. eigenvalues --    4.51222   4.53209   4.54833   4.57035   4.61208
 Alpha virt. eigenvalues --    4.62600   4.63882   4.64813   4.66781   4.67936
 Alpha virt. eigenvalues --    4.69293   4.70132   4.76614   4.78387   4.82787
 Alpha virt. eigenvalues --    4.83606   4.84292   4.86752   4.89253   4.90554
 Alpha virt. eigenvalues --    4.91616   4.96766   5.01020   5.04529   5.12497
 Alpha virt. eigenvalues --    5.16881   5.18305   5.22737   5.29795   5.33203
 Alpha virt. eigenvalues --    5.39162   5.47651   5.53090   5.59353   5.66366
 Alpha virt. eigenvalues --    5.69739   5.77571   5.86592   5.90454   6.06709
 Alpha virt. eigenvalues --    7.52040   9.67227  10.35908  10.62049  10.95398
 Alpha virt. eigenvalues --   11.13154  11.26117  11.65740  11.85749  12.50366
          Condensed to atoms (all electrons):
               1          2          3          4          5          6
     1  C    5.378211   0.556140  -0.042934   0.000550   0.002741   0.003869
     2  C    0.556140   4.280368   0.471967   0.010462  -0.028702  -0.013227
     3  C   -0.042934   0.471967   4.823413   0.612660  -0.006268  -0.035140
     4  C    0.000550   0.010462   0.612660   4.748335   0.491941   0.005618
     5  C    0.002741  -0.028702  -0.006268   0.491941   4.756869   0.638457
     6  C    0.003869  -0.013227  -0.035140   0.005618   0.638457   4.816679
     7  C   -0.069581   0.468194  -0.036311  -0.023871  -0.024454   0.453382
     8  S   -0.013361  -0.027239   0.004507   0.000896   0.000174  -0.056811
     9  S   -0.004425  -0.008250  -0.000663  -0.000016   0.000017   0.002605
    10  C    0.000232   0.000086  -0.000000   0.000000   0.000000  -0.000010
    11  S   -0.000051   0.000005   0.000000  -0.000000  -0.000000   0.000000
    12  S   -0.000000   0.000000  -0.000000   0.000000  -0.000000  -0.000000
    13  C   -0.000000  -0.000000  -0.000000   0.000000  -0.000000   0.000000
    14  S    0.000000   0.000000  -0.000000   0.000000   0.000000  -0.000000
    15  H    0.348347  -0.001174  -0.017862   0.000765  -0.000029  -0.000082
    16  H    0.346611   0.002168   0.006272  -0.000269  -0.000053   0.000176
    17  H   -0.009030  -0.043061   0.365500  -0.047137   0.003859   0.001213
    18  H   -0.000359   0.003106  -0.034410   0.354126  -0.044990   0.003811
    19  H    0.000010   0.001438   0.002534  -0.041567   0.363949  -0.044512
    20  H   -0.000133   0.001388   0.001583   0.003315  -0.029232   0.353376
    21  H    0.000802  -0.000957  -0.000051  -0.000012   0.000408   0.002564
    22  H   -0.000005  -0.000000  -0.000000   0.000000  -0.000000   0.000000
    23  H   -0.000004  -0.000001  -0.000000  -0.000000   0.000000   0.000000
    24  H    0.000000  -0.000000  -0.000000  -0.000000   0.000000   0.000000
               7          8          9         10         11         12
     1  C   -0.069581  -0.013361  -0.004425   0.000232  -0.000051  -0.000000
     2  C    0.468194  -0.027239  -0.008250   0.000086   0.000005   0.000000
     3  C   -0.036311   0.004507  -0.000663  -0.000000   0.000000  -0.000000
     4  C   -0.023871   0.000896  -0.000016   0.000000  -0.000000   0.000000
     5  C   -0.024454   0.000174   0.000017   0.000000  -0.000000  -0.000000
     6  C    0.453382  -0.056811   0.002605  -0.000010   0.000000  -0.000000
     7  C    5.188667   0.308857  -0.001266   0.000068  -0.000019  -0.000000
     8  S    0.308857  15.540671   0.028539   0.000583   0.002833   0.000236
     9  S   -0.001266   0.028539  15.813429   0.231413  -0.062846   0.002625
    10  C    0.000068   0.000583   0.231413   5.451299   0.411070  -0.003864
    11  S   -0.000019   0.002833  -0.062846   0.411070  15.453993   0.041349
    12  S   -0.000000   0.000236   0.002625  -0.003864   0.041349  15.660483
    13  C   -0.000000   0.000000  -0.000009   0.000220   0.003852   0.322763
    14  S    0.000000  -0.000000   0.000001  -0.000009   0.003612  -0.064591
    15  H    0.005642  -0.000126   0.000839  -0.000008  -0.000001   0.000000
    16  H   -0.013514   0.003825  -0.012357   0.000299   0.000191   0.000001
    17  H    0.003389  -0.000156   0.000013  -0.000000   0.000000  -0.000000
    18  H    0.001463   0.000024  -0.000001   0.000000  -0.000000   0.000000
    19  H    0.003538  -0.000224   0.000002  -0.000000   0.000000  -0.000000
    20  H   -0.054557  -0.000864   0.000171  -0.000000   0.000000  -0.000000
    21  H   -0.040041   0.075574   0.013888   0.001836  -0.000080  -0.000015
    22  H    0.000023   0.003657  -0.033316   0.375436  -0.040766   0.007054
    23  H    0.000001  -0.000354   0.016408  -0.064427   0.058292  -0.007411
    24  H    0.000000  -0.000000   0.000006   0.000051   0.008502  -0.060420
              13         14         15         16         17         18
     1  C   -0.000000   0.000000   0.348347   0.346611  -0.009030  -0.000359
     2  C   -0.000000   0.000000  -0.001174   0.002168  -0.043061   0.003106
     3  C   -0.000000  -0.000000  -0.017862   0.006272   0.365500  -0.034410
     4  C    0.000000   0.000000   0.000765  -0.000269  -0.047137   0.354126
     5  C   -0.000000   0.000000  -0.000029  -0.000053   0.003859  -0.044990
     6  C    0.000000  -0.000000  -0.000082   0.000176   0.001213   0.003811
     7  C   -0.000000   0.000000   0.005642  -0.013514   0.003389   0.001463
     8  S    0.000000  -0.000000  -0.000126   0.003825  -0.000156   0.000024
     9  S   -0.000009   0.000001   0.000839  -0.012357   0.000013  -0.000001
    10  C    0.000220  -0.000009  -0.000008   0.000299  -0.000000   0.000000
    11  S    0.003852   0.003612  -0.000001   0.000191   0.000000  -0.000000
    12  S    0.322763  -0.064591   0.000000   0.000001  -0.000000   0.000000
    13  C    4.893196   0.501596   0.000000  -0.000000  -0.000000  -0.000000
    14  S    0.501596  15.820260  -0.000000   0.000000  -0.000000   0.000000
    15  H    0.000000  -0.000000   0.628408  -0.050582   0.006201  -0.000030
    16  H   -0.000000   0.000000  -0.050582   0.601304   0.000135   0.000005
    17  H   -0.000000  -0.000000   0.006201   0.000135   0.638097  -0.007960
    18  H   -0.000000   0.000000  -0.000030   0.000005  -0.007960   0.647258
    19  H    0.000000  -0.000000  -0.000000  -0.000000  -0.000285  -0.005558
    20  H   -0.000000   0.000000   0.000002   0.000002   0.000025  -0.000228
    21  H   -0.000000  -0.000000   0.000004  -0.000143   0.000001  -0.000000
    22  H    0.000065   0.000000   0.000000  -0.000009   0.000000  -0.000000
    23  H   -0.000115  -0.000101   0.000000   0.000011   0.000000  -0.000000
    24  H    0.361921  -0.049687  -0.000000   0.000000   0.000000   0.000000
              19         20         21         22         23         24
     1  C    0.000010  -0.000133   0.000802  -0.000005  -0.000004   0.000000
     2  C    0.001438   0.001388  -0.000957  -0.000000  -0.000001  -0.000000
     3  C    0.002534   0.001583  -0.000051  -0.000000  -0.000000  -0.000000
     4  C   -0.041567   0.003315  -0.000012   0.000000  -0.000000  -0.000000
     5  C    0.363949  -0.029232   0.000408  -0.000000   0.000000   0.000000
     6  C   -0.044512   0.353376   0.002564   0.000000   0.000000   0.000000
     7  C    0.003538  -0.054557  -0.040041   0.000023   0.000001   0.000000
     8  S   -0.000224  -0.000864   0.075574   0.003657  -0.000354  -0.000000
     9  S    0.000002   0.000171   0.013888  -0.033316   0.016408   0.000006
    10  C   -0.000000  -0.000000   0.001836   0.375436  -0.064427   0.000051
    11  S    0.000000   0.000000  -0.000080  -0.040766   0.058292   0.008502
    12  S   -0.000000  -0.000000  -0.000015   0.007054  -0.007411  -0.060420
    13  C    0.000000  -0.000000  -0.000000   0.000065  -0.000115   0.361921
    14  S   -0.000000   0.000000  -0.000000   0.000000  -0.000101  -0.049687
    15  H   -0.000000   0.000002   0.000004   0.000000   0.000000  -0.000000
    16  H   -0.000000   0.000002  -0.000143  -0.000009   0.000011   0.000000
    17  H   -0.000285   0.000025   0.000001   0.000000   0.000000   0.000000
    18  H   -0.005558  -0.000228  -0.000000  -0.000000  -0.000000   0.000000
    19  H    0.649221  -0.008279   0.000002   0.000000   0.000000  -0.000000
    20  H   -0.008279   0.643809   0.000770   0.000000   0.000000   0.000000
    21  H    0.000002   0.000770   0.786251  -0.000745   0.000012   0.000000
    22  H    0.000000   0.000000  -0.000745   0.540122  -0.000178   0.000000
    23  H    0.000000   0.000000   0.000012  -0.000178   0.854887   0.000123
    24  H   -0.000000   0.000000   0.000000   0.000000   0.000123   0.565851
 Mulliken charges:
               1
     1  C   -0.497632
     2  C    0.327289
     3  C   -0.114796
     4  C   -0.115794
     5  C   -0.124689
     6  C   -0.131968
     7  C   -0.169611
     8  S    0.128759
     9  S    0.013193
    10  C   -0.404275
    11  S    0.120063
    12  S    0.101791
    13  C   -0.083488
    14  S   -0.211081
    15  H    0.079685
    16  H    0.115929
    17  H    0.089196
    18  H    0.083741
    19  H    0.079731
    20  H    0.088852
    21  H    0.159932
    22  H    0.148661
    23  H    0.142858
    24  H    0.173654
 Sum of Mulliken charges =  -0.00000
 Mulliken charges with hydrogens summed into heavy atoms:
               1
     1  C   -0.302017
     2  C    0.327289
     3  C   -0.025600
     4  C   -0.032053
     5  C   -0.044958
     6  C   -0.043116
     7  C   -0.169611
     8  S    0.288691
     9  S    0.013193
    10  C   -0.255614
    11  S    0.262921
    12  S    0.101791
    13  C    0.090166
    14  S   -0.211081
 Electronic spatial extent (au):  <R**2>=           9761.5889
 Charge=             -0.0000 electrons
 Dipole moment (field-independent basis, Debye):
    X=             -2.1933    Y=             -1.0637    Z=              0.0616  Tot=              2.4384
 Quadrupole moment (field-independent basis, Debye-Ang):
   XX=           -145.1692   YY=           -110.5893   ZZ=           -122.9473
   XY=            -11.9464   XZ=              2.5318   YZ=             -2.7021
 Traceless Quadrupole moment (field-independent basis, Debye-Ang):
   XX=            -18.9339   YY=             15.6459   ZZ=              3.2880
   XY=            -11.9464   XZ=              2.5318   YZ=             -2.7021
 Octapole moment (field-independent basis, Debye-Ang**2):
  XXX=            114.5195  YYY=             -9.4180  ZZZ=              0.6691  XYY=             -2.0458
  XXY=             12.8491  XXZ=             -1.0263  XZZ=            -22.4860  YZZ=             -3.5306
  YYZ=              2.0835  XYZ=             -0.9638
 Hexadecapole moment (field-independent basis, Debye-Ang**3):
 XXXX=         -13781.7244 YYYY=           -793.7308 ZZZZ=           -155.5968 XXXY=            -26.5132
 XXXZ=              7.4006 YYYX=            -44.7898 YYYZ=            -10.5846 ZZZX=              3.6764
 ZZZY=             -3.5442 XXYY=          -2155.3429 XXZZ=          -2222.9753 YYZZ=           -174.4396
 XXYZ=            -11.9013 YYXZ=             11.2731 ZZXY=            -16.0839
 N-N= 1.303907575076D+03 E-N=-8.144209404378D+03  KE= 2.330940677138D+03
 PrsmSu:  requested number of processors reduced to:  13 ShMem   1 Linda.
 Calling FoFJK, ICntrl=      2127 FMM=F ISym2X=0 I1Cent= 0 IOpClX= 0 NMat=1 NMatS=1 NMatT=0.
 ***** Axes restored to original set *****
 -------------------------------------------------------------------
 Center     Atomic                   Forces (Hartrees/Bohr)
 Number     Number              X              Y              Z
 -------------------------------------------------------------------
      1        6          -0.040616277   -0.006974942   -0.000950789
      2        6           0.013151237    0.028777853    0.002820499
      3        6          -0.005187814    0.005560365    0.000562181
      4        6           0.021934660    0.008058555   -0.000243934
      5        6           0.017439763   -0.026506247   -0.001424104
      6        6          -0.060864199    0.028496261    0.000824713
      7        6           0.033226075   -0.031254617    0.003222638
      8       16           0.031822650   -0.024720300    0.026023053
      9       16          -0.028912470   -0.045217933   -0.008453312
     10        6          -0.030633177    0.038622578   -0.005813623
     11       16           0.072598810   -0.023222943   -0.032911232
     12       16          -0.013926652    0.040623990    0.009016533
     13        6          -0.019272131    0.015617284   -0.002648181
     14       16           0.020620052   -0.025867716   -0.000136315
     15        1           0.007634437   -0.004418516   -0.000756746
     16        1          -0.002113722    0.005819769    0.000874170
     17        1          -0.003098001    0.004055300    0.000298600
     18        1           0.001222045    0.001582292    0.000099365
     19        1          -0.000972387    0.005188855   -0.000173809
     20        1           0.000153603    0.001503321    0.000527646
     21        1           0.011300535    0.014057913   -0.030629836
     22        1          -0.015384933   -0.006421510    0.003998856
     23        1          -0.017336696   -0.008721966    0.034973851
     24        1           0.007214591    0.005362353    0.000899775
 -------------------------------------------------------------------
 Cartesian Forces:  Max     0.072598810 RMS     0.021278199

 GradGradGradGradGradGradGradGradGradGradGradGradGradGradGradGradGradGrad
 Berny optimization.
 FormGI is forming the generalized inverse of G from B-inverse, IUseBI=4.
 Internal  Forces:  Max     0.053994986 RMS     0.015482493
 Search for a local minimum.
 Step number   1 out of a maximum of  114
 All quantities printed in internal units (Hartrees-Bohrs-Radians)
 Mixed Optimization -- RFO/linear search
 Second derivative matrix not updated -- first step.
 ITU=  0
     Eigenvalues ---    0.00230   0.00231   0.00535   0.00691   0.00842
     Eigenvalues ---    0.00949   0.01061   0.01116   0.01445   0.01584
     Eigenvalues ---    0.01671   0.01714   0.01848   0.02050   0.02234
     Eigenvalues ---    0.02291   0.02560   0.02969   0.02969   0.06341
     Eigenvalues ---    0.07062   0.11473   0.12213   0.15988   0.15998
     Eigenvalues ---    0.16000   0.16000   0.16000   0.16000   0.16000
     Eigenvalues ---    0.16000   0.22000   0.22000   0.22002   0.22415
     Eigenvalues ---    0.23153   0.24424   0.24425   0.24564   0.24987
     Eigenvalues ---    0.25000   0.25000   0.25000   0.25302   0.27991
     Eigenvalues ---    0.28356   0.29887   0.30421   0.31349   0.32619
     Eigenvalues ---    0.33067   0.33419   0.34261   0.34918   0.35080
     Eigenvalues ---    0.35193   0.35217   0.35397   0.35646   0.36455
     Eigenvalues ---    0.37835   0.38634   0.38936   0.54449   0.57555
     Eigenvalues ---    0.58698
 RFO step:  Lambda=-7.21408701D-02 EMin= 2.30000000D-03
 Linear search not attempted -- first point.
 Maximum step size (   0.300) exceeded in Quadratic search.
    -- Step size scaled by   0.662
 Iteration  1 RMS(Cart)=  0.26876814 RMS(Int)=  0.00979642
 Iteration  2 RMS(Cart)=  0.03256823 RMS(Int)=  0.00022717
 Iteration  3 RMS(Cart)=  0.00029337 RMS(Int)=  0.00020878
 Iteration  4 RMS(Cart)=  0.00000004 RMS(Int)=  0.00020878
 Variable       Old X    -DE/DX   Delta X   Delta X   Delta X     New X
                                 (Linear)    (Quad)   (Total)
    R1        2.51986   0.03551   0.00000   0.03564   0.03564   2.55549
    R2        2.04639   0.00128   0.00000   0.00198   0.00198   2.04836
    R3        2.01306   0.00549   0.00000   0.00806   0.00806   2.02112
    R4        2.75244   0.00541   0.00000   0.00823   0.00821   2.76064
    R5        2.86065  -0.02355   0.00000  -0.04252  -0.04237   2.81827
    R6        2.51537   0.02465   0.00000   0.02560   0.02545   2.54082
    R7        2.05545  -0.00228   0.00000  -0.00357  -0.00357   2.05188
    R8        2.72297  -0.01138   0.00000  -0.01471  -0.01485   2.70812
    R9        2.05363  -0.00064   0.00000  -0.00100  -0.00100   2.05263
   R10        2.53854   0.01399   0.00000   0.01452   0.01453   2.55307
   R11        2.05323  -0.00103   0.00000  -0.00161  -0.00161   2.05162
   R12        2.84306  -0.04612   0.00000  -0.07975  -0.07960   2.76346
   R13        2.05036   0.00139   0.00000   0.00215   0.00215   2.05251
   R14        3.47850  -0.02594   0.00000  -0.05651  -0.05651   3.42199
   R15        3.80534   0.02609   0.00000   0.04286   0.04286   3.84820
   R16        2.48867   0.03520   0.00000   0.06548   0.06548   2.55415
   R17        3.22808   0.02945   0.00000   0.04624   0.04624   3.27432
   R18        3.42147  -0.05029   0.00000  -0.10233  -0.10233   3.31914
   R19        2.06893  -0.01221   0.00000  -0.01948  -0.01948   2.04944
   R20        3.81326   0.03622   0.00000   0.06015   0.06015   3.87341
   R21        2.49657   0.03813   0.00000   0.07166   0.07166   2.56823
   R22        3.31890  -0.00825   0.00000  -0.01472  -0.01472   3.30418
   R23        3.16725  -0.03291   0.00000  -0.04718  -0.04718   3.12007
   R24        2.08321  -0.00799   0.00000  -0.01301  -0.01301   2.07020
    A1        2.15111  -0.00998   0.00000  -0.02844  -0.02844   2.12267
    A2        2.20068   0.00209   0.00000   0.00597   0.00597   2.20665
    A3        1.93140   0.00788   0.00000   0.02247   0.02247   1.95387
    A4        2.00456   0.00737   0.00000   0.01608   0.01601   2.02057
    A5        2.22529   0.01558   0.00000   0.03295   0.03288   2.25817
    A6        2.05333  -0.02295   0.00000  -0.04903  -0.04890   2.00443
    A7        2.13982   0.00735   0.00000   0.01949   0.01931   2.15913
    A8        2.05225  -0.00837   0.00000  -0.02312  -0.02303   2.02922
    A9        2.09112   0.00102   0.00000   0.00363   0.00372   2.09483
   A10        2.10925  -0.00403   0.00000  -0.00428  -0.00458   2.10467
   A11        2.09282   0.00396   0.00000   0.00768   0.00783   2.10065
   A12        2.08112   0.00007   0.00000  -0.00340  -0.00325   2.07786
   A13        2.13776  -0.01345   0.00000  -0.02829  -0.02842   2.10934
   A14        2.03215   0.01204   0.00000   0.02929   0.02935   2.06150
   A15        2.11327   0.00141   0.00000  -0.00101  -0.00094   2.11233
   A16        2.10512   0.00542   0.00000   0.00986   0.01001   2.11513
   A17        2.09900  -0.00208   0.00000  -0.00313  -0.00321   2.09579
   A18        2.07894  -0.00333   0.00000  -0.00669  -0.00677   2.07217
   A19        2.02089   0.02766   0.00000   0.05232   0.05263   2.07352
   A20        2.24542   0.01639   0.00000   0.03597   0.03582   2.28123
   A21        2.01651  -0.04404   0.00000  -0.08819  -0.08835   1.92816
   A22        1.86567   0.03269   0.00000   0.07034   0.06995   1.93561
   A23        1.73243   0.00074   0.00000   0.01312   0.01223   1.74466
   A24        1.75891  -0.00046   0.00000   0.01268   0.01155   1.77046
   A25        1.95027  -0.05399   0.00000  -0.11090  -0.11090   1.83938
   A26        1.93672  -0.00358   0.00000  -0.00812  -0.00812   1.92860
   A27        2.17269   0.01318   0.00000   0.03650   0.03650   2.20920
   A28        2.17257  -0.00961   0.00000  -0.02848  -0.02848   2.14409
   A29        1.72296  -0.01015   0.00000  -0.02097  -0.02086   1.70211
   A30        1.78182   0.01646   0.00000   0.05520   0.05512   1.83694
   A31        1.79316  -0.00741   0.00000  -0.03069  -0.03019   1.76298
   A32        1.83865  -0.01649   0.00000  -0.03386  -0.03386   1.80479
   A33        2.10054  -0.00411   0.00000  -0.00931  -0.00931   2.09123
   A34        2.06356  -0.00230   0.00000  -0.00776  -0.00776   2.05580
   A35        2.11906   0.00641   0.00000   0.01708   0.01708   2.13614
    D1       -0.00041  -0.00048   0.00000  -0.00298  -0.00295  -0.00336
    D2        3.13875  -0.00079   0.00000  -0.00527  -0.00530   3.13344
    D3       -3.13968  -0.00052   0.00000  -0.00327  -0.00324   3.14026
    D4       -0.00053  -0.00084   0.00000  -0.00556  -0.00559  -0.00612
    D5        3.13591  -0.00028   0.00000  -0.00349  -0.00351   3.13240
    D6       -0.00721  -0.00020   0.00000  -0.00244  -0.00245  -0.00966
    D7       -0.00350  -0.00005   0.00000  -0.00154  -0.00161  -0.00511
    D8        3.13656   0.00003   0.00000  -0.00049  -0.00055   3.13601
    D9       -3.12204   0.00008   0.00000   0.00137   0.00142  -3.12062
   D10        0.05010   0.00022   0.00000  -0.00121  -0.00135   0.04875
   D11        0.01706  -0.00020   0.00000  -0.00090  -0.00083   0.01622
   D12       -3.09398  -0.00007   0.00000  -0.00347  -0.00360  -3.09759
   D13       -0.00658   0.00034   0.00000   0.00183   0.00182  -0.00477
   D14        3.13762   0.00014   0.00000   0.00102   0.00102   3.13864
   D15        3.13658   0.00026   0.00000   0.00078   0.00074   3.13732
   D16       -0.00241   0.00006   0.00000  -0.00003  -0.00005  -0.00246
   D17        0.00165   0.00015   0.00000   0.00151   0.00153   0.00318
   D18        3.14039  -0.00016   0.00000  -0.00060  -0.00060   3.13978
   D19        3.14065   0.00035   0.00000   0.00233   0.00233  -3.14021
   D20       -0.00380   0.00004   0.00000   0.00022   0.00020  -0.00360
   D21        0.01340  -0.00073   0.00000  -0.00463  -0.00462   0.00878
   D22        3.13790  -0.00029   0.00000  -0.00189  -0.00189   3.13601
   D23       -3.12521  -0.00042   0.00000  -0.00247  -0.00247  -3.12768
   D24       -0.00071   0.00002   0.00000   0.00027   0.00026  -0.00045
   D25       -0.02215   0.00036   0.00000   0.00345   0.00349  -0.01866
   D26        3.09300   0.00115   0.00000   0.00755   0.00745   3.10045
   D27        3.13633  -0.00008   0.00000   0.00071   0.00077   3.13710
   D28       -0.03170   0.00071   0.00000   0.00481   0.00473  -0.02697
   D29       -0.12086   0.00234   0.00000   0.00213   0.00248  -0.11837
   D30       -1.94180  -0.00546   0.00000  -0.03343  -0.03391  -1.97571
   D31        3.05122   0.00142   0.00000  -0.00249  -0.00202   3.04921
   D32        1.23028  -0.00638   0.00000  -0.03806  -0.03841   1.19186
   D33        3.13346  -0.00798   0.00000  -0.04494  -0.04541   3.08806
   D34       -1.34785   0.00138   0.00000  -0.00749  -0.00702  -1.35487
   D35       -3.11437  -0.00137   0.00000  -0.00904  -0.00907  -3.12344
   D36        0.07797  -0.00063   0.00000  -0.00601  -0.00598   0.07199
   D37        3.08010   0.00007   0.00000   0.01891   0.01864   3.09874
   D38        1.24521   0.00692   0.00000   0.04456   0.04480   1.29001
   D39       -0.11224   0.00014   0.00000   0.01815   0.01792  -0.09432
   D40       -1.94712   0.00698   0.00000   0.04380   0.04407  -1.90305
   D41        3.13178  -0.00885   0.00000  -0.04207  -0.04225   3.08953
   D42       -1.32593   0.00401   0.00000   0.00336   0.00354  -1.32239
   D43       -3.02534   0.00130   0.00000   0.01043   0.01042  -3.01491
   D44        0.12441   0.00111   0.00000   0.00911   0.00912   0.13353
   D45       -3.13318  -0.00016   0.00000  -0.00124  -0.00125  -3.13442
         Item               Value     Threshold  Converged?
 Maximum Force            0.053995     0.000450     NO 
 RMS     Force            0.015482     0.000300     NO 
 Maximum Displacement     0.904288     0.001800     NO 
 RMS     Displacement     0.288550     0.001200     NO 
 Predicted change in Energy=-3.561390D-02
 GradGradGradGradGradGradGradGradGradGradGradGradGradGradGradGradGradGrad

                          Input orientation:                          
 ---------------------------------------------------------------------
 Center     Atomic      Atomic             Coordinates (Angstroms)
 Number     Number       Type             X           Y           Z
 ---------------------------------------------------------------------
      1          6           0        0.915321   -0.798566    0.046548
      2          6           0        2.190930   -0.350113    0.067847
      3          6           0        3.226315   -1.380617    0.081176
      4          6           0        4.544153   -1.114213    0.092344
      5          6           0        5.014593    0.239431    0.085827
      6          6           0        4.146563    1.274618    0.072053
      7          6           0        2.701377    1.051163    0.074321
      8         16           0        1.816330    2.630225    0.123285
      9         16           0       -0.192345    2.342892   -0.048493
     10          6           0       -0.896882    3.918553    0.103651
     11         16           0       -2.647768    3.821760    0.003549
     12         16           0       -3.044302    5.809554    0.308175
     13          6           0       -4.783030    5.904953    0.150176
     14         16           0       -5.527427    7.378684    0.146237
     15          1           0        0.685406   -1.857804    0.036827
     16          1           0        0.030811   -0.197389    0.035515
     17          1           0        2.880016   -2.409721    0.082226
     18          1           0        5.267871   -1.924103    0.104755
     19          1           0        6.086971    0.408441    0.097046
     20          1           0        4.516931    2.295661    0.072498
     21          1           0        2.124440    3.109052   -1.102527
     22          1           0       -0.363994    4.858657    0.195382
     23          1           0       -3.044983    3.292915    1.190796
     24          1           0       -5.340247    4.965778    0.063096
 ---------------------------------------------------------------------
                    Distance matrix (angstroms):
                    1          2          3          4          5
     1  C    0.000000
     2  C    1.352309   0.000000
     3  C    2.383417   1.460869   0.000000
     4  C    3.642822   2.474289   1.344542   0.000000
     5  C    4.228831   2.884607   2.412988   1.433076   0.000000
     6  C    3.839228   2.542493   2.810198   2.421776   1.351028
     7  C    2.571432   1.491366   2.487802   2.843413   2.451532
     8  S    3.546028   3.004300   4.251669   4.632795   3.993268
     9  S    3.332374   3.598029   5.056538   5.865648   5.617365
    10  C    5.053568   5.268527   6.714348   7.411729   6.962887
    11  S    5.834798   6.389183   7.847012   8.723270   8.458819
    12  S    7.708068   8.087454   9.543098  10.274715   9.799056
    13  C    8.798813   9.368497  10.827460  11.673404  11.317937
    14  S   10.410877  10.923071  12.383763  13.174556  12.732116
    15  H    1.083947   2.130891   2.585709   3.930132   4.810681
    16  H    1.069530   2.165752   3.407838   4.605871   5.003141
    17  H    2.541086   2.171873   1.085809   2.108980   3.402123
    18  H    4.496100   3.456353   2.112790   1.086206   2.178390
    19  H    5.310873   3.969306   3.374067   2.167667   1.085672
    20  H    4.748316   3.522843   3.896252   3.410040   2.115639
    21  H    4.248744   3.652400   4.772045   5.011856   4.242629
    22  H    5.801980   5.803033   7.199438   7.731474   7.090730
    23  H    5.808057   6.476685   7.899515   8.844453   8.689159
    24  H    8.506473   9.218316  10.661288  11.604677  11.382513
                    6          7          8          9         10
     6  C    0.000000
     7  C    1.462362   0.000000
     8  S    2.696346   1.810841   0.000000
     9  S    4.470108   3.171321   2.036380   0.000000
    10  C    5.694535   4.601115   3.003614   1.732694   0.000000
    11  S    7.256415   6.024497   4.621933   2.866855   1.756414
    12  S    8.504701   7.463900   5.811029   4.503178   2.868645
    13  C   10.059013   8.920839   7.367233   5.813960   4.364641
    14  S   11.439022  10.380555   8.745237   7.338952   5.780681
    15  H    4.668288   3.539439   4.629133   4.292270   5.989525
    16  H    4.371219   2.948272   3.345323   2.551447   4.219743
    17  H    3.895973   3.465500   5.151133   5.660726   7.369699
    18  H    3.389722   3.929379   5.714489   6.931428   8.493575
    19  H    2.125104   3.446136   4.814082   6.572145   7.816338
    20  H    1.086140   2.201139   2.721719   4.711066   5.651913
    21  H    2.972166   2.439824   1.351600   2.658097   3.352394
    22  H    5.762436   4.889598   3.118480   2.533379   1.084518
    23  H    7.552711   6.268383   5.021066   3.252064   2.487497
    24  H   10.179603   8.943828   7.528282   5.778658   4.565284
                   11         12         13         14         15
    11  S    0.000000
    12  S    2.049722   0.000000
    13  C    2.986727   1.748496   0.000000
    14  S    4.578702   2.941820   1.651069   0.000000
    15  H    6.585484   8.530693   9.496159  11.132115   0.000000
    16  H    4.830048   6.753815   7.773338   9.396976   1.784790
    17  H    8.330302  10.134351  11.307550  12.903568   2.263401
    18  H    9.781744  11.355309  12.740360  14.250685   4.583448
    19  H    9.378440  10.611161  12.180779  13.545514   5.858019
    20  H    7.325752   8.341177   9.976086  11.257517   5.650940
    21  H    4.950285   5.999890   7.556418   8.851002   5.295150
    22  H    2.515468   2.846222   4.541438   5.745781   6.799796
    23  H    1.359048   2.666925   3.305517   4.893582   6.463540
    24  H    2.926050   2.458330   1.095501   2.421583   9.103322
                   16         17         18         19         20
    16  H    0.000000
    17  H    3.607570   0.000000
    18  H    5.514810   2.436840   0.000000
    19  H    6.086697   4.269288   2.472194   0.000000
    20  H    5.132439   4.981988   4.286182   2.455041   0.000000
    21  H    4.075656   5.694857   6.055687   4.943069   2.786809
    22  H    5.073956   7.960259   8.816572   7.837668   5.514297
    23  H    4.793475   8.297866   9.874224   9.638934   7.708933
    24  H    7.450324  11.044052  12.649284  12.302512  10.212423
                   21         22         23         24
    21  H    0.000000
    22  H    3.307262   0.000000
    23  H    5.658274   3.260384   0.000000
    24  H    7.779953   4.979164   3.055883   0.000000
 Stoichiometry    C9H10S5
 Framework group  C1[X(C9H10S5)]
 Deg. of freedom    66
 Full point group                 C1      NOp   1
 Largest Abelian subgroup         C1      NOp   1
 Largest concise Abelian subgroup C1      NOp   1
                         Standard orientation:                         
 ---------------------------------------------------------------------
 Center     Atomic      Atomic             Coordinates (Angstroms)
 Number     Number       Type             X           Y           Z
 ---------------------------------------------------------------------
      1          6           0        3.228327    2.147459   -0.012672
      2          6           0        3.944734    1.000582   -0.025916
      3          6           0        5.396664    1.158996   -0.056607
      4          6           0        6.259795    0.128094   -0.062828
      5          6           0        5.782490   -1.222830   -0.032978
      6          6           0        4.458384   -1.489368   -0.001714
      7          6           0        3.468817   -0.412698   -0.008227
      8         16           0        1.791293   -1.094290   -0.030376
      9         16           0        0.403208    0.386394    0.135875
     10          6           0       -1.132256   -0.406622    0.010555
     11         16           0       -2.438628    0.763332    0.108481
     12         16           0       -3.992306   -0.545944   -0.162147
     13          6           0       -5.408533    0.467083   -0.003036
     14         16           0       -6.909880   -0.219316    0.025946
     15          1           0        3.709950    3.118494   -0.021173
     16          1           0        2.162209    2.230180    0.008408
     17          1           0        5.768443    2.179000   -0.075393
     18          1           0        7.330554    0.308756   -0.088910
     19          1           0        6.514651   -2.024428   -0.040991
     20          1           0        4.110423   -2.518119    0.015446
     21          1           0        1.745969   -1.644010    1.203552
     22          1           0       -1.303688   -1.474844   -0.064897
     23          1           0       -2.431292    1.408269   -1.087769
     24          1           0       -5.256736    1.549703    0.067775
 ---------------------------------------------------------------------
 Rotational constants (GHZ):           2.0071449           0.1047702           0.0997532
 Standard basis: 6-31G(2df,p) (6D, 7F)
 There are   504 symmetry adapted cartesian basis functions of A   symmetry.
 There are   462 symmetry adapted basis functions of A   symmetry.
   462 basis functions,   806 primitive gaussians,   504 cartesian basis functions
    72 alpha electrons       72 beta electrons
       nuclear repulsion energy      1304.4015181323 Hartrees.
 NAtoms=   24 NActive=   24 NUniq=   24 SFac= 1.00D+00 NAtFMM=   60 NAOKFM=F Big=F
 Integral buffers will be    131072 words long.
 Raffenetti 2 integral format.
 Two-electron integral symmetry is turned on.
 One-electron integrals computed using PRISM.
 PrsmSu:  requested number of processors reduced to:  12 ShMem   1 Linda.
 NBasis=   462 RedAO= T EigKep=  1.35D-04  NBF=   462
 NBsUse=   462 1.00D-06 EigRej= -1.00D+00 NBFU=   462
 Initial guess from the checkpoint file:  "CdC1CdCCdCC1d[SH]SCd[SH]SCdS.chk"
 B after Tr=     0.000000    0.000000    0.000000
         Rot=    0.999960    0.006414    0.000098    0.006304 Ang=   1.03 deg.
 ExpMin= 1.17D-01 ExpMax= 2.19D+04 ExpMxC= 3.30D+03 IAcc=2 IRadAn=         4 AccDes= 0.00D+00
 Harris functional with IExCor=  402 and IRadAn=       4 diagonalized for initial guess.
 HarFok:  IExCor=  402 AccDes= 0.00D+00 IRadAn=         4 IDoV= 1 UseB2=F ITyADJ=14
 ICtDFT=  3500011 ScaDFX=  1.000000  1.000000  1.000000  1.000000
 FoFCou: FMM=F IPFlag=           0 FMFlag=      100000 FMFlg1=           0
         NFxFlg=           0 DoJE=T BraDBF=F KetDBF=T FulRan=T
         wScrn=  0.000000 ICntrl=       500 IOpCl=  0 I1Cent=   200000004 NGrid=           0
         NMat0=    1 NMatS0=      1 NMatT0=    0 NMatD0=    1 NMtDS0=    0 NMtDT0=    0
 Petite list used in FoFCou.
 Requested convergence on RMS density matrix=1.00D-08 within 128 cycles.
 Requested convergence on MAX density matrix=1.00D-06.
 Requested convergence on             energy=1.00D-06.
 No special actions if energy rises.
 Integral accuracy reduced to 1.0D-05 until final iterations.
 Initial convergence to 1.0D-05 achieved.  Increase integral accuracy.
 SCF Done:  E(RB3LYP) =  -2339.65067016     A.U. after   22 cycles
            NFock= 22  Conv=0.72D-08     -V/T= 2.0037
 PrsmSu:  requested number of processors reduced to:  13 ShMem   1 Linda.
 Calling FoFJK, ICntrl=      2127 FMM=F ISym2X=0 I1Cent= 0 IOpClX= 0 NMat=1 NMatS=1 NMatT=0.
 ***** Axes restored to original set *****
 -------------------------------------------------------------------
 Center     Atomic                   Forces (Hartrees/Bohr)
 Number     Number              X              Y              Z
 -------------------------------------------------------------------
      1        6          -0.018427751   -0.004071424   -0.000879608
      2        6           0.002850813    0.017099997    0.002131398
      3        6          -0.002445899    0.004177092    0.000424490
      4        6           0.008697122    0.007937856    0.000099201
      5        6           0.017191903   -0.016355863   -0.001533694
      6        6          -0.041997684    0.012727338   -0.002001407
      7        6           0.021698137   -0.016401323    0.004216411
      8       16           0.025060370   -0.012451996    0.012165920
      9       16          -0.023047869   -0.032994197   -0.008085048
     10        6          -0.025758422    0.023163884   -0.008205608
     11       16           0.052824818   -0.031639093   -0.019028154
     12       16          -0.008942009    0.032434484    0.007355029
     13        6          -0.007399662    0.014026500   -0.002226689
     14       16           0.009035669   -0.016436293    0.000260568
     15        1           0.005893969   -0.001174104   -0.000923405
     16        1          -0.003307792    0.008694652    0.001184386
     17        1          -0.001816151    0.001340246    0.000162397
     18        1          -0.000266780    0.000444330    0.000142537
     19        1          -0.001531751    0.003198619    0.000067662
     20        1           0.000890187    0.001022715    0.000850784
     21        1           0.007073452    0.007915268   -0.014602135
     22        1          -0.006112372   -0.002921370    0.006802496
     23        1          -0.014313369   -0.000537095    0.020926261
     24        1           0.004151070    0.000799777    0.000696208
 -------------------------------------------------------------------
 Cartesian Forces:  Max     0.052824818 RMS     0.014497924

 GradGradGradGradGradGradGradGradGradGradGradGradGradGradGradGradGradGrad
 Berny optimization.
 Using GEDIIS/GDIIS optimizer.
 FormGI is forming the generalized inverse of G from B-inverse, IUseBI=4.
 Internal  Forces:  Max     0.035625813 RMS     0.009791281
 Search for a local minimum.
 Step number   2 out of a maximum of  114
 All quantities printed in internal units (Hartrees-Bohrs-Radians)
 Mixed Optimization -- RFO/linear search
 Update second derivatives using D2CorX and points    1    2
 DE= -3.69D-02 DEPred=-3.56D-02 R= 1.04D+00
 TightC=F SS=  1.41D+00  RLast= 3.19D-01 DXNew= 5.0454D-01 9.5558D-01
 Trust test= 1.04D+00 RLast= 3.19D-01 DXMaxT set to 5.05D-01
 ITU=  1  0
 Use linear search instead of GDIIS.
     Eigenvalues ---    0.00227   0.00230   0.00535   0.00719   0.00832
     Eigenvalues ---    0.00950   0.01062   0.01114   0.01455   0.01580
     Eigenvalues ---    0.01678   0.01718   0.01858   0.02057   0.02233
     Eigenvalues ---    0.02300   0.02560   0.02966   0.02969   0.05812
     Eigenvalues ---    0.07009   0.10111   0.12636   0.14196   0.15994
     Eigenvalues ---    0.15999   0.16000   0.16000   0.16000   0.16000
     Eigenvalues ---    0.16176   0.16796   0.22001   0.22017   0.22035
     Eigenvalues ---    0.22495   0.23374   0.24340   0.24569   0.24690
     Eigenvalues ---    0.24998   0.25000   0.25167   0.27312   0.28207
     Eigenvalues ---    0.29319   0.29899   0.30814   0.32020   0.32965
     Eigenvalues ---    0.33358   0.34102   0.34633   0.35077   0.35193
     Eigenvalues ---    0.35217   0.35396   0.35640   0.36337   0.37678
     Eigenvalues ---    0.38215   0.38697   0.45375   0.54377   0.57435
     Eigenvalues ---    0.60710
 RFO step:  Lambda=-4.86281860D-02 EMin= 2.26994588D-03
 Quartic linear search produced a step of  1.42579.
 Iteration  1 RMS(Cart)=  0.27123949 RMS(Int)=  0.02173170
 Iteration  2 RMS(Cart)=  0.11050902 RMS(Int)=  0.00176441
 Iteration  3 RMS(Cart)=  0.00385910 RMS(Int)=  0.00120614
 Iteration  4 RMS(Cart)=  0.00001452 RMS(Int)=  0.00120614
 Iteration  5 RMS(Cart)=  0.00000003 RMS(Int)=  0.00120614
 Variable       Old X    -DE/DX   Delta X   Delta X   Delta X     New X
                                 (Linear)    (Quad)   (Total)
    R1        2.55549   0.01381   0.05081   0.00437   0.05518   2.61068
    R2        2.04836  -0.00009   0.00282  -0.00302  -0.00020   2.04817
    R3        2.02112   0.00761   0.01149   0.02936   0.04085   2.06197
    R4        2.76064   0.00081   0.01170  -0.00711   0.00410   2.76474
    R5        2.81827  -0.02487  -0.06042  -0.10481  -0.16382   2.65446
    R6        2.54082   0.01300   0.03628   0.01564   0.05028   2.59110
    R7        2.05188  -0.00069  -0.00509   0.00068  -0.00441   2.04748
    R8        2.70812  -0.00458  -0.02117  -0.00015  -0.02263   2.68549
    R9        2.05263  -0.00051  -0.00142  -0.00155  -0.00297   2.04966
   R10        2.55307   0.01238   0.02072   0.02788   0.04902   2.60209
   R11        2.05162  -0.00101  -0.00230  -0.00357  -0.00587   2.04575
   R12        2.76346  -0.02846  -0.11349  -0.07352  -0.18536   2.57811
   R13        2.05251   0.00127   0.00307   0.00424   0.00731   2.05982
   R14        3.42199  -0.02250  -0.08056  -0.10417  -0.18474   3.23726
   R15        3.84820   0.02141   0.06111   0.07068   0.13178   3.97998
   R16        2.55415   0.01766   0.09336   0.03366   0.12702   2.68118
   R17        3.27432   0.01634   0.06593   0.03251   0.09844   3.37276
   R18        3.31914  -0.03563  -0.14590  -0.12902  -0.27492   3.04422
   R19        2.04944  -0.00496  -0.02778  -0.00341  -0.03119   2.01826
   R20        3.87341   0.03141   0.08577   0.10924   0.19500   4.06841
   R21        2.56823   0.02267   0.10217   0.06077   0.16293   2.73116
   R22        3.30418  -0.00573  -0.02098  -0.01770  -0.03868   3.26550
   R23        3.12007  -0.01875  -0.06727  -0.03558  -0.10284   3.01722
   R24        2.07020  -0.00285  -0.01855   0.00001  -0.01855   2.05165
    A1        2.12267  -0.00459  -0.04055  -0.01016  -0.05072   2.07195
    A2        2.20665  -0.00311   0.00851  -0.04113  -0.03262   2.17403
    A3        1.95387   0.00770   0.03204   0.05130   0.08334   2.03721
    A4        2.02057   0.01572   0.02283   0.09965   0.12192   2.14250
    A5        2.25817  -0.00456   0.04688  -0.07275  -0.02642   2.23176
    A6        2.00443  -0.01116  -0.06972  -0.02691  -0.09554   1.90889
    A7        2.15913   0.00158   0.02753  -0.00787   0.01770   2.17684
    A8        2.02922  -0.00299  -0.03284  -0.00133  -0.03319   1.99603
    A9        2.09483   0.00141   0.00530   0.00921   0.01549   2.11032
   A10        2.10467  -0.00083  -0.00653   0.01216   0.00273   2.10740
   A11        2.10065   0.00052   0.01117  -0.01253   0.00008   2.10073
   A12        2.07786   0.00032  -0.00464   0.00037  -0.00281   2.07505
   A13        2.10934  -0.00979  -0.04052  -0.03354  -0.07495   2.03438
   A14        2.06150   0.00838   0.04185   0.03323   0.07549   2.13700
   A15        2.11233   0.00141  -0.00134   0.00027  -0.00066   2.11167
   A16        2.11513  -0.00055   0.01428  -0.01937  -0.00305   2.11209
   A17        2.09579  -0.00023  -0.00458   0.00193  -0.00366   2.09213
   A18        2.07217   0.00078  -0.00965   0.01742   0.00674   2.07892
   A19        2.07352   0.02076   0.07504   0.07550   0.15304   2.22656
   A20        2.28123  -0.01135   0.05106  -0.12524  -0.07590   2.20533
   A21        1.92816  -0.00938  -0.12597   0.05066  -0.07707   1.85109
   A22        1.93561  -0.00787   0.09973  -0.14770  -0.04828   1.88733
   A23        1.74466   0.00321   0.01744   0.02401   0.04087   1.78553
   A24        1.77046   0.00325   0.01647   0.03011   0.04578   1.81624
   A25        1.83938  -0.03367  -0.15811  -0.10592  -0.26403   1.57534
   A26        1.92860   0.00023  -0.01158   0.01288   0.00115   1.92975
   A27        2.20920   0.00387   0.05205  -0.00742   0.04449   2.25369
   A28        2.14409  -0.00407  -0.04060  -0.00381  -0.04457   2.09953
   A29        1.70211  -0.00507  -0.02974  -0.01183  -0.03930   1.66281
   A30        1.83694   0.01376   0.07858   0.10145   0.17909   2.01603
   A31        1.76298  -0.00719  -0.04304  -0.07048  -0.10809   1.65489
   A32        1.80479  -0.00962  -0.04828  -0.02742  -0.07570   1.72909
   A33        2.09123   0.00080  -0.01327   0.01878   0.00549   2.09672
   A34        2.05580  -0.00369  -0.01106  -0.02760  -0.03868   2.01712
   A35        2.13614   0.00290   0.02435   0.00874   0.03307   2.16921
    D1       -0.00336  -0.00076  -0.00420  -0.01688  -0.02104  -0.02441
    D2        3.13344  -0.00100  -0.00756  -0.01923  -0.02682   3.10662
    D3        3.14026  -0.00085  -0.00462  -0.01884  -0.02343   3.11683
    D4       -0.00612  -0.00109  -0.00797  -0.02119  -0.02921  -0.03532
    D5        3.13240  -0.00034  -0.00500  -0.00710  -0.01222   3.12019
    D6       -0.00966  -0.00026  -0.00349  -0.00592  -0.00962  -0.01928
    D7       -0.00511  -0.00014  -0.00230  -0.00491  -0.00745  -0.01257
    D8        3.13601  -0.00007  -0.00078  -0.00373  -0.00486   3.13115
    D9       -3.12062   0.00025   0.00203   0.00762   0.01022  -3.11040
   D10        0.04875  -0.00101  -0.00192  -0.04001  -0.04291   0.00585
   D11        0.01622   0.00008  -0.00119   0.00558   0.00555   0.02178
   D12       -3.09759  -0.00119  -0.00514  -0.04206  -0.04757   3.13802
   D13       -0.00477   0.00014   0.00259  -0.00053   0.00167  -0.00310
   D14        3.13864   0.00003   0.00146  -0.00054   0.00073   3.13938
   D15        3.13732   0.00006   0.00105  -0.00175  -0.00107   3.13624
   D16       -0.00246  -0.00005  -0.00008  -0.00177  -0.00201  -0.00447
[...]
     Eigenvalues ---    0.00143   0.00307   0.00820   0.01068   0.01295
     Eigenvalues ---    0.01377   0.01463   0.01690   0.01926   0.02024
     Eigenvalues ---    0.02051   0.02288   0.02368   0.02674   0.02889
     Eigenvalues ---    0.03025   0.03271   0.04499   0.05007   0.05448
     Eigenvalues ---    0.09238   0.11565   0.12324   0.12625   0.15261
     Eigenvalues ---    0.15554   0.15754   0.15987   0.16025   0.16214
     Eigenvalues ---    0.16596   0.19055   0.20528   0.21864   0.22412
     Eigenvalues ---    0.23158   0.23780   0.24936   0.25622   0.26097
     Eigenvalues ---    0.27458   0.28709   0.29304   0.30465   0.31457
     Eigenvalues ---    0.32630   0.33299   0.34031   0.34711   0.35087
     Eigenvalues ---    0.35180   0.35287   0.35636   0.35854   0.36234
     Eigenvalues ---    0.36801   0.37466   0.37687   0.41871   0.46956
     Eigenvalues ---    0.52178   0.55798   0.58440   3.12976   5.15681
     Eigenvalues ---   38.28420
 RFO step:  Lambda=-3.48229897D-03 EMin= 1.42943227D-03
 Quartic linear search produced a step of -0.64677.
 Maximum step size (   0.154) exceeded in Quadratic search.
    -- Step size scaled by   0.882
 Iteration  1 RMS(Cart)=  0.12272001 RMS(Int)=  0.00347394
 Iteration  2 RMS(Cart)=  0.01119367 RMS(Int)=  0.00018910
 Iteration  3 RMS(Cart)=  0.00004051 RMS(Int)=  0.00018819
 Iteration  4 RMS(Cart)=  0.00000001 RMS(Int)=  0.00018819
 Variable       Old X    -DE/DX   Delta X   Delta X   Delta X     New X
                                 (Linear)    (Quad)   (Total)
    R1        2.54394  -0.00117   0.00029  -0.00300  -0.00271   2.54123
    R2        2.04917  -0.00008   0.00021  -0.00094  -0.00072   2.04845
    R3        2.04610  -0.00008  -0.00018   0.00048   0.00031   2.04640
    R4        2.76383  -0.00159  -0.00004   0.00050   0.00033   2.76416
    R5        2.78562   0.00026   0.00116   0.00245   0.00348   2.78911
    R6        2.52691  -0.00213   0.00065  -0.00293  -0.00229   2.52462
    R7        2.05159   0.00014   0.00004   0.00009   0.00014   2.05172
    R8        2.81334   0.00148   0.00207  -0.00102   0.00116   2.81450
    R9        2.05044  -0.00014  -0.00004  -0.00005  -0.00009   2.05035
   R10        2.80485  -0.00617  -0.00060   0.00528   0.00481   2.80966
   R11        2.06972   0.00097  -0.00197   0.00561   0.00365   2.07336
   R12        2.55540  -0.01457  -0.00236   0.00360   0.00125   2.55665
   R13        2.05268  -0.00093  -0.00074   0.00026  -0.00048   2.05220
   R14        3.35191  -0.00996  -0.00155   0.00685   0.00529   3.35721
   R15        7.66678  -0.00254  -0.05193   0.08734   0.03541   7.70219
   R16        2.54752  -0.00081  -0.00136   0.00362   0.00225   2.54977
   R17        3.08761   0.00040  -0.00273  -0.00391  -0.00665   3.08097
   R18        3.28693   0.01170  -0.00084   0.00107   0.00024   3.28716
   R19        2.06078   0.00005   0.00006  -0.00034  -0.00028   2.06050
   R20        7.25911   0.01070  -0.05346   0.09647   0.04301   7.30213
   R21        2.54851  -0.00004  -0.00172   0.00407   0.00236   2.55087
   R22        3.09055  -0.00631   0.00085  -0.00111  -0.00026   3.09029
   R23        3.25054   0.00729   0.00001   0.00069   0.00070   3.25124
   R24        2.06211   0.00075  -0.00125   0.00378   0.00253   2.06464
    A1        2.10586  -0.00031   0.00019  -0.00095  -0.00076   2.10510
    A2        2.14030   0.00030   0.00052   0.00028   0.00080   2.14110
    A3        2.03699   0.00000  -0.00071   0.00065  -0.00005   2.03694
    A4        2.10359   0.00051  -0.00072   0.00156   0.00098   2.10458
    A5        2.15336   0.00156   0.00132   0.00094   0.00241   2.15577
    A6        2.02592  -0.00208  -0.00042  -0.00332  -0.00368   2.02224
    A7        2.14799  -0.00191  -0.00069   0.00360   0.00302   2.15102
    A8        2.03607   0.00102  -0.00001  -0.00157  -0.00157   2.03450
    A9        2.09867   0.00089   0.00096  -0.00240  -0.00143   2.09725
   A10        2.12460  -0.00091  -0.00239   0.00748   0.00540   2.13000
   A11        2.11477   0.00008  -0.00195   0.00207  -0.00004   2.11474
   A12        2.04374   0.00084   0.00413  -0.00926  -0.00529   2.03845
   A13        2.00371   0.00111  -0.00163  -0.00537  -0.00658   1.99713
   A14        1.94826  -0.00141   0.00737  -0.02127  -0.01427   1.93399
   A15        1.93627  -0.00041   0.00386  -0.01325  -0.00981   1.92645
   A16        2.14243  -0.00098  -0.00122   0.00513   0.00423   2.14666
   A17        2.03471   0.00058   0.00346  -0.00961  -0.00634   2.02838
   A18        2.10604   0.00040  -0.00225   0.00445   0.00202   2.10805
   A19        2.11512   0.00474  -0.00044   0.00155   0.00117   2.11630
   A20        2.03421   0.00247   0.00254  -0.00524  -0.00276   2.03145
   A21        2.13385  -0.00720  -0.00223   0.00367   0.00138   2.13522
   A22        2.13717   0.00146   0.00774  -0.02639  -0.01897   2.11820
   A23        1.67680   0.00278   0.00096   0.00690   0.00821   1.68501
   A24        0.47359  -0.00068  -0.00003  -0.00942  -0.00872   0.46487
   A25        1.60762   0.03399  -0.01716   0.02053   0.00337   1.61099
   A26        2.17894   0.02981  -0.00598   0.00300  -0.00297   2.17597
   A27        2.11515  -0.01454   0.00612  -0.00667  -0.00055   2.11460
   A28        1.98895  -0.01488  -0.00006   0.00337   0.00332   1.99226
   A29        2.69265   0.06676  -0.00784   0.01322   0.00538   2.69804
   A30        1.69968   0.00612   0.00603  -0.00227   0.00375   1.70343
   A31        1.26686   0.01354  -0.00928   0.01389   0.00457   1.27143
   A32        1.29056   0.07466   0.00038  -0.00108  -0.00069   1.28986
   A33        2.18135  -0.04679  -0.00075  -0.00826  -0.00908   2.17227
   A34        2.12244   0.02300  -0.00234   0.01157   0.00915   2.13159
   A35        1.97819   0.02383   0.00386  -0.00267   0.00112   1.97931
    D1       -0.04291   0.00030   0.01866  -0.02791  -0.00929  -0.05220
    D2        3.12679   0.00052  -0.00698   0.00827   0.00133   3.12812
    D3        3.09002   0.00014   0.01953  -0.03051  -0.01101   3.07901
    D4       -0.02346   0.00035  -0.00610   0.00567  -0.00040  -0.02386
    D5       -3.01482  -0.00009  -0.01364   0.00131  -0.01235  -3.02717
    D6        0.09440  -0.00009   0.00080  -0.01205  -0.01129   0.08311
    D7        0.10064  -0.00024   0.01018  -0.03227  -0.02210   0.07854
    D8       -3.07333  -0.00024   0.02463  -0.04563  -0.02103  -3.09436
    D9        3.02393   0.00092   0.01457  -0.00488   0.00967   3.03360
   D10       -0.12116   0.00174   0.00295  -0.01177  -0.00879  -0.12995
   D11       -0.09070   0.00110  -0.01001   0.02975   0.01976  -0.07094
   D12        3.04739   0.00191  -0.02164   0.02286   0.00130   3.04869
   D13       -0.01988  -0.00032   0.02406  -0.03248  -0.00851  -0.02838
   D14        3.10800  -0.00003   0.01253  -0.00614   0.00630   3.11430
   D15       -3.12798  -0.00032   0.00911  -0.01868  -0.00961  -3.13758
   D16       -0.00010  -0.00003  -0.00242   0.00765   0.00521   0.00510
   D17       -0.06917  -0.00054  -0.05490   0.09407   0.03921  -0.02996
   D18       -2.29194   0.00033  -0.06550   0.13590   0.07031  -2.22164
   D19        3.08561  -0.00082  -0.04372   0.06868   0.02497   3.11058
   D20        0.86283   0.00006  -0.05432   0.11051   0.05607   0.91891
   D21        0.07793   0.00179   0.05563  -0.09726  -0.04166   0.03627
   D22       -3.06006   0.00041   0.05869  -0.08910  -0.03044  -3.09050
   D23        2.30679   0.00040   0.06795  -0.14292  -0.07490   2.23189
   D24       -0.83120  -0.00098   0.07101  -0.13476  -0.06368  -0.89488
   D25        0.00216  -0.00206  -0.02473   0.03762   0.01296   0.01512
   D26       -3.13573  -0.00295  -0.01249   0.04492   0.03254  -3.10319
   D27        3.14001  -0.00063  -0.02789   0.02911   0.00123   3.14124
   D28        0.00212  -0.00151  -0.01565   0.03641   0.02081   0.02293
   D29        2.78972  -0.00267   0.07913  -0.21586  -0.13615   2.65356
   D30        2.90886   0.00013   0.03718  -0.11156  -0.07499   2.83387
   D31       -0.35542  -0.00182   0.06739  -0.22283  -0.15483  -0.51025
   D32       -0.23627   0.00097   0.02544  -0.11853  -0.09367  -0.32994
   D33       -1.07144   0.00576  -0.06024   0.14045   0.08066  -0.99077
   D34       -1.33359  -0.00080   0.03263  -0.09807  -0.06588  -1.39947
   D35        1.22170   0.06112  -0.01010   0.08129   0.07117   1.29287
   D36       -1.90018   0.03576  -0.01900   0.10065   0.08166  -1.81852
   D37       -1.93864  -0.00817   0.00140   0.00721   0.00864  -1.93000
   D38       -3.06904   0.00072   0.00416  -0.01072  -0.00659  -3.07563
   D39        1.18449   0.01553   0.00976  -0.01102  -0.00123   1.18326
   D40        0.05409   0.02441   0.01251  -0.02895  -0.01645   0.03764
   D41        1.15956   0.04625   0.08468  -0.13080  -0.04609   1.11346
   D42        2.38269   0.02078   0.08709  -0.11870  -0.03164   2.35105
   D43        2.31596   0.00268   0.17533  -0.13610   0.03937   2.35533
   D44       -0.76934   0.00098   0.13998  -0.15098  -0.01114  -0.78048
   D45       -3.08938  -0.00178  -0.03279  -0.01423  -0.04687  -3.13625
         Item               Value     Threshold  Converged?
 Maximum Force            0.074658     0.000450     NO 
 RMS     Force            0.015633     0.000300     NO 
 Maximum Displacement     0.376165     0.001800     NO 
 RMS     Displacement     0.127467     0.001200     NO 
 Predicted change in Energy=-2.362759D-03
 GradGradGradGradGradGradGradGradGradGradGradGradGradGradGradGradGradGrad

                          Input orientation:                          
 ---------------------------------------------------------------------
 Center     Atomic      Atomic             Coordinates (Angstroms)
 Number     Number       Type             X           Y           Z
 ---------------------------------------------------------------------
      1          6           0        2.151720   -0.971210    1.452753
      2          6           0        2.341529    0.080988    0.637136
      3          6           0        3.591566    0.839407    0.679397
      4          6           0        3.788863    1.965286   -0.012190
      5          6           0        2.750716    2.526770   -0.920604
      6          6           0        1.511390    1.711011   -1.016570
      7          6           0        1.319871    0.575612   -0.306229
      8         16           0       -0.143930   -0.416544   -0.476720
      9         16           0       -3.719206    1.239124   -1.520033
     10          6           0       -3.682862    2.272954   -0.259873
     11         16           0       -2.660132    3.676515   -0.160513
     12         16           0        0.279538    5.761329    1.233512
     13          6           0        0.949948    4.446093    0.529983
     14         16           0        2.321804    4.489793   -0.507399
     15          1           0        2.939970   -1.302384    2.119105
     16          1           0        1.219678   -1.521297    1.490154
     17          1           0        4.368232    0.459275    1.335970
     18          1           0        4.721389    2.514709    0.063605
     19          1           0        3.165254    2.710834   -1.919641
     20          1           0        0.754586    2.067797   -1.708883
     21          1           0       -0.911848    0.538191   -1.041821
     22          1           0       -4.302541    2.109217    0.622224
     23          1           0       -2.998993    4.056163    1.089754
     24          1           0        0.550508    3.440175    0.679191
 ---------------------------------------------------------------------
                    Distance matrix (angstroms):
                    1          2          3          4          5
     1  C    0.000000
     2  C    1.344760   0.000000
     3  C    2.439174   1.462730   0.000000
     4  C    3.667329   2.463124   1.335972   0.000000
     5  C    4.269366   2.928453   2.472696   1.489372   0.000000
     6  C    3.701606   2.465938   2.821902   2.502062   1.486809
     7  C    2.485688   1.475932   2.490310   2.848433   2.496355
     8  S    3.049677   2.768704   4.107061   4.621229   4.152000
     9  S    6.941960   6.536602   7.644911   7.692334   6.623990
    10  C    6.892027   6.473224   7.473593   7.482157   6.472397
    11  S    6.881707   6.211334   6.916528   6.673817   5.583631
    12  S    6.991438   6.072375   5.958346   5.317619   4.605357
    13  C    5.625205   4.582807   4.473103   3.808909   3.005124
    14  S    5.804625   4.554987   4.043030   2.961524   2.051381
    15  H    1.083992   2.113784   2.661692   3.992581   4.892654
    16  H    1.082911   2.133894   3.443269   4.584103   4.954056
    17  H    2.640616   2.176924   1.085726   2.102683   3.461650
    18  H    4.548028   3.451908   2.112424   1.084996   2.202809
    19  H    5.094874   3.759218   3.230941   2.140817   1.097176
    20  H    4.602552   3.459711   3.906569   3.477946   2.194670
    21  H    4.229260   3.689498   4.830534   5.019305   4.169355
    22  H    7.199742   6.946769   7.995787   8.117512   7.232088
    23  H    7.206670   6.672935   7.345160   7.187561   6.280107
    24  H    4.756321   3.807054   4.001502   3.624947   2.869594
                    6          7          8          9         10
     6  C    0.000000
     7  C    1.352921   0.000000
     8  S    2.749184   1.776557   0.000000
     9  S    5.275916   5.225502   4.075824   0.000000
    10  C    5.279074   5.283035   4.450221   1.630377   0.000000
    11  S    4.690163   5.047500   4.815018   2.985098   1.739492
    12  S    4.794309   5.508607   6.424200   6.634931   5.486308
    13  C    3.191820   3.977024   5.084808   6.023971   5.177774
    14  S    2.938988   4.045386   5.491168   6.934413   6.405596
    15  H    4.577537   3.468981   4.127161   8.002951   7.893319
    16  H    4.100802   2.762979   2.636001   6.408879   6.441571
    17  H    3.906768   3.464514   4.940902   8.612293   8.405729
    18  H    3.480920   3.932836   5.705745   8.682090   8.413948
    19  H    2.133179   3.250802   4.776318   7.051342   7.059977
    20  H    1.085977   2.124524   2.915049   4.553809   4.672544
    21  H    2.692254   2.350121   1.349280   2.932789   3.361453
    22  H    6.053594   5.901312   4.988105   2.384660   1.090369
    23  H    5.502716   5.719755   5.532661   3.907097   2.338590
    24  H    2.605552   3.125490   4.085665   5.283150   4.490620
                   11         12         13         14         15
    11  S    0.000000
    12  S    3.864119   0.000000
    13  C    3.755225   1.635313   0.000000
    14  S    5.059786   2.969583   1.720482   0.000000
    15  H    7.832448   7.599882   6.287327   6.389833   0.000000
    16  H    6.692897   7.347541   6.050159   6.429471   1.844697
    17  H    7.873246   6.696245   5.313097   4.881696   2.399307
    18  H    7.475753   5.624879   4.262807   3.159907   4.687081
    19  H    6.161347   5.251214   3.730866   2.422918   5.698082
    20  H    4.079917   4.746107   3.272152   3.125028   5.548650
    21  H    3.698957   5.820457   4.605275   5.133933   5.311843
    22  H    2.401376   5.891268   5.749621   7.129174   8.144546
    23  H    1.349861   3.698246   4.007434   5.572236   8.065040
    24  H    3.327037   2.401761   1.092560   2.376380   5.502248
                   16         17         18         19         20
    16  H    0.000000
    17  H    3.722879   0.000000
    18  H    5.530494   2.443039   0.000000
    19  H    5.772599   4.137110   2.528495   0.000000
    20  H    4.830294   4.991685   4.367720   2.503845   0.000000
    21  H    3.898178   5.791319   6.071405   4.702522   2.358319
    22  H    6.665496   8.855171   9.050292   7.911446   5.568689
    23  H    7.004682   8.202088   7.939356   6.990301   5.086779
    24  H    5.071651   4.887958   4.316443   3.758026   2.761877
                   21         22         23         24
    21  H    0.000000
    22  H    4.090717   0.000000
    23  H    4.612582   2.389230   0.000000
    24  H    3.677211   5.032572   3.625874   0.000000
 Stoichiometry    C9H10S5
 Framework group  C1[X(C9H10S5)]
 Deg. of freedom    66
 Full point group                 C1      NOp   1
 Largest Abelian subgroup         C1      NOp   1
 Largest concise Abelian subgroup C1      NOp   1
                         Standard orientation:                         
 ---------------------------------------------------------------------
 Center     Atomic      Atomic             Coordinates (Angstroms)
 Number     Number       Type             X           Y           Z
 ---------------------------------------------------------------------
      1          6           0        2.376035    2.936506   -1.591290
      2          6           0        2.361156    1.973718   -0.652569
      3          6           0        3.536349    1.131218   -0.431904
      4          6           0        3.539854    0.080735    0.393502
      5          6           0        2.341931   -0.300623    1.192110
      6          6           0        1.174694    0.604097    1.019943
      7          6           0        1.180299    1.661477    0.175958
      8         16           0       -0.203869    2.764974    0.025869
      9         16           0       -4.016373    1.489183    0.696326
     10          6           0       -3.892895    0.318254   -0.431419
     11         16           0       -2.988573   -1.154507   -0.233910
     12         16           0       -0.070603   -3.582119   -0.957489
     13          6           0        0.604344   -2.244457   -0.302236
     14         16           0        1.810219   -2.263778    0.924773
     15          1           0        3.274312    3.134432   -2.164843
     16          1           0        1.508065    3.541557   -1.822022
     17          1           0        4.425976    1.379578   -1.002589
     18          1           0        4.424077   -0.536610    0.512885
     19          1           0        2.596684   -0.397553    2.254890
     20          1           0        0.301676    0.381586    1.626304
     21          1           0       -1.120718    1.936095    0.567074
     22          1           0       -4.368015    0.422501   -1.407277
     23          1           0       -3.181405   -1.650141   -1.474590
     24          1           0        0.315936   -1.237053   -0.611501
 ---------------------------------------------------------------------
 Rotational constants (GHZ):           0.3612250           0.2677686           0.1713598
 Standard basis: 6-31G(2df,p) (6D, 7F)
 There are   504 symmetry adapted cartesian basis functions of A   symmetry.
 There are   462 symmetry adapted basis functions of A   symmetry.
   462 basis functions,   806 primitive gaussians,   504 cartesian basis functions
    72 alpha electrons       72 beta electrons
       nuclear repulsion energy      1333.2667540182 Hartrees.
 NAtoms=   24 NActive=   24 NUniq=   24 SFac= 1.00D+00 NAtFMM=   60 NAOKFM=F Big=F
 Integral buffers will be    131072 words long.
 Raffenetti 2 integral format.
 Two-electron integral symmetry is turned on.
 One-electron integrals computed using PRISM.
 PrsmSu:  requested number of processors reduced to:  12 ShMem   1 Linda.
 NBasis=   462 RedAO= T EigKep=  1.77D-04  NBF=   462
 NBsUse=   462 1.00D-06 EigRej= -1.00D+00 NBFU=   462
 Lowest energy guess from the checkpoint file:  "CdC1CdCCdCC1d[SH]SCd[SH]SCdS.chk"
 B after Tr=     0.000000    0.000000   -0.000000
         Rot=    0.999989   -0.000341   -0.000305    0.004754 Ang=  -0.55 deg.
 B after Tr=     0.000000   -0.000000    0.000000
         Rot=    0.999970   -0.003712   -0.001857   -0.006542 Ang=  -0.89 deg.
 Requested convergence on RMS density matrix=1.00D-08 within 128 cycles.
 Requested convergence on MAX density matrix=1.00D-06.
 Requested convergence on             energy=1.00D-06.
 No special actions if energy rises.
 Integral accuracy reduced to 1.0D-05 until final iterations.
slurmstepd: error: *** JOB 27446652 ON lewis4-r630-hpc4-node241 CANCELLED AT 2023-05-17T10:40:33 DUE TO TIME LIMIT ***
