### Starting Gaussian ###
 Entering Gaussian System, Link 0=g16
 Initial command:
 /cluster/software/gaussian/gaussian-16-A.03/avx2/g16/l1.exe "/local/scratch/linjian/Gau-5539.inp" -scrdir="/local/scratch/linjian/"
 Entering Link 1 = /cluster/software/gaussian/gaussian-16-A.03/avx2/g16/l1.exe PID=      5541.
  
 Copyright (c) 1988,1990,1992,1993,1995,1998,2003,2009,2016,
            Gaussian, Inc.  All Rights Reserved.
  
 This is part of the Gaussian(R) 16 program.  It is based on
 the Gaussian(R) 09 system (copyright 2009, Gaussian, Inc.),
 the Gaussian(R) 03 system (copyright 2003, Gaussian, Inc.),
 the Gaussian(R) 98 system (copyright 1998, Gaussian, Inc.),
 the Gaussian(R) 94 system (copyright 1995, Gaussian, Inc.),
 the Gaussian 92(TM) system (copyright 1992, Gaussian, Inc.),
 the Gaussian 90(TM) system (copyright 1990, Gaussian, Inc.),
 the Gaussian 88(TM) system (copyright 1988, Gaussian, Inc.),
 the Gaussian 86(TM) system (copyright 1986, Carnegie Mellon
 University), and the Gaussian 82(TM) system (copyright 1983,
 Carnegie Mellon University). Gaussian is a federally registered
 trademark of Gaussian, Inc.
  
 This software contains proprietary and confidential information,
 including trade secrets, belonging to Gaussian, Inc.
  
 This software is provided under written license and may be
 used, copied, transmitted, or stored only in accord with that
 written license.
  
 The following legend is applicable only to US Government
 contracts under FAR:
  
                    RESTRICTED RIGHTS LEGEND
  
 Use, reproduction and disclosure by the US Government is
 subject to restrictions as set forth in subparagraphs (a)
 and (c) of the Commercial Computer Software - Restricted
 Rights clause in FAR 52.227-19.
  
 Gaussian, Inc.
 340 Quinnipiac St., Bldg. 40, Wallingford CT 06492
  
  
 ---------------------------------------------------------------
 Warning -- This program may not be used in any manner that
 competes with the business of Gaussian, Inc. or will provide
 assistance to any competitor of Gaussian, Inc.  The licensee
 of this program is prohibited from giving any competitor of
 Gaussian, Inc. access to this program.  By using this program,
 the user acknowledges that Gaussian, Inc. is engaged in the
 business of creating and licensing software in the field of
 computational chemistry and represents and warrants to the
 licensee that it is not a competitor of Gaussian, Inc. and that
 it will not use this program in any manner prohibited above.
 ---------------------------------------------------------------
  

 Cite this work as:
 Gaussian 16, Revision A.03,
 M. J. Frisch, G. W. Trucks, H. B. Schlegel, G. E. Scuseria, 
 M. A. Robb, J. R. Cheeseman, G. Scalmani, V. Barone, 
 G. A. Petersson, H. Nakatsuji, X. Li, M. Caricato, A. V. Marenich, 
 J. Bloino, B. G. Janesko, R. Gomperts, B. Mennucci, H. P. Hratchian, 
 J. V. Ortiz, A. F. Izmaylov, J. L. Sonnenberg, D. Williams-Young, 
 F. Ding, F. Lipparini, F. Egidi, J. Goings, B. Peng, A. Petrone, 
 T. Henderson, D. Ranasinghe, V. G. Zakrzewski, J. Gao, N. Rega, 
 G. Zheng, W. Liang, M. Hada, M. Ehara, K. Toyota, R. Fukuda, 
 J. Hasegawa, M. Ishida, T. Nakajima, Y. Honda, O. Kitao, H. Nakai, 
 T. Vreven, K. Throssell, J. A. Montgomery, Jr., J. E. Peralta, 
 F. Ogliaro, M. J. Bearpark, J. J. Heyd, E. N. Brothers, K. N. Kudin, 
 V. N. Staroverov, T. A. Keith, R. Kobayashi, J. Normand, 
 K. Raghavachari, A. P. Rendell, J. C. Burant, S. S. Iyengar, 
 J. Tomasi, M. Cossi, J. M. Millam, M. Klene, C. Adamo, R. Cammi, 
 J. W. Ochterski, R. L. Martin, K. Morokuma, O. Farkas, 
 J. B. Foresman, and D. J. Fox, Gaussian, Inc., Wallingford CT, 2016.
 
 ******************************************
 Gaussian 16:  ES64L-G16RevA.03 25-Dec-2016
                15-May-2023 
 ******************************************
 %chk=Cdc1cc2c3cccc-3nc1dCCqdOrNdCCdCCdC2.chk
 %NProcShared=20
 Will use up to   20 processors via shared memory.
 -----------------------------
 # opt freq b3lyp/6-31g(2df,p)
 -----------------------------
 1/18=20,19=15,26=3,38=1/1,3;
 2/9=110,12=2,17=6,18=5,40=1/2;
 3/5=1,6=6,7=104,11=2,25=1,30=1,71=1,74=-5/1,2,3;
 4//1;
 5/5=2,38=5/2;
 6/7=2,8=2,9=2,10=2,28=1/1;
 7//1,2,3,16;
 1/18=20,19=15,26=3/3(2);
 2/9=110/2;
 99//99;
 2/9=110/2;
 3/5=1,6=6,7=104,11=2,25=1,30=1,71=1,74=-5/1,2,3;
 4/5=5,16=3,69=1/1;
 5/5=2,38=5/2;
 7//1,2,3,16;
 1/18=20,19=15,26=3/3(-5);
 2/9=110/2;
 6/7=2,8=2,9=2,10=2,19=2,28=1/1;
 99/9=1/99;
 -------------------
 Title Card Required
 -------------------
 Symbolic Z-matrix:
 Charge =  0 Multiplicity = 1
 C                     2.16274  -0.94786  -0.39678 
 C                     3.73144  -1.38053  -0.85606 
 C                     3.48917   0.44566  -0.53179 
 C                     4.51252   1.0426   -0.02092 
 C                     5.1793    2.16496  -0.3252 
 C                     5.03245   3.46597   0.17441 
 C                     6.1468    4.16805  -0.30896 
 C                     6.89035   2.98506  -1.05494 
 C                     6.37255   0.98521  -1.19808 
 N                     6.41075  -0.79566  -1.20871 
 C                     5.47303  -2.57305  -0.97561 
 C                     5.95018  -4.32528  -0.60853 
 C                     5.63706  -6.26718   0.31959 
 O                     5.46786  -7.52153   0.56754 
 N                     4.54322  -5.78871   0.81192 
 C                     5.03442  -4.72143   1.27551 
 C                     4.42672  -3.46256   1.06198 
 C                     5.44902  -2.39452   1.28019 
 C                     5.09074  -1.07117   0.98802 
 C                     5.34668   0.14588   0.62059 
 H                     1.41732   0.2628   -0.2778 
 H                     0.9856   -1.08115   0.01973 
 H                     2.7168    1.50231  -0.43473 
 H                     4.28789   3.92511   0.88186 
 H                     6.12714   5.4354   -0.0306 
 H                     7.53538   3.97179  -1.55325 
 H                     6.89485  -5.46524  -0.05636 
 H                     6.15285  -4.4228    1.3577 
 H                     3.4826   -3.59301   0.43675 
 H                     6.51415  -2.28392   0.82653 
 H                     4.22082  -1.58034   0.8814 
 H                     6.39174   0.23677   0.51992 
 
 Add virtual bond connecting atoms H23        and C3         Dist= 2.48D+00.
 Add virtual bond connecting atoms H21        and C1         Dist= 2.70D+00.
 Add virtual bond connecting atoms H21        and H22        Dist= 2.73D+00.
 Add virtual bond connecting atoms H27        and C13        Dist= 2.91D+00.
 Add virtual bond connecting atoms H27        and C12        Dist= 2.99D+00.
 Add virtual bond connecting atoms N10        and C9         Dist= 3.37D+00.
 Add virtual bond connecting atoms C3         and C1         Dist= 3.64D+00.
 Add virtual bond connecting atoms C3         and C2         Dist= 3.53D+00.
 Add virtual bond connecting atoms H23        and H21        Dist= 3.41D+00.
 Add virtual bond connecting atoms H31        and C2         Dist= 3.43D+00.
 Add virtual bond connecting atoms C12        and C11        Dist= 3.50D+00.
 Add virtual bond connecting atoms C5         and C9         Dist= 3.57D+00.
 Add virtual bond connecting atoms C11        and N10        Dist= 3.82D+00.
 Add virtual bond connecting atoms H32        and C9         Dist= 3.54D+00.
 Add virtual bond connecting atoms H32        and N10        Dist= 3.81D+00.

 GradGradGradGradGradGradGradGradGradGradGradGradGradGradGradGradGradGrad
 Berny optimization.
 Initialization pass.
                           ----------------------------
                           !    Initial Parameters    !
                           ! (Angstroms and Degrees)  !
 --------------------------                            --------------------------
 ! Name  Definition              Value          Derivative Info.                !
 --------------------------------------------------------------------------------
 ! R1    R(1,2)                  1.6908         estimate D2E/DX2                !
 ! R2    R(1,3)                  1.9286         estimate D2E/DX2                !
 ! R3    R(1,21)                 1.4267         estimate D2E/DX2                !
 ! R4    R(1,22)                 1.2557         estimate D2E/DX2                !
 ! R5    R(2,3)                  1.8705         estimate D2E/DX2                !
 ! R6    R(2,31)                 1.8161         estimate D2E/DX2                !
 ! R7    R(3,4)                  1.2902         estimate D2E/DX2                !
 ! R8    R(3,23)                 1.3124         estimate D2E/DX2                !
 ! R9    R(4,5)                  1.3405         estimate D2E/DX2                !
 ! R10   R(4,20)                 1.3826         estimate D2E/DX2                !
 ! R11   R(5,6)                  1.4014         estimate D2E/DX2                !
 ! R12   R(5,9)                  1.8914         estimate D2E/DX2                !
 ! R13   R(6,7)                  1.403          estimate D2E/DX2                !
 ! R14   R(6,24)                 1.125          estimate D2E/DX2                !
 ! R15   R(7,8)                  1.5839         estimate D2E/DX2                !
 ! R16   R(7,25)                 1.2977         estimate D2E/DX2                !
 ! R17   R(8,26)                 1.2798         estimate D2E/DX2                !
 ! R18   R(9,10)                 1.7813         estimate D2E/DX2                !
 ! R19   R(9,32)                 1.874          estimate D2E/DX2                !
 ! R20   R(10,11)                2.0231         estimate D2E/DX2                !
 ! R21   R(10,32)                2.0136         estimate D2E/DX2                !
 ! R22   R(11,12)                1.8528         estimate D2E/DX2                !
 ! R23   R(12,27)                1.5801         estimate D2E/DX2                !
 ! R24   R(13,14)                1.2898         estimate D2E/DX2                !
 ! R25   R(13,15)                1.2914         estimate D2E/DX2                !
 ! R26   R(13,27)                1.5383         estimate D2E/DX2                !
 ! R27   R(15,16)                1.263          estimate D2E/DX2                !
 ! R28   R(16,17)                1.4141         estimate D2E/DX2                !
 ! R29   R(16,28)                1.1605         estimate D2E/DX2                !
 ! R30   R(17,18)                1.4945         estimate D2E/DX2                !
 ! R31   R(17,29)                1.1399         estimate D2E/DX2                !
 ! R32   R(18,19)                1.4018         estimate D2E/DX2                !
 ! R33   R(18,30)                1.163          estimate D2E/DX2                !
 ! R34   R(19,20)                1.2968         estimate D2E/DX2                !
 ! R35   R(19,31)                1.0136         estimate D2E/DX2                !
 ! R36   R(20,32)                1.0538         estimate D2E/DX2                !
 ! R37   R(21,22)                1.4426         estimate D2E/DX2                !
 ! R38   R(21,23)                1.8027         estimate D2E/DX2                !
 ! A1    A(2,1,21)             136.4292         estimate D2E/DX2                !
 ! A2    A(2,1,22)             158.8464         estimate D2E/DX2                !
 ! A3    A(3,1,21)              75.6434         estimate D2E/DX2                !
 ! A4    A(3,1,22)             138.1268         estimate D2E/DX2                !
 ! A5    A(1,2,31)              91.048          estimate D2E/DX2                !
 ! A6    A(3,2,31)              88.6513         estimate D2E/DX2                !
 ! A7    A(1,3,4)              148.4422         estimate D2E/DX2                !
 ! A8    A(1,3,23)              99.8927         estimate D2E/DX2                !
 ! A9    A(2,3,4)              114.6848         estimate D2E/DX2                !
 ! A10   A(2,3,23)             151.0536         estimate D2E/DX2                !
 ! A11   A(4,3,23)              93.7269         estimate D2E/DX2                !
 ! A12   A(3,4,5)              133.7932         estimate D2E/DX2                !
 ! A13   A(3,4,20)             111.2355         estimate D2E/DX2                !
 ! A14   A(5,4,20)             110.3814         estimate D2E/DX2                !
 ! A15   A(4,5,6)              130.1115         estimate D2E/DX2                !
 ! A16   A(4,5,9)               84.049          estimate D2E/DX2                !
 ! A17   A(6,5,9)              144.067          estimate D2E/DX2                !
 ! A18   A(5,6,7)              104.9824         estimate D2E/DX2                !
 ! A19   A(5,6,24)             132.2555         estimate D2E/DX2                !
 ! A20   A(7,6,24)             122.5538         estimate D2E/DX2                !
 ! A21   A(6,7,8)               99.2866         estimate D2E/DX2                !
 ! A22   A(6,7,25)             113.7521         estimate D2E/DX2                !
 ! A23   A(8,7,25)             146.8808         estimate D2E/DX2                !
 ! A24   A(7,8,26)              81.0335         estimate D2E/DX2                !
 ! A25   A(5,9,10)             129.7811         estimate D2E/DX2                !
 ! A26   A(5,9,32)              80.3574         estimate D2E/DX2                !
 ! A27   A(9,10,11)            150.1948         estimate D2E/DX2                !
 ! A28   A(11,10,32)           110.315          estimate D2E/DX2                !
 ! A29   A(10,11,12)           137.2524         estimate D2E/DX2                !
 ! A30   A(11,12,27)           154.8893         estimate D2E/DX2                !
 ! A31   A(14,13,15)           100.1321         estimate D2E/DX2                !
 ! A32   A(14,13,27)           131.3939         estimate D2E/DX2                !
 ! A33   A(15,13,27)           126.3385         estimate D2E/DX2                !
 ! A34   A(13,15,16)            97.0998         estimate D2E/DX2                !
 ! A35   A(15,16,17)           121.9852         estimate D2E/DX2                !
 ! A36   A(15,16,28)           128.1869         estimate D2E/DX2                !
 ! A37   A(17,16,28)           101.29           estimate D2E/DX2                !
 ! A38   A(16,17,18)           108.6749         estimate D2E/DX2                !
 ! A39   A(16,17,29)           109.6877         estimate D2E/DX2                !
 ! A40   A(18,17,29)           136.7579         estimate D2E/DX2                !
 ! A41   A(17,18,19)           117.9959         estimate D2E/DX2                !
 ! A42   A(17,18,30)           129.6061         estimate D2E/DX2                !
 ! A43   A(19,18,30)            93.612          estimate D2E/DX2                !
 ! A44   A(18,19,20)           153.4567         estimate D2E/DX2                !
 ! A45   A(18,19,31)            76.5292         estimate D2E/DX2                !
 ! A46   A(20,19,31)           127.6635         estimate D2E/DX2                !
 ! A47   A(4,20,19)            128.396          estimate D2E/DX2                !
 ! A48   A(4,20,32)            119.8719         estimate D2E/DX2                !
 ! A49   A(19,20,32)           107.6817         estimate D2E/DX2                !
 ! A50   A(1,21,23)            101.5123         estimate D2E/DX2                !
 ! A51   A(22,21,23)           150.9566         estimate D2E/DX2                !
 ! A52   A(3,23,21)             82.9393         estimate D2E/DX2                !
 ! A53   A(12,27,13)            88.434          estimate D2E/DX2                !
 ! A54   A(2,31,19)            106.0597         estimate D2E/DX2                !
 ! A55   A(9,32,20)             96.4228         estimate D2E/DX2                !
 ! A56   A(10,32,20)            92.7025         estimate D2E/DX2                !
 ! D1    D(21,1,2,31)          101.8162         estimate D2E/DX2                !
 ! D2    D(22,1,2,31)          -74.9881         estimate D2E/DX2                !
 ! D3    D(21,1,3,4)           113.241          estimate D2E/DX2                !
 ! D4    D(21,1,3,23)           -0.9649         estimate D2E/DX2                !
 ! D5    D(22,1,3,4)            94.4002         estimate D2E/DX2                !
 ! D6    D(22,1,3,23)          -19.8057         estimate D2E/DX2                !
 ! D7    D(2,1,21,23)          -11.8125         estimate D2E/DX2                !
 ! D8    D(3,1,21,23)            0.7062         estimate D2E/DX2                !
 ! D9    D(31,2,3,4)            54.1634         estimate D2E/DX2                !
 ! D10   D(31,2,3,23)         -114.0264         estimate D2E/DX2                !
 ! D11   D(1,2,31,19)         -131.2949         estimate D2E/DX2                !
 ! D12   D(3,2,31,19)          -65.9841         estimate D2E/DX2                !
 ! D13   D(1,3,4,5)           -171.1343         estimate D2E/DX2                !
 ! D14   D(1,3,4,20)            35.971          estimate D2E/DX2                !
 ! D15   D(2,3,4,5)            130.3493         estimate D2E/DX2                !
 ! D16   D(2,3,4,20)           -22.5453         estimate D2E/DX2                !
 ! D17   D(23,3,4,5)           -55.3478         estimate D2E/DX2                !
 ! D18   D(23,3,4,20)          151.7576         estimate D2E/DX2                !
 ! D19   D(1,3,23,21)            0.7454         estimate D2E/DX2                !
 ! D20   D(2,3,23,21)           18.583          estimate D2E/DX2                !
 ! D21   D(4,3,23,21)         -150.6765         estimate D2E/DX2                !
 ! D22   D(3,4,5,6)             94.3343         estimate D2E/DX2                !
 ! D23   D(3,4,5,9)            -98.0728         estimate D2E/DX2                !
 ! D24   D(20,4,5,6)          -112.6055         estimate D2E/DX2                !
 ! D25   D(20,4,5,9)            54.9874         estimate D2E/DX2                !
 ! D26   D(3,4,20,19)          -15.622          estimate D2E/DX2                !
 ! D27   D(3,4,20,32)          138.8126         estimate D2E/DX2                !
 ! D28   D(5,4,20,19)         -175.0823         estimate D2E/DX2                !
 ! D29   D(5,4,20,32)          -20.6476         estimate D2E/DX2                !
 ! D30   D(4,5,6,7)            169.2102         estimate D2E/DX2                !
 ! D31   D(4,5,6,24)            -5.487          estimate D2E/DX2                !
 ! D32   D(9,5,6,7)             10.5656         estimate D2E/DX2                !
 ! D33   D(9,5,6,24)          -164.1316         estimate D2E/DX2                !
 ! D34   D(4,5,9,10)            -6.962          estimate D2E/DX2                !
 ! D35   D(4,5,9,32)           -55.5455         estimate D2E/DX2                !
 ! D36   D(6,5,9,10)           156.7772         estimate D2E/DX2                !
 ! D37   D(6,5,9,32)           108.1937         estimate D2E/DX2                !
 ! D38   D(5,6,7,8)             -2.7925         estimate D2E/DX2                !
 ! D39   D(5,6,7,25)           174.8467         estimate D2E/DX2                !
 ! D40   D(24,6,7,8)           172.5526         estimate D2E/DX2                !
 ! D41   D(24,6,7,25)           -9.8082         estimate D2E/DX2                !
 ! D42   D(6,7,8,26)           165.8882         estimate D2E/DX2                !
 ! D43   D(25,7,8,26)          -10.155          estimate D2E/DX2                !
 ! D44   D(5,9,10,11)           22.5337         estimate D2E/DX2                !
 ! D45   D(5,9,32,20)           52.4426         estimate D2E/DX2                !
 ! D46   D(9,10,11,12)        -157.9169         estimate D2E/DX2                !
 ! D47   D(32,10,11,12)        -95.6171         estimate D2E/DX2                !
 ! D48   D(11,10,32,20)        -53.0721         estimate D2E/DX2                !
 ! D49   D(10,11,12,27)         21.522          estimate D2E/DX2                !
 ! D50   D(11,12,27,13)        146.9607         estimate D2E/DX2                !
 ! D51   D(14,13,15,16)        143.0354         estimate D2E/DX2                !
 ! D52   D(27,13,15,16)        -21.8324         estimate D2E/DX2                !
 ! D53   D(14,13,27,12)        160.8594         estimate D2E/DX2                !
 ! D54   D(15,13,27,12)        -39.1731         estimate D2E/DX2                !
 ! D55   D(13,15,16,17)        132.699          estimate D2E/DX2                !
 ! D56   D(13,15,16,28)         -9.0096         estimate D2E/DX2                !
 ! D57   D(15,16,17,18)       -159.7597         estimate D2E/DX2                !
 ! D58   D(15,16,17,29)         -0.1027         estimate D2E/DX2                !
 ! D59   D(28,16,17,18)         -9.5392         estimate D2E/DX2                !
 ! D60   D(28,16,17,29)        150.1179         estimate D2E/DX2                !
 ! D61   D(16,17,18,19)        173.6954         estimate D2E/DX2                !
 ! D62   D(16,17,18,30)         51.5212         estimate D2E/DX2                !
 ! D63   D(29,17,18,19)         22.2357         estimate D2E/DX2                !
 ! D64   D(29,17,18,30)        -99.9385         estimate D2E/DX2                !
 ! D65   D(17,18,19,20)       -150.7924         estimate D2E/DX2                !
 ! D66   D(17,18,19,31)          7.0994         estimate D2E/DX2                !
 ! D67   D(30,18,19,20)        -11.593          estimate D2E/DX2                !
 ! D68   D(30,18,19,31)        146.2989         estimate D2E/DX2                !
 ! D69   D(18,19,20,4)         151.4347         estimate D2E/DX2                !
 ! D70   D(18,19,20,32)         -5.4389         estimate D2E/DX2                !
 ! D71   D(31,19,20,4)          -1.0264         estimate D2E/DX2                !
 ! D72   D(31,19,20,32)       -157.9            estimate D2E/DX2                !
 ! D73   D(18,19,31,2)        -117.8507         estimate D2E/DX2                !
 ! D74   D(20,19,31,2)          49.8829         estimate D2E/DX2                !
 ! D75   D(4,20,32,9)          -29.9951         estimate D2E/DX2                !
 ! D76   D(4,20,32,10)         -84.4633         estimate D2E/DX2                !
 ! D77   D(19,20,32,9)         129.2124         estimate D2E/DX2                !
 ! D78   D(19,20,32,10)         74.7442         estimate D2E/DX2                !
 ! D79   D(1,21,23,3)           -1.0131         estimate D2E/DX2                !
 ! D80   D(22,21,23,3)          20.522          estimate D2E/DX2                !
 --------------------------------------------------------------------------------
 Trust Radius=3.00D-01 FncErr=1.00D-07 GrdErr=1.00D-06 EigMax=2.50D+02 EigMin=1.00D-04
 Number of steps in this run=    184 maximum allowed number of steps=    192.
 GradGradGradGradGradGradGradGradGradGradGradGradGradGradGradGradGradGrad

                          Input orientation:                          
 ---------------------------------------------------------------------
 Center     Atomic      Atomic             Coordinates (Angstroms)
 Number     Number       Type             X           Y           Z
 ---------------------------------------------------------------------
      1          6           0        2.162740   -0.947860   -0.396780
      2          6           0        3.731440   -1.380530   -0.856060
      3          6           0        3.489170    0.445660   -0.531790
      4          6           0        4.512520    1.042600   -0.020920
      5          6           0        5.179300    2.164960   -0.325200
      6          6           0        5.032450    3.465970    0.174410
      7          6           0        6.146800    4.168050   -0.308960
      8          6           0        6.890350    2.985060   -1.054940
      9          6           0        6.372550    0.985210   -1.198080
     10          7           0        6.410750   -0.795660   -1.208710
     11          6           0        5.473030   -2.573050   -0.975610
     12          6           0        5.950180   -4.325280   -0.608530
     13          6           0        5.637060   -6.267180    0.319590
     14          8           0        5.467860   -7.521530    0.567540
     15          7           0        4.543220   -5.788710    0.811920
     16          6           0        5.034420   -4.721430    1.275510
     17          6           0        4.426720   -3.462560    1.061980
     18          6           0        5.449020   -2.394520    1.280190
     19          6           0        5.090740   -1.071170    0.988020
     20          6           0        5.346680    0.145880    0.620590
     21          1           0        1.417320    0.262800   -0.277800
     22          1           0        0.985600   -1.081150    0.019730
     23          1           0        2.716800    1.502310   -0.434730
     24          1           0        4.287890    3.925110    0.881860
     25          1           0        6.127140    5.435400   -0.030600
     26          1           0        7.535380    3.971790   -1.553250
     27          1           0        6.894850   -5.465240   -0.056360
     28          1           0        6.152850   -4.422800    1.357700
     29          1           0        3.482600   -3.593010    0.436750
     30          1           0        6.514150   -2.283920    0.826530
     31          1           0        4.220820   -1.580340    0.881400
     32          1           0        6.391740    0.236770    0.519920
 ---------------------------------------------------------------------
                    Distance matrix (angstroms):
                    1          2          3          4          5
     1  C    0.000000
     2  C    1.690846   0.000000
     3  C    1.928611   1.870512   0.000000
     4  C    3.102365   2.679385   1.290182   0.000000
     5  C    4.335252   3.866343   2.419754   1.340475   0.000000
     6  C    5.295601   5.122798   3.464492   2.486203   1.401357
     7  C    6.484827   6.076185   4.579174   3.538683   2.224565
     8  C    6.184766   5.392276   4.276712   3.239818   2.032923
     9  C    4.701206   3.562185   3.008145   2.201979   1.891448
    10  N    4.327584   2.764984   3.245724   2.897123   3.326008
    11  C    3.732868   2.114127   3.639407   3.860950   4.791456
    12  C    5.079026   3.695353   5.368829   5.588049   6.541999
    13  C    6.393688   5.375211   7.099331   7.403609   8.469137
    14  O    7.420705   6.538629   8.282503   8.637319   9.731821
    15  N    5.528243   4.782593   6.464050   6.881959   8.059684
    16  C    5.028213   4.171686   5.687965   5.931033   7.071466
    17  C    3.684739   2.914986   4.323573   4.634275   5.844624
    18  C    3.962914   2.922639   3.897551   3.792587   4.841372
    19  C    3.241305   2.311716   2.678735   2.412534   3.493555
    20  C    3.516928   2.668225   2.206398   1.382557   2.235893
    21  H    1.426711   2.896562   2.095355   3.202240   4.215798
    22  H    1.255749   2.897632   2.983821   4.117175   5.314445
    23  H    2.512321   3.085090   1.312435   1.899258   2.552451
    24  H    5.467817   5.610688   3.839653   3.028916   2.312949
    25  H    7.523069   7.271703   5.666355   4.680148   3.417743
    26  H    7.376018   6.603284   5.463404   4.479495   3.213076
    27  H    6.550990   5.227957   6.838379   6.930277   7.825301
    28  H    5.574440   4.474301   5.862360   5.870424   6.868663
    29  H    3.071420   2.574558   4.153188   4.770647   6.050915
    30  H    4.713418   3.375011   4.294897   3.973717   4.785482
    31  H    2.503891   1.816090   2.576256   2.789101   4.049918
    32  H    4.486438   3.403847   3.094292   2.115027   2.429435
                    6          7          8          9         10
     6  C    0.000000
     7  C    1.402975   0.000000
     8  C    2.279116   1.583925   0.000000
     9  C    3.135884   3.312396   2.070750   0.000000
    10  N    4.687667   5.051498   3.814119   1.781311   0.000000
    11  C    6.163312   6.807409   5.736521   3.676934   2.023059
    12  C    7.884085   8.500886   7.384055   5.359783   3.609786
    13  C    9.752991  10.466563   9.437373   7.445900   5.733396
    14  O   11.003149  11.742040  10.725873   8.735016   7.020074
    15  N    9.289503  10.147163   9.272175   7.298804   5.700979
    16  C    8.261110   9.097845   8.262292   6.361995   4.845338
    17  C    7.011363   7.941307   7.219600   5.355071   4.025514
    18  C    5.978430   6.788197   6.039052   4.291539   3.110611
    19  C    4.609881   5.499713   4.885211   3.263552   2.577587
    20  C    3.364642   4.205010   3.640228   2.250432   2.316264
    21  H    4.851181   6.133509   6.161875   5.091473   5.188571
    22  H    6.089107   7.368862   7.249486   5.896790   5.569813
    23  H    3.096651   4.345905   4.472329   3.770226   4.418708
    24  H    1.125018   2.220950   3.377527   4.161126   5.582355
    25  H    2.262527   1.297708   2.763318   4.607323   6.347794
    26  H    3.083070   1.874815   1.279849   3.224590   4.910405
    27  H    9.126242   9.665592   8.509098   6.571501   4.833967
    28  H    8.055319   8.751028   7.825671   5.985554   4.450743
    29  H    7.231878   8.239423   7.557043   5.655491   4.371129
    30  H    5.973435   6.561418   5.607460   3.847896   2.523452
    31  H    5.159828   6.178215   5.631934   3.941602   3.127311
    32  H    3.520622   4.025171   3.206539   1.874048   2.013563
                   11         12         13         14         15
    11  C    0.000000
    12  C    1.852763   0.000000
    13  C    3.918041   2.174954   0.000000
    14  O    5.183512   3.439737   1.289768   0.000000
    15  N    3.794770   2.477669   1.291437   1.979229   0.000000
    16  C    3.142524   2.131938   1.914759   2.920557   1.263044
    17  C    2.457187   2.419880   3.143558   4.219441   2.342451
    18  C    2.262981   2.747045   3.994447   5.176336   3.544048
    19  C    2.501526   3.725163   5.267237   6.475042   4.752470
    20  C    3.155376   4.676133   6.426683   7.668551   5.991787
    21  H    4.997776   6.458071   7.797674   8.815740   6.897790
    22  H    4.832545   5.963736   6.972869   7.865701   5.953599
    23  H    4.949537   6.666765   8.334380   9.486968   7.618984
    24  H    6.861548   8.547128  10.296562  11.511590   9.717427
    25  H    8.090499   9.779376  11.718071  12.987473  11.366586
    26  H    6.886355   8.499807  10.580532  11.868816  10.479237
    27  H    3.351321   1.580127   1.538337   2.579512   2.527589
    28  H    3.054188   1.979052   2.178405   3.270427   2.180480
    29  H    2.645164   2.778089   3.436075   4.403593   2.467137
    30  H    2.101246   2.558244   4.110065   5.347369   4.020986
    31  H    2.449896   3.570052   4.928269   6.078763   4.221273
    32  H    3.312963   4.720241   6.550652   7.813261   6.309414
                   16         17         18         19         20
    16  C    0.000000
    17  C    1.414089   0.000000
    18  C    2.363562   1.494464   0.000000
    19  C    3.661997   2.482970   1.401779   0.000000
    20  C    4.921091   3.749932   2.626629   1.296812   0.000000
    21  H    6.351278   4.972907   5.073784   4.108015   4.032449
    22  H    5.587626   4.312622   4.820355   4.217803   4.570083
    23  H    6.857931   5.460211   5.058781   3.779234   3.141635
    24  H    8.687630   7.391169   6.437749   5.061487   3.933431
    25  H   10.298600   9.124629   7.967789   6.666871   5.386296
    26  H    9.477803   8.471880   7.274007   6.153516   4.914629
    27  H    2.405895   3.369433   3.647754   4.863475   5.860014
    28  H    1.160526   1.997257   2.148326   3.535274   4.697454
    29  H    2.094038   1.139865   2.452463   3.041330   4.181852
    30  H    2.886631   2.408733   1.162988   1.876949   2.703576
    31  H    3.268595   1.902040   1.526564   1.013599   2.077358
    32  H    5.195862   4.223763   2.896622   1.903267   1.053824
                   21         22         23         24         25
    21  H    0.000000
    22  H    1.442605   0.000000
    23  H    1.802681   3.142905   0.000000
    24  H    4.795571   6.058962   3.173593   0.000000
    25  H    6.999950   8.300807   5.221392   2.548804   0.000000
    26  H    7.267327   8.420575   5.528845   4.059326   2.538456
    27  H    7.928607   7.358347   8.133020   9.790565  10.927671
    28  H    6.859661   6.297401   7.079984   8.566919   9.955508
    29  H    4.432069   3.566280   5.225726   7.574216   9.419352
    30  H    5.803706   5.715107   5.508737   6.596313   7.776397
    31  H    3.549721   3.385013   3.673827   5.505859   7.327101
    32  H    5.038044   5.586900   4.002266   4.261577   5.234390
                   26         27         28         29         30
    26  H    0.000000
    27  H    9.576455   0.000000
    28  H    8.991894   1.907042   0.000000
    29  H    8.809729   3.923245   2.943966   0.000000
    30  H    6.770537   3.323436   2.233268   3.325047   0.000000
    31  H    6.909412   4.808563   3.469752   2.189412   2.399458
    32  H    4.422253   5.753098   4.740310   4.810117   2.542218
                   31         32
    31  H    0.000000
    32  H    2.854024   0.000000
 Stoichiometry    C17H12N2O
 Framework group  C1[X(C17H12N2O)]
 Deg. of freedom    90
 Full point group                 C1      NOp   1
 Largest Abelian subgroup         C1      NOp   1
 Largest concise Abelian subgroup C1      NOp   1
                         Standard orientation:                         
 ---------------------------------------------------------------------
 Center     Atomic      Atomic             Coordinates (Angstroms)
 Number     Number       Type             X           Y           Z
 ---------------------------------------------------------------------
      1          6           0        0.319487    2.865403   -0.761120
      2          6           0       -0.005939    1.230439   -1.043878
      3          6           0        1.762798    1.601820   -0.561736
      4          6           0        2.331973    0.685687    0.146297
      5          6           0        3.503143    0.039446    0.059069
      6          6           0        4.733725    0.314292    0.670568
      7          6           0        5.522711   -0.819188    0.423461
      8          6           0        4.457074   -1.711802   -0.335799
      9          6           0        2.470065   -1.315070   -0.762886
     10          7           0        0.704078   -1.440494   -0.959431
     11          6           0       -1.118550   -0.567224   -1.049965
     12          6           0       -2.884144   -1.075505   -0.811100
     13          6           0       -4.927854   -0.735979   -0.148984
     14          8           0       -6.207132   -0.596189   -0.062904
     15          7           0       -4.544845    0.435529    0.236608
     16          6           0       -3.521012    0.062651    0.875363
     17          6           0       -2.267049    0.696728    0.716710
     18          6           0       -1.197015   -0.234524    1.187050
     19          6           0        0.138186    0.145300    0.992229
     20          6           0        1.396820   -0.098066    0.796438
     21          1           0        1.483402    3.677742   -0.616510
     22          1           0        0.100789    4.079669   -0.527378
     23          1           0        2.775355    2.430465   -0.458966
     24          1           0        5.084876    1.167743    1.313980
     25          1           0        6.749115   -0.701331    0.831002
     26          1           0        5.514763   -2.368905   -0.631642
     27          1           0       -4.047060   -1.992320   -0.259846
     28          1           0       -3.196448   -1.019108    1.142341
     29          1           0       -2.357417    1.541784   -0.042898
     30          1           0       -1.000387   -1.343953    0.898872
     31          1           0       -0.384401    0.967612    0.712787
     32          1           0        1.533311   -1.141591    0.850946
 ---------------------------------------------------------------------
 Rotational constants (GHZ):           1.0616257           0.1657358           0.1551315
 Standard basis: 6-31G(2df,p) (6D, 7F)
 There are   680 symmetry adapted cartesian basis functions of A   symmetry.
 There are   620 symmetry adapted basis functions of A   symmetry.
   620 basis functions,   964 primitive gaussians,   680 cartesian basis functions
    68 alpha electrons       68 beta electrons
       nuclear repulsion energy      1342.4001178283 Hartrees.
 NAtoms=   32 NActive=   32 NUniq=   32 SFac= 1.00D+00 NAtFMM=   60 NAOKFM=F Big=F
 Integral buffers will be    131072 words long.
 Raffenetti 2 integral format.
 Two-electron integral symmetry is turned on.
 One-electron integrals computed using PRISM.
 PrsmSu:  requested number of processors reduced to:  12 ShMem   1 Linda.
 NBasis=   620 RedAO= T EigKep=  1.59D-04  NBF=   620
 NBsUse=   620 1.00D-06 EigRej= -1.00D+00 NBFU=   620
 ExpMin= 1.61D-01 ExpMax= 5.48D+03 ExpMxC= 8.25D+02 IAcc=3 IRadAn=         5 AccDes= 0.00D+00
 Harris functional with IExCor=  402 and IRadAn=       5 diagonalized for initial guess.
 HarFok:  IExCor=  402 AccDes= 0.00D+00 IRadAn=         5 IDoV= 1 UseB2=F ITyADJ=14
 ICtDFT=  3500011 ScaDFX=  1.000000  1.000000  1.000000  1.000000
 FoFCou: FMM=F IPFlag=           0 FMFlag=      100000 FMFlg1=           0
         NFxFlg=           0 DoJE=T BraDBF=F KetDBF=T FulRan=T
         wScrn=  0.000000 ICntrl=       500 IOpCl=  0 I1Cent=   200000004 NGrid=           0
         NMat0=    1 NMatS0=      1 NMatT0=    0 NMatD0=    1 NMtDS0=    0 NMtDT0=    0
 Petite list used in FoFCou.
 Requested convergence on RMS density matrix=1.00D-08 within 128 cycles.
 Requested convergence on MAX density matrix=1.00D-06.
 Requested convergence on             energy=1.00D-06.
 No special actions if energy rises.
 Integral accuracy reduced to 1.0D-05 until final iterations.
 EnCoef did     6 forward-backward iterations
 EnCoef did   100 forward-backward iterations
 Problem detected with inexpensive integrals.
 Switching to full accuracy and repeating last cycle.
 EnCoef did     6 forward-backward iterations
 EnCoef did   100 forward-backward iterations
 EnCoef did   100 forward-backward iterations
 EnCoef did     3 forward-backward iterations
 EnCoef did     7 forward-backward iterations
 EnCoef did     7 forward-backward iterations
 EnCoef did    11 forward-backward iterations
 EnCoef did     7 forward-backward iterations
 EnCoef did     2 forward-backward iterations
 EnCoef did     3 forward-backward iterations
 EnCoef did     4 forward-backward iterations
 Restarting incremental Fock formation.
 SCF Done:  E(RB3LYP) =  -837.701256456     A.U. after   42 cycles
            NFock= 42  Conv=0.93D-08     -V/T= 2.0074

 **********************************************************************

            Population analysis using the SCF density.

 **********************************************************************

 Orbital symmetries:
       Occupied  (A) (A) (A) (A) (A) (A) (A) (A) (A) (A) (A) (A)
                 (A) (A) (A) (A) (A) (A) (A) (A) (A) (A) (A) (A)
                 (A) (A) (A) (A) (A) (A) (A) (A) (A) (A) (A) (A)
                 (A) (A) (A) (A) (A) (A) (A) (A) (A) (A) (A) (A)
                 (A) (A) (A) (A) (A) (A) (A) (A) (A) (A) (A) (A)
                 (A) (A) (A) (A) (A) (A) (A) (A)
       Virtual   (A) (A) (A) (A) (A) (A) (A) (A) (A) (A) (A) (A)
                 (A) (A) (A) (A) (A) (A) (A) (A) (A) (A) (A) (A)
                 (A) (A) (A) (A) (A) (A) (A) (A) (A) (A) (A) (A)
                 (A) (A) (A) (A) (A) (A) (A) (A) (A) (A) (A) (A)
                 (A) (A) (A) (A) (A) (A) (A) (A) (A) (A) (A) (A)
                 (A) (A) (A) (A) (A) (A) (A) (A) (A) (A) (A) (A)
                 (A) (A) (A) (A) (A) (A) (A) (A) (A) (A) (A) (A)
                 (A) (A) (A) (A) (A) (A) (A) (A) (A) (A) (A) (A)
                 (A) (A) (A) (A) (A) (A) (A) (A) (A) (A) (A) (A)
                 (A) (A) (A) (A) (A) (A) (A) (A) (A) (A) (A) (A)
                 (A) (A) (A) (A) (A) (A) (A) (A) (A) (A) (A) (A)
                 (A) (A) (A) (A) (A) (A) (A) (A) (A) (A) (A) (A)
                 (A) (A) (A) (A) (A) (A) (A) (A) (A) (A) (A) (A)
                 (A) (A) (A) (A) (A) (A) (A) (A) (A) (A) (A) (A)
                 (A) (A) (A) (A) (A) (A) (A) (A) (A) (A) (A) (A)
                 (A) (A) (A) (A) (A) (A) (A) (A) (A) (A) (A) (A)
                 (A) (A) (A) (A) (A) (A) (A) (A) (A) (A) (A) (A)
                 (A) (A) (A) (A) (A) (A) (A) (A) (A) (A) (A) (A)
                 (A) (A) (A) (A) (A) (A) (A) (A) (A) (A) (A) (A)
                 (A) (A) (A) (A) (A) (A) (A) (A) (A) (A) (A) (A)
                 (A) (A) (A) (A) (A) (A) (A) (A) (A) (A) (A) (A)
                 (A) (A) (A) (A) (A) (A) (A) (A) (A) (A) (A) (A)
                 (A) (A) (A) (A) (A) (A) (A) (A) (A) (A) (A) (A)
                 (A) (A) (A) (A) (A) (A) (A) (A) (A) (A) (A) (A)
                 (A) (A) (A) (A) (A) (A) (A) (A) (A) (A) (A) (A)
                 (A) (A) (A) (A) (A) (A) (A) (A) (A) (A) (A) (A)
                 (A) (A) (A) (A) (A) (A) (A) (A) (A) (A) (A) (A)
                 (A) (A) (A) (A) (A) (A) (A) (A) (A) (A) (A) (A)
                 (A) (A) (A) (A) (A) (A) (A) (A) (A) (A) (A) (A)
                 (A) (A) (A) (A) (A) (A) (A) (A) (A) (A) (A) (A)
                 (A) (A) (A) (A) (A) (A) (A) (A) (A) (A) (A) (A)
                 (A) (A) (A) (A) (A) (A) (A) (A) (A) (A) (A) (A)
                 (A) (A) (A) (A) (A) (A) (A) (A) (A) (A) (A) (A)
                 (A) (A) (A) (A) (A) (A) (A) (A) (A) (A) (A) (A)
                 (A) (A) (A) (A) (A) (A) (A) (A) (A) (A) (A) (A)
                 (A) (A) (A) (A) (A) (A) (A) (A) (A) (A) (A) (A)
                 (A) (A) (A) (A) (A) (A) (A) (A) (A) (A) (A) (A)
                 (A) (A) (A) (A) (A) (A) (A) (A) (A) (A) (A) (A)
                 (A) (A) (A) (A) (A) (A) (A) (A) (A) (A) (A) (A)
                 (A) (A) (A) (A) (A) (A) (A) (A) (A) (A) (A) (A)
                 (A) (A) (A) (A) (A) (A) (A) (A) (A) (A) (A) (A)
                 (A) (A) (A) (A) (A) (A) (A) (A) (A) (A) (A) (A)
                 (A) (A) (A) (A) (A) (A) (A) (A) (A) (A) (A) (A)
                 (A) (A) (A) (A) (A) (A) (A) (A) (A) (A) (A) (A)
                 (A) (A) (A) (A) (A) (A) (A) (A) (A) (A) (A) (A)
                 (A) (A) (A) (A) (A) (A) (A) (A) (A) (A) (A) (A)
 The electronic state is 1-A.
 Alpha  occ. eigenvalues --  -19.15028 -14.38190 -14.36262 -10.34080 -10.32033
 Alpha  occ. eigenvalues --  -10.31974 -10.31412 -10.28829 -10.28774 -10.27422
 Alpha  occ. eigenvalues --  -10.27094 -10.26307 -10.26159 -10.25934 -10.24753
 Alpha  occ. eigenvalues --  -10.24665 -10.23915 -10.21607 -10.21012 -10.19627
 Alpha  occ. eigenvalues --   -1.07689  -0.97125  -0.93167  -0.88531  -0.84497
 Alpha  occ. eigenvalues --   -0.79692  -0.77210  -0.74308  -0.72122  -0.68474
 Alpha  occ. eigenvalues --   -0.67163  -0.66212  -0.62651  -0.61341  -0.59700
 Alpha  occ. eigenvalues --   -0.58382  -0.56978  -0.55642  -0.53250  -0.51736
 Alpha  occ. eigenvalues --   -0.50208  -0.49177  -0.48503  -0.45981  -0.45453
 Alpha  occ. eigenvalues --   -0.44678  -0.43597  -0.41551  -0.40975  -0.39406
 Alpha  occ. eigenvalues --   -0.38841  -0.37227  -0.36137  -0.35493  -0.33499
 Alpha  occ. eigenvalues --   -0.31786  -0.31148  -0.30724  -0.29227  -0.27690
 Alpha  occ. eigenvalues --   -0.27225  -0.25074  -0.24616  -0.23131  -0.22622
 Alpha  occ. eigenvalues --   -0.20983  -0.20780  -0.19433
 Alpha virt. eigenvalues --   -0.15852  -0.14630  -0.14178  -0.12378  -0.11651
 Alpha virt. eigenvalues --   -0.08798  -0.07201  -0.06545  -0.05156  -0.03478
 Alpha virt. eigenvalues --   -0.02509  -0.01230  -0.00974  -0.00351   0.03120
 Alpha virt. eigenvalues --    0.03568   0.03863   0.04328   0.06402   0.07030
 Alpha virt. eigenvalues --    0.09361   0.10970   0.11002   0.11934   0.12800
 Alpha virt. eigenvalues --    0.13709   0.14744   0.15571   0.16605   0.19084
 Alpha virt. eigenvalues --    0.20452   0.21878   0.24701   0.25405   0.26541
 Alpha virt. eigenvalues --    0.27625   0.28578   0.31617   0.34478   0.36122
 Alpha virt. eigenvalues --    0.38617   0.38851   0.39492   0.40258   0.40593
 Alpha virt. eigenvalues --    0.41797   0.42665   0.43066   0.43990   0.44136
 Alpha virt. eigenvalues --    0.45004   0.45443   0.46259   0.47889   0.48713
 Alpha virt. eigenvalues --    0.48921   0.50164   0.51343   0.51530   0.51968
 Alpha virt. eigenvalues --    0.52300   0.53262   0.54006   0.54707   0.54873
 Alpha virt. eigenvalues --    0.55654   0.56759   0.56958   0.57795   0.58499
 Alpha virt. eigenvalues --    0.59149   0.59197   0.60016   0.60612   0.60844
 Alpha virt. eigenvalues --    0.61524   0.61735   0.62396   0.62892   0.63421
 Alpha virt. eigenvalues --    0.63879   0.65182   0.65382   0.65794   0.66363
 Alpha virt. eigenvalues --    0.66893   0.68171   0.68869   0.69529   0.69950
 Alpha virt. eigenvalues --    0.70257   0.70684   0.71017   0.71137   0.72003
 Alpha virt. eigenvalues --    0.72325   0.73093   0.74176   0.75326   0.75498
 Alpha virt. eigenvalues --    0.76032   0.76807   0.77349   0.78184   0.78906
 Alpha virt. eigenvalues --    0.79607   0.79980   0.80851   0.81680   0.82318
 Alpha virt. eigenvalues --    0.83129   0.83920   0.84450   0.85236   0.85803
 Alpha virt. eigenvalues --    0.86787   0.87754   0.88134   0.88869   0.90319
 Alpha virt. eigenvalues --    0.90644   0.91629   0.92690   0.93402   0.94554
 Alpha virt. eigenvalues --    0.95286   0.95529   0.96128   0.97362   0.97830
 Alpha virt. eigenvalues --    0.98469   0.98902   1.00211   1.00512   1.01489
 Alpha virt. eigenvalues --    1.01903   1.03417   1.04093   1.05197   1.06134
 Alpha virt. eigenvalues --    1.06952   1.08078   1.08488   1.10122   1.11393
 Alpha virt. eigenvalues --    1.11822   1.13052   1.13076   1.14075   1.15875
 Alpha virt. eigenvalues --    1.16923   1.18001   1.18528   1.19785   1.20857
 Alpha virt. eigenvalues --    1.21343   1.22939   1.23711   1.23973   1.25505
 Alpha virt. eigenvalues --    1.26374   1.26695   1.27815   1.28581   1.29556
 Alpha virt. eigenvalues --    1.30089   1.31462   1.32999   1.34227   1.35480
 Alpha virt. eigenvalues --    1.37299   1.38236   1.38957   1.39408   1.39920
 Alpha virt. eigenvalues --    1.41575   1.42571   1.43015   1.44380   1.44936
 Alpha virt. eigenvalues --    1.46244   1.46630   1.47896   1.48862   1.49807
 Alpha virt. eigenvalues --    1.49942   1.51788   1.53107   1.54261   1.54806
 Alpha virt. eigenvalues --    1.55208   1.56682   1.57290   1.58095   1.59883
 Alpha virt. eigenvalues --    1.60786   1.62286   1.63216   1.63715   1.65050
 Alpha virt. eigenvalues --    1.66347   1.67906   1.68468   1.68883   1.69770
 Alpha virt. eigenvalues --    1.71878   1.72982   1.73737   1.74004   1.75808
 Alpha virt. eigenvalues --    1.77037   1.78926   1.81512   1.82328   1.82629
 Alpha virt. eigenvalues --    1.84274   1.86497   1.88305   1.90547   1.92192
 Alpha virt. eigenvalues --    1.94864   1.95753   1.97289   1.99231   2.00287
 Alpha virt. eigenvalues --    2.02298   2.03603   2.05197   2.06064   2.07171
 Alpha virt. eigenvalues --    2.08861   2.09521   2.11353   2.12830   2.13671
 Alpha virt. eigenvalues --    2.15798   2.16286   2.18586   2.19502   2.20471
 Alpha virt. eigenvalues --    2.22596   2.23917   2.25479   2.27022   2.28185
 Alpha virt. eigenvalues --    2.30152   2.31338   2.34106   2.35626   2.36651
 Alpha virt. eigenvalues --    2.38807   2.41454   2.42123   2.43954   2.45023
 Alpha virt. eigenvalues --    2.46318   2.47397   2.48930   2.50048   2.51001
 Alpha virt. eigenvalues --    2.53801   2.55380   2.58020   2.58582   2.59898
 Alpha virt. eigenvalues --    2.61500   2.61818   2.62850   2.64824   2.66026
 Alpha virt. eigenvalues --    2.66408   2.67027   2.69564   2.70515   2.72565
 Alpha virt. eigenvalues --    2.72776   2.74129   2.75245   2.75992   2.77177
 Alpha virt. eigenvalues --    2.77743   2.78886   2.79213   2.80648   2.80796
 Alpha virt. eigenvalues --    2.82480   2.83257   2.84583   2.85479   2.86280
 Alpha virt. eigenvalues --    2.88092   2.88315   2.88540   2.89593   2.90333
 Alpha virt. eigenvalues --    2.91460   2.93212   2.93498   2.94426   2.94898
 Alpha virt. eigenvalues --    2.95761   2.96828   2.98271   2.99043   3.00565
 Alpha virt. eigenvalues --    3.02087   3.02568   3.02869   3.03959   3.05085
 Alpha virt. eigenvalues --    3.06396   3.06848   3.07895   3.08244   3.10492
 Alpha virt. eigenvalues --    3.10750   3.11405   3.12492   3.13477   3.14611
 Alpha virt. eigenvalues --    3.15737   3.16928   3.17712   3.17913   3.19595
 Alpha virt. eigenvalues --    3.20594   3.21557   3.21911   3.22728   3.23094
 Alpha virt. eigenvalues --    3.24901   3.25881   3.26740   3.28021   3.28962
 Alpha virt. eigenvalues --    3.30085   3.31045   3.31217   3.33438   3.34309
 Alpha virt. eigenvalues --    3.35469   3.37084   3.37590   3.38720   3.39287
 Alpha virt. eigenvalues --    3.41600   3.42448   3.43662   3.44817   3.46640
 Alpha virt. eigenvalues --    3.47365   3.47818   3.49079   3.50327   3.51998
 Alpha virt. eigenvalues --    3.52420   3.53210   3.54239   3.54789   3.57580
 Alpha virt. eigenvalues --    3.59185   3.60362   3.61465   3.63370   3.64151
 Alpha virt. eigenvalues --    3.65242   3.67067   3.67275   3.67605   3.68438
 Alpha virt. eigenvalues --    3.70018   3.70340   3.71445   3.72485   3.73490
 Alpha virt. eigenvalues --    3.74073   3.76266   3.77357   3.78830   3.79891
 Alpha virt. eigenvalues --    3.81268   3.82208   3.84027   3.85226   3.86266
 Alpha virt. eigenvalues --    3.87221   3.89083   3.90996   3.93812   3.95490
 Alpha virt. eigenvalues --    3.97172   3.99199   3.99550   4.01209   4.02746
 Alpha virt. eigenvalues --    4.04164   4.05476   4.08186   4.09983   4.11460
 Alpha virt. eigenvalues --    4.13027   4.14145   4.15520   4.16791   4.17363
 Alpha virt. eigenvalues --    4.19556   4.20546   4.21175   4.22597   4.23989
 Alpha virt. eigenvalues --    4.24657   4.26543   4.27200   4.27703   4.28939
 Alpha virt. eigenvalues --    4.29478   4.30927   4.32352   4.32709   4.35196
 Alpha virt. eigenvalues --    4.35785   4.37051   4.38257   4.39441   4.39921
 Alpha virt. eigenvalues --    4.40889   4.41547   4.42251   4.43428   4.45642
 Alpha virt. eigenvalues --    4.46416   4.46821   4.47121   4.47997   4.49281
 Alpha virt. eigenvalues --    4.49767   4.51354   4.51974   4.52833   4.53544
 Alpha virt. eigenvalues --    4.54455   4.55673   4.56612   4.57311   4.58781
 Alpha virt. eigenvalues --    4.59831   4.60038   4.61280   4.61814   4.63636
 Alpha virt. eigenvalues --    4.63805   4.64601   4.65731   4.66647   4.68016
 Alpha virt. eigenvalues --    4.68610   4.70717   4.71448   4.72360   4.73864
 Alpha virt. eigenvalues --    4.74632   4.74999   4.76683   4.77608   4.79317
 Alpha virt. eigenvalues --    4.81154   4.81858   4.83428   4.84149   4.85580
 Alpha virt. eigenvalues --    4.86874   4.87468   4.88583   4.89941   4.91513
 Alpha virt. eigenvalues --    4.92914   4.94134   4.95315   4.97675   4.99147
 Alpha virt. eigenvalues --    4.99649   5.01956   5.02833   5.03059   5.04567
 Alpha virt. eigenvalues --    5.06408   5.07505   5.09756   5.11188   5.12849
 Alpha virt. eigenvalues --    5.13575   5.14245   5.16765   5.17062   5.19715
 Alpha virt. eigenvalues --    5.20833   5.22317   5.25282   5.26446   5.28563
 Alpha virt. eigenvalues --    5.29208   5.30442   5.34860   5.38562   5.39017
 Alpha virt. eigenvalues --    5.42964   5.44778   5.46535   5.50574   5.50985
 Alpha virt. eigenvalues --    5.54384   5.57677   5.61820   5.62236   5.65086
 Alpha virt. eigenvalues --    5.68202   5.73065   5.75895   5.77780   5.86049
 Alpha virt. eigenvalues --    5.94763   5.98740   6.16796   6.17745   6.33185
 Alpha virt. eigenvalues --    6.40522   6.55037   6.64600   6.76066   7.69959
 Alpha virt. eigenvalues --    8.90701   9.94055  10.13008  10.35382  10.39568
 Alpha virt. eigenvalues --   10.74895  10.80181  11.05048  11.08359  11.12753
 Alpha virt. eigenvalues --   11.22391  11.31745  11.32827  11.34307  11.42246
 Alpha virt. eigenvalues --   11.95975  12.10550  12.14604  12.43602  13.04092
 Alpha virt. eigenvalues --   13.11303  15.57574
          Condensed to atoms (all electrons):
               1          2          3          4          5          6
     1  C    5.379952   0.321905   0.082222  -0.010650   0.000985  -0.000018
     2  C    0.321905   5.643005   0.213360  -0.015089   0.000967  -0.000090
     3  C    0.082222   0.213360   5.374261   0.402568  -0.024386  -0.000365
     4  C   -0.010650  -0.015089   0.402568   4.751348   0.449240  -0.071836
     5  C    0.000985   0.000967  -0.024386   0.449240   4.918912   0.442214
     6  C   -0.000018  -0.000090  -0.000365  -0.071836   0.442214   5.129341
     7  C   -0.000000   0.000008  -0.000298   0.006101   0.002320   0.375309
     8  C   -0.000002   0.000060   0.000168  -0.010496   0.017121  -0.075879
     9  C    0.000166  -0.002614   0.001691  -0.048259   0.133131   0.002727
    10  N    0.000733  -0.005527  -0.003967  -0.016789  -0.006516  -0.000520
    11  C   -0.003698   0.019730  -0.000391  -0.000701  -0.000090   0.000005
    12  C    0.000018   0.000095   0.000009   0.000002  -0.000001  -0.000000
    13  C    0.000000  -0.000042   0.000000   0.000000  -0.000000  -0.000000
    14  O    0.000000  -0.000000   0.000000  -0.000000   0.000000   0.000000
    15  N   -0.000004   0.000051   0.000000  -0.000000   0.000000   0.000000
    16  C    0.000135   0.001613  -0.000017   0.000002  -0.000000   0.000000
    17  C   -0.000657  -0.000264   0.000219   0.000238   0.000004   0.000000
    18  C    0.000715  -0.024710   0.002101   0.005722  -0.000381  -0.000000
    19  C   -0.016077  -0.002020  -0.053038   0.016352   0.003865   0.000261
    20  C   -0.004495  -0.039683  -0.037079   0.429713  -0.067142   0.001754
    21  H    0.249015  -0.000605  -0.044118  -0.005267   0.000258  -0.000045
    22  H    0.295677  -0.016834  -0.001344   0.000104   0.000002   0.000000
    23  H   -0.038546  -0.007261   0.290347  -0.035246  -0.011179   0.006202
    24  H   -0.000003  -0.000003   0.000224  -0.004558  -0.051565   0.366988
    25  H   -0.000000  -0.000000   0.000000  -0.000060   0.004955  -0.039188
    26  H   -0.000000  -0.000000   0.000007  -0.000156   0.002136   0.010228
    27  H    0.000000  -0.000001  -0.000000   0.000000  -0.000000  -0.000000
    28  H   -0.000003  -0.000052  -0.000000  -0.000001  -0.000000  -0.000000
    29  H    0.003519  -0.002647   0.000034   0.000013  -0.000000  -0.000000
    30  H   -0.000164   0.001021  -0.000141  -0.000978   0.000121   0.000002
    31  H    0.003438  -0.008423  -0.003775  -0.016065   0.000833  -0.000007
    32  H   -0.000141   0.000585   0.009600  -0.066951  -0.006317   0.000484
               7          8          9         10         11         12
     1  C   -0.000000  -0.000002   0.000166   0.000733  -0.003698   0.000018
     2  C    0.000008   0.000060  -0.002614  -0.005527   0.019730   0.000095
     3  C   -0.000298   0.000168   0.001691  -0.003967  -0.000391   0.000009
     4  C    0.006101  -0.010496  -0.048259  -0.016789  -0.000701   0.000002
     5  C    0.002320   0.017121   0.133131  -0.006516  -0.000090  -0.000001
     6  C    0.375309  -0.075879   0.002727  -0.000520   0.000005  -0.000000
     7  C    5.099415   0.434643  -0.002302   0.000022   0.000000   0.000000
     8  C    0.434643   5.670192  -0.013588   0.001673  -0.000040   0.000000
     9  C   -0.002302  -0.013588   5.800698   0.177423   0.004684  -0.000025
    10  N    0.000022   0.001673   0.177423   7.126597   0.093095  -0.003208
    11  C    0.000000  -0.000040   0.004684   0.093095   5.671769   0.165235
    12  C    0.000000   0.000000  -0.000025  -0.003208   0.165235   6.166612
    13  C   -0.000000   0.000000   0.000000  -0.000007   0.002370  -0.085548
    14  O    0.000000  -0.000000  -0.000000   0.000000  -0.000022  -0.004417
    15  N   -0.000000  -0.000000  -0.000000  -0.000000  -0.001382  -0.022257
    16  C   -0.000000  -0.000000  -0.000000   0.000021  -0.005325  -0.002685
    17  C   -0.000000   0.000000  -0.000023   0.000261   0.034009   0.038356
    18  C   -0.000000  -0.000004  -0.000229  -0.010259   0.012824  -0.024943
    19  C   -0.000014  -0.000157  -0.006235  -0.028745  -0.039092  -0.001148
    20  C    0.000652   0.006745  -0.097133   0.004950  -0.010717   0.000497
    21  H   -0.000002  -0.000000  -0.000013  -0.000029  -0.000022  -0.000000
    22  H    0.000000   0.000000  -0.000002  -0.000001  -0.000050   0.000001
    23  H   -0.000162   0.000018  -0.000101   0.000008  -0.000031   0.000000
    24  H   -0.060168   0.011541   0.000326  -0.000000  -0.000000   0.000000
    25  H    0.318432  -0.015884  -0.000089   0.000000  -0.000000   0.000000
    26  H   -0.047804   0.204589  -0.001752  -0.000040   0.000000  -0.000000
    27  H   -0.000000   0.000000   0.000000  -0.000086   0.004476  -0.018079
    28  H   -0.000000   0.000000   0.000000  -0.000146   0.000768  -0.011631
    29  H    0.000000   0.000000   0.000000   0.000057   0.000290   0.003645
    30  H   -0.000000  -0.000005   0.000681   0.006523  -0.003981  -0.000274
    31  H    0.000000   0.000002   0.000312   0.001142  -0.017805  -0.000291
    32  H    0.000134   0.003249   0.009144  -0.004126   0.000673  -0.000119
              13         14         15         16         17         18
     1  C    0.000000   0.000000  -0.000004   0.000135  -0.000657   0.000715
     2  C   -0.000042  -0.000000   0.000051   0.001613  -0.000264  -0.024710
     3  C    0.000000   0.000000   0.000000  -0.000017   0.000219   0.002101
     4  C    0.000000  -0.000000  -0.000000   0.000002   0.000238   0.005722
     5  C   -0.000000   0.000000   0.000000  -0.000000   0.000004  -0.000381
     6  C   -0.000000   0.000000   0.000000   0.000000   0.000000  -0.000000
     7  C   -0.000000   0.000000  -0.000000  -0.000000  -0.000000  -0.000000
     8  C    0.000000  -0.000000  -0.000000  -0.000000   0.000000  -0.000004
     9  C    0.000000  -0.000000  -0.000000  -0.000000  -0.000023  -0.000229
    10  N   -0.000007   0.000000  -0.000000   0.000021   0.000261  -0.010259
    11  C    0.002370  -0.000022  -0.001382  -0.005325   0.034009   0.012824
    12  C   -0.085548  -0.004417  -0.022257  -0.002685   0.038356  -0.024943
    13  C    4.853488   0.589323   0.439901  -0.132080   0.011120  -0.000352
    14  O    0.589323   7.847518  -0.133734   0.001297  -0.000383   0.000005
    15  N    0.439901  -0.133734   6.333482   0.521141  -0.052824   0.001299
    16  C   -0.132080   0.001297   0.521141   4.986129   0.389102  -0.044732
    17  C    0.011120  -0.000383  -0.052824   0.389102   5.167120   0.467545
    18  C   -0.000352   0.000005   0.001299  -0.044732   0.467545   5.266828
    19  C   -0.000020   0.000000   0.000050  -0.001802  -0.043156   0.477827
    20  C    0.000000   0.000000   0.000003  -0.000062   0.004854  -0.018931
    21  H   -0.000000  -0.000000   0.000000   0.000000   0.000046  -0.000037
    22  H   -0.000000  -0.000000  -0.000000   0.000005   0.000057   0.000007
    23  H   -0.000000  -0.000000   0.000000   0.000000   0.000006  -0.000008
    24  H    0.000000   0.000000  -0.000000  -0.000000   0.000000  -0.000000
    25  H    0.000000   0.000000  -0.000000  -0.000000   0.000000   0.000000
    26  H   -0.000000   0.000000   0.000000   0.000000   0.000000   0.000000
    27  H    0.241405  -0.018495  -0.037449  -0.017631  -0.001688  -0.000474
    28  H   -0.012327   0.000465  -0.046775   0.351912  -0.096830   0.004936
    29  H   -0.000421  -0.000023   0.006114  -0.033646   0.336667  -0.029753
    30  H   -0.000029   0.000001   0.000354  -0.005937  -0.036561   0.308081
    31  H    0.000003   0.000000   0.000033  -0.001289  -0.053688  -0.111100
    32  H    0.000000   0.000000   0.000000  -0.000013  -0.000379  -0.014659
              19         20         21         22         23         24
     1  C   -0.016077  -0.004495   0.249015   0.295677  -0.038546  -0.000003
     2  C   -0.002020  -0.039683  -0.000605  -0.016834  -0.007261  -0.000003
     3  C   -0.053038  -0.037079  -0.044118  -0.001344   0.290347   0.000224
     4  C    0.016352   0.429713  -0.005267   0.000104  -0.035246  -0.004558
     5  C    0.003865  -0.067142   0.000258   0.000002  -0.011179  -0.051565
     6  C    0.000261   0.001754  -0.000045   0.000000   0.006202   0.366988
     7  C   -0.000014   0.000652  -0.000002   0.000000  -0.000162  -0.060168
     8  C   -0.000157   0.006745  -0.000000   0.000000   0.000018   0.011541
     9  C   -0.006235  -0.097133  -0.000013  -0.000002  -0.000101   0.000326
    10  N   -0.028745   0.004950  -0.000029  -0.000001   0.000008  -0.000000
    11  C   -0.039092  -0.010717  -0.000022  -0.000050  -0.000031  -0.000000
    12  C   -0.001148   0.000497  -0.000000   0.000001   0.000000   0.000000
    13  C   -0.000020   0.000000  -0.000000  -0.000000  -0.000000   0.000000
    14  O    0.000000   0.000000  -0.000000  -0.000000  -0.000000   0.000000
    15  N    0.000050   0.000003   0.000000  -0.000000   0.000000  -0.000000
    16  C   -0.001802  -0.000062   0.000000   0.000005   0.000000  -0.000000
    17  C   -0.043156   0.004854   0.000046   0.000057   0.000006   0.000000
    18  C    0.477827  -0.018931  -0.000037   0.000007  -0.000008  -0.000000
    19  C    4.813358   0.536595  -0.000037  -0.000020   0.001297   0.000005
    20  C    0.536595   5.128440   0.000053  -0.000190   0.008647   0.000230
    21  H   -0.000037   0.000053   0.863118  -0.113865  -0.032475   0.000005
    22  H   -0.000020  -0.000190  -0.113865   0.668412   0.002871   0.000000
    23  H    0.001297   0.008647  -0.032475   0.002871   0.722027   0.000832
    24  H    0.000005   0.000230   0.000005   0.000000   0.000832   0.613972
    25  H   -0.000000   0.000003   0.000000   0.000000   0.000005  -0.000985
    26  H    0.000002  -0.000098   0.000000  -0.000000  -0.000002  -0.000565
    27  H   -0.000083   0.000002   0.000000  -0.000000  -0.000000   0.000000
    28  H    0.000766   0.000125   0.000000  -0.000000  -0.000000   0.000000
    29  H   -0.001728   0.000322  -0.000078   0.000231   0.000004  -0.000000
    30  H   -0.047242  -0.013988   0.000002  -0.000001  -0.000001   0.000000
    31  H    0.365421  -0.059402  -0.000389  -0.000470  -0.000279  -0.000000
    32  H   -0.038189   0.329497   0.000017  -0.000001  -0.000705  -0.000030
              25         26         27         28         29         30
     1  C   -0.000000  -0.000000   0.000000  -0.000003   0.003519  -0.000164
     2  C   -0.000000  -0.000000  -0.000001  -0.000052  -0.002647   0.001021
     3  C    0.000000   0.000007  -0.000000  -0.000000   0.000034  -0.000141
     4  C   -0.000060  -0.000156   0.000000  -0.000001   0.000013  -0.000978
     5  C    0.004955   0.002136  -0.000000  -0.000000  -0.000000   0.000121
     6  C   -0.039188   0.010228  -0.000000  -0.000000  -0.000000   0.000002
     7  C    0.318432  -0.047804  -0.000000  -0.000000   0.000000  -0.000000
     8  C   -0.015884   0.204589   0.000000   0.000000   0.000000  -0.000005
     9  C   -0.000089  -0.001752   0.000000   0.000000   0.000000   0.000681
    10  N    0.000000  -0.000040  -0.000086  -0.000146   0.000057   0.006523
    11  C   -0.000000   0.000000   0.004476   0.000768   0.000290  -0.003981
    12  C    0.000000  -0.000000  -0.018079  -0.011631   0.003645  -0.000274
    13  C    0.000000  -0.000000   0.241405  -0.012327  -0.000421  -0.000029
    14  O    0.000000   0.000000  -0.018495   0.000465  -0.000023   0.000001
    15  N   -0.000000   0.000000  -0.037449  -0.046775   0.006114   0.000354
    16  C   -0.000000   0.000000  -0.017631   0.351912  -0.033646  -0.005937
    17  C    0.000000   0.000000  -0.001688  -0.096830   0.336667  -0.036561
    18  C    0.000000   0.000000  -0.000474   0.004936  -0.029753   0.308081
    19  C   -0.000000   0.000002  -0.000083   0.000766  -0.001728  -0.047242
    20  C    0.000003  -0.000098   0.000002   0.000125   0.000322  -0.013988
    21  H    0.000000   0.000000   0.000000   0.000000  -0.000078   0.000002
    22  H    0.000000  -0.000000  -0.000000  -0.000000   0.000231  -0.000001
    23  H    0.000005  -0.000002  -0.000000  -0.000000   0.000004  -0.000001
    24  H   -0.000985  -0.000565   0.000000   0.000000  -0.000000   0.000000
    25  H    0.621239  -0.003133   0.000000   0.000000   0.000000  -0.000000
    26  H   -0.003133   0.753744  -0.000000  -0.000000  -0.000000   0.000000
    27  H    0.000000  -0.000000   0.681748   0.013250  -0.000205  -0.000391
    28  H    0.000000  -0.000000   0.013250   0.639047   0.008344   0.004925
    29  H    0.000000  -0.000000  -0.000205   0.008344   0.493399   0.001418
    30  H   -0.000000   0.000000  -0.000391   0.004925   0.001418   0.555577
    31  H   -0.000000   0.000000  -0.000029   0.000860   0.006232   0.021820
    32  H   -0.000000  -0.000039  -0.000001  -0.000004  -0.000006   0.009338
              31         32
     1  C    0.003438  -0.000141
     2  C   -0.008423   0.000585
     3  C   -0.003775   0.009600
     4  C   -0.016065  -0.066951
     5  C    0.000833  -0.006317
     6  C   -0.000007   0.000484
     7  C    0.000000   0.000134
     8  C    0.000002   0.003249
     9  C    0.000312   0.009144
    10  N    0.001142  -0.004126
    11  C   -0.017805   0.000673
    12  C   -0.000291  -0.000119
    13  C    0.000003   0.000000
    14  O    0.000000   0.000000
    15  N    0.000033   0.000000
    16  C   -0.001289  -0.000013
    17  C   -0.053688  -0.000379
    18  C   -0.111100  -0.014659
    19  C    0.365421  -0.038189
    20  C   -0.059402   0.329497
    21  H   -0.000389   0.000017
    22  H   -0.000470  -0.000001
    23  H   -0.000279  -0.000705
    24  H   -0.000000  -0.000030
    25  H   -0.000000  -0.000000
    26  H    0.000000  -0.000039
    27  H   -0.000029  -0.000001
    28  H    0.000860  -0.000004
    29  H    0.006232  -0.000006
    30  H    0.021820   0.009338
    31  H    0.676893   0.011143
    32  H    0.011143   0.596101
 Mulliken charges:
               1
     1  C   -0.264021
     2  C   -0.076534
     3  C   -0.207892
     4  C    0.241699
     5  C    0.190515
     6  C   -0.147567
     7  C   -0.126288
     8  C   -0.233946
     9  C    0.041380
    10  N   -0.332539
    11  C    0.073421
    12  C   -0.199843
    13  C    0.093216
    14  O   -0.281535
    15  N   -0.008001
    16  C   -0.006138
    17  C   -0.163152
    18  C   -0.267316
    19  C    0.063002
    20  C   -0.104161
    21  H    0.084467
    22  H    0.165409
    23  H    0.093732
    24  H    0.123752
    25  H    0.114705
    26  H    0.082884
    27  H    0.153731
    28  H    0.142375
    29  H    0.208219
    30  H    0.199832
    31  H    0.184879
    32  H    0.161716
 Sum of Mulliken charges =  -0.00000
 Mulliken charges with hydrogens summed into heavy atoms:
               1
     1  C   -0.014145
     2  C   -0.076534
     3  C   -0.114159
     4  C    0.241699
     5  C    0.190515
     6  C   -0.023814
     7  C   -0.011584
     8  C   -0.151062
     9  C    0.041380
    10  N   -0.332539
    11  C    0.073421
    12  C   -0.199843
    13  C    0.246947
    14  O   -0.281535
    15  N   -0.008001
    16  C    0.136237
    17  C    0.045067
    18  C   -0.067485
    19  C    0.247881
    20  C    0.057555
 Electronic spatial extent (au):  <R**2>=           6703.0932
 Charge=             -0.0000 electrons
 Dipole moment (field-independent basis, Debye):
    X=              6.1409    Y=              3.9814    Z=              3.4603  Tot=              8.0954
 Quadrupole moment (field-independent basis, Debye-Ang):
   XX=           -134.2276   YY=           -113.3941   ZZ=           -122.0150
   XY=             10.3783   XZ=              3.5753   YZ=             -0.9848
 Traceless Quadrupole moment (field-independent basis, Debye-Ang):
   XX=            -11.0154   YY=              9.8182   ZZ=              1.1972
   XY=             10.3783   XZ=              3.5753   YZ=             -0.9848
 Octapole moment (field-independent basis, Debye-Ang**2):
  XXX=            330.6972  YYY=             53.7805  ZZZ=             13.5044  XYY=            -18.6035
  XXY=             29.8201  XXZ=             46.1895  XZZ=            -17.0571  YZZ=             -1.2453
  YYZ=              9.2690  XYZ=              0.7551
 Hexadecapole moment (field-independent basis, Debye-Ang**3):
 XXXX=          -8600.3243 YYYY=          -1027.8330 ZZZZ=           -512.2397 XXXY=             38.4769
 XXXZ=            155.2912 YYYX=            112.6744 YYYZ=            -17.3943 ZZZX=              9.2472
 ZZZY=             11.6558 XXYY=          -1495.5469 XXZZ=          -1354.4742 YYZZ=           -297.2813
 XXYZ=             17.5950 YYXZ=             20.3416 ZZXY=             17.6807
 N-N= 1.342400117828D+03 E-N=-4.630362374799D+03  KE= 8.315794797897D+02
 PrsmSu:  requested number of processors reduced to:  12 ShMem   1 Linda.
 Calling FoFJK, ICntrl=      2127 FMM=F ISym2X=0 I1Cent= 0 IOpClX= 0 NMat=1 NMatS=1 NMatT=0.
 ***** Axes restored to original set *****
 -------------------------------------------------------------------
 Center     Atomic                   Forces (Hartrees/Bohr)
 Number     Number              X              Y              Z
 -------------------------------------------------------------------
      1        6          -0.031681453    0.028435778    0.004484671
      2        6          -0.146745771    0.100839400    0.013624083
      3        6          -0.145283638    0.007549064   -0.047206947
      4        6           0.076822239   -0.024201804    0.066537211
      5        6          -0.042131845    0.048127712    0.028250877
      6        6          -0.009753324   -0.014305162   -0.013447117
      7        6           0.019271615   -0.009386895    0.005077555
      8        6           0.051744086    0.175512549    0.008115038
      9        6           0.012675861   -0.045085538   -0.010696427
     10        7          -0.008887225    0.045398181   -0.029020453
     11        6           0.042200223   -0.020755453    0.014516918
     12        6          -0.030650613    0.066440200   -0.051557845
     13        6           0.044686539   -0.216451884   -0.005257800
     14        8           0.077729266    0.031630869   -0.047600545
     15        7          -0.050569017    0.073856556    0.008901546
     16        6           0.019516927    0.099700756    0.023117875
     17        6           0.029436785    0.000023126   -0.004897713
     18        6           0.062387225    0.036285870   -0.042974036
     19        6          -0.057543304   -0.064121818    0.061502196
     20        6           0.073982790   -0.012987048    0.024442728
     21        1           0.046261007   -0.040805610   -0.032135606
     22        1           0.067923140   -0.045896445   -0.000068545
     23        1           0.022311146   -0.061486038   -0.045167943
     24        1           0.005149059   -0.021515079   -0.015525776
     25        1           0.019412840   -0.073580286   -0.025024095
     26        1          -0.012020905   -0.060782196   -0.017295424
     27        1          -0.049330310   -0.022384073    0.018258851
     28        1          -0.017203947   -0.026818432    0.015643146
     29        1           0.013260310    0.028234728    0.028001684
     30        1          -0.010656658   -0.053487962    0.039140767
     31        1          -0.099103575    0.040227717   -0.006100478
     32        1           0.026790528    0.031789219    0.034361605
 -------------------------------------------------------------------
 Cartesian Forces:  Max     0.216451884 RMS     0.054007864

 GradGradGradGradGradGradGradGradGradGradGradGradGradGradGradGradGradGrad
 Berny optimization.
 FormGI is forming the generalized inverse of G from B-inverse, IUseBI=4.
 Internal  Forces:  Max     0.160355133 RMS     0.043250377
 Search for a local minimum.
 Step number   1 out of a maximum of  184
 All quantities printed in internal units (Hartrees-Bohrs-Radians)
 Mixed Optimization -- RFO/linear search
 Second derivative matrix not updated -- first step.
 ITU=  0
     Eigenvalues ---    0.00230   0.00262   0.00289   0.00510   0.00780
     Eigenvalues ---    0.00929   0.00998   0.01013   0.01083   0.01462
     Eigenvalues ---    0.01583   0.01846   0.02049   0.02065   0.02071
     Eigenvalues ---    0.02080   0.02214   0.02399   0.02632   0.02868
     Eigenvalues ---    0.02936   0.02983   0.03217   0.03405   0.03666
     Eigenvalues ---    0.04114   0.04964   0.05126   0.05270   0.06074
     Eigenvalues ---    0.06703   0.06990   0.08163   0.08881   0.09541
     Eigenvalues ---    0.09899   0.10560   0.10729   0.11120   0.11959
     Eigenvalues ---    0.12564   0.12768   0.12996   0.13787   0.14203
     Eigenvalues ---    0.14358   0.14583   0.14753   0.15001   0.15928
     Eigenvalues ---    0.15938   0.15972   0.16000   0.17374   0.17485
     Eigenvalues ---    0.17749   0.17949   0.18715   0.18824   0.19121
     Eigenvalues ---    0.19647   0.19725   0.19828   0.21427   0.21969
     Eigenvalues ---    0.21997   0.22004   0.22375   0.22686   0.22714
     Eigenvalues ---    0.24036   0.24957   0.27577   0.27786   0.29632
     Eigenvalues ---    0.31060   0.32590   0.35707   0.41263   0.42057
     Eigenvalues ---    0.42403   0.44695   0.45131   0.45396   0.52760
     Eigenvalues ---    0.61091   0.67294   0.68999   0.70117   0.77058
 RFO step:  Lambda=-4.54819564D-01 EMin= 2.30000000D-03
 Linear search not attempted -- first point.
 Maximum step size (   0.300) exceeded in Quadratic search.
    -- Step size scaled by   0.388
 Iteration  1 RMS(Cart)=  0.07752905 RMS(Int)=  0.00132949
 Iteration  2 RMS(Cart)=  0.00201780 RMS(Int)=  0.00015263
 Iteration  3 RMS(Cart)=  0.00000178 RMS(Int)=  0.00015263
 Iteration  4 RMS(Cart)=  0.00000000 RMS(Int)=  0.00015263
 Variable       Old X    -DE/DX   Delta X   Delta X   Delta X     New X
                                 (Linear)    (Quad)   (Total)
    R1        3.19524  -0.10101   0.00000  -0.06391  -0.06386   3.13138
    R2        3.64455   0.02031   0.00000   0.01519   0.01499   3.65954
    R3        2.69609  -0.07793   0.00000  -0.05018  -0.05009   2.64601
    R4        2.37302  -0.06477   0.00000  -0.03862  -0.03836   2.33466
    R5        3.53476  -0.06486   0.00000  -0.04398  -0.04387   3.49088
    R6        3.43191   0.03788   0.00000   0.02475   0.02484   3.45675
    R7        2.43809   0.16036   0.00000   0.05528   0.05528   2.49337
    R8        2.48014  -0.06644   0.00000  -0.04102  -0.04101   2.43913
    R9        2.53313   0.06718   0.00000   0.02688   0.02700   2.56014
   R10        2.61265   0.04459   0.00000   0.02233   0.02244   2.63509
   R11        2.64818  -0.03221   0.00000  -0.01374  -0.01374   2.63444
   R12        3.57432  -0.00797   0.00000  -0.00730  -0.00746   3.56685
   R13        2.65124   0.08821   0.00000   0.03773   0.03773   2.68896
   R14        2.12598  -0.02195   0.00000  -0.01111  -0.01111   2.11486
   R15        2.99318  -0.06272   0.00000  -0.03451  -0.03451   2.95868
   R16        2.45231  -0.07752   0.00000  -0.04680  -0.04680   2.40552
   R17        2.41856  -0.04619   0.00000  -0.02748  -0.02748   2.39108
   R18        3.36619  -0.06520   0.00000  -0.04424  -0.04445   3.32174
   R19        3.54144   0.01826   0.00000   0.01478   0.01493   3.55637
   R20        3.82303  -0.01652   0.00000  -0.01397  -0.01407   3.80896
   R21        3.80508   0.04554   0.00000   0.03208   0.03205   3.83713
   R22        3.50121  -0.03692   0.00000  -0.02735  -0.02749   3.47372
   R23        2.98601   0.04246   0.00000   0.02767   0.02755   3.01355
   R24        2.43731  -0.05011   0.00000  -0.01680  -0.01680   2.42051
   R25        2.44046   0.14157   0.00000   0.04853   0.04860   2.48907
   R26        2.90704  -0.03616   0.00000  -0.02581  -0.02587   2.88117
   R27        2.38681   0.09448   0.00000   0.03050   0.03060   2.41741
   R28        2.67224   0.02452   0.00000   0.01237   0.01251   2.68475
   R29        2.19308  -0.02237   0.00000  -0.01183  -0.01183   2.18124
   R30        2.82413  -0.04620   0.00000  -0.02173  -0.02165   2.80248
   R31        2.15403  -0.02957   0.00000  -0.01526  -0.01526   2.13877
   R32        2.64898   0.03964   0.00000   0.01855   0.01869   2.66767
   R33        2.19773  -0.03012   0.00000  -0.01597  -0.01597   2.18175
   R34        2.45062   0.05133   0.00000   0.01902   0.01911   2.46973
   R35        1.91542   0.09443   0.00000   0.03883   0.03879   1.95422
   R36        1.99144   0.04941   0.00000   0.02248   0.02248   2.01392
   R37        2.72613   0.02207   0.00000   0.01687   0.01655   2.74268
   R38        3.40657   0.00326   0.00000   0.00405   0.00406   3.41063
    A1        2.38114  -0.02008   0.00000  -0.01393  -0.01442   2.36672
    A2        2.77239  -0.02630   0.00000  -0.01653  -0.01652   2.75588
    A3        1.32023  -0.00554   0.00000  -0.00286  -0.00301   1.31721
    A4        2.41077   0.03759   0.00000   0.02491   0.02517   2.43593
    A5        1.58909   0.01525   0.00000   0.00832   0.00812   1.59720
    A6        1.54726   0.01898   0.00000   0.01029   0.01018   1.55744
    A7        2.59080  -0.02633   0.00000  -0.01676  -0.01675   2.57406
    A8        1.74346  -0.00399   0.00000  -0.00348  -0.00335   1.74011
    A9        2.00163   0.00473   0.00000   0.00281   0.00271   2.00434
   A10        2.63638  -0.03244   0.00000  -0.02211  -0.02215   2.61423
   A11        1.63584   0.02533   0.00000   0.01812   0.01821   1.65405
   A12        2.33513  -0.00723   0.00000  -0.00980  -0.00967   2.32547
   A13        1.94143   0.02220   0.00000   0.01671   0.01663   1.95805
   A14        1.92652  -0.01512   0.00000  -0.00681  -0.00683   1.91969
   A15        2.27087   0.02112   0.00000   0.01094   0.01092   2.28180
   A16        1.46693   0.02346   0.00000   0.01467   0.01472   1.48165
   A17        2.51444  -0.04594   0.00000  -0.02622  -0.02623   2.48822
   A18        1.83229   0.09846   0.00000   0.05658   0.05657   1.88886
   A19        2.30829  -0.06544   0.00000  -0.03847  -0.03848   2.26981
   A20        2.13897  -0.03220   0.00000  -0.01748  -0.01748   2.12149
   A21        1.73288   0.12639   0.00000   0.07254   0.07251   1.80539
   A22        1.98535  -0.03964   0.00000  -0.02149  -0.02152   1.96382
   A23        2.56355  -0.08753   0.00000  -0.05171  -0.05171   2.51184
   A24        1.41430   0.09965   0.00000   0.06282   0.06282   1.47712
   A25        2.26511   0.03939   0.00000   0.02008   0.01989   2.28500
   A26        1.40250   0.00489   0.00000  -0.00021  -0.00031   1.40219
   A27        2.62139   0.02525   0.00000   0.01203   0.01171   2.63310
   A28        1.92536   0.00592   0.00000   0.00164   0.00164   1.92700
   A29        2.39551   0.03152   0.00000   0.01624   0.01627   2.41177
   A30        2.70333  -0.01736   0.00000  -0.01403  -0.01407   2.68926
   A31        1.74763   0.14395   0.00000   0.08185   0.08183   1.82946
   A32        2.29326  -0.04736   0.00000  -0.02737  -0.02736   2.26589
   A33        2.20502  -0.09607   0.00000  -0.05320  -0.05308   2.15194
   A34        1.69471   0.10016   0.00000   0.06287   0.06317   1.75788
   A35        2.12904   0.01355   0.00000   0.00649   0.00653   2.13557
   A36        2.23728  -0.02055   0.00000  -0.01155  -0.01161   2.22567
   A37        1.76784   0.01299   0.00000   0.01024   0.01029   1.77813
   A38        1.89674   0.00295   0.00000   0.00549   0.00564   1.90237
   A39        1.91441   0.01287   0.00000   0.00622   0.00616   1.92057
   A40        2.38688  -0.02085   0.00000  -0.01499  -0.01505   2.37182
   A41        2.05942  -0.00344   0.00000  -0.00123  -0.00103   2.05839
   A42        2.26205  -0.03383   0.00000  -0.02213  -0.02222   2.23984
   A43        1.63384   0.03823   0.00000   0.02555   0.02561   1.65945
   A44        2.67833  -0.11822   0.00000  -0.06847  -0.06847   2.60985
   A45        1.33569   0.13083   0.00000   0.08015   0.08022   1.41591
   A46        2.22815  -0.02108   0.00000  -0.01625  -0.01613   2.21201
   A47        2.24093  -0.02838   0.00000  -0.01343  -0.01332   2.22761
   A48        2.09216  -0.02131   0.00000  -0.01203  -0.01195   2.08021
   A49        1.87940   0.04943   0.00000   0.02597   0.02581   1.90521
[...]
 Largest Abelian subgroup         C1      NOp   1
 Largest concise Abelian subgroup C1      NOp   1
                         Standard orientation:                         
 ---------------------------------------------------------------------
 Center     Atomic      Atomic             Coordinates (Angstroms)
 Number     Number       Type             X           Y           Z
 ---------------------------------------------------------------------
      1          6           0        1.503857    3.894041   -1.290329
      2          6           0        1.012553    2.648650   -1.077276
      3          6           0        2.172309    1.876766   -0.747711
      4          6           0        2.150432    0.857404    0.255453
      5          6           0        2.896561   -0.393960    0.098104
      6          6           0        4.113641   -0.882794    0.362385
      7          6           0        4.140160   -2.275913    0.149256
      8          6           0        2.982158   -2.696440   -0.115962
      9          6           0        2.031415   -1.573770   -0.145845
     10          7           0        0.786666   -1.784354   -0.328937
     11          6           0       -0.453227   -1.374470   -0.787098
     12          6           0       -1.767901   -1.227429   -1.027608
     13          6           0       -4.636814   -1.013371   -0.504523
     14          8           0       -5.693769   -1.417473   -0.935225
     15          7           0       -4.369133    0.199303    0.101389
     16          6           0       -3.415631    0.236731    0.984496
     17          6           0       -2.470450    1.322774    1.084626
     18          6           0       -1.249366    0.972781    1.596437
     19          6           0       -0.014613    1.590035    1.268383
     20          6           0        1.071753    0.724542    1.147882
     21          1           0        2.554640    3.884693   -1.577079
     22          1           0        1.182280    4.894598   -1.551471
     23          1           0        3.184873    2.155959   -1.080844
     24          1           0        4.941753   -0.299435    0.708074
     25          1           0        5.000427   -2.838822    0.221925
     26          1           0        2.667024   -3.574727   -0.460430
     27          1           0       -3.627954   -1.509139   -0.663379
     28          1           0       -3.129522   -0.680383    1.514735
     29          1           0       -2.582787    2.132131    0.370620
     30          1           0       -1.159833   -0.080848    1.842130
     31          1           0        0.108272    2.561872    0.788356
     32          1           0        1.087230   -0.324235    1.457973
 ---------------------------------------------------------------------
 Rotational constants (GHZ):           0.5174995           0.2060761           0.1657169
 Standard basis: 6-31G(2df,p) (6D, 7F)
 There are   680 symmetry adapted cartesian basis functions of A   symmetry.
 There are   620 symmetry adapted basis functions of A   symmetry.
   620 basis functions,   964 primitive gaussians,   680 cartesian basis functions
    68 alpha electrons       68 beta electrons
       nuclear repulsion energy      1322.0181758585 Hartrees.
 NAtoms=   32 NActive=   32 NUniq=   32 SFac= 1.00D+00 NAtFMM=   60 NAOKFM=F Big=F
 Integral buffers will be    131072 words long.
 Raffenetti 2 integral format.
 Two-electron integral symmetry is turned on.
 One-electron integrals computed using PRISM.
 PrsmSu:  requested number of processors reduced to:  12 ShMem   1 Linda.
 NBasis=   620 RedAO= T EigKep=  1.41D-04  NBF=   620
 NBsUse=   620 1.00D-06 EigRej= -1.00D+00 NBFU=   620
 Initial guess from the checkpoint file:  "Cdc1cc2c3cccc-3nc1dCCqdOrNdCCdCCdC2.chk"
 B after Tr=    -0.000000   -0.000000    0.000000
         Rot=    0.999956   -0.006353   -0.001440   -0.006749 Ang=  -1.07 deg.
 ExpMin= 1.61D-01 ExpMax= 5.48D+03 ExpMxC= 8.25D+02 IAcc=2 IRadAn=         4 AccDes= 0.00D+00
 Harris functional with IExCor=  402 and IRadAn=       4 diagonalized for initial guess.
 HarFok:  IExCor=  402 AccDes= 0.00D+00 IRadAn=         4 IDoV= 1 UseB2=F ITyADJ=14
 ICtDFT=  3500011 ScaDFX=  1.000000  1.000000  1.000000  1.000000
 FoFCou: FMM=F IPFlag=           0 FMFlag=      100000 FMFlg1=           0
         NFxFlg=           0 DoJE=T BraDBF=F KetDBF=T FulRan=T
         wScrn=  0.000000 ICntrl=       500 IOpCl=  0 I1Cent=   200000004 NGrid=           0
         NMat0=    1 NMatS0=      1 NMatT0=    0 NMatD0=    1 NMtDS0=    0 NMtDT0=    0
 Petite list used in FoFCou.
 Requested convergence on RMS density matrix=1.00D-08 within 128 cycles.
 Requested convergence on MAX density matrix=1.00D-06.
 Requested convergence on             energy=1.00D-06.
 No special actions if energy rises.
 Integral accuracy reduced to 1.0D-05 until final iterations.
 EnCoef did     3 forward-backward iterations
 EnCoef did     1 forward-backward iterations
 EnCoef did     5 forward-backward iterations
 Initial convergence to 1.0D-05 achieved.  Increase integral accuracy.
 SCF Done:  E(RB3LYP) =  -839.222505561     A.U. after   22 cycles
            NFock= 22  Conv=0.78D-08     -V/T= 2.0071
 PrsmSu:  requested number of processors reduced to:  12 ShMem   1 Linda.
 Calling FoFJK, ICntrl=      2127 FMM=F ISym2X=0 I1Cent= 0 IOpClX= 0 NMat=1 NMatS=1 NMatT=0.
 ***** Axes restored to original set *****
 -------------------------------------------------------------------
 Center     Atomic                   Forces (Hartrees/Bohr)
 Number     Number              X              Y              Z
 -------------------------------------------------------------------
      1        6          -0.019566067    0.018977252   -0.037265956
      2        6          -0.009902192   -0.001189242    0.012310006
      3        6           0.033520411    0.009069973    0.034468451
      4        6          -0.012786828   -0.001129349   -0.021930760
      5        6          -0.024600443   -0.022883315    0.021656519
      6        6          -0.042705842    0.009317138    0.011685946
      7        6          -0.024007649    0.073617947    0.016895363
      8        6          -0.000014646   -0.087835562   -0.000331605
      9        6           0.022603591    0.001743706   -0.011943614
     10        7          -0.025255706   -0.096389604   -0.035122280
     11        6           0.018212764    0.027492807    0.025349829
     12        6          -0.001594649    0.093263671   -0.002442282
     13        6           0.021194874   -0.001225654   -0.011782130
     14        8          -0.005881491    0.003455607    0.007902779
     15        7          -0.018494207    0.016154008    0.023415943
     16        6           0.004541133   -0.019607208   -0.021573157
     17        6           0.007128724    0.003649962   -0.010640006
     18        6          -0.006771978   -0.000793245   -0.015503891
     19        6           0.010731753    0.012795262   -0.010201672
     20        6          -0.001499793   -0.003048093   -0.012114164
     21        1          -0.007749023    0.008380086   -0.004432432
     22        1           0.005873633   -0.022284814    0.019595324
     23        1           0.001898267   -0.005843747   -0.006139988
     24        1          -0.005610201    0.006704325    0.002548396
     25        1           0.017489453    0.037286007   -0.007206407
     26        1           0.068751409   -0.014381073   -0.034722178
     27        1           0.003470749   -0.021963991   -0.001748260
     28        1          -0.000528070   -0.000465882    0.004476643
     29        1          -0.005680076   -0.004112327    0.012173809
     30        1           0.001940912    0.000823957    0.015778828
     31        1           0.000734797   -0.006536596    0.010819308
     32        1          -0.005443609   -0.013042006    0.026023639
 -------------------------------------------------------------------
 Cartesian Forces:  Max     0.096389604 RMS     0.025033798

 GradGradGradGradGradGradGradGradGradGradGradGradGradGradGradGradGradGrad
 Berny optimization.
 Using GEDIIS/GDIIS optimizer.
 FormGI is forming the generalized inverse of G from B-inverse, IUseBI=4.
 Internal  Forces:  Max     0.126088181 RMS     0.017753406
 Search for a local minimum.
 Step number  13 out of a maximum of  184
 All quantities printed in internal units (Hartrees-Bohrs-Radians)
 Mixed Optimization -- RFO/linear search
 Update second derivatives using D2CorX and points   12   13
 DE= -1.64D-02 DEPred=-8.22D-02 R= 1.99D-01
 Trust test= 1.99D-01 RLast= 7.18D-01 DXMaxT set to 1.01D+00
 ITU=  0  1 -1 -1  1  1  1  1  0  0  0  1  0
 Use linear search instead of GDIIS.
     Eigenvalues ---    0.00227   0.00233   0.00245   0.00304   0.00459
     Eigenvalues ---    0.00662   0.01033   0.01154   0.01389   0.01429
     Eigenvalues ---    0.01656   0.01820   0.01895   0.02030   0.02055
     Eigenvalues ---    0.02056   0.02065   0.02114   0.02224   0.02467
     Eigenvalues ---    0.02564   0.02696   0.02733   0.02824   0.03110
     Eigenvalues ---    0.03247   0.03928   0.04228   0.04523   0.05131
     Eigenvalues ---    0.05641   0.05956   0.06988   0.07785   0.08147
     Eigenvalues ---    0.09174   0.10273   0.10957   0.11677   0.11877
     Eigenvalues ---    0.12760   0.13282   0.14016   0.14499   0.14777
     Eigenvalues ---    0.14992   0.15099   0.15754   0.15883   0.16033
     Eigenvalues ---    0.16121   0.16676   0.17168   0.17541   0.17912
     Eigenvalues ---    0.18861   0.19117   0.19177   0.19465   0.19840
     Eigenvalues ---    0.20056   0.21328   0.21468   0.22349   0.22763
     Eigenvalues ---    0.23277   0.23669   0.26951   0.27674   0.27935
     Eigenvalues ---    0.29573   0.30985   0.32266   0.35665   0.37317
     Eigenvalues ---    0.40727   0.42165   0.42976   0.43701   0.44416
     Eigenvalues ---    0.44866   0.50577   0.55126   0.59347   0.63078
     Eigenvalues ---    0.67236   0.71554   0.89931   1.47832   3.31311
 RFO step:  Lambda=-8.15888573D-02 EMin= 2.27482231D-03
 Quartic linear search produced a step of -0.41189.
 Iteration  1 RMS(Cart)=  0.01601421 RMS(Int)=  0.04599718
 Iteration  2 RMS(Cart)=  0.00229387 RMS(Int)=  0.04533378
 Iteration  3 RMS(Cart)=  0.00220346 RMS(Int)=  0.04469454
 Iteration  4 RMS(Cart)=  0.00211923 RMS(Int)=  0.04407781
 Iteration  5 RMS(Cart)=  0.00204059 RMS(Int)=  0.04348213
 Iteration  6 RMS(Cart)=  0.00196703 RMS(Int)=  0.04290615
 Iteration  7 RMS(Cart)=  0.00189809 RMS(Int)=  0.04234865
 Iteration  8 RMS(Cart)=  0.00183336 RMS(Int)=  0.04180852
 Iteration  9 RMS(Cart)=  0.00177249 RMS(Int)=  0.04128473
 Iteration 10 RMS(Cart)=  0.00170690 RMS(Int)=  0.04077939
 Iteration 11 RMS(Cart)=  0.00164465 RMS(Int)=  0.04029163
 Iteration 12 RMS(Cart)=  0.00158625 RMS(Int)=  0.03982037
 Iteration 13 RMS(Cart)=  0.00153134 RMS(Int)=  0.03936463
 Iteration 14 RMS(Cart)=  0.00147967 RMS(Int)=  0.03892348
 Iteration 15 RMS(Cart)=  0.00143093 RMS(Int)=  0.03849611
 Iteration 16 RMS(Cart)=  0.00138492 RMS(Int)=  0.03808175
 Iteration 17 RMS(Cart)=  0.00134142 RMS(Int)=  0.03767970
 Iteration 18 RMS(Cart)=  0.00130026 RMS(Int)=  0.03728929
 Iteration 19 RMS(Cart)=  0.00126124 RMS(Int)=  0.03690992
 Iteration 20 RMS(Cart)=  0.00122422 RMS(Int)=  0.03654105
 Iteration 21 RMS(Cart)=  0.00118905 RMS(Int)=  0.03618214
 Iteration 22 RMS(Cart)=  0.00115560 RMS(Int)=  0.03583271
 Iteration 23 RMS(Cart)=  0.00112376 RMS(Int)=  0.03549231
 Iteration 24 RMS(Cart)=  0.00109342 RMS(Int)=  0.03516051
 Iteration 25 RMS(Cart)=  0.00106448 RMS(Int)=  0.03483694
 Iteration 26 RMS(Cart)=  0.00103685 RMS(Int)=  0.03452121
 Iteration 27 RMS(Cart)=  0.00101045 RMS(Int)=  0.03421299
 Iteration 28 RMS(Cart)=  0.00098521 RMS(Int)=  0.03391195
 Iteration 29 RMS(Cart)=  0.00096105 RMS(Int)=  0.03361778
 Iteration 30 RMS(Cart)=  0.00093790 RMS(Int)=  0.03333020
 Iteration 31 RMS(Cart)=  0.00091571 RMS(Int)=  0.03304894
 Iteration 32 RMS(Cart)=  0.00089443 RMS(Int)=  0.03277375
 Iteration 33 RMS(Cart)=  0.00087400 RMS(Int)=  0.03250439
 Iteration 34 RMS(Cart)=  0.00085437 RMS(Int)=  0.03224063
 Iteration 35 RMS(Cart)=  0.00083551 RMS(Int)=  0.03198226
 Iteration 36 RMS(Cart)=  0.00081736 RMS(Int)=  0.03172908
 Iteration 37 RMS(Cart)=  0.00079990 RMS(Int)=  0.03148090
 Iteration 38 RMS(Cart)=  0.00078307 RMS(Int)=  0.03123753
 Iteration 39 RMS(Cart)=  0.00076686 RMS(Int)=  0.03099880
 Iteration 40 RMS(Cart)=  0.00075123 RMS(Int)=  0.03076455
 Iteration 41 RMS(Cart)=  0.00073616 RMS(Int)=  0.03053463
 Iteration 42 RMS(Cart)=  0.00072160 RMS(Int)=  0.03030889
 Iteration 43 RMS(Cart)=  0.00070755 RMS(Int)=  0.03008718
 Iteration 44 RMS(Cart)=  0.00069397 RMS(Int)=  0.02986938
 Iteration 45 RMS(Cart)=  0.00068085 RMS(Int)=  0.02965536
 Iteration 46 RMS(Cart)=  0.00066815 RMS(Int)=  0.02944499
 Iteration 47 RMS(Cart)=  0.00065585 RMS(Int)=  0.02923817
 Iteration 48 RMS(Cart)=  0.00064124 RMS(Int)=  0.02903603
 Iteration 49 RMS(Cart)=  0.00062716 RMS(Int)=  0.02883840
 Iteration 50 RMS(Cart)=  0.00061360 RMS(Int)=  0.02864511
 Iteration 51 RMS(Cart)=  0.00060052 RMS(Int)=  0.02845600
 Iteration 52 RMS(Cart)=  0.00058791 RMS(Int)=  0.02827092
 Iteration 53 RMS(Cart)=  0.00057574 RMS(Int)=  0.02808973
 Iteration 54 RMS(Cart)=  0.00056398 RMS(Int)=  0.02791230
 Iteration 55 RMS(Cart)=  0.00055262 RMS(Int)=  0.02773849
 Iteration 56 RMS(Cart)=  0.00054164 RMS(Int)=  0.02756819
 Iteration 57 RMS(Cart)=  0.00053102 RMS(Int)=  0.02740128
 Iteration 58 RMS(Cart)=  0.00052075 RMS(Int)=  0.02723764
 Iteration 59 RMS(Cart)=  0.00051081 RMS(Int)=  0.02707717
 Iteration 60 RMS(Cart)=  0.00050118 RMS(Int)=  0.02691977
 Iteration 61 RMS(Cart)=  0.00049185 RMS(Int)=  0.02676534
 Iteration 62 RMS(Cart)=  0.00048281 RMS(Int)=  0.02661378
 Iteration 63 RMS(Cart)=  0.00047405 RMS(Int)=  0.02646502
 Iteration 64 RMS(Cart)=  0.00046555 RMS(Int)=  0.02631896
 Iteration 65 RMS(Cart)=  0.00045730 RMS(Int)=  0.02617553
 Iteration 66 RMS(Cart)=  0.00044929 RMS(Int)=  0.02603464
 Iteration 67 RMS(Cart)=  0.00044152 RMS(Int)=  0.02589622
 Iteration 68 RMS(Cart)=  0.00043397 RMS(Int)=  0.02576020
 Iteration 69 RMS(Cart)=  0.00042663 RMS(Int)=  0.02562651
 Iteration 70 RMS(Cart)=  0.00041950 RMS(Int)=  0.02549508
 Iteration 71 RMS(Cart)=  0.00041257 RMS(Int)=  0.02536585
 Iteration 72 RMS(Cart)=  0.00040582 RMS(Int)=  0.02523877
 Iteration 73 RMS(Cart)=  0.00039926 RMS(Int)=  0.02511377
 Iteration 74 RMS(Cart)=  0.00039287 RMS(Int)=  0.02499079
 Iteration 75 RMS(Cart)=  0.00038666 RMS(Int)=  0.02486978
 Iteration 76 RMS(Cart)=  0.00038060 RMS(Int)=  0.02475069
 Iteration 77 RMS(Cart)=  0.00037470 RMS(Int)=  0.02463348
 Iteration 78 RMS(Cart)=  0.00036896 RMS(Int)=  0.02451808
 Iteration 79 RMS(Cart)=  0.00036336 RMS(Int)=  0.02440445
 Iteration 80 RMS(Cart)=  0.00035790 RMS(Int)=  0.02429256
 Iteration 81 RMS(Cart)=  0.00035257 RMS(Int)=  0.02418235
 Iteration 82 RMS(Cart)=  0.00034738 RMS(Int)=  0.02407378
 Iteration 83 RMS(Cart)=  0.00034231 RMS(Int)=  0.02396682
 Iteration 84 RMS(Cart)=  0.00033736 RMS(Int)=  0.02386142
 Iteration 85 RMS(Cart)=  0.00033253 RMS(Int)=  0.02375754
 Iteration 86 RMS(Cart)=  0.00032782 RMS(Int)=  0.02365516
 Iteration 87 RMS(Cart)=  0.00032321 RMS(Int)=  0.02355424
 Iteration 88 RMS(Cart)=  0.00031871 RMS(Int)=  0.02345473
 Iteration 89 RMS(Cart)=  0.00031432 RMS(Int)=  0.02335662
 Iteration 90 RMS(Cart)=  0.00031002 RMS(Int)=  0.02325986
 Iteration 91 RMS(Cart)=  0.00030582 RMS(Int)=  0.02316442
 Iteration 92 RMS(Cart)=  0.00030171 RMS(Int)=  0.02307029
 Iteration 93 RMS(Cart)=  0.00029770 RMS(Int)=  0.02297742
 Iteration 94 RMS(Cart)=  0.00029377 RMS(Int)=  0.02288579
 Iteration 95 RMS(Cart)=  0.00028992 RMS(Int)=  0.02279538
 Iteration 96 RMS(Cart)=  0.00028615 RMS(Int)=  0.02270615
 Iteration 97 RMS(Cart)=  0.00028247 RMS(Int)=  0.02261809
 Iteration 98 RMS(Cart)=  0.00027886 RMS(Int)=  0.02253116
 Iteration 99 RMS(Cart)=  0.00027532 RMS(Int)=  0.02244535
 Iteration100 RMS(Cart)=  0.00027185 RMS(Int)=  0.02236063
 New curvilinear step not converged.
 ITry= 1 IFail=1 DXMaxC= 6.67D-01 DCOld= 1.00D+10 DXMaxT= 1.01D+00 DXLimC= 3.00D+00 Rises=F
 Iteration  1 RMS(Cart)=  0.01434478 RMS(Int)=  0.04135479
 Iteration  2 RMS(Cart)=  0.00175460 RMS(Int)=  0.04083699
 Iteration  3 RMS(Cart)=  0.00169761 RMS(Int)=  0.04033438
 Iteration  4 RMS(Cart)=  0.00164390 RMS(Int)=  0.03984613
 Iteration  5 RMS(Cart)=  0.00159321 RMS(Int)=  0.03937143
 Iteration  6 RMS(Cart)=  0.00154046 RMS(Int)=  0.03891138
 Iteration  7 RMS(Cart)=  0.00148753 RMS(Int)=  0.03846632
 Iteration  8 RMS(Cart)=  0.00143769 RMS(Int)=  0.03803541
 Iteration  9 RMS(Cart)=  0.00139071 RMS(Int)=  0.03761782
 Iteration 10 RMS(Cart)=  0.00134635 RMS(Int)=  0.03721282
 Iteration 11 RMS(Cart)=  0.00130441 RMS(Int)=  0.03681973
 Iteration 12 RMS(Cart)=  0.00126470 RMS(Int)=  0.03643792
 Iteration 13 RMS(Cart)=  0.00122706 RMS(Int)=  0.03606680
 Iteration 14 RMS(Cart)=  0.00119135 RMS(Int)=  0.03570583
 Iteration 15 RMS(Cart)=  0.00115742 RMS(Int)=  0.03535451
 Iteration 16 RMS(Cart)=  0.00112515 RMS(Int)=  0.03501238
 Iteration 17 RMS(Cart)=  0.00109442 RMS(Int)=  0.03467898
 Iteration 18 RMS(Cart)=  0.00106514 RMS(Int)=  0.03435393
 Iteration 19 RMS(Cart)=  0.00103721 RMS(Int)=  0.03403684
 Iteration 20 RMS(Cart)=  0.00101054 RMS(Int)=  0.03372736
 Iteration 21 RMS(Cart)=  0.00098504 RMS(Int)=  0.03342514
 Iteration 22 RMS(Cart)=  0.00096066 RMS(Int)=  0.03312989
 Iteration 23 RMS(Cart)=  0.00093732 RMS(Int)=  0.03284130
 Iteration 24 RMS(Cart)=  0.00091496 RMS(Int)=  0.03255910
 Iteration 25 RMS(Cart)=  0.00089353 RMS(Int)=  0.03228303
 Iteration 26 RMS(Cart)=  0.00087296 RMS(Int)=  0.03201285
 Iteration 27 RMS(Cart)=  0.00085322 RMS(Int)=  0.03174832
 Iteration 28 RMS(Cart)=  0.00083424 RMS(Int)=  0.03148923
 Iteration 29 RMS(Cart)=  0.00081600 RMS(Int)=  0.03123537
 Iteration 30 RMS(Cart)=  0.00079844 RMS(Int)=  0.03098655
 Iteration 31 RMS(Cart)=  0.00078155 RMS(Int)=  0.03074258
 Iteration 32 RMS(Cart)=  0.00076528 RMS(Int)=  0.03050328
 Iteration 33 RMS(Cart)=  0.00074960 RMS(Int)=  0.03026849
 Iteration 34 RMS(Cart)=  0.00073447 RMS(Int)=  0.03003806
 Iteration 35 RMS(Cart)=  0.00071988 RMS(Int)=  0.02981183
 Iteration 36 RMS(Cart)=  0.00070579 RMS(Int)=  0.02958966
 Iteration 37 RMS(Cart)=  0.00069218 RMS(Int)=  0.02937141
 Iteration 38 RMS(Cart)=  0.00067877 RMS(Int)=  0.02915709
 Iteration 39 RMS(Cart)=  0.00066323 RMS(Int)=  0.02894775
 Iteration 40 RMS(Cart)=  0.00064829 RMS(Int)=  0.02874320
 Iteration 41 RMS(Cart)=  0.00063391 RMS(Int)=  0.02854327
 Iteration 42 RMS(Cart)=  0.00062006 RMS(Int)=  0.02834778
 Iteration 43 RMS(Cart)=  0.00060671 RMS(Int)=  0.02815656
 Iteration 44 RMS(Cart)=  0.00059384 RMS(Int)=  0.02796946
 Iteration 45 RMS(Cart)=  0.00058143 RMS(Int)=  0.02778634
 Iteration 46 RMS(Cart)=  0.00056945 RMS(Int)=  0.02760705
 Iteration 47 RMS(Cart)=  0.00055788 RMS(Int)=  0.02743146
 Iteration 48 RMS(Cart)=  0.00054670 RMS(Int)=  0.02725944
 Iteration 49 RMS(Cart)=  0.00053589 RMS(Int)=  0.02709088
 Iteration 50 RMS(Cart)=  0.00052545 RMS(Int)=  0.02692565
 Iteration 51 RMS(Cart)=  0.00051534 RMS(Int)=  0.02676365
 Iteration 52 RMS(Cart)=  0.00050555 RMS(Int)=  0.02660477
 Iteration 53 RMS(Cart)=  0.00049607 RMS(Int)=  0.02644891
 Iteration 54 RMS(Cart)=  0.00048690 RMS(Int)=  0.02629598
 Iteration 55 RMS(Cart)=  0.00047800 RMS(Int)=  0.02614589
 Iteration 56 RMS(Cart)=  0.00046937 RMS(Int)=  0.02599854
 Iteration 57 RMS(Cart)=  0.00046101 RMS(Int)=  0.02585386
 Iteration 58 RMS(Cart)=  0.00045289 RMS(Int)=  0.02571176
 Iteration 59 RMS(Cart)=  0.00044501 RMS(Int)=  0.02557217
 Iteration 60 RMS(Cart)=  0.00043736 RMS(Int)=  0.02543502
 Iteration 61 RMS(Cart)=  0.00042993 RMS(Int)=  0.02530022
 Iteration 62 RMS(Cart)=  0.00042271 RMS(Int)=  0.02516772
 Iteration 63 RMS(Cart)=  0.00041569 RMS(Int)=  0.02503746
slurmstepd: error: *** JOB 27446514 ON lewis4-r630-hpc4-node671 CANCELLED AT 2023-05-16T00:29:01 DUE TO TIME LIMIT ***
