### Starting Gaussian ###
 Entering Gaussian System, Link 0=g16
 Initial command:
 /cluster/software/gaussian/gaussian-16-A.03/avx2/g16/l1.exe "/local/scratch/cz9n3/Gau-925.inp" -scrdir="/local/scratch/cz9n3/"
 Entering Link 1 = /cluster/software/gaussian/gaussian-16-A.03/avx2/g16/l1.exe PID=       934.
  
 Copyright (c) 1988,1990,1992,1993,1995,1998,2003,2009,2016,
            Gaussian, Inc.  All Rights Reserved.
  
 This is part of the Gaussian(R) 16 program.  It is based on
 the Gaussian(R) 09 system (copyright 2009, Gaussian, Inc.),
 the Gaussian(R) 03 system (copyright 2003, Gaussian, Inc.),
 the Gaussian(R) 98 system (copyright 1998, Gaussian, Inc.),
 the Gaussian(R) 94 system (copyright 1995, Gaussian, Inc.),
 the Gaussian 92(TM) system (copyright 1992, Gaussian, Inc.),
 the Gaussian 90(TM) system (copyright 1990, Gaussian, Inc.),
 the Gaussian 88(TM) system (copyright 1988, Gaussian, Inc.),
 the Gaussian 86(TM) system (copyright 1986, Carnegie Mellon
 University), and the Gaussian 82(TM) system (copyright 1983,
 Carnegie Mellon University). Gaussian is a federally registered
 trademark of Gaussian, Inc.
  
 This software contains proprietary and confidential information,
 including trade secrets, belonging to Gaussian, Inc.
  
 This software is provided under written license and may be
 used, copied, transmitted, or stored only in accord with that
 written license.
  
 The following legend is applicable only to US Government
 contracts under FAR:
  
                    RESTRICTED RIGHTS LEGEND
  
 Use, reproduction and disclosure by the US Government is
 subject to restrictions as set forth in subparagraphs (a)
 and (c) of the Commercial Computer Software - Restricted
 Rights clause in FAR 52.227-19.
  
 Gaussian, Inc.
 340 Quinnipiac St., Bldg. 40, Wallingford CT 06492
  
  
 ---------------------------------------------------------------
 Warning -- This program may not be used in any manner that
 competes with the business of Gaussian, Inc. or will provide
 assistance to any competitor of Gaussian, Inc.  The licensee
 of this program is prohibited from giving any competitor of
 Gaussian, Inc. access to this program.  By using this program,
 the user acknowledges that Gaussian, Inc. is engaged in the
 business of creating and licensing software in the field of
 computational chemistry and represents and warrants to the
 licensee that it is not a competitor of Gaussian, Inc. and that
 it will not use this program in any manner prohibited above.
 ---------------------------------------------------------------
  

 Cite this work as:
 Gaussian 16, Revision A.03,
 M. J. Frisch, G. W. Trucks, H. B. Schlegel, G. E. Scuseria, 
 M. A. Robb, J. R. Cheeseman, G. Scalmani, V. Barone, 
 G. A. Petersson, H. Nakatsuji, X. Li, M. Caricato, A. V. Marenich, 
 J. Bloino, B. G. Janesko, R. Gomperts, B. Mennucci, H. P. Hratchian, 
 J. V. Ortiz, A. F. Izmaylov, J. L. Sonnenberg, D. Williams-Young, 
 F. Ding, F. Lipparini, F. Egidi, J. Goings, B. Peng, A. Petrone, 
 T. Henderson, D. Ranasinghe, V. G. Zakrzewski, J. Gao, N. Rega, 
 G. Zheng, W. Liang, M. Hada, M. Ehara, K. Toyota, R. Fukuda, 
 J. Hasegawa, M. Ishida, T. Nakajima, Y. Honda, O. Kitao, H. Nakai, 
 T. Vreven, K. Throssell, J. A. Montgomery, Jr., J. E. Peralta, 
 F. Ogliaro, M. J. Bearpark, J. J. Heyd, E. N. Brothers, K. N. Kudin, 
 V. N. Staroverov, T. A. Keith, R. Kobayashi, J. Normand, 
 K. Raghavachari, A. P. Rendell, J. C. Burant, S. S. Iyengar, 
 J. Tomasi, M. Cossi, J. M. Millam, M. Klene, C. Adamo, R. Cammi, 
 J. W. Ochterski, R. L. Martin, K. Morokuma, O. Farkas, 
 J. B. Foresman, and D. J. Fox, Gaussian, Inc., Wallingford CT, 2016.
 
 ******************************************
 Gaussian 16:  ES64L-G16RevA.03 25-Dec-2016
                18-May-2023 
 ******************************************
 %chk=CdC1CdCCdCCdCC2dCCdCCdCCdC12.chk
 %NProcShared=20
 Will use up to   20 processors via shared memory.
 -----------------------------
 # opt freq b3lyp/6-31g(2df,p)
 -----------------------------
 1/18=20,19=15,26=3,38=1/1,3;
 2/9=110,12=2,17=6,18=5,40=1/2;
 3/5=1,6=6,7=104,11=2,25=1,30=1,71=1,74=-5/1,2,3;
 4//1;
 5/5=2,38=5/2;
 6/7=2,8=2,9=2,10=2,28=1/1;
 7//1,2,3,16;
 1/18=20,19=15,26=3/3(2);
 2/9=110/2;
 99//99;
 2/9=110/2;
 3/5=1,6=6,7=104,11=2,25=1,30=1,71=1,74=-5/1,2,3;
 4/5=5,16=3,69=1/1;
 5/5=2,38=5/2;
 7//1,2,3,16;
 1/18=20,19=15,26=3/3(-5);
 2/9=110/2;
 6/7=2,8=2,9=2,10=2,19=2,28=1/1;
 99/9=1/99;
 -------------------
 Title Card Required
 -------------------
 Symbolic Z-matrix:
 Charge =  0 Multiplicity = 1
 C                     3.77278   1.31708  -1.33005 
 C                     5.25507   2.32823  -1.48278 
 C                     4.00874   1.95706  -0.17468 
 C                     4.8534    1.46643   0.70593 
 C                     5.32337   2.85469   0.74311 
 C                     6.62341   2.63252   0.67096 
 C                     7.22664   3.86636   0.73643 
 C                     8.5334    3.62057   0.4952 
 C                     8.40988   4.56244  -0.47958 
 C                     8.76617   5.77416   0.46992 
 C                     9.81626   6.98403   0.94391 
 C                     10.17965   7.98638   0.12636 
 C                     9.70589   7.68663  -1.24257 
 C                     9.40894   6.40452  -1.96831 
 C                     8.48332   4.6394   -1.96726 
 C                     7.13234   3.56566  -1.49428 
 H                     2.84571   0.3386   -0.54397 
 H                     2.38662   1.13884  -0.60981 
 H                     2.84272   2.5206   -0.02497 
 H                     5.19959   0.43168   0.14843 
 H                     4.72654   3.66895  -0.02504 
 H                     7.08721   1.73272   0.06498 
 H                     6.6489    4.79141   0.0343 
 H                     9.16627   2.8343    0.04586 
 H                     7.90941   6.12604   0.99535 
 H                     10.12817   7.15185   2.00425 
 H                     10.81787   8.86846   0.47675 
 H                     9.2192    8.67545  -1.60495 
 H                     9.82335   6.84039  -2.95745 
 H                     9.93972   4.83226  -1.58137 
 
 Add virtual bond connecting atoms H18        and H17        Dist= 1.75D+00.
 Add virtual bond connecting atoms H19        and C3         Dist= 2.46D+00.
 Add virtual bond connecting atoms H30        and C15        Dist= 2.87D+00.
 Add virtual bond connecting atoms H17        and C1         Dist= 2.95D+00.
 Add virtual bond connecting atoms H18        and C1         Dist= 2.97D+00.
 Add virtual bond connecting atoms H18        and H19        Dist= 2.96D+00.

 GradGradGradGradGradGradGradGradGradGradGradGradGradGradGradGradGradGrad
 Berny optimization.
 Initialization pass.
                           ----------------------------
                           !    Initial Parameters    !
                           ! (Angstroms and Degrees)  !
 --------------------------                            --------------------------
 ! Name  Definition              Value          Derivative Info.                !
 --------------------------------------------------------------------------------
 ! R1    R(1,2)                  1.8008         estimate D2E/DX2                !
 ! R2    R(1,3)                  1.3417         estimate D2E/DX2                !
 ! R3    R(1,17)                 1.5604         estimate D2E/DX2                !
 ! R4    R(1,18)                 1.5722         estimate D2E/DX2                !
 ! R5    R(3,4)                  1.3152         estimate D2E/DX2                !
 ! R6    R(3,19)                 1.3037         estimate D2E/DX2                !
 ! R7    R(4,5)                  1.4661         estimate D2E/DX2                !
 ! R8    R(4,20)                 1.2253         estimate D2E/DX2                !
 ! R9    R(5,6)                  1.3209         estimate D2E/DX2                !
 ! R10   R(5,21)                 1.2686         estimate D2E/DX2                !
 ! R11   R(6,7)                  1.375          estimate D2E/DX2                !
 ! R12   R(6,22)                 1.1798         estimate D2E/DX2                !
 ! R13   R(7,8)                  1.3514         estimate D2E/DX2                !
 ! R14   R(7,23)                 1.2971         estimate D2E/DX2                !
 ! R15   R(8,9)                  1.3611         estimate D2E/DX2                !
 ! R16   R(8,24)                 1.1048         estimate D2E/DX2                !
 ! R17   R(9,10)                 1.5801         estimate D2E/DX2                !
 ! R18   R(9,15)                 1.4915         estimate D2E/DX2                !
 ! R19   R(10,11)                1.6707         estimate D2E/DX2                !
 ! R20   R(10,25)                1.0649         estimate D2E/DX2                !
 ! R21   R(11,12)                1.3436         estimate D2E/DX2                !
 ! R22   R(11,26)                1.1179         estimate D2E/DX2                !
 ! R23   R(12,13)                1.4793         estimate D2E/DX2                !
 ! R24   R(12,27)                1.1437         estimate D2E/DX2                !
 ! R25   R(13,14)                1.5029         estimate D2E/DX2                !
 ! R26   R(13,28)                1.1602         estimate D2E/DX2                !
 ! R27   R(14,29)                1.1576         estimate D2E/DX2                !
 ! R28   R(15,16)                1.7894         estimate D2E/DX2                !
 ! R29   R(15,30)                1.5189         estimate D2E/DX2                !
 ! R30   R(17,18)                0.9249         estimate D2E/DX2                !
 ! R31   R(18,19)                1.5682         estimate D2E/DX2                !
 ! A1    A(2,1,3)               70.1501         estimate D2E/DX2                !
 ! A2    A(2,1,17)             152.1123         estimate D2E/DX2                !
 ! A3    A(2,1,18)             145.915          estimate D2E/DX2                !
 ! A4    A(3,1,17)              88.2686         estimate D2E/DX2                !
 ! A5    A(3,1,18)              79.3183         estimate D2E/DX2                !
 ! A6    A(1,3,4)              120.7707         estimate D2E/DX2                !
 ! A7    A(1,3,19)              98.4984         estimate D2E/DX2                !
 ! A8    A(4,3,19)             131.2083         estimate D2E/DX2                !
 ! A9    A(3,4,5)               82.5079         estimate D2E/DX2                !
 ! A10   A(3,4,20)             101.0605         estimate D2E/DX2                !
 ! A11   A(5,4,20)             136.1047         estimate D2E/DX2                !
 ! A12   A(4,5,6)               98.9079         estimate D2E/DX2                !
 ! A13   A(4,5,21)             116.2069         estimate D2E/DX2                !
 ! A14   A(6,5,21)             122.5439         estimate D2E/DX2                !
 ! A15   A(5,6,7)              106.157          estimate D2E/DX2                !
 ! A16   A(5,6,22)             122.9054         estimate D2E/DX2                !
 ! A17   A(7,6,22)             122.437          estimate D2E/DX2                !
 ! A18   A(6,7,8)              104.627          estimate D2E/DX2                !
 ! A19   A(6,7,23)             114.7576         estimate D2E/DX2                !
 ! A20   A(8,7,23)             117.6316         estimate D2E/DX2                !
 ! A21   A(7,8,9)               85.0795         estimate D2E/DX2                !
 ! A22   A(7,8,24)             139.108          estimate D2E/DX2                !
 ! A23   A(9,8,24)             104.6659         estimate D2E/DX2                !
 ! A24   A(8,9,10)              94.5796         estimate D2E/DX2                !
 ! A25   A(8,9,15)             138.2097         estimate D2E/DX2                !
 ! A26   A(10,9,15)            123.2781         estimate D2E/DX2                !
 ! A27   A(9,10,11)            150.1757         estimate D2E/DX2                !
 ! A28   A(9,10,25)            111.6224         estimate D2E/DX2                !
 ! A29   A(11,10,25)            97.2625         estimate D2E/DX2                !
 ! A30   A(10,11,12)           122.5227         estimate D2E/DX2                !
 ! A31   A(10,11,26)           123.5852         estimate D2E/DX2                !
 ! A32   A(12,11,26)           112.9354         estimate D2E/DX2                !
 ! A33   A(11,12,13)           108.9844         estimate D2E/DX2                !
 ! A34   A(11,12,27)           122.6748         estimate D2E/DX2                !
 ! A35   A(13,12,27)           128.2054         estimate D2E/DX2                !
 ! A36   A(12,13,14)           133.0799         estimate D2E/DX2                !
 ! A37   A(12,13,28)           104.5189         estimate D2E/DX2                !
 ! A38   A(14,13,28)           119.5634         estimate D2E/DX2                !
 ! A39   A(13,14,29)            91.1845         estimate D2E/DX2                !
 ! A40   A(9,15,16)             70.6221         estimate D2E/DX2                !
 ! A41   A(9,15,30)             78.4841         estimate D2E/DX2                !
 ! A42   A(16,15,30)           137.135          estimate D2E/DX2                !
 ! A43   A(1,18,19)             79.3118         estimate D2E/DX2                !
 ! A44   A(17,18,19)           126.2577         estimate D2E/DX2                !
 ! A45   A(3,19,18)             80.5859         estimate D2E/DX2                !
 ! D1    D(2,1,3,4)            -83.7009         estimate D2E/DX2                !
 ! D2    D(2,1,3,19)           126.5052         estimate D2E/DX2                !
 ! D3    D(17,1,3,4)            78.2961         estimate D2E/DX2                !
 ! D4    D(17,1,3,19)          -71.4978         estimate D2E/DX2                !
 ! D5    D(18,1,3,4)           111.6888         estimate D2E/DX2                !
 ! D6    D(18,1,3,19)          -38.1051         estimate D2E/DX2                !
 ! D7    D(2,1,18,19)            4.6374         estimate D2E/DX2                !
 ! D8    D(3,1,18,19)           31.0866         estimate D2E/DX2                !
 ! D9    D(1,3,4,5)            134.4518         estimate D2E/DX2                !
 ! D10   D(1,3,4,20)            -1.18           estimate D2E/DX2                !
 ! D11   D(19,3,4,5)           -86.9553         estimate D2E/DX2                !
 ! D12   D(19,3,4,20)          137.4128         estimate D2E/DX2                !
 ! D13   D(1,3,19,18)           38.0441         estimate D2E/DX2                !
 ! D14   D(4,3,19,18)         -106.8841         estimate D2E/DX2                !
 ! D15   D(3,4,5,6)           -133.8432         estimate D2E/DX2                !
 ! D16   D(3,4,5,21)            -0.6826         estimate D2E/DX2                !
 ! D17   D(20,4,5,6)           -35.6568         estimate D2E/DX2                !
 ! D18   D(20,4,5,21)           97.5039         estimate D2E/DX2                !
 ! D19   D(4,5,6,7)           -178.2092         estimate D2E/DX2                !
 ! D20   D(4,5,6,22)            33.2954         estimate D2E/DX2                !
 ! D21   D(21,5,6,7)            52.7193         estimate D2E/DX2                !
 ! D22   D(21,5,6,22)          -95.7762         estimate D2E/DX2                !
 ! D23   D(5,6,7,8)           -172.6872         estimate D2E/DX2                !
 ! D24   D(5,6,7,23)           -42.2819         estimate D2E/DX2                !
 ! D25   D(22,6,7,8)           -24.0084         estimate D2E/DX2                !
 ! D26   D(22,6,7,23)          106.3969         estimate D2E/DX2                !
 ! D27   D(6,7,8,9)            126.1525         estimate D2E/DX2                !
 ! D28   D(6,7,8,24)            19.3682         estimate D2E/DX2                !
 ! D29   D(23,7,8,9)            -2.5404         estimate D2E/DX2                !
 ! D30   D(23,7,8,24)         -109.3247         estimate D2E/DX2                !
 ! D31   D(7,8,9,10)            88.7391         estimate D2E/DX2                !
 ! D32   D(7,8,9,15)          -114.9652         estimate D2E/DX2                !
 ! D33   D(24,8,9,10)         -131.641          estimate D2E/DX2                !
 ! D34   D(24,8,9,15)           24.6547         estimate D2E/DX2                !
 ! D35   D(8,9,10,11)          110.2554         estimate D2E/DX2                !
 ! D36   D(8,9,10,25)          -84.9781         estimate D2E/DX2                !
 ! D37   D(15,9,10,11)         -51.0541         estimate D2E/DX2                !
 ! D38   D(15,9,10,25)         113.7124         estimate D2E/DX2                !
 ! D39   D(8,9,15,16)           62.6672         estimate D2E/DX2                !
 ! D40   D(8,9,15,30)          -87.1694         estimate D2E/DX2                !
 ! D41   D(10,9,15,16)        -145.9749         estimate D2E/DX2                !
 ! D42   D(10,9,15,30)          64.1885         estimate D2E/DX2                !
 ! D43   D(9,10,11,12)          61.6729         estimate D2E/DX2                !
 ! D44   D(9,10,11,26)        -130.3167         estimate D2E/DX2                !
 ! D45   D(25,10,11,12)       -104.072          estimate D2E/DX2                !
 ! D46   D(25,10,11,26)         63.9384         estimate D2E/DX2                !
 ! D47   D(10,11,12,13)         -9.8806         estimate D2E/DX2                !
 ! D48   D(10,11,12,27)        174.032          estimate D2E/DX2                !
 ! D49   D(26,11,12,13)       -179.0498         estimate D2E/DX2                !
 ! D50   D(26,11,12,27)          4.8629         estimate D2E/DX2                !
 ! D51   D(11,12,13,14)        -26.4756         estimate D2E/DX2                !
 ! D52   D(11,12,13,28)        133.5681         estimate D2E/DX2                !
 ! D53   D(27,12,13,14)        149.3327         estimate D2E/DX2                !
 ! D54   D(27,12,13,28)        -50.6236         estimate D2E/DX2                !
 ! D55   D(12,13,14,29)       -143.3203         estimate D2E/DX2                !
 ! D56   D(28,13,14,29)         59.0045         estimate D2E/DX2                !
 ! D57   D(1,18,19,3)          -31.9586         estimate D2E/DX2                !
 ! D58   D(17,18,19,3)          26.3218         estimate D2E/DX2                !
 --------------------------------------------------------------------------------
 Trust Radius=3.00D-01 FncErr=1.00D-07 GrdErr=1.00D-06 EigMax=2.50D+02 EigMin=1.00D-04
 Number of steps in this run=    144 maximum allowed number of steps=    180.
 GradGradGradGradGradGradGradGradGradGradGradGradGradGradGradGradGradGrad

                          Input orientation:                          
 ---------------------------------------------------------------------
 Center     Atomic      Atomic             Coordinates (Angstroms)
 Number     Number       Type             X           Y           Z
 ---------------------------------------------------------------------
      1          6           0        3.772780    1.317080   -1.330050
      2          6           0        5.255070    2.328230   -1.482780
      3          6           0        4.008740    1.957060   -0.174680
      4          6           0        4.853400    1.466430    0.705930
      5          6           0        5.323370    2.854690    0.743110
      6          6           0        6.623410    2.632520    0.670960
      7          6           0        7.226640    3.866360    0.736430
      8          6           0        8.533400    3.620570    0.495200
      9          6           0        8.409880    4.562440   -0.479580
     10          6           0        8.766170    5.774160    0.469920
     11          6           0        9.816260    6.984030    0.943910
     12          6           0       10.179650    7.986380    0.126360
     13          6           0        9.705890    7.686630   -1.242570
     14          6           0        9.408940    6.404520   -1.968310
     15          6           0        8.483320    4.639400   -1.967260
     16          6           0        7.132340    3.565660   -1.494280
     17          1           0        2.845710    0.338600   -0.543970
     18          1           0        2.386620    1.138840   -0.609810
     19          1           0        2.842720    2.520600   -0.024970
     20          1           0        5.199590    0.431680    0.148430
     21          1           0        4.726540    3.668950   -0.025040
     22          1           0        7.087210    1.732720    0.064980
     23          1           0        6.648900    4.791410    0.034300
     24          1           0        9.166270    2.834300    0.045860
     25          1           0        7.909410    6.126040    0.995350
     26          1           0       10.128170    7.151850    2.004250
     27          1           0       10.817870    8.868460    0.476750
     28          1           0        9.219200    8.675450   -1.604950
     29          1           0        9.823350    6.840390   -2.957450
     30          1           0        9.939720    4.832260   -1.581370
 ---------------------------------------------------------------------
                    Distance matrix (angstroms):
                    1          2          3          4          5
     1  C    0.000000
     2  C    1.800815   0.000000
     3  C    1.341690   1.844514   0.000000
     4  C    2.309818   2.386313   1.315159   0.000000
     5  C    3.011074   2.288321   1.837479   1.466124   0.000000
     6  C    3.722971   2.569736   2.829815   2.119888   1.320859
     7  C    4.764275   3.343325   3.851030   3.375331   2.155448
     8  C    5.594739   4.041039   4.867089   4.269324   3.309430
     9  C    5.723492   3.993862   5.123573   4.862022   3.733353
    10  C    6.931046   5.292948   6.133425   5.824260   4.522257
    11  C    8.591209   6.954837   7.762020   7.424993   6.105557
    12  C    9.362087   7.671733   8.632697   8.438874   7.092114
    13  C    8.705206   6.969932   8.150207   8.126143   6.818875
    14  C    7.619430   5.840078   7.222131   7.231130   6.053509
    15  C    5.799399   3.999728   5.516354   5.512713   4.529523
    16  C    4.045952   2.248446   3.753107   3.800166   2.963742
    17  H    1.560386   3.262669   2.026925   2.620128   3.758468
    18  H    1.572245   3.225636   1.868180   2.814870   3.660469
    19  H    2.004172   2.825181   1.303684   2.385021   2.618241
    20  H    2.237325   2.502164   1.961965   1.225301   2.497988
    21  H    2.853770   2.049849   1.862309   2.324114   1.268574
    22  H    3.619988   2.471220   3.095924   2.339152   2.197683
    23  H    4.712164   3.211160   3.879131   3.838020   2.451597
    24  H    5.769300   4.229697   5.236249   4.572484   3.905695
    25  H    6.756130   5.254523   5.827915   5.579868   4.177674
    26  H    9.249491   7.692450   8.317512   7.863386   6.568269
    27  H   10.484329   8.806765   9.723994   9.508810   8.150209
    28  H    9.158857   7.484414   8.621562   8.739013   7.387295
    29  H    8.352531   6.588127   8.087052   8.185365   7.059020
    30  H    7.102873   5.312799   6.739590   6.513924   5.533957
                    6          7          8          9         10
     6  C    0.000000
     7  C    1.374967   0.000000
     8  C    2.157590   1.351379   0.000000
     9  C    2.870507   1.833921   1.361092   0.000000
    10  C    3.808115   2.465944   2.166280   1.580113   0.000000
    11  C    5.404113   4.058207   3.627662   3.141389   1.670671
    12  C    6.450368   5.105587   4.680436   3.901617   2.647617
    13  C    6.221520   4.965640   4.574650   3.467327   2.733722
    14  C    5.380791   4.303523   3.819140   2.570544   2.599129
    15  C    3.800926   3.080061   2.665376   1.491478   2.703244
    16  C    2.412058   2.252860   2.433930   1.911883   3.377122
    17  H    4.583573   5.768627   6.648385   6.986055   8.100934
    18  H    4.671385   5.716426   6.720337   6.929477   7.959313
    19  H    3.845837   4.648608   5.819308   5.947189   6.776270
    20  H    2.672826   4.031340   4.626398   5.269112   6.431636
    21  H    2.270841   2.620936   3.842548   3.817319   4.582085
    22  H    1.179814   2.241139   2.416719   3.170697   4.395011
    23  H    2.250954   1.297107   2.265973   1.848662   2.374530
    24  H    2.626329   2.303085   1.104831   1.958234   2.997113
    25  H    3.736804   2.374735   2.629999   2.206974   1.064863
    26  H    5.872423   4.562969   4.158180   3.978313   2.471284
    27  H    7.517856   6.163227   5.723591   5.025415   3.712710
    28  H    6.959518   5.707863   5.516590   4.340312   3.595526
    29  H    6.411797   5.406709   4.894078   3.650588   3.741837
    30  H    4.572719   3.696750   2.785331   1.904509   2.544049
                   11         12         13         14         15
    11  C    0.000000
    12  C    1.343557   0.000000
    13  C    2.299244   1.479280   0.000000
    14  C    2.997126   2.735675   1.502892   0.000000
    15  C    3.968492   4.296866   3.362360   1.993094   0.000000
    16  C    4.983317   5.608506   4.865071   3.669705   1.789350
    17  H    9.744952  10.617182  10.076887   9.049868   7.232239
    18  H    9.580180  10.400099   9.841019   8.881773   7.160052
    19  H    8.336138   9.150311   8.676031   7.872525   6.330732
    20  H    8.054795   9.048479   8.653087   7.607498   5.741423
    21  H    6.150924   6.956977   6.512915   5.760600   4.339054
    22  H    5.983017   6.976763   6.634472   5.599144   3.811550
    23  H    3.958174   4.762615   4.399760   3.772319   2.719273
    24  H    4.295258   5.251414   5.049391   4.106366   2.788810
    25  H    2.091619   3.061045   3.266660   3.333080   3.364005
    26  H    1.117932   2.055617   3.317552   4.105731   4.979039
    27  H    2.184614   1.143750   2.364166   3.746252   5.413710
    28  H    3.116740   2.096358   1.160151   2.307630   4.118554
    29  H    3.904010   3.309098   1.915916   1.157634   2.760528
    30  H    3.319999   3.594771   2.883902   1.703952   1.518949
                   16         17         18         19         20
    16  C    0.000000
    17  H    5.449055   0.000000
    18  H    5.403110   0.924923   0.000000
    19  H    4.653156   2.242876   1.568224   0.000000
    20  H    4.031854   2.455368   2.997967   3.154123   0.000000
    21  H    2.820852   3.859798   3.495517   2.206238   3.276246
    22  H    2.406865   4.506075   4.785769   4.317933   2.294075
    23  H    2.018102   5.884400   5.650060   4.432505   4.595734
    24  H    2.654014   6.820989   7.019127   6.331722   4.638713
    25  H    3.654811   7.842514   7.612484   6.301714   6.362872
    26  H    5.837420  10.293106  10.145008   8.868145   8.537895
    27  H    6.751872  11.719885  11.489718  10.205394  10.141603
    28  H    5.520615  10.547517  10.221299   9.002112   9.337631
    29  H    4.484000   9.837968   9.660437   8.717180   8.491008
    30  H    3.081111   8.461333   8.463723   7.624537   6.695233
                   21         22         23         24         25
    21  H    0.000000
    22  H    3.054481   0.000000
    23  H    2.226860   3.090088   0.000000
    24  H    4.518060   2.352942   3.188662   0.000000
    25  H    4.148391   4.565398   2.072134   3.649216   0.000000
    26  H    6.739897   6.509622   4.643027   4.837539   2.644440
    27  H    8.024400   8.062640   5.847941   6.270928   4.030999
    28  H    6.909787   7.452218   4.937545   6.070174   3.869961
    29  H    6.680908   6.535276   4.819338   5.049790   4.449504
    30  H    5.563515   4.522657   3.666273   2.690343   3.526402
                   26         27         28         29         30
    26  H    0.000000
    27  H    2.399102   0.000000
    28  H    4.021680   2.631819   0.000000
    29  H    4.980802   4.110458   2.358325   0.000000
    30  H    4.274656   4.614967   3.910219   2.437155   0.000000
 Stoichiometry    C16H14
 Framework group  C1[X(C16H14)]
 Deg. of freedom    84
 Full point group                 C1      NOp   1
 Largest Abelian subgroup         C1      NOp   1
 Largest concise Abelian subgroup C1      NOp   1
                         Standard orientation:                         
 ---------------------------------------------------------------------
 Center     Atomic      Atomic             Coordinates (Angstroms)
 Number     Number       Type             X           Y           Z
 ---------------------------------------------------------------------
      1          6           0        4.539922    1.130650   -0.367612
      2          6           0        2.775794    1.222210   -0.017751
      3          6           0        3.941221   -0.009854   -0.743029
      4          6           0        3.712043   -0.967901    0.128330
      5          6           0        2.395992   -0.978281   -0.517753
      6          6           0        1.637638   -1.007250    0.563325
      7          6           0        0.338035   -1.061824    0.117693
      8          6           0       -0.411475   -0.923776    1.233669
      9          6           0       -1.012029    0.096864    0.562700
     10          6           0       -2.105401   -0.822340   -0.112844
     11          6           0       -3.694673   -1.316467   -0.258422
     12          6           0       -4.677825   -0.484126   -0.640216
     13          6           0       -4.157500    0.900546   -0.654867
     14          6           0       -3.051645    1.589556    0.094155
     15          6           0       -1.146569    1.577640    0.679788
     16          6           0        0.575688    1.155003    0.441078
     17          1           0        5.902163    0.370295   -0.398620
     18          1           0        5.655564    0.502566   -1.280195
     19          1           0        4.364271   -0.052918   -1.975412
     20          1           0        4.192838   -0.481102    1.144806
     21          1           0        2.223045   -0.135806   -1.450280
     22          1           0        1.938904   -0.474596    1.572027
     23          1           0        0.074214   -0.281723   -0.884469
     24          1           0       -0.306847   -0.554225    2.269592
     25          1           0       -1.742505   -1.270672   -1.007963
     26          1           0       -4.013253   -2.387900   -0.240781
     27          1           0       -5.746800   -0.840233   -0.836796
     28          1           0       -4.524244    1.338397   -1.664687
     29          1           0       -3.671590    2.564965    0.160199
     30          1           0       -2.301054    1.099047    1.543108
 ---------------------------------------------------------------------
 Rotational constants (GHZ):           1.6301372           0.2641303           0.2452395
 Standard basis: 6-31G(2df,p) (6D, 7F)
 There are   566 symmetry adapted cartesian basis functions of A   symmetry.
 There are   518 symmetry adapted basis functions of A   symmetry.
   518 basis functions,   802 primitive gaussians,   566 cartesian basis functions
    55 alpha electrons       55 beta electrons
       nuclear repulsion energy       950.6757312147 Hartrees.
 NAtoms=   30 NActive=   30 NUniq=   30 SFac= 1.00D+00 NAtFMM=   60 NAOKFM=F Big=F
 Integral buffers will be    131072 words long.
 Raffenetti 2 integral format.
 Two-electron integral symmetry is turned on.
 One-electron integrals computed using PRISM.
 PrsmSu:  requested number of processors reduced to:  12 ShMem   1 Linda.
 NBasis=   518 RedAO= T EigKep=  2.77D-04  NBF=   518
 NBsUse=   518 1.00D-06 EigRej= -1.00D+00 NBFU=   518
 ExpMin= 1.61D-01 ExpMax= 3.05D+03 ExpMxC= 4.57D+02 IAcc=3 IRadAn=         5 AccDes= 0.00D+00
 Harris functional with IExCor=  402 and IRadAn=       5 diagonalized for initial guess.
 HarFok:  IExCor=  402 AccDes= 0.00D+00 IRadAn=         5 IDoV= 1 UseB2=F ITyADJ=14
 ICtDFT=  3500011 ScaDFX=  1.000000  1.000000  1.000000  1.000000
 FoFCou: FMM=F IPFlag=           0 FMFlag=      100000 FMFlg1=           0
         NFxFlg=           0 DoJE=T BraDBF=F KetDBF=T FulRan=T
         wScrn=  0.000000 ICntrl=       500 IOpCl=  0 I1Cent=   200000004 NGrid=           0
         NMat0=    1 NMatS0=      1 NMatT0=    0 NMatD0=    1 NMtDS0=    0 NMtDT0=    0
 Petite list used in FoFCou.
 Requested convergence on RMS density matrix=1.00D-08 within 128 cycles.
 Requested convergence on MAX density matrix=1.00D-06.
 Requested convergence on             energy=1.00D-06.
 No special actions if energy rises.
 Integral accuracy reduced to 1.0D-05 until final iterations.
 EnCoef did     7 forward-backward iterations
 EnCoef did     4 forward-backward iterations
 Problem detected with inexpensive integrals.
 Switching to full accuracy and repeating last cycle.
 EnCoef did     3 forward-backward iterations
 EnCoef did   100 forward-backward iterations
 EnCoef did   100 forward-backward iterations
 EnCoef did   100 forward-backward iterations
 EnCoef did     4 forward-backward iterations
 EnCoef did   100 forward-backward iterations
 EnCoef did   100 forward-backward iterations
 EnCoef did     1 forward-backward iterations
 Restarting incremental Fock formation.
 SCF Done:  E(RB3LYP) =  -616.433364650     A.U. after   33 cycles
            NFock= 33  Conv=0.94D-08     -V/T= 2.0077

 **********************************************************************

            Population analysis using the SCF density.

 **********************************************************************

 Orbital symmetries:
       Occupied  (A) (A) (A) (A) (A) (A) (A) (A) (A) (A) (A) (A)
                 (A) (A) (A) (A) (A) (A) (A) (A) (A) (A) (A) (A)
                 (A) (A) (A) (A) (A) (A) (A) (A) (A) (A) (A) (A)
                 (A) (A) (A) (A) (A) (A) (A) (A) (A) (A) (A) (A)
                 (A) (A) (A) (A) (A) (A) (A)
       Virtual   (A) (A) (A) (A) (A) (A) (A) (A) (A) (A) (A) (A)
                 (A) (A) (A) (A) (A) (A) (A) (A) (A) (A) (A) (A)
                 (A) (A) (A) (A) (A) (A) (A) (A) (A) (A) (A) (A)
                 (A) (A) (A) (A) (A) (A) (A) (A) (A) (A) (A) (A)
                 (A) (A) (A) (A) (A) (A) (A) (A) (A) (A) (A) (A)
                 (A) (A) (A) (A) (A) (A) (A) (A) (A) (A) (A) (A)
                 (A) (A) (A) (A) (A) (A) (A) (A) (A) (A) (A) (A)
                 (A) (A) (A) (A) (A) (A) (A) (A) (A) (A) (A) (A)
                 (A) (A) (A) (A) (A) (A) (A) (A) (A) (A) (A) (A)
                 (A) (A) (A) (A) (A) (A) (A) (A) (A) (A) (A) (A)
                 (A) (A) (A) (A) (A) (A) (A) (A) (A) (A) (A) (A)
                 (A) (A) (A) (A) (A) (A) (A) (A) (A) (A) (A) (A)
                 (A) (A) (A) (A) (A) (A) (A) (A) (A) (A) (A) (A)
                 (A) (A) (A) (A) (A) (A) (A) (A) (A) (A) (A) (A)
                 (A) (A) (A) (A) (A) (A) (A) (A) (A) (A) (A) (A)
                 (A) (A) (A) (A) (A) (A) (A) (A) (A) (A) (A) (A)
                 (A) (A) (A) (A) (A) (A) (A) (A) (A) (A) (A) (A)
                 (A) (A) (A) (A) (A) (A) (A) (A) (A) (A) (A) (A)
                 (A) (A) (A) (A) (A) (A) (A) (A) (A) (A) (A) (A)
                 (A) (A) (A) (A) (A) (A) (A) (A) (A) (A) (A) (A)
                 (A) (A) (A) (A) (A) (A) (A) (A) (A) (A) (A) (A)
                 (A) (A) (A) (A) (A) (A) (A) (A) (A) (A) (A) (A)
                 (A) (A) (A) (A) (A) (A) (A) (A) (A) (A) (A) (A)
                 (A) (A) (A) (A) (A) (A) (A) (A) (A) (A) (A) (A)
                 (A) (A) (A) (A) (A) (A) (A) (A) (A) (A) (A) (A)
                 (A) (A) (A) (A) (A) (A) (A) (A) (A) (A) (A) (A)
                 (A) (A) (A) (A) (A) (A) (A) (A) (A) (A) (A) (A)
                 (A) (A) (A) (A) (A) (A) (A) (A) (A) (A) (A) (A)
                 (A) (A) (A) (A) (A) (A) (A) (A) (A) (A) (A) (A)
                 (A) (A) (A) (A) (A) (A) (A) (A) (A) (A) (A) (A)
                 (A) (A) (A) (A) (A) (A) (A) (A) (A) (A) (A) (A)
                 (A) (A) (A) (A) (A) (A) (A) (A) (A) (A) (A) (A)
                 (A) (A) (A) (A) (A) (A) (A) (A) (A) (A) (A) (A)
                 (A) (A) (A) (A) (A) (A) (A) (A) (A) (A) (A) (A)
                 (A) (A) (A) (A) (A) (A) (A) (A) (A) (A) (A) (A)
                 (A) (A) (A) (A) (A) (A) (A) (A) (A) (A) (A) (A)
                 (A) (A) (A) (A) (A) (A) (A) (A) (A) (A) (A) (A)
                 (A) (A) (A) (A) (A) (A) (A) (A) (A) (A) (A) (A)
                 (A) (A) (A) (A) (A) (A) (A)
 The electronic state is 1-A.
 Alpha  occ. eigenvalues --  -10.29072 -10.28909 -10.28038 -10.25969 -10.25750
 Alpha  occ. eigenvalues --  -10.25528 -10.24936 -10.23307 -10.22878 -10.22778
 Alpha  occ. eigenvalues --  -10.22768 -10.22591 -10.22203 -10.20881 -10.20817
 Alpha  occ. eigenvalues --  -10.19474  -0.95999  -0.94148  -0.83635  -0.81086
 Alpha  occ. eigenvalues --   -0.76902  -0.73525  -0.70491  -0.68838  -0.63040
 Alpha  occ. eigenvalues --   -0.62063  -0.60602  -0.59225  -0.56231  -0.55268
 Alpha  occ. eigenvalues --   -0.50492  -0.49376  -0.48487  -0.47161  -0.45831
 Alpha  occ. eigenvalues --   -0.43711  -0.42406  -0.41970  -0.41468  -0.39607
 Alpha  occ. eigenvalues --   -0.38754  -0.36856  -0.35847  -0.35039  -0.33485
 Alpha  occ. eigenvalues --   -0.32175  -0.31071  -0.29048  -0.27458  -0.24105
 Alpha  occ. eigenvalues --   -0.23279  -0.23063  -0.20033  -0.19567  -0.15515
 Alpha virt. eigenvalues --   -0.11570  -0.11177  -0.10748  -0.08880  -0.06752
 Alpha virt. eigenvalues --   -0.05215  -0.03709  -0.02887  -0.01153  -0.00450
 Alpha virt. eigenvalues --    0.03727   0.04252   0.06370   0.07846   0.09412
 Alpha virt. eigenvalues --    0.10003   0.10171   0.10432   0.10643   0.12534
 Alpha virt. eigenvalues --    0.13367   0.14045   0.14243   0.15702   0.16289
 Alpha virt. eigenvalues --    0.18645   0.19654   0.22371   0.24023   0.24792
 Alpha virt. eigenvalues --    0.27099   0.28073   0.28540   0.30809   0.32625
 Alpha virt. eigenvalues --    0.34429   0.34977   0.37273   0.38206   0.41259
 Alpha virt. eigenvalues --    0.43201   0.44158   0.45262   0.45609   0.46051
 Alpha virt. eigenvalues --    0.48091   0.48766   0.48794   0.49411   0.49979
 Alpha virt. eigenvalues --    0.50248   0.51203   0.51825   0.52447   0.53365
 Alpha virt. eigenvalues --    0.54130   0.54600   0.55193   0.55973   0.56795
 Alpha virt. eigenvalues --    0.57485   0.58482   0.59249   0.59567   0.60951
 Alpha virt. eigenvalues --    0.61203   0.61934   0.62792   0.64254   0.64402
 Alpha virt. eigenvalues --    0.65166   0.65334   0.66209   0.66657   0.67876
 Alpha virt. eigenvalues --    0.68044   0.69142   0.69461   0.69938   0.70677
 Alpha virt. eigenvalues --    0.71350   0.72266   0.72517   0.72954   0.74097
 Alpha virt. eigenvalues --    0.74217   0.74600   0.74788   0.75324   0.76526
 Alpha virt. eigenvalues --    0.77385   0.78463   0.79220   0.79986   0.80735
 Alpha virt. eigenvalues --    0.81002   0.81621   0.82546   0.82752   0.84010
 Alpha virt. eigenvalues --    0.84706   0.85883   0.86687   0.88969   0.89935
 Alpha virt. eigenvalues --    0.91636   0.92059   0.93153   0.94417   0.94875
 Alpha virt. eigenvalues --    0.95622   0.96482   0.97154   0.98976   1.00747
 Alpha virt. eigenvalues --    1.01215   1.02991   1.04225   1.06008   1.06191
 Alpha virt. eigenvalues --    1.08059   1.09506   1.09934   1.12280   1.13813
 Alpha virt. eigenvalues --    1.16218   1.17411   1.18260   1.19570   1.21569
 Alpha virt. eigenvalues --    1.22750   1.24305   1.25640   1.27138   1.27631
 Alpha virt. eigenvalues --    1.28661   1.29727   1.31208   1.32195   1.33446
 Alpha virt. eigenvalues --    1.36115   1.37582   1.38787   1.39409   1.39747
 Alpha virt. eigenvalues --    1.41212   1.42362   1.42766   1.44453   1.46154
 Alpha virt. eigenvalues --    1.47351   1.48410   1.48565   1.48914   1.50680
 Alpha virt. eigenvalues --    1.52431   1.52891   1.54081   1.54830   1.56037
 Alpha virt. eigenvalues --    1.56804   1.57812   1.59896   1.60507   1.61347
 Alpha virt. eigenvalues --    1.62352   1.63466   1.65527   1.67361   1.68146
 Alpha virt. eigenvalues --    1.68903   1.70200   1.71590   1.72562   1.74052
 Alpha virt. eigenvalues --    1.75398   1.75997   1.77711   1.78608   1.81764
 Alpha virt. eigenvalues --    1.83721   1.84182   1.85184   1.87182   1.87717
 Alpha virt. eigenvalues --    1.90149   1.91342   1.92971   1.93358   1.95111
 Alpha virt. eigenvalues --    1.96614   1.98516   2.00849   2.04663   2.06397
 Alpha virt. eigenvalues --    2.07689   2.10927   2.12103   2.13214   2.16194
 Alpha virt. eigenvalues --    2.17802   2.19100   2.19650   2.21148   2.22047
 Alpha virt. eigenvalues --    2.26739   2.27420   2.29559   2.30345   2.31824
 Alpha virt. eigenvalues --    2.32049   2.33650   2.35298   2.36354   2.37640
 Alpha virt. eigenvalues --    2.38264   2.40786   2.42342   2.44772   2.45558
 Alpha virt. eigenvalues --    2.46074   2.48304   2.49085   2.52085   2.52990
 Alpha virt. eigenvalues --    2.53837   2.55609   2.56217   2.60352   2.60794
 Alpha virt. eigenvalues --    2.60971   2.63987   2.64323   2.67407   2.68435
 Alpha virt. eigenvalues --    2.70159   2.70627   2.71844   2.73162   2.74982
 Alpha virt. eigenvalues --    2.75431   2.76720   2.77400   2.78410   2.79384
 Alpha virt. eigenvalues --    2.79771   2.82120   2.82351   2.82884   2.84851
 Alpha virt. eigenvalues --    2.85104   2.86801   2.87285   2.88259   2.90052
 Alpha virt. eigenvalues --    2.90914   2.91561   2.92483   2.93722   2.94272
 Alpha virt. eigenvalues --    2.94567   2.95305   2.96046   2.98001   2.99129
 Alpha virt. eigenvalues --    3.00051   3.00808   3.02010   3.03024   3.03672
 Alpha virt. eigenvalues --    3.05714   3.08014   3.08727   3.09850   3.10941
 Alpha virt. eigenvalues --    3.11211   3.13359   3.14976   3.16299   3.17672
 Alpha virt. eigenvalues --    3.18905   3.19904   3.20604   3.21815   3.22009
 Alpha virt. eigenvalues --    3.22921   3.25150   3.26643   3.28376   3.29299
 Alpha virt. eigenvalues --    3.30981   3.31492   3.31963   3.33945   3.34716
 Alpha virt. eigenvalues --    3.35469   3.36376   3.37717   3.39327   3.40640
 Alpha virt. eigenvalues --    3.41448   3.42383   3.43195   3.44000   3.45277
 Alpha virt. eigenvalues --    3.45947   3.48073   3.48814   3.50217   3.51612
 Alpha virt. eigenvalues --    3.52964   3.54107   3.54776   3.56415   3.57293
 Alpha virt. eigenvalues --    3.57992   3.59595   3.61689   3.63812   3.64965
 Alpha virt. eigenvalues --    3.67243   3.69103   3.71030   3.72430   3.73226
 Alpha virt. eigenvalues --    3.75265   3.76332   3.78163   3.78548   3.81617
 Alpha virt. eigenvalues --    3.84118   3.84338   3.86010   3.88164   3.91249
 Alpha virt. eigenvalues --    3.92290   3.94452   3.96592   3.98066   4.00349
 Alpha virt. eigenvalues --    4.03521   4.04767   4.06597   4.10287   4.11568
 Alpha virt. eigenvalues --    4.13738   4.14201   4.16067   4.19057   4.20859
 Alpha virt. eigenvalues --    4.23318   4.25634   4.26589   4.29746   4.30920
 Alpha virt. eigenvalues --    4.32442   4.33729   4.34019   4.35427   4.36306
 Alpha virt. eigenvalues --    4.38675   4.39532   4.41961   4.43962   4.44613
 Alpha virt. eigenvalues --    4.46809   4.47578   4.48138   4.50367   4.52937
 Alpha virt. eigenvalues --    4.53521   4.53987   4.54472   4.55914   4.57001
 Alpha virt. eigenvalues --    4.57742   4.59170   4.61277   4.61989   4.62185
 Alpha virt. eigenvalues --    4.63188   4.64081   4.64927   4.66347   4.67010
 Alpha virt. eigenvalues --    4.68621   4.68965   4.70553   4.72303   4.73839
 Alpha virt. eigenvalues --    4.74298   4.75281   4.75533   4.76866   4.79515
 Alpha virt. eigenvalues --    4.80567   4.81560   4.83124   4.83575   4.83754
 Alpha virt. eigenvalues --    4.85537   4.86289   4.86530   4.89393   4.90096
 Alpha virt. eigenvalues --    4.93381   4.94448   4.95432   4.96331   4.98870
 Alpha virt. eigenvalues --    4.99544   5.03271   5.04763   5.05531   5.07505
 Alpha virt. eigenvalues --    5.09080   5.11221   5.12014   5.13644   5.15752
 Alpha virt. eigenvalues --    5.17799   5.18119   5.20110   5.23336   5.26211
 Alpha virt. eigenvalues --    5.28387   5.30786   5.32668   5.33541   5.35755
 Alpha virt. eigenvalues --    5.39883   5.42635   5.45460   5.50441   5.52757
 Alpha virt. eigenvalues --    5.56165   5.57925   5.61819   5.62982   5.64193
 Alpha virt. eigenvalues --    5.74475   5.76770   5.81098   5.96772   6.08830
 Alpha virt. eigenvalues --    6.50988   6.67361   9.95660  10.16987  10.29675
 Alpha virt. eigenvalues --   10.60259  10.82464  10.93117  11.10248  11.22378
 Alpha virt. eigenvalues --   11.36918  11.57012  11.79004  12.00134  12.12531
 Alpha virt. eigenvalues --   12.26291  12.34876  12.47508
          Condensed to atoms (all electrons):
               1          2          3          4          5          6
     1  C    6.023988   0.192171   0.524907  -0.091722   0.000431  -0.000601
     2  C    0.192171   5.853869   0.028872  -0.038972  -0.044436  -0.012774
     3  C    0.524907   0.028872   4.729392   0.481139  -0.024249  -0.028318
     4  C   -0.091722  -0.038972   0.481139   5.392985   0.338225  -0.047787
     5  C    0.000431  -0.044436  -0.024249   0.338225   5.248145   0.456823
     6  C   -0.000601  -0.012774  -0.028318  -0.047787   0.456823   4.962279
     7  C    0.000056   0.002123   0.000490  -0.000689  -0.005853   0.484605
     8  C   -0.000041   0.001500  -0.000070  -0.000830  -0.004201  -0.048734
     9  C    0.000001   0.000024   0.000089  -0.000120   0.000091  -0.024176
    10  C    0.000000  -0.000021   0.000001  -0.000017   0.000257   0.000882
    11  C   -0.000000   0.000000  -0.000000  -0.000000   0.000001  -0.000083
    12  C    0.000000  -0.000000  -0.000000   0.000000   0.000000   0.000001
    13  C   -0.000000   0.000000  -0.000000  -0.000000  -0.000000  -0.000002
    14  C    0.000000  -0.000019   0.000000  -0.000000  -0.000002   0.000024
    15  C   -0.000004  -0.000501  -0.000023  -0.000001   0.000279   0.003877
    16  C   -0.002491   0.066331   0.001303   0.002341  -0.007863   0.003280
    17  H   -0.123699   0.011113  -0.050649  -0.005427  -0.000401  -0.000132
    18  H   -0.165939   0.013158  -0.061668  -0.002052  -0.000444  -0.000022
    19  H   -0.112418  -0.009904   0.347155  -0.031511  -0.010942   0.003115
    20  H    0.017839   0.011990  -0.052219   0.312380  -0.031118   0.002152
    21  H   -0.000140   0.022584   0.017013  -0.050438   0.300317  -0.056936
    22  H   -0.000108   0.010930   0.002760  -0.010515  -0.070793   0.388486
    23  H   -0.000060   0.004691  -0.000295   0.000876  -0.009295  -0.052796
    24  H   -0.000001  -0.000184   0.000005  -0.000080   0.000598  -0.005370
    25  H   -0.000000   0.000009   0.000002   0.000006  -0.000107   0.001306
    26  H   -0.000000   0.000000   0.000000  -0.000000  -0.000000   0.000001
    27  H   -0.000000   0.000000  -0.000000   0.000000   0.000000  -0.000000
    28  H    0.000000  -0.000000   0.000000  -0.000000   0.000000   0.000000
    29  H   -0.000000   0.000000  -0.000000   0.000000   0.000000  -0.000000
    30  H    0.000000  -0.000040   0.000000  -0.000000   0.000010  -0.000293
               7          8          9         10         11         12
     1  C    0.000056  -0.000041   0.000001   0.000000  -0.000000   0.000000
     2  C    0.002123   0.001500   0.000024  -0.000021   0.000000  -0.000000
     3  C    0.000490  -0.000070   0.000089   0.000001  -0.000000  -0.000000
     4  C   -0.000689  -0.000830  -0.000120  -0.000017  -0.000000   0.000000
     5  C   -0.005853  -0.004201   0.000091   0.000257   0.000001   0.000000
     6  C    0.484605  -0.048734  -0.024176   0.000882  -0.000083   0.000001
     7  C    5.195766   0.381823  -0.067812  -0.007632  -0.000260   0.000116
     8  C    0.381823   5.396923   0.344612   0.024182  -0.001182   0.000266
     9  C   -0.067812   0.344612   4.642967   0.324553  -0.007977  -0.001442
    10  C   -0.007632   0.024182   0.324553   5.226016   0.365300  -0.020394
    11  C   -0.000260  -0.001182  -0.007977   0.365300   5.036456   0.545781
    12  C    0.000116   0.000266  -0.001442  -0.020394   0.545781   4.805348
    13  C    0.000071   0.000056  -0.005444  -0.025928  -0.050674   0.472763
    14  C   -0.001164   0.006142  -0.022295  -0.014287  -0.021939  -0.012625
    15  C   -0.005021  -0.050288   0.496738  -0.067221  -0.000737   0.000524
    16  C   -0.058077  -0.067242   0.034418  -0.005796  -0.000128   0.000013
    17  H   -0.000001  -0.000000   0.000000   0.000000  -0.000000   0.000000
    18  H    0.000000   0.000000   0.000000   0.000000  -0.000000  -0.000000
    19  H   -0.000124  -0.000006   0.000003   0.000000  -0.000000   0.000000
    20  H    0.000530  -0.000026   0.000010  -0.000000  -0.000000   0.000000
    21  H   -0.008070  -0.000281   0.000506   0.000077  -0.000000   0.000000
    22  H   -0.072195   0.003293   0.002122  -0.000135   0.000000  -0.000000
    23  H    0.305462  -0.071656   0.028801  -0.000579   0.000192   0.000075
    24  H   -0.032676   0.347021  -0.033358   0.001623   0.000110  -0.000014
    25  H    0.007397   0.000832  -0.032689   0.334832  -0.033325   0.000374
    26  H   -0.000106  -0.000545   0.000480  -0.037822   0.353026  -0.045523
    27  H    0.000000  -0.000001  -0.000015   0.003483  -0.037250   0.369133
    28  H   -0.000000   0.000004  -0.000042   0.002032   0.006727  -0.054431
    29  H   -0.000005  -0.000129   0.000673   0.000648   0.000996   0.002651
    30  H    0.003567  -0.020729  -0.028588   0.009934  -0.000556  -0.001753
              13         14         15         16         17         18
     1  C   -0.000000   0.000000  -0.000004  -0.002491  -0.123699  -0.165939
     2  C    0.000000  -0.000019  -0.000501   0.066331   0.011113   0.013158
     3  C   -0.000000   0.000000  -0.000023   0.001303  -0.050649  -0.061668
     4  C   -0.000000  -0.000000  -0.000001   0.002341  -0.005427  -0.002052
     5  C   -0.000000  -0.000002   0.000279  -0.007863  -0.000401  -0.000444
     6  C   -0.000002   0.000024   0.003877   0.003280  -0.000132  -0.000022
     7  C    0.000071  -0.001164  -0.005021  -0.058077  -0.000001   0.000000
     8  C    0.000056   0.006142  -0.050288  -0.067242  -0.000000   0.000000
     9  C   -0.005444  -0.022295   0.496738   0.034418   0.000000   0.000000
    10  C   -0.025928  -0.014287  -0.067221  -0.005796   0.000000   0.000000
    11  C   -0.050674  -0.021939  -0.000737  -0.000128  -0.000000  -0.000000
    12  C    0.472763  -0.012625   0.000524   0.000013   0.000000  -0.000000
    13  C    5.011084   0.475403  -0.010459  -0.000011   0.000000  -0.000000
    14  C    0.475403   5.397521   0.116766  -0.000066   0.000000   0.000000
    15  C   -0.010459   0.116766   5.557873   0.097052  -0.000000   0.000000
    16  C   -0.000011  -0.000066   0.097052   6.055967  -0.000039  -0.000053
    17  H    0.000000   0.000000  -0.000000  -0.000039   0.683552   0.397577
    18  H   -0.000000   0.000000   0.000000  -0.000053   0.397577   0.779446
    19  H    0.000000  -0.000000  -0.000000  -0.000002  -0.009759  -0.010215
    20  H    0.000000  -0.000000  -0.000002  -0.000072  -0.002709  -0.002088
    21  H    0.000001  -0.000006  -0.000190   0.010748   0.000063  -0.001999
    22  H   -0.000000   0.000016  -0.000188   0.018283   0.000000   0.000041
    23  H    0.000423  -0.002081  -0.007798   0.014143  -0.000000  -0.000006
    24  H    0.000007  -0.000318   0.004110   0.007909   0.000000   0.000000
    25  H    0.000861   0.001418   0.004465  -0.000587  -0.000000  -0.000000
    26  H    0.008050   0.000103  -0.000043  -0.000001   0.000000  -0.000000
    27  H   -0.035225   0.002082  -0.000004  -0.000000  -0.000000  -0.000000
    28  H    0.339556  -0.035942   0.000570   0.000003   0.000000   0.000000
    29  H   -0.038188   0.311612  -0.010432  -0.000106  -0.000000  -0.000000
    30  H    0.000337   0.055805   0.111551   0.006370   0.000000  -0.000000
              19         20         21         22         23         24
     1  C   -0.112418   0.017839  -0.000140  -0.000108  -0.000060  -0.000001
     2  C   -0.009904   0.011990   0.022584   0.010930   0.004691  -0.000184
     3  C    0.347155  -0.052219   0.017013   0.002760  -0.000295   0.000005
     4  C   -0.031511   0.312380  -0.050438  -0.010515   0.000876  -0.000080
     5  C   -0.010942  -0.031118   0.300317  -0.070793  -0.009295   0.000598
     6  C    0.003115   0.002152  -0.056936   0.388486  -0.052796  -0.005370
     7  C   -0.000124   0.000530  -0.008070  -0.072195   0.305462  -0.032676
     8  C   -0.000006  -0.000026  -0.000281   0.003293  -0.071656   0.347021
     9  C    0.000003   0.000010   0.000506   0.002122   0.028801  -0.033358
    10  C    0.000000  -0.000000   0.000077  -0.000135  -0.000579   0.001623
    11  C   -0.000000  -0.000000  -0.000000   0.000000   0.000192   0.000110
    12  C    0.000000   0.000000   0.000000  -0.000000   0.000075  -0.000014
    13  C    0.000000   0.000000   0.000001  -0.000000   0.000423   0.000007
    14  C   -0.000000  -0.000000  -0.000006   0.000016  -0.002081  -0.000318
    15  C   -0.000000  -0.000002  -0.000190  -0.000188  -0.007798   0.004110
    16  C   -0.000002  -0.000072   0.010748   0.018283   0.014143   0.007909
    17  H   -0.009759  -0.002709   0.000063   0.000000  -0.000000   0.000000
    18  H   -0.010215  -0.002088  -0.001999   0.000041  -0.000006   0.000000
    19  H    0.749892   0.008420  -0.007210  -0.000072   0.000031  -0.000000
    20  H    0.008420   0.568183   0.002471  -0.002507   0.000015  -0.000025
    21  H   -0.007210   0.002471   0.549349   0.000491   0.016246  -0.000017
    22  H   -0.000072  -0.002507   0.000491   0.590550   0.000446   0.003324
    23  H    0.000031   0.000015   0.016246   0.000446   0.582651   0.003391
    24  H   -0.000000  -0.000025  -0.000017   0.003324   0.003391   0.517868
    25  H   -0.000000   0.000000  -0.000016   0.000021  -0.004312  -0.000165
    26  H    0.000000   0.000000   0.000000  -0.000000   0.000001   0.000029
    27  H    0.000000   0.000000   0.000000   0.000000   0.000001   0.000000
    28  H   -0.000000   0.000000  -0.000000   0.000000  -0.000015  -0.000000
    29  H    0.000000   0.000000   0.000000  -0.000000   0.000021   0.000014
    30  H    0.000000   0.000000   0.000006  -0.000142   0.001552   0.002047
              25         26         27         28         29         30
     1  C   -0.000000  -0.000000  -0.000000   0.000000  -0.000000   0.000000
     2  C    0.000009   0.000000   0.000000  -0.000000   0.000000  -0.000040
     3  C    0.000002   0.000000  -0.000000   0.000000  -0.000000   0.000000
     4  C    0.000006  -0.000000   0.000000  -0.000000   0.000000  -0.000000
     5  C   -0.000107  -0.000000   0.000000   0.000000   0.000000   0.000010
     6  C    0.001306   0.000001  -0.000000   0.000000  -0.000000  -0.000293
     7  C    0.007397  -0.000106   0.000000  -0.000000  -0.000005   0.003567
     8  C    0.000832  -0.000545  -0.000001   0.000004  -0.000129  -0.020729
     9  C   -0.032689   0.000480  -0.000015  -0.000042   0.000673  -0.028588
    10  C    0.334832  -0.037822   0.003483   0.002032   0.000648   0.009934
    11  C   -0.033325   0.353026  -0.037250   0.006727   0.000996  -0.000556
    12  C    0.000374  -0.045523   0.369133  -0.054431   0.002651  -0.001753
    13  C    0.000861   0.008050  -0.035225   0.339556  -0.038188   0.000337
    14  C    0.001418   0.000103   0.002082  -0.035942   0.311612   0.055805
    15  C    0.004465  -0.000043  -0.000004   0.000570  -0.010432   0.111551
    16  C   -0.000587  -0.000001  -0.000000   0.000003  -0.000106   0.006370
    17  H   -0.000000   0.000000  -0.000000   0.000000  -0.000000   0.000000
    18  H   -0.000000  -0.000000  -0.000000   0.000000  -0.000000  -0.000000
    19  H   -0.000000   0.000000   0.000000  -0.000000   0.000000   0.000000
    20  H    0.000000   0.000000   0.000000   0.000000   0.000000   0.000000
    21  H   -0.000016   0.000000   0.000000  -0.000000   0.000000   0.000006
    22  H    0.000021  -0.000000   0.000000   0.000000  -0.000000  -0.000142
    23  H   -0.004312   0.000001   0.000001  -0.000015   0.000021   0.001552
    24  H   -0.000165   0.000029   0.000000  -0.000000   0.000014   0.002047
    25  H    0.554679   0.000153  -0.000167  -0.000006  -0.000083  -0.000063
    26  H    0.000153   0.615392  -0.005527  -0.000592   0.000004  -0.000002
    27  H   -0.000167  -0.005527   0.573936  -0.000613  -0.000207  -0.000008
    28  H   -0.000006  -0.000592  -0.000613   0.643110  -0.005852   0.000437
    29  H   -0.000083   0.000004  -0.000207  -0.005852   0.613147  -0.004065
    30  H   -0.000063  -0.000002  -0.000008   0.000437  -0.004065   0.765678
 Mulliken charges:
               1
     1  C   -0.262168
     2  C   -0.112514
     3  C    0.084364
     4  C   -0.247791
     5  C   -0.135473
     6  C   -0.028805
     7  C   -0.122322
     8  C   -0.240691
     9  C    0.347869
    10  C   -0.113989
    11  C   -0.154477
    12  C   -0.060863
    13  C   -0.142682
    14  C   -0.256148
    15  C   -0.240894
    16  C   -0.175628
    17  H    0.100510
    18  H    0.054264
    19  H    0.083547
    20  H    0.166775
    21  H    0.205428
    22  H    0.135892
    23  H    0.189873
    24  H    0.184152
    25  H    0.165165
    26  H    0.112923
    27  H    0.130382
    28  H    0.105056
    29  H    0.129300
    30  H    0.098945
 Sum of Mulliken charges =  -0.00000
 Mulliken charges with hydrogens summed into heavy atoms:
               1
     1  C   -0.107394
     2  C   -0.112514
     3  C    0.167910
     4  C   -0.081017
     5  C    0.069955
     6  C    0.107087
     7  C    0.067551
     8  C   -0.056538
     9  C    0.347869
    10  C    0.051176
    11  C   -0.041554
    12  C    0.069519
    13  C   -0.037626
    14  C   -0.126848
    15  C   -0.141948
    16  C   -0.175628
 Electronic spatial extent (au):  <R**2>=           4478.6384
 Charge=             -0.0000 electrons
 Dipole moment (field-independent basis, Debye):
    X=             -0.8839    Y=             -3.4251    Z=             -1.2289  Tot=              3.7447
 Quadrupole moment (field-independent basis, Debye-Ang):
   XX=            -88.5445   YY=           -108.9512   ZZ=            -93.3326
   XY=             -0.0738   XZ=              1.2931   YZ=             -1.1970
 Traceless Quadrupole moment (field-independent basis, Debye-Ang):
   XX=              8.3983   YY=            -12.0084   ZZ=              3.6101
   XY=             -0.0738   XZ=              1.2931   YZ=             -1.1970
 Octapole moment (field-independent basis, Debye-Ang**2):
  XXX=            -60.8277  YYY=            -21.7793  ZZZ=             -0.0174  XYY=            -34.9473
  XXY=            -44.0577  XXZ=            -24.3312  XZZ=              2.7145  YZZ=             -6.2910
  YYZ=             -4.8461  XYZ=             -4.4049
 Hexadecapole moment (field-independent basis, Debye-Ang**3):
 XXXX=          -5111.0850 YYYY=           -803.6792 ZZZZ=           -347.2630 XXXY=              3.1555
 XXXZ=            112.4674 YYYX=             -7.5086 YYYZ=             -1.2458 ZZZX=              6.3619
 ZZZY=            -14.6218 XXYY=          -1116.1437 XXZZ=           -931.2584 YYZZ=           -206.1890
 XXYZ=             -2.1632 YYXZ=             15.0174 ZZXY=             -5.6489
 N-N= 9.506757312147D+02 E-N=-3.327703898603D+03  KE= 6.117040366987D+02
 PrsmSu:  requested number of processors reduced to:  13 ShMem   1 Linda.
 Calling FoFJK, ICntrl=      2127 FMM=F ISym2X=0 I1Cent= 0 IOpClX= 0 NMat=1 NMatS=1 NMatT=0.
 ***** Axes restored to original set *****
 -------------------------------------------------------------------
 Center     Atomic                   Forces (Hartrees/Bohr)
 Number     Number              X              Y              Z
 -------------------------------------------------------------------
      1        6           0.095143864    0.022243085   -0.113671274
      2        6          -0.028071702   -0.014248454   -0.017555959
      3        6          -0.165623542    0.036136043   -0.034711975
      4        6          -0.011932818   -0.041853523    0.040271003
      5        6          -0.049807622   -0.042034174    0.002265554
      6        6           0.063695893    0.000756573   -0.041957241
      7        6          -0.059061522    0.012685787    0.006359770
      8        6           0.102036830    0.033167163   -0.007840482
      9        6           0.062696793    0.112742480   -0.032636069
     10        6           0.036407128    0.025990525    0.020058547
     11        6          -0.008807636   -0.037249859    0.012660010
     12        6          -0.012717679   -0.037458445   -0.028108236
     13        6          -0.016406249    0.015754403   -0.002347750
     14        6           0.012586896    0.062399927   -0.012254791
     15        6           0.044769864    0.018127190    0.052017314
     16        6          -0.010254360   -0.007576529   -0.033535008
     17        1          -0.062087722    0.032935558    0.002325975
     18        1          -0.014412262   -0.081331910    0.012403738
     19        1           0.064900617    0.001354550    0.020155251
     20        1           0.012167528    0.044446816    0.042503369
     21        1           0.026801615   -0.018730858    0.050490197
     22        1          -0.011043513    0.030051948    0.037996302
     23        1           0.020634958   -0.039009083    0.043809564
     24        1          -0.010601675   -0.011510642    0.031770431
     25        1          -0.013889791   -0.014440849    0.020594160
     26        1          -0.016543049   -0.024267001   -0.008702997
     27        1          -0.025457674   -0.023119910   -0.015915608
     28        1           0.031905363   -0.031167403   -0.024600163
     29        1          -0.032663840   -0.033208173    0.007061531
     30        1          -0.024364694    0.008414765   -0.028905162
 -------------------------------------------------------------------
 Cartesian Forces:  Max     0.165623542 RMS     0.042017786

 GradGradGradGradGradGradGradGradGradGradGradGradGradGradGradGradGradGrad
 Berny optimization.
 FormGI is forming the generalized inverse of G from B-inverse, IUseBI=4.
 Internal  Forces:  Max     0.206892068 RMS     0.048887339
 Search for a local minimum.
 Step number   1 out of a maximum of  144
 All quantities printed in internal units (Hartrees-Bohrs-Radians)
 Mixed Optimization -- RFO/linear search
 Second derivative matrix not updated -- first step.
 ITU=  0
     Eigenvalues ---    0.00230   0.00230   0.00279   0.00728   0.00879
     Eigenvalues ---    0.01040   0.01206   0.01214   0.01478   0.01596
     Eigenvalues ---    0.01770   0.01888   0.02420   0.02603   0.02732
     Eigenvalues ---    0.02800   0.02835   0.03136   0.03211   0.03525
     Eigenvalues ---    0.03540   0.04008   0.04494   0.04759   0.05251
     Eigenvalues ---    0.05706   0.05833   0.07364   0.09474   0.09505
     Eigenvalues ---    0.09510   0.10856   0.11929   0.12480   0.13710
     Eigenvalues ---    0.13921   0.14243   0.14319   0.14846   0.15739
     Eigenvalues ---    0.15832   0.15926   0.15965   0.16000   0.16000
     Eigenvalues ---    0.16729   0.17936   0.18746   0.18852   0.19490
     Eigenvalues ---    0.19698   0.20268   0.21979   0.22004   0.22042
     Eigenvalues ---    0.22108   0.22164   0.22197   0.22264   0.22478
     Eigenvalues ---    0.22662   0.22861   0.22907   0.22996   0.24437
     Eigenvalues ---    0.25242   0.26199   0.27819   0.28035   0.29273
     Eigenvalues ---    0.31774   0.32076   0.33153   0.33288   0.34652
     Eigenvalues ---    0.36208   0.37887   0.49632   0.50034   0.52727
     Eigenvalues ---    0.54729   0.56415   0.61718   0.63153
 RFO step:  Lambda=-4.56059744D-01 EMin= 2.30000000D-03
 Linear search not attempted -- first point.
 Maximum step size (   0.300) exceeded in Quadratic search.
    -- Step size scaled by   0.400
 Iteration  1 RMS(Cart)=  0.21394147 RMS(Int)=  0.00989520
 Iteration  2 RMS(Cart)=  0.03993157 RMS(Int)=  0.00032049
 Iteration  3 RMS(Cart)=  0.00059608 RMS(Int)=  0.00015760
 Iteration  4 RMS(Cart)=  0.00000026 RMS(Int)=  0.00015760
 Variable       Old X    -DE/DX   Delta X   Delta X   Delta X     New X
                                 (Linear)    (Quad)   (Total)
    R1        3.40305  -0.02962   0.00000  -0.01990  -0.01990   3.38315
    R2        2.53543   0.08704   0.00000   0.03665   0.03661   2.57204
    R3        2.94870   0.03566   0.00000   0.02543   0.02546   2.97416
    R4        2.97111   0.03362   0.00000   0.02430   0.02433   2.99544
    R5        2.48529   0.15741   0.00000   0.05789   0.05789   2.54318
    R6        2.46361  -0.05104   0.00000  -0.03176  -0.03183   2.43177
    R7        2.77057   0.03676   0.00000   0.01797   0.01797   2.78854
    R8        2.31548  -0.05344   0.00000  -0.03120  -0.03120   2.28429
    R9        2.49606   0.12080   0.00000   0.04502   0.04502   2.54108
   R10        2.39726  -0.05521   0.00000  -0.03352  -0.03352   2.36374
   R11        2.59831   0.06236   0.00000   0.02608   0.02608   2.62439
   R12        2.22953  -0.04678   0.00000  -0.02606  -0.02606   2.20347
   R13        2.55374   0.11353   0.00000   0.04526   0.04526   2.59900
   R14        2.45118  -0.06073   0.00000  -0.03775  -0.03775   2.41343
   R15        2.57209   0.07514   0.00000   0.03056   0.03056   2.60266
   R16        2.08783  -0.01080   0.00000  -0.00549  -0.00549   2.08234
   R17        2.98598  -0.10345   0.00000  -0.05840  -0.05840   2.92758
   R18        2.81849   0.01187   0.00000   0.00602   0.00602   2.82451
   R19        3.15711  -0.14173   0.00000  -0.08709  -0.08709   3.07002
   R20        2.01230   0.01656   0.00000   0.00794   0.00794   2.02024
   R21        2.53896  -0.00013   0.00000  -0.00005  -0.00005   2.53890
   R22        2.11259  -0.01651   0.00000  -0.00854  -0.00854   2.10405
   R23        2.79543   0.02842   0.00000   0.01416   0.01416   2.80960
   R24        2.16137  -0.03691   0.00000  -0.01972  -0.01972   2.14166
   R25        2.84005  -0.01843   0.00000  -0.00949  -0.00949   2.83056
   R26        2.19237  -0.03227   0.00000  -0.01758  -0.01758   2.17479
   R27        2.18761  -0.03023   0.00000  -0.01642  -0.01642   2.17119
   R28        3.38138   0.00342   0.00000   0.00229   0.00229   3.38367
   R29        2.87040  -0.02964   0.00000  -0.02100  -0.02100   2.84940
   R30        1.74785  -0.05485   0.00000  -0.03374  -0.03378   1.71407
   R31        2.96351   0.03402   0.00000   0.02334   0.02340   2.98691
    A1        1.22435   0.02729   0.00000   0.01534   0.01531   1.23966
    A2        2.65486   0.02205   0.00000   0.01564   0.01550   2.67036
    A3        2.54670   0.00944   0.00000   0.00608   0.00612   2.55282
    A4        1.54058  -0.01427   0.00000  -0.00631  -0.00641   1.53417
    A5        1.38437  -0.02020   0.00000  -0.01021  -0.01012   1.37425
    A6        2.10785   0.03635   0.00000   0.02211   0.02225   2.13010
    A7        1.71912   0.00247   0.00000   0.00574   0.00571   1.72484
    A8        2.29002  -0.03246   0.00000  -0.02227  -0.02238   2.26764
    A9        1.44003   0.06894   0.00000   0.04153   0.04180   1.48184
   A10        1.76384  -0.02664   0.00000  -0.01308  -0.01266   1.75118
   A11        2.37548  -0.02943   0.00000  -0.02042  -0.02055   2.35493
   A12        1.72627   0.09762   0.00000   0.05689   0.05705   1.78332
   A13        2.02819  -0.04287   0.00000  -0.02539  -0.02518   2.00301
   A14        2.13879  -0.04287   0.00000  -0.02617  -0.02601   2.11278
   A15        1.85279   0.03076   0.00000   0.01752   0.01750   1.87029
   A16        2.14510  -0.01013   0.00000  -0.00631  -0.00634   2.13876
   A17        2.13693  -0.03076   0.00000  -0.02002  -0.02003   2.11689
   A18        1.82609   0.04604   0.00000   0.02613   0.02618   1.85227
   A19        2.00290  -0.04084   0.00000  -0.02690  -0.02687   1.97603
   A20        2.05306  -0.01252   0.00000  -0.00756  -0.00745   2.04560
   A21        1.48492   0.03195   0.00000   0.01834   0.01837   1.50329
   A22        2.42789  -0.03178   0.00000  -0.02248  -0.02246   2.40543
   A23        1.82676  -0.02324   0.00000  -0.01430  -0.01425   1.81251
   A24        1.65073   0.06065   0.00000   0.03400   0.03402   1.68475
   A25        2.41221   0.03313   0.00000   0.01943   0.01945   2.43166
   A26        2.15161  -0.09840   0.00000  -0.05728  -0.05726   2.09435
   A27        2.62106  -0.20689   0.00000  -0.12233  -0.12242   2.49864
   A28        1.94818   0.08924   0.00000   0.05196   0.05187   2.00005
   A29        1.69755   0.10972   0.00000   0.06518   0.06508   1.76264
   A30        2.13842  -0.14869   0.00000  -0.08762  -0.08761   2.05082
   A31        2.15697   0.04875   0.00000   0.02766   0.02768   2.18465
   A32        1.97109   0.10267   0.00000   0.06278   0.06279   2.03389
   A33        1.90214  -0.00639   0.00000  -0.00380  -0.00381   1.89833
   A34        2.14108   0.00763   0.00000   0.00474   0.00474   2.14582
   A35        2.23761  -0.00163   0.00000  -0.00127  -0.00127   2.23634
   A36        2.32268  -0.01131   0.00000  -0.00671  -0.00671   2.31597
   A37        1.82420   0.03287   0.00000   0.02102   0.02102   1.84522
   A38        2.08678  -0.02284   0.00000  -0.01529  -0.01529   2.07149
   A39        1.59147   0.07002   0.00000   0.04546   0.04546   1.63693
   A40        1.23259   0.08142   0.00000   0.04804   0.04869   1.28128
   A41        1.36981   0.02399   0.00000   0.01786   0.01853   1.38834
   A42        2.39346   0.05701   0.00000   0.03383   0.03281   2.42627
   A43        1.38425  -0.00471   0.00000  -0.00735  -0.00725   1.37700
   A44        2.20361   0.00957   0.00000   0.00528   0.00540   2.20901
   A45        1.40649   0.01683   0.00000   0.00847   0.00836   1.41485
    D1       -1.46086  -0.00662   0.00000  -0.00442  -0.00428  -1.46514
    D2        2.20793  -0.00103   0.00000  -0.00266  -0.00273   2.20520
    D3        1.36652   0.01389   0.00000   0.01017   0.01024   1.37676
    D4       -1.24787   0.01948   0.00000   0.01192   0.01179  -1.23609
    D5        1.94934  -0.01432   0.00000  -0.00818  -0.00798   1.94136
    D6       -0.66506  -0.00873   0.00000  -0.00643  -0.00643  -0.67149
    D7        0.08094  -0.01031   0.00000  -0.00768  -0.00779   0.07314
    D8        0.54256  -0.01239   0.00000  -0.00726  -0.00730   0.53526
    D9        2.34663  -0.02902   0.00000  -0.02365  -0.02347   2.32315
   D10       -0.02060  -0.00873   0.00000  -0.00871  -0.00868  -0.02928
   D11       -1.51766  -0.01210   0.00000  -0.00835  -0.00838  -1.52604
   D12        2.39831   0.00820   0.00000   0.00659   0.00641   2.40472
   D13        0.66399   0.00342   0.00000   0.00404   0.00402   0.66802
   D14       -1.86548  -0.02499   0.00000  -0.01678  -0.01664  -1.88212
   D15       -2.33601   0.00378   0.00000   0.00544   0.00561  -2.33040
   D16       -0.01191  -0.00089   0.00000   0.00090   0.00102  -0.01089
   D17       -0.62233   0.03595   0.00000   0.02905   0.02893  -0.59340
   D18        1.70176   0.03128   0.00000   0.02451   0.02434   1.72610
   D19       -3.11034  -0.04225   0.00000  -0.03542  -0.03549   3.13735
   D20        0.58111  -0.01697   0.00000  -0.01514  -0.01520   0.56592
   D21        0.92012  -0.04457   0.00000  -0.03536  -0.03530   0.88482
   D22       -1.67161  -0.01928   0.00000  -0.01508  -0.01501  -1.68661
   D23       -3.01396   0.02505   0.00000   0.02168   0.02172  -2.99224
   D24       -0.73796   0.01655   0.00000   0.01352   0.01345  -0.72451
   D25       -0.41903   0.00785   0.00000   0.00681   0.00687  -0.41215
   D26        1.85698  -0.00065   0.00000  -0.00136  -0.00140   1.85558
   D27        2.20178  -0.04792   0.00000  -0.03965  -0.03965   2.16213
   D28        0.33804  -0.04142   0.00000  -0.03334  -0.03331   0.30473
   D29       -0.04434  -0.02356   0.00000  -0.02043  -0.02046  -0.06480
   D30       -1.90808  -0.01705   0.00000  -0.01411  -0.01412  -1.92219
   D31        1.54879   0.05113   0.00000   0.03831   0.03831   1.58710
   D32       -2.00652   0.01394   0.00000   0.01321   0.01321  -1.99331
   D33       -2.29757   0.02342   0.00000   0.01779   0.01779  -2.27978
   D34        0.43031  -0.01377   0.00000  -0.00730  -0.00731   0.42300
   D35        1.92432   0.02745   0.00000   0.02115   0.02115   1.94547
   D36       -1.48315   0.00837   0.00000   0.00584   0.00584  -1.47730
   D37       -0.89106   0.02172   0.00000   0.02042   0.02041  -0.87065
   D38        1.98466   0.00264   0.00000   0.00510   0.00510   1.98976
   D39        1.09375  -0.01517   0.00000  -0.01060  -0.01021   1.08354
   D40       -1.52139   0.00884   0.00000   0.00718   0.00680  -1.51459
   D41       -2.54774  -0.02350   0.00000  -0.01980  -0.01942  -2.56717
   D42        1.12030   0.00050   0.00000  -0.00202  -0.00241   1.11789
   D43        1.07639  -0.03542   0.00000  -0.03097  -0.03099   1.04540
   D44       -2.27446  -0.00705   0.00000  -0.00647  -0.00643  -2.28089
   D45       -1.81640  -0.02305   0.00000  -0.01980  -0.01984  -1.83624
   D46        1.11594   0.00532   0.00000   0.00470   0.00472   1.12065
   D47       -0.17245   0.02537   0.00000   0.02150   0.02146  -0.15099
   D48        3.03743   0.03115   0.00000   0.02631   0.02629   3.06372
   D49       -3.12501   0.00193   0.00000   0.00100   0.00102  -3.12398
   D50        0.08487   0.00771   0.00000   0.00581   0.00585   0.09072
   D51       -0.46209   0.03200   0.00000   0.02706   0.02707  -0.43501
   D52        2.33120   0.02548   0.00000   0.02217   0.02215   2.35335
   D53        2.60635   0.02626   0.00000   0.02220   0.02222   2.62857
   D54       -0.88355   0.01974   0.00000   0.01730   0.01730  -0.86625
   D55       -2.50141  -0.01762   0.00000  -0.01571  -0.01568  -2.51709
   D56        1.02982  -0.01907   0.00000  -0.01597  -0.01599   1.01383
   D57       -0.55778  -0.01741   0.00000  -0.00747  -0.00744  -0.56522
   D58        0.45940  -0.00872   0.00000  -0.00565  -0.00572   0.45368
         Item               Value     Threshold  Converged?
 Maximum Force            0.206892     0.000450     NO 
 RMS     Force            0.048887     0.000300     NO 
 Maximum Displacement     1.046393     0.001800     NO 
 RMS     Displacement     0.246476     0.001200     NO 
 Predicted change in Energy=-1.706590D-01
 GradGradGradGradGradGradGradGradGradGradGradGradGradGradGradGradGradGrad

                          Input orientation:                          
 ---------------------------------------------------------------------
 Center     Atomic      Atomic             Coordinates (Angstroms)
 Number     Number       Type             X           Y           Z
 ---------------------------------------------------------------------
      1          6           0        3.792782    1.466114   -1.522212
      2          6           0        5.255274    2.497832   -1.564506
      3          6           0        4.004721    1.984386   -0.281659
      4          6           0        4.854253    1.416303    0.593978
      5          6           0        5.359851    2.788384    0.792122
      6          6           0        6.691489    2.611368    0.732279
      7          6           0        7.278672    3.858193    0.903507
      8          6           0        8.618844    3.687976    0.645636
      9          6           0        8.467855    4.679614   -0.298143
     10          6           0        8.811908    5.866227    0.636533
     11          6           0        9.927483    7.010700    0.927992
     12          6           0       10.185443    7.890151   -0.054400
     13          6           0        9.489966    7.444109   -1.290464
     14          6           0        9.027858    6.101617   -1.767733
     15          6           0        8.535019    4.852718   -1.781230
     16          6           0        7.211764    3.689521   -1.461739
     17          1           0        2.846447    0.401648   -0.852593
     18          1           0        2.395286    1.188140   -0.827706
     19          1           0        2.846154    2.509319   -0.086409
     20          1           0        5.216507    0.457207   -0.046401
     21          1           0        4.793099    3.660978    0.097889
     22          1           0        7.186323    1.795908    0.061623
     23          1           0        6.676064    4.789678    0.270839
     24          1           0        9.267399    2.948118    0.149419
     25          1           0        7.988575    6.233030    1.211400
     26          1           0       10.374876    7.231516    1.923368
     27          1           0       10.890293    8.768295    0.073873
     28          1           0        8.993122    8.386372   -1.726059
     29          1           0        9.269622    6.325019   -2.868513
     30          1           0        9.983591    5.057270   -1.416020
 ---------------------------------------------------------------------
                    Distance matrix (angstroms):
                    1          2          3          4          5
     1  C    0.000000
     2  C    1.790283   0.000000
     3  C    1.361064   1.863654   0.000000
     4  C    2.368008   2.447361   1.345794   0.000000
     5  C    3.091965   2.376774   1.906776   1.475634   0.000000
     6  C    3.846666   2.711240   2.939370   2.196074   1.344684
     7  C    4.874175   3.469267   3.954052   3.454916   2.199721
     8  C    5.738216   4.196997   5.005220   4.397194   3.384045
     9  C    5.803554   4.084669   5.213836   4.950070   3.798041
    10  C    7.015184   5.370317   6.246664   5.955390   4.627529
    11  C    8.624413   6.957591   7.861692   7.559531   6.221710
    12  C    9.180896   7.460838   8.551668   8.411462   7.073258
    13  C    8.261237   6.517160   7.804753   7.834245   6.562834
    14  C    6.996727   5.221202   6.662725   6.704388   5.566385
    15  C    5.833095   4.043413   5.567732   5.567638   4.578789
    16  C    4.078804   2.293150   3.819058   3.866698   3.053117
    17  H    1.573857   3.271583   2.042700   2.674579   3.836508
    18  H    1.585119   3.230743   1.876821   2.849519   3.738083
    19  H    2.011446   2.826440   1.286839   2.385387   2.677380
    20  H    2.285368   2.543677   1.963682   1.208792   2.481542
    21  H    2.905648   2.080883   1.891179   2.299655   1.250835
    22  H    3.759444   2.620295   3.205614   2.421994   2.203324
    23  H    4.751255   3.261855   3.912926   3.847476   2.451394
    24  H    5.912877   4.386051   5.367530   4.692541   3.963270
    25  H    6.913813   5.397064   6.012595   5.779796   4.353341
    26  H    9.404034   7.796368   8.542446   8.127808   6.794970
    27  H   10.307473   8.588157   9.672586   9.526598   8.176858
    28  H    8.658814   6.976569   8.243534   8.431765   7.132977
    29  H    7.444277   5.697612   7.297403   7.455187   6.418282
    30  H    7.157778   5.378638   6.817351   6.603547   5.603812
                    6          7          8          9         10
     6  C    0.000000
     7  C    1.388768   0.000000
     8  C    2.209364   1.375331   0.000000
     9  C    2.914599   1.879588   1.377266   0.000000
    10  C    3.885801   2.540529   2.186809   1.549207   0.000000
    11  C    5.464804   4.117657   3.582284   3.011293   1.624585
    12  C    6.379038   5.061975   4.539004   3.649256   2.541703
    13  C    5.939558   4.749960   4.314611   3.109959   2.581238
    14  C    4.887792   3.902323   3.437631   2.120234   2.425394
    15  C    3.839268   3.126548   2.693201   1.494664   2.636179
    16  C    2.499363   2.372197   2.533951   1.977878   3.420709
    17  H    4.709461   5.888651   6.809201   7.085805   8.225925
    18  H    4.787117   5.828699   6.866775   7.024736   8.074746
    19  H    3.932844   4.737785   5.937093   6.029804   6.883436
    20  H    2.724394   4.089199   4.742645   5.335105   6.530758
    21  H    2.260092   2.620303   3.864852   3.833835   4.615635
    22  H    1.166026   2.229421   2.443995   3.176085   4.420469
    23  H    2.226701   1.277133   2.264645   1.883181   2.419612
    24  H    2.662412   2.313422   1.101928   1.958995   2.993345
    25  H    3.876651   2.497721   2.682281   2.218453   1.069063
    26  H    6.027587   4.691045   4.156070   3.883818   2.441890
    27  H    7.481391   6.151520   5.594286   4.766961   3.613623
    28  H    6.685178   5.509842   5.276357   4.006857   3.459163
[...]
 ---------------------------------------------------------------------
 Center     Atomic      Atomic             Coordinates (Angstroms)
 Number     Number       Type             X           Y           Z
 ---------------------------------------------------------------------
      1          6           0        3.271993   -0.741029   -0.179017
      2          6           0        2.926521   -1.958569   -0.021839
      3          6           0        3.635989    0.541790   -0.344624
      4          6           0        4.970568    1.035204   -0.225471
      5          6           0        5.281071    2.350929   -0.394694
      6          6           0        6.601459    2.901337   -0.283267
      7          6           0        6.869897    4.214843   -0.442970
      8          6           0        8.208527    4.808475   -0.331263
      9          6           0        8.580441    5.964558   -1.227935
     10          6           0        8.383424    6.194714    0.278806
     11          6           0        9.514474    6.555726    1.151300
     12          6           0       10.667588    7.159196    0.807310
     13          6           0       11.157999    7.629234   -0.477379
     14          6           0       10.726790    7.376552   -1.730593
     15          6           0        9.575818    6.513905   -2.146595
     16          6           0        8.051791    6.978728   -2.054454
     17          1           0        0.407899    0.666317    1.565452
     18          1           0        0.665175    1.064977    0.989613
     19          1           0        2.868190    1.280797   -0.595518
     20          1           0        5.749742    0.316547    0.013513
     21          1           0        4.476649    3.047538   -0.630514
     22          1           0        7.413628    2.211865   -0.055052
     23          1           0        6.059593    4.902712   -0.676981
     24          1           0        9.032605    4.124736   -0.149320
     25          1           0        7.434924    6.671827    0.528604
     26          1           0        9.342668    6.346046    2.205972
     27          1           0       11.345085    7.369201    1.632791
     28          1           0       12.035406    8.269287   -0.397994
     29          1           0       11.280445    7.832043   -2.549090
     30          1           0        9.704180    5.968225   -3.084120
 ---------------------------------------------------------------------
                    Distance matrix (angstroms):
                    1          2          3          4          5
     1  C    0.000000
     2  C    1.275328   0.000000
     3  C    1.343705   2.619032   0.000000
     4  C    2.458112   3.630739   1.427850   0.000000
     5  C    3.693659   4.924906   2.445769   1.362418   0.000000
     6  C    4.935893   6.098541   3.790150   2.479032   1.434847
     7  C    6.129865   7.337477   4.894808   3.710102   2.449667
     8  C    7.428965   8.590006   6.254028   4.973243   3.822767
     9  C    8.616538   9.808028   7.391498   6.191498   4.963712
    10  C    8.627911   9.815508   7.408262   6.206644   4.985265
    11  C    9.694377  10.829155   8.541768   7.281398   6.163774
    12  C   10.866518  11.989380   9.724217   8.427690   7.319754
    13  C   11.503886  12.644790  10.335865   9.045938   7.899722
    14  C   11.129982  12.284483   9.945568   8.695526   7.529765
    15  C    9.810384  10.977730   8.613642   7.410480   6.232525
    16  C    9.271374  10.501200   7.991057   6.940072   5.643422
    17  H    3.636871   3.969001   3.752927   4.915428   5.516149
    18  H    3.379771   3.908778   3.298431   4.473670   4.987633
    19  H    2.103404   3.290289   1.094804   2.148778   2.647171
    20  H    2.700883   3.626014   2.155678   1.086597   2.127204
    21  H    4.001035   5.275840   2.658423   2.111280   1.089941
    22  H    5.088033   6.125990   4.140477   2.717005   2.163906
    23  H    6.314308   7.571164   5.000195   4.043199   2.682793
    24  H    7.540637   8.620158   6.480672   5.104034   4.156995
    25  H    8.531187   9.752560   7.264419   6.197839   4.915457
    26  H    9.631609  10.728313   8.530012   7.296041   6.262666
    27  H   11.585909  12.673489  10.485889   9.176444   8.128100
    28  H   12.571044  13.701179  11.413468  10.113044   8.980423
    29  H   11.968713  13.116063  10.790976   9.560898   8.406932
    30  H    9.737902  10.869604   8.589178   7.410375   6.315198
                    6          7          8          9         10
     6  C    0.000000
     7  C    1.350133   0.000000
     8  C    2.494423   1.468607   0.000000
     9  C    3.767239   2.569754   1.509592   0.000000
    10  C    3.786510   2.594535   1.524609   1.536898   0.000000
    11  C    4.888579   3.874948   2.637495   2.623482   1.473381
    12  C    5.987665   4.965367   3.587370   3.150487   2.535143
    13  C    6.569075   5.481521   4.083799   3.158842   3.213709
    14  C    6.256249   5.150728   3.859377   2.617863   3.305418
    15  C    5.036810   3.938278   2.841374   1.461675   2.721443
    16  C    4.676076   3.410692   2.775599   1.411080   2.483699
    17  H    6.839098   7.640890   9.033537  10.132364   9.789158
    18  H    6.342863   7.104402   8.524121   9.569475   9.294666
    19  H    4.081782   4.964429   6.405743   7.413999   7.438335
    20  H    2.737634   4.081646   5.132437   6.438484   6.446667
    21  H    2.157956   2.669347   4.137313   5.070210   5.098477
    22  H    1.089528   2.111407   2.729567   4.101196   4.112791
    23  H    2.110481   1.088356   2.178604   2.790294   2.825418
    24  H    2.724908   2.184412   1.086143   2.180093   2.211229
    25  H    3.945934   2.701848   2.193152   2.213113   1.090729
    26  H    5.057327   4.203988   3.176156   3.538113   2.158013
    27  H    6.792281   5.855431   4.500314   4.219009   3.461811
    28  H    7.639099   6.566812   5.160105   4.235252   4.254278
    29  H    7.165104   6.080527   4.847412   3.538781   4.366986
    30  H    5.184347   4.252433   3.340692   2.169844   3.620077
                   11         12         13         14         15
    11  C    0.000000
    12  C    1.346171   0.000000
    13  C    2.550722   1.453225   0.000000
    14  C    3.232455   2.547881   1.349198   0.000000
    15  C    3.298730   3.214640   2.556078   1.497315   0.000000
    16  C    3.548976   3.881321   3.543847   2.723742   1.595998
    17  H   10.852943  12.165257  12.969966  12.742475  11.490184
    18  H   10.415593  11.714137  12.463583  12.184892  10.905328
    19  H    8.663103   9.866819  10.442104  10.010206   8.647748
    20  H    7.375306   8.463875   9.108546   8.812297   7.596853
    21  H    6.392334   7.569729   8.102828   7.682109   6.349467
    22  H    4.973728   5.983979   6.598981   6.360697   5.249492
    23  H    4.243969   5.341204   5.785110   5.386344   4.137577
    24  H    2.798843   3.577185   4.111742   3.993117   3.161062
    25  H    2.173881   3.281055   3.973653   4.054256   3.430023
    26  H    1.088952   2.091144   3.484590   4.298172   4.362038
    27  H    2.060270   1.088358   2.134347   3.419751   4.259764
    28  H    3.419312   2.134475   1.088951   2.070090   3.491209
    29  H    4.294242   3.477604   2.085212   1.088091   2.192086
    30  H    4.280178   4.182080   3.415792   2.204802   1.092335
                   16         17         18         19         20
    16  C    0.000000
    17  H   10.553641   0.000000
    18  H    9.939864   0.746131   0.000000
    19  H    7.839938   3.331727   2.722589   0.000000
    20  H    7.345787   5.573700   5.231227   3.099038   0.000000
    21  H    5.501228   5.200692   4.591589   2.389506   3.081209
    22  H    5.208439   7.354929   6.924471   4.671188   2.522984
    23  H    3.190004   7.410613   6.826822   4.828039   4.648193
    24  H    3.568865   9.449162   8.981826   6.803463   5.030509
    25  H    2.673368   9.301628   8.802205   7.154154   6.595055
    26  H    4.496430  10.606587  10.230743   8.684697   7.353289
    27  H    4.959237  12.827908  12.418430  10.672009   9.147123
    28  H    4.503176  14.030652  13.531803  11.528914  10.145196
    29  H    3.375947  13.656110  13.076680  10.839802   9.676688
    30  H    2.193563  11.668315  11.060776   8.654241   7.561374
                   21         22         23         24         25
    21  H    0.000000
    22  H    3.107306   0.000000
    23  H    2.439169   3.075851   0.000000
    24  H    4.706235   2.507798   3.118088   0.000000
    25  H    4.819795   4.498040   2.544551   3.082181   0.000000
    26  H    6.527170   5.091648   4.601436   3.252346   2.561091
    27  H    8.424651   6.700991   6.273360   4.364634   4.122490
    28  H    9.189970   7.626979   6.864547   5.124056   4.957307
    29  H    8.536045   7.263532   6.272405   4.955380   5.060270
    30  H    6.471297   5.341546   4.495848   3.530228   4.323928
                   26         27         28         29         30
    26  H    0.000000
    27  H    2.320573   0.000000
    28  H    4.210740   2.326110   0.000000
    29  H    5.345445   4.207912   2.321284   0.000000
    30  H    5.315874   5.186960   4.236127   2.498937   0.000000
 Stoichiometry    C16H14
 Framework group  C1[X(C16H14)]
 Deg. of freedom    84
 Full point group                 C1      NOp   1
 Largest Abelian subgroup         C1      NOp   1
 Largest concise Abelian subgroup C1      NOp   1
                         Standard orientation:                         
 ---------------------------------------------------------------------
 Center     Atomic      Atomic             Coordinates (Angstroms)
 Number     Number       Type             X           Y           Z
 ---------------------------------------------------------------------
      1          6           0        6.420755    0.051274    0.396191
      2          6           0        7.555858   -0.123461    0.950691
      3          6           0        5.224793    0.235376   -0.188039
      4          6           0        3.964584   -0.042636    0.422973
      5          6           0        2.780596    0.154406   -0.221643
      6          6           0        1.487826   -0.110791    0.341566
      7          6           0        0.334524    0.082634   -0.333223
      8          6           0       -1.002275   -0.182993    0.213785
      9          6           0       -2.151081    0.715561   -0.175720
     10          6           0       -2.102952   -0.733245   -0.686306
     11          6           0       -3.086534   -1.734673   -0.238467
     12          6           0       -4.329844   -1.523202    0.232316
     13          6           0       -5.077768   -0.296079    0.448279
     14          6           0       -4.669273    0.989259    0.485343
     15          6           0       -3.279445    1.514251    0.299024
     16          6           0       -2.581175    1.663560   -1.128328
     17          1           0        7.428577   -1.191531   -2.869779
     18          1           0        6.930197   -0.636269   -2.873458
     19          1           0        5.190287    0.632671   -1.207627
     20          1           0        3.975808   -0.428622    1.438641
     21          1           0        2.802828    0.539585   -1.241012
     22          1           0        1.454691   -0.489145    1.362752
     23          1           0        0.367248    0.466366   -1.351161
     24          1           0       -1.050242   -0.516964    1.246195
     25          1           0       -1.795375   -0.820070   -1.729161
     26          1           0       -2.758177   -2.764724   -0.368824
     27          1           0       -4.897727   -2.422773    0.462112
     28          1           0       -6.137511   -0.462269    0.635735
     29          1           0       -5.423718    1.745852    0.691066
     30          1           0       -3.018417    2.392446    0.893864
 ---------------------------------------------------------------------
 Rotational constants (GHZ):           1.9603397           0.1483512           0.1441174
 Standard basis: 6-31G(2df,p) (6D, 7F)
 There are   566 symmetry adapted cartesian basis functions of A   symmetry.
 There are   518 symmetry adapted basis functions of A   symmetry.
   518 basis functions,   802 primitive gaussians,   566 cartesian basis functions
    55 alpha electrons       55 beta electrons
       nuclear repulsion energy       865.2402767372 Hartrees.
 NAtoms=   30 NActive=   30 NUniq=   30 SFac= 1.00D+00 NAtFMM=   60 NAOKFM=F Big=F
 Integral buffers will be    131072 words long.
 Raffenetti 2 integral format.
 Two-electron integral symmetry is turned on.
 One-electron integrals computed using PRISM.
 PrsmSu:  requested number of processors reduced to:  12 ShMem   1 Linda.
 NBasis=   518 RedAO= T EigKep=  2.70D-04  NBF=   518
 NBsUse=   518 1.00D-06 EigRej= -1.00D+00 NBFU=   518
 Initial guess from the checkpoint file:  "CdC1CdCCdCCdCC2dCCdCCdCCdC12.chk"
 B after Tr=    -0.000000    0.000000   -0.000000
         Rot=    0.999980   -0.006305    0.000340   -0.000149 Ang=  -0.72 deg.
 ExpMin= 1.61D-01 ExpMax= 3.05D+03 ExpMxC= 4.57D+02 IAcc=2 IRadAn=         4 AccDes= 0.00D+00
 Harris functional with IExCor=  402 and IRadAn=       4 diagonalized for initial guess.
 HarFok:  IExCor=  402 AccDes= 0.00D+00 IRadAn=         4 IDoV= 1 UseB2=F ITyADJ=14
 ICtDFT=  3500011 ScaDFX=  1.000000  1.000000  1.000000  1.000000
 FoFCou: FMM=F IPFlag=           0 FMFlag=      100000 FMFlg1=           0
         NFxFlg=           0 DoJE=T BraDBF=F KetDBF=T FulRan=T
         wScrn=  0.000000 ICntrl=       500 IOpCl=  0 I1Cent=   200000004 NGrid=           0
         NMat0=    1 NMatS0=      1 NMatT0=    0 NMatD0=    1 NMtDS0=    0 NMtDT0=    0
 Petite list used in FoFCou.
 Requested convergence on RMS density matrix=1.00D-08 within 128 cycles.
 Requested convergence on MAX density matrix=1.00D-06.
 Requested convergence on             energy=1.00D-06.
 No special actions if energy rises.
 Integral accuracy reduced to 1.0D-05 until final iterations.
 Initial convergence to 1.0D-05 achieved.  Increase integral accuracy.
 SCF Done:  E(RB3LYP) =  -617.725100067     A.U. after   12 cycles
            NFock= 12  Conv=0.80D-08     -V/T= 2.0085
 PrsmSu:  requested number of processors reduced to:  13 ShMem   1 Linda.
 Calling FoFJK, ICntrl=      2127 FMM=F ISym2X=0 I1Cent= 0 IOpClX= 0 NMat=1 NMatS=1 NMatT=0.
 ***** Axes restored to original set *****
 -------------------------------------------------------------------
 Center     Atomic                   Forces (Hartrees/Bohr)
 Number     Number              X              Y              Z
 -------------------------------------------------------------------
      1        6           0.000467009   -0.000492824   -0.000016729
      2        6          -0.000047988   -0.000325413    0.000060155
      3        6           0.000570930    0.001104026   -0.000774041
      4        6          -0.000361787    0.001112137    0.000043798
      5        6           0.000091527   -0.000816517    0.000042855
      6        6           0.000315889    0.000656337   -0.000041841
      7        6          -0.000088434   -0.000916902    0.000608653
      8        6           0.000431528    0.001409032   -0.000755103
      9        6           0.000680903   -0.001098778    0.001701014
     10        6          -0.001733528    0.000724795    0.000236786
     11        6           0.000428859   -0.001248074   -0.000811708
     12        6          -0.000430835   -0.000633163   -0.000036653
     13        6          -0.000610541   -0.000248773   -0.001094655
     14        6          -0.012664763   -0.009468266   -0.005321682
     15        6           0.011575198    0.010050031    0.006695549
     16        6           0.001298169    0.000343719    0.000178423
     17        1           0.000840585    0.001489936   -0.002034249
     18        1          -0.001360920   -0.001260854    0.002288529
     19        1           0.000967260    0.000027459    0.000429103
     20        1          -0.000169308    0.000133658   -0.000065835
     21        1           0.000223816   -0.000251046    0.000035773
     22        1          -0.000699553    0.000418166   -0.000157532
     23        1           0.000078421   -0.000080696    0.000053640
     24        1          -0.000064395   -0.000366852   -0.000165857
     25        1           0.000436704    0.000001425   -0.000472793
     26        1          -0.000084017   -0.000032496   -0.000117917
     27        1          -0.000215523    0.000054381   -0.000028377
     28        1          -0.000951860   -0.000306146   -0.000365148
     29        1          -0.000764180   -0.000749749   -0.000280134
     30        1           0.001840835    0.000771449    0.000165976
 -------------------------------------------------------------------
 Cartesian Forces:  Max     0.012664763 RMS     0.002596586

 GradGradGradGradGradGradGradGradGradGradGradGradGradGradGradGradGradGrad
 Berny optimization.
 Using GEDIIS/GDIIS optimizer.
 FormGI is forming the generalized inverse of G from B-inverse, IUseBI=4.
 Internal  Forces:  Max     0.077719362 RMS     0.013729629
 Search for a local minimum.
 Step number  41 out of a maximum of  144
 All quantities printed in internal units (Hartrees-Bohrs-Radians)
 Mixed Optimization -- RFO/linear search
 Update second derivatives using D2CorX and points   41   40
 DE=  6.45D-04 DEPred=-9.47D-04 R=-6.81D-01
 Trust test=-6.81D-01 RLast= 2.85D-01 DXMaxT set to 1.50D+00
 ITU= -1  1  1  1  1 -1  1  0 -1  1  1  1 -1  1  1 -1  1  1  1  0
 ITU= -1 -1  1  0  1  0  1  0  1  1 -1  0  0  1  1  0  0  1  1  1
 ITU=  0
 Use linear search instead of GDIIS.
     Eigenvalues ---    0.00000   0.00126   0.00493   0.00857   0.01195
     Eigenvalues ---    0.01211   0.01394   0.01430   0.01607   0.01924
     Eigenvalues ---    0.01981   0.02177   0.02293   0.02434   0.02568
     Eigenvalues ---    0.02613   0.02736   0.02786   0.02841   0.03153
     Eigenvalues ---    0.03307   0.03548   0.03795   0.04139   0.04347
     Eigenvalues ---    0.06722   0.06781   0.08918   0.09218   0.11893
     Eigenvalues ---    0.13454   0.13565   0.14487   0.14680   0.15668
     Eigenvalues ---    0.15833   0.15885   0.15990   0.15997   0.16018
     Eigenvalues ---    0.16083   0.16454   0.16967   0.18285   0.19121
     Eigenvalues ---    0.19639   0.20522   0.20882   0.20986   0.21218
     Eigenvalues ---    0.21934   0.22000   0.22066   0.22448   0.22924
     Eigenvalues ---    0.23715   0.24275   0.25920   0.26997   0.27468
     Eigenvalues ---    0.28088   0.28777   0.29696   0.31052   0.31780
     Eigenvalues ---    0.33196   0.33632   0.34519   0.37927   0.39325
     Eigenvalues ---    0.46833   0.48353   0.50788   0.52425   0.55021
     Eigenvalues ---    0.57433   0.58410   0.62323   0.72326   0.91509
     Eigenvalues ---    1.19597   1.66911   2.32387  20.55231
 RFO step:  Lambda=-1.19924959D-04 EMin= 1.44299538D-06
 Quartic linear search produced a step of -0.86942.
 Iteration  1 RMS(Cart)=  0.00051715 RMS(Int)=  0.02816951
 Iteration  2 RMS(Cart)=  0.00011689 RMS(Int)=  0.02619957
 Iteration  3 RMS(Cart)=  0.00016616 RMS(Int)=  0.02414195
 Iteration  4 RMS(Cart)=  0.00016910 RMS(Int)=  0.02208471
 Iteration  5 RMS(Cart)=  0.00018199 RMS(Int)=  0.01995464
 Iteration  6 RMS(Cart)=  0.00033046 RMS(Int)=  0.01685441
 Iteration  7 RMS(Cart)=  0.00048821 RMS(Int)=  0.01075138
 Iteration  8 RMS(Cart)=  0.00071426 RMS(Int)=  0.00340100
 Iteration  9 RMS(Cart)=  0.00044504 RMS(Int)=  0.00246845
 SLEqS3 Cycle:    90 Max:0.111707E-01 RMS: 47.4831     Conv:0.284398E-03
 Iteration 10 RMS(Cart)=  0.00014323 RMS(Int)=  0.00256626
 SLEqS3 Cycle:   901 Max:0.962517E-02 RMS:0.227180E-02 Conv:0.461169E-06
 SLEqS3 Cycle:   901 Max:0.214363E-01 RMS:0.350871E-02 Conv:0.461169E-06
 Iteration 11 RMS(Cart)=  0.01255520 RMS(Int)=  0.00168198
slurmstepd: error: *** JOB 27448758 ON lewis4-r630-hpc4-node303 CANCELLED AT 2023-05-19T05:30:44 DUE TO TIME LIMIT ***
