### Starting Gaussian ###
 Entering Gaussian System, Link 0=g16
 Initial command:
 /cluster/software/gaussian/gaussian-16-A.03/avx2/g16/l1.exe "/local/scratch/yxie/Gau-22753.inp" -scrdir="/local/scratch/yxie/"
 Entering Link 1 = /cluster/software/gaussian/gaussian-16-A.03/avx2/g16/l1.exe PID=     22754.
  
 Copyright (c) 1988,1990,1992,1993,1995,1998,2003,2009,2016,
            Gaussian, Inc.  All Rights Reserved.
  
 This is part of the Gaussian(R) 16 program.  It is based on
 the Gaussian(R) 09 system (copyright 2009, Gaussian, Inc.),
 the Gaussian(R) 03 system (copyright 2003, Gaussian, Inc.),
 the Gaussian(R) 98 system (copyright 1998, Gaussian, Inc.),
 the Gaussian(R) 94 system (copyright 1995, Gaussian, Inc.),
 the Gaussian 92(TM) system (copyright 1992, Gaussian, Inc.),
 the Gaussian 90(TM) system (copyright 1990, Gaussian, Inc.),
 the Gaussian 88(TM) system (copyright 1988, Gaussian, Inc.),
 the Gaussian 86(TM) system (copyright 1986, Carnegie Mellon
 University), and the Gaussian 82(TM) system (copyright 1983,
 Carnegie Mellon University). Gaussian is a federally registered
 trademark of Gaussian, Inc.
  
 This software contains proprietary and confidential information,
 including trade secrets, belonging to Gaussian, Inc.
  
 This software is provided under written license and may be
 used, copied, transmitted, or stored only in accord with that
 written license.
  
 The following legend is applicable only to US Government
 contracts under FAR:
  
                    RESTRICTED RIGHTS LEGEND
  
 Use, reproduction and disclosure by the US Government is
 subject to restrictions as set forth in subparagraphs (a)
 and (c) of the Commercial Computer Software - Restricted
 Rights clause in FAR 52.227-19.
  
 Gaussian, Inc.
 340 Quinnipiac St., Bldg. 40, Wallingford CT 06492
  
  
 ---------------------------------------------------------------
 Warning -- This program may not be used in any manner that
 competes with the business of Gaussian, Inc. or will provide
 assistance to any competitor of Gaussian, Inc.  The licensee
 of this program is prohibited from giving any competitor of
 Gaussian, Inc. access to this program.  By using this program,
 the user acknowledges that Gaussian, Inc. is engaged in the
 business of creating and licensing software in the field of
 computational chemistry and represents and warrants to the
 licensee that it is not a competitor of Gaussian, Inc. and that
 it will not use this program in any manner prohibited above.
 ---------------------------------------------------------------
  

 Cite this work as:
 Gaussian 16, Revision A.03,
 M. J. Frisch, G. W. Trucks, H. B. Schlegel, G. E. Scuseria, 
 M. A. Robb, J. R. Cheeseman, G. Scalmani, V. Barone, 
 G. A. Petersson, H. Nakatsuji, X. Li, M. Caricato, A. V. Marenich, 
 J. Bloino, B. G. Janesko, R. Gomperts, B. Mennucci, H. P. Hratchian, 
 J. V. Ortiz, A. F. Izmaylov, J. L. Sonnenberg, D. Williams-Young, 
 F. Ding, F. Lipparini, F. Egidi, J. Goings, B. Peng, A. Petrone, 
 T. Henderson, D. Ranasinghe, V. G. Zakrzewski, J. Gao, N. Rega, 
 G. Zheng, W. Liang, M. Hada, M. Ehara, K. Toyota, R. Fukuda, 
 J. Hasegawa, M. Ishida, T. Nakajima, Y. Honda, O. Kitao, H. Nakai, 
 T. Vreven, K. Throssell, J. A. Montgomery, Jr., J. E. Peralta, 
 F. Ogliaro, M. J. Bearpark, J. J. Heyd, E. N. Brothers, K. N. Kudin, 
 V. N. Staroverov, T. A. Keith, R. Kobayashi, J. Normand, 
 K. Raghavachari, A. P. Rendell, J. C. Burant, S. S. Iyengar, 
 J. Tomasi, M. Cossi, J. M. Millam, M. Klene, C. Adamo, R. Cammi, 
 J. W. Ochterski, R. L. Martin, K. Morokuma, O. Farkas, 
 J. B. Foresman, and D. J. Fox, Gaussian, Inc., Wallingford CT, 2016.
 
 ******************************************
 Gaussian 16:  ES64L-G16RevA.03 25-Dec-2016
                18-May-2023 
 ******************************************
 %chk=CdC1CC2dNCdCNdCC2dCCdCCdCS1.chk
 %NProcShared=20
 Will use up to   20 processors via shared memory.
 -----------------------------
 # opt freq b3lyp/6-31g(2df,p)
 -----------------------------
 1/18=20,19=15,26=3,38=1/1,3;
 2/9=110,12=2,17=6,18=5,40=1/2;
 3/5=1,6=6,7=104,11=2,25=1,30=1,71=1,74=-5/1,2,3;
 4//1;
 5/5=2,38=5/2;
 6/7=2,8=2,9=2,10=2,28=1/1;
 7//1,2,3,16;
 1/18=20,19=15,26=3/3(2);
 2/9=110/2;
 99//99;
 2/9=110/2;
 3/5=1,6=6,7=104,11=2,25=1,30=1,71=1,74=-5/1,2,3;
 4/5=5,16=3,69=1/1;
 5/5=2,38=5/2;
 7//1,2,3,16;
 1/18=20,19=15,26=3/3(-5);
 2/9=110/2;
 6/7=2,8=2,9=2,10=2,19=2,28=1/1;
 99/9=1/99;
 -------------------
 Title Card Required
 -------------------
 Symbolic Z-matrix:
 Charge =  0 Multiplicity = 1
 C                     0.8171    0.28099   0.006 
 C                     1.99031  -0.3585   -0.00432 
 C                     3.23262  -1.07433  -0.02201 
 C                     4.67557  -0.81326  -0.03114 
 N                     4.99278   0.42291  -0.03031 
 C                     6.27366   0.83932  -0.02419 
 C                     7.42349   0.16126  -0.01347 
 N                     7.74211  -1.16593  -0.01011 
 C                     6.88676  -2.12099  -0.01758 
 C                     5.4457   -2.10242  -0.03078 
 C                     4.95145  -3.36422  -0.03818 
 C                     3.61256  -3.74985  -0.07446 
 C                     2.8986   -4.83724  -0.07937 
 C                     1.4817   -4.71984  -0.08388 
 C                     0.91257  -3.65282   0.08328 
 S                     0.91221  -1.97361   0.11428 
 H                    -0.12406  -0.26628  -0.0524 
 H                     0.45432   1.27873   0.04488 
 H                     3.15949  -1.55933  -1.06238 
 H                     3.19286  -1.62882   0.98053 
 H                     6.33059   1.92895  -0.02785 
 H                     8.31313   0.78528  -0.00602 
 H                     7.29655  -3.14353  -0.01572 
 H                     5.51579  -4.27479  -0.02893 
 H                     2.95032  -2.97614  -0.13223 
 H                     3.36007  -5.78574  -0.03869 
 H                     0.28167  -3.91576  -0.29347 
 H                     0.3411   -5.05702   0.08553 
 

 GradGradGradGradGradGradGradGradGradGradGradGradGradGradGradGradGradGrad
 Berny optimization.
 Initialization pass.
                           ----------------------------
                           !    Initial Parameters    !
                           ! (Angstroms and Degrees)  !
 --------------------------                            --------------------------
 ! Name  Definition              Value          Derivative Info.                !
 --------------------------------------------------------------------------------
 ! R1    R(1,2)                  1.3362         estimate D2E/DX2                !
 ! R2    R(1,17)                 1.0903         estimate D2E/DX2                !
 ! R3    R(1,18)                 1.0624         estimate D2E/DX2                !
 ! R4    R(2,3)                  1.4339         estimate D2E/DX2                !
 ! R5    R(2,16)                 1.9455         estimate D2E/DX2                !
 ! R6    R(3,4)                  1.4664         estimate D2E/DX2                !
 ! R7    R(3,19)                 1.1502         estimate D2E/DX2                !
 ! R8    R(3,20)                 1.1464         estimate D2E/DX2                !
 ! R9    R(4,5)                  1.2762         estimate D2E/DX2                !
 ! R10   R(4,10)                 1.5017         estimate D2E/DX2                !
 ! R11   R(5,6)                  1.3469         estimate D2E/DX2                !
 ! R12   R(6,7)                  1.3349         estimate D2E/DX2                !
 ! R13   R(6,21)                 1.0911         estimate D2E/DX2                !
 ! R14   R(7,8)                  1.3649         estimate D2E/DX2                !
 ! R15   R(7,22)                 1.0867         estimate D2E/DX2                !
 ! R16   R(8,9)                  1.2821         estimate D2E/DX2                !
 ! R17   R(9,10)                 1.4412         estimate D2E/DX2                !
 ! R18   R(9,23)                 1.1016         estimate D2E/DX2                !
 ! R19   R(10,11)                1.3552         estimate D2E/DX2                !
 ! R20   R(11,12)                1.3938         estimate D2E/DX2                !
 ! R21   R(11,24)                1.0713         estimate D2E/DX2                !
 ! R22   R(12,13)                1.3008         estimate D2E/DX2                !
 ! R23   R(12,25)                1.0201         estimate D2E/DX2                !
 ! R24   R(13,14)                1.4218         estimate D2E/DX2                !
 ! R25   R(13,26)                1.0556         estimate D2E/DX2                !
 ! R26   R(14,15)                1.2208         estimate D2E/DX2                !
 ! R27   R(14,28)                1.2014         estimate D2E/DX2                !
 ! R28   R(15,16)                1.6795         estimate D2E/DX2                !
 ! R29   R(15,27)                0.7805         estimate D2E/DX2                !
 ! A1    A(2,1,17)             121.1503         estimate D2E/DX2                !
 ! A2    A(2,1,18)             138.5542         estimate D2E/DX2                !
 ! A3    A(17,1,18)            100.2884         estimate D2E/DX2                !
 ! A4    A(1,2,16)              84.853          estimate D2E/DX2                !
 ! A5    A(3,2,16)              93.8084         estimate D2E/DX2                !
 ! A6    A(2,3,4)              139.794          estimate D2E/DX2                !
 ! A7    A(2,3,19)              99.589          estimate D2E/DX2                !
 ! A8    A(2,3,20)             101.574          estimate D2E/DX2                !
 ! A9    A(4,3,19)              97.5854         estimate D2E/DX2                !
 ! A10   A(4,3,20)              97.2205         estimate D2E/DX2                !
 ! A11   A(19,3,20)            125.7944         estimate D2E/DX2                !
 ! A12   A(3,4,5)              114.6467         estimate D2E/DX2                !
 ! A13   A(3,4,10)             110.5977         estimate D2E/DX2                !
 ! A14   A(5,4,10)             134.7544         estimate D2E/DX2                !
 ! A15   A(4,5,6)              122.401          estimate D2E/DX2                !
 ! A16   A(5,6,7)              131.4634         estimate D2E/DX2                !
 ! A17   A(5,6,21)             110.9987         estimate D2E/DX2                !
 ! A18   A(7,6,21)             117.5378         estimate D2E/DX2                !
 ! A19   A(6,7,8)              134.0273         estimate D2E/DX2                !
 ! A20   A(6,7,22)             114.427          estimate D2E/DX2                !
 ! A21   A(8,7,22)             111.5457         estimate D2E/DX2                !
 ! A22   A(7,8,9)              124.6511         estimate D2E/DX2                !
 ! A23   A(8,9,10)             131.1104         estimate D2E/DX2                !
 ! A24   A(8,9,23)             116.3125         estimate D2E/DX2                !
 ! A25   A(10,9,23)            112.577          estimate D2E/DX2                !
 ! A26   A(4,10,9)             121.5906         estimate D2E/DX2                !
 ! A27   A(4,10,11)            127.7552         estimate D2E/DX2                !
 ! A28   A(9,10,11)            110.6539         estimate D2E/DX2                !
 ! A29   A(10,11,12)           127.4527         estimate D2E/DX2                !
 ! A30   A(10,11,24)           126.8148         estimate D2E/DX2                !
 ! A31   A(12,11,24)           105.729          estimate D2E/DX2                !
 ! A32   A(11,12,13)           139.3413         estimate D2E/DX2                !
 ! A33   A(11,12,25)           114.5357         estimate D2E/DX2                !
 ! A34   A(13,12,25)           106.1112         estimate D2E/DX2                !
 ! A35   A(12,13,14)           118.552          estimate D2E/DX2                !
 ! A36   A(12,13,26)           120.7324         estimate D2E/DX2                !
 ! A37   A(14,13,26)           120.6634         estimate D2E/DX2                !
 ! A38   A(13,14,15)           122.4343         estimate D2E/DX2                !
 ! A39   A(13,14,28)           157.298          estimate D2E/DX2                !
 ! A40   A(15,14,28)            77.4903         estimate D2E/DX2                !
 ! A41   A(14,15,16)           151.2233         estimate D2E/DX2                !
 ! A42   A(14,15,27)            90.9336         estimate D2E/DX2                !
 ! A43   A(16,15,27)           110.2175         estimate D2E/DX2                !
 ! A44   A(2,16,15)            145.9751         estimate D2E/DX2                !
 ! A45   L(1,2,3,16,-1)        178.6614         estimate D2E/DX2                !
 ! A46   L(1,2,3,16,-2)        179.6531         estimate D2E/DX2                !
 ! D1    D(17,1,2,16)           -7.3259         estimate D2E/DX2                !
 ! D2    D(18,1,2,16)          173.8628         estimate D2E/DX2                !
 ! D3    D(17,1,3,4)           176.238          estimate D2E/DX2                !
 ! D4    D(17,1,3,19)           62.2646         estimate D2E/DX2                !
 ! D5    D(17,1,3,20)          -67.3116         estimate D2E/DX2                !
 ! D6    D(18,1,3,4)            -2.4            estimate D2E/DX2                !
 ! D7    D(18,1,3,19)         -116.3734         estimate D2E/DX2                !
 ! D8    D(18,1,3,20)          114.0504         estimate D2E/DX2                !
 ! D9    D(16,2,3,4)          -176.2604         estimate D2E/DX2                !
 ! D10   D(16,2,3,19)           69.7072         estimate D2E/DX2                !
 ! D11   D(16,2,3,20)          -60.0903         estimate D2E/DX2                !
 ! D12   D(1,2,16,15)          173.0352         estimate D2E/DX2                !
 ! D13   D(3,2,16,15)           -6.618          estimate D2E/DX2                !
 ! D14   D(2,3,4,5)             -0.4683         estimate D2E/DX2                !
 ! D15   D(2,3,4,10)           179.1783         estimate D2E/DX2                !
 ! D16   D(19,3,4,5)           114.2322         estimate D2E/DX2                !
 ! D17   D(19,3,4,10)          -66.1212         estimate D2E/DX2                !
 ! D18   D(20,3,4,5)          -118.0604         estimate D2E/DX2                !
 ! D19   D(20,3,4,10)           61.5862         estimate D2E/DX2                !
 ! D20   D(3,4,5,6)            179.3057         estimate D2E/DX2                !
 ! D21   D(10,4,5,6)            -0.2284         estimate D2E/DX2                !
 ! D22   D(3,4,10,9)          -179.0061         estimate D2E/DX2                !
 ! D23   D(3,4,10,11)            0.7926         estimate D2E/DX2                !
 ! D24   D(5,4,10,9)             0.5415         estimate D2E/DX2                !
 ! D25   D(5,4,10,11)         -179.6597         estimate D2E/DX2                !
 ! D26   D(4,5,6,7)             -0.2629         estimate D2E/DX2                !
 ! D27   D(4,5,6,21)           179.8153         estimate D2E/DX2                !
 ! D28   D(5,6,7,8)              0.3077         estimate D2E/DX2                !
 ! D29   D(5,6,7,22)          -179.7184         estimate D2E/DX2                !
 ! D30   D(21,6,7,8)          -179.7746         estimate D2E/DX2                !
 ! D31   D(21,6,7,22)            0.1993         estimate D2E/DX2                !
 ! D32   D(6,7,8,9)             -0.0003         estimate D2E/DX2                !
 ! D33   D(22,7,8,9)          -179.9747         estimate D2E/DX2                !
 ! D34   D(7,8,9,10)             0.003          estimate D2E/DX2                !
 ! D35   D(7,8,9,23)           179.8708         estimate D2E/DX2                !
 ! D36   D(8,9,10,4)            -0.3215         estimate D2E/DX2                !
 ! D37   D(8,9,10,11)          179.8486         estimate D2E/DX2                !
 ! D38   D(23,9,10,4)          179.8068         estimate D2E/DX2                !
 ! D39   D(23,9,10,11)          -0.0231         estimate D2E/DX2                !
 ! D40   D(4,10,11,12)           1.3796         estimate D2E/DX2                !
 ! D41   D(4,10,11,24)        -179.4075         estimate D2E/DX2                !
 ! D42   D(9,10,11,12)        -178.8036         estimate D2E/DX2                !
 ! D43   D(9,10,11,24)           0.4093         estimate D2E/DX2                !
 ! D44   D(10,11,12,13)       -179.3435         estimate D2E/DX2                !
 ! D45   D(10,11,12,25)          2.1398         estimate D2E/DX2                !
 ! D46   D(24,11,12,13)          1.3112         estimate D2E/DX2                !
 ! D47   D(24,11,12,25)       -177.2056         estimate D2E/DX2                !
 ! D48   D(11,12,13,14)        178.0516         estimate D2E/DX2                !
 ! D49   D(11,12,13,26)          0.6608         estimate D2E/DX2                !
 ! D50   D(25,12,13,14)         -3.3529         estimate D2E/DX2                !
 ! D51   D(25,12,13,26)        179.2563         estimate D2E/DX2                !
 ! D52   D(12,13,14,15)         -9.3063         estimate D2E/DX2                !
 ! D53   D(12,13,14,28)       -157.9547         estimate D2E/DX2                !
 ! D54   D(26,13,14,15)        168.0864         estimate D2E/DX2                !
 ! D55   D(26,13,14,28)         19.438          estimate D2E/DX2                !
 ! D56   D(13,14,15,16)         17.554          estimate D2E/DX2                !
 ! D57   D(13,14,15,27)        155.9408         estimate D2E/DX2                !
 ! D58   D(28,14,15,16)       -174.3155         estimate D2E/DX2                !
 ! D59   D(28,14,15,27)        -35.9287         estimate D2E/DX2                !
 ! D60   D(14,15,16,2)          -6.6946         estimate D2E/DX2                !
 ! D61   D(27,15,16,2)        -141.654          estimate D2E/DX2                !
 --------------------------------------------------------------------------------
 Trust Radius=3.00D-01 FncErr=1.00D-07 GrdErr=1.00D-06 EigMax=2.50D+02 EigMin=1.00D-04
 Number of steps in this run=    146 maximum allowed number of steps=    168.
 GradGradGradGradGradGradGradGradGradGradGradGradGradGradGradGradGradGrad

                          Input orientation:                          
 ---------------------------------------------------------------------
 Center     Atomic      Atomic             Coordinates (Angstroms)
 Number     Number       Type             X           Y           Z
 ---------------------------------------------------------------------
      1          6           0        0.817100    0.280990    0.006000
      2          6           0        1.990310   -0.358500   -0.004320
      3          6           0        3.232620   -1.074330   -0.022010
      4          6           0        4.675570   -0.813260   -0.031140
      5          7           0        4.992780    0.422910   -0.030310
      6          6           0        6.273660    0.839320   -0.024190
      7          6           0        7.423490    0.161260   -0.013470
      8          7           0        7.742110   -1.165930   -0.010110
      9          6           0        6.886760   -2.120990   -0.017580
     10          6           0        5.445700   -2.102420   -0.030780
     11          6           0        4.951450   -3.364220   -0.038180
     12          6           0        3.612560   -3.749850   -0.074460
     13          6           0        2.898600   -4.837240   -0.079370
     14          6           0        1.481700   -4.719840   -0.083880
     15          6           0        0.912570   -3.652820    0.083280
     16         16           0        0.912210   -1.973610    0.114280
     17          1           0       -0.124060   -0.266280   -0.052400
     18          1           0        0.454320    1.278730    0.044880
     19          1           0        3.159490   -1.559330   -1.062380
     20          1           0        3.192860   -1.628820    0.980530
     21          1           0        6.330590    1.928950   -0.027850
     22          1           0        8.313130    0.785280   -0.006020
     23          1           0        7.296550   -3.143530   -0.015720
     24          1           0        5.515790   -4.274790   -0.028930
     25          1           0        2.950320   -2.976140   -0.132230
     26          1           0        3.360070   -5.785740   -0.038690
     27          1           0        0.281670   -3.915760   -0.293470
     28          1           0        0.341100   -5.057020    0.085530
 ---------------------------------------------------------------------
                    Distance matrix (angstroms):
                    1          2          3          4          5
     1  C    0.000000
     2  C    1.336217   0.000000
     3  C    2.769912   1.433897   0.000000
     4  C    4.010805   2.723628   1.466406   0.000000
     5  N    4.178249   3.102596   2.310835   1.276221   0.000000
     6  C    5.485134   4.447725   3.593047   2.298904   1.346881
     7  C    6.607504   5.457992   4.369227   2.915659   2.444810
     8  N    7.074574   5.808199   4.510436   3.086825   3.175474
     9  C    6.527698   5.204015   3.801086   2.568989   3.171553
    10  C    5.206336   3.870617   2.440240   1.501677   2.565624
    11  C    5.512019   4.219461   2.863256   2.565844   3.787364
    12  C    4.905990   3.760036   2.702871   3.123368   4.395325
    13  C    5.525958   4.570529   3.778141   4.399132   5.661906
    14  C    5.045599   4.391617   4.044662   5.046281   6.227233
    15  C    3.935727   3.467238   3.470206   4.715545   5.768240
    16  S    2.259202   1.945494   2.492305   3.940868   4.734476
    17  H    1.090274   2.116926   3.452705   4.830744   5.163092
    18  H    1.062359   2.245486   3.641472   4.711810   4.619058
    19  H    3.164649   1.982036   1.150192   1.979539   2.890570
    20  H    3.200206   2.007428   1.146354   1.971559   2.910516
    21  H    5.754606   4.906222   4.314759   3.202939   2.014423
    22  H    7.512983   6.425441   5.410174   3.973387   3.340154
    23  H    7.328784   5.992721   4.560390   3.507126   4.245829
    24  H    6.544772   5.269435   3.931394   3.562045   4.726725
    25  H    3.895976   2.791061   1.925805   2.768530   3.966809
    26  H    6.578291   5.597531   4.713163   5.143555   6.419747
    27  H    4.241353   3.956913   4.105548   5.385228   6.409982
    28  H    5.359781   4.980367   4.922832   6.067186   7.188962
                    6          7          8          9         10
     6  C    0.000000
     7  C    1.334912   0.000000
     8  N    2.485472   1.364904   0.000000
     9  C    3.023139   2.344517   1.282115   0.000000
    10  C    3.056042   3.006027   2.480109   1.441240   0.000000
    11  C    4.406607   4.305880   3.552612   2.300320   1.355167
    12  C    5.305135   5.461107   4.871752   3.657432   2.465022
    13  C    6.604348   6.742698   6.078067   4.825687   3.737555
    14  C    7.339666   7.689926   7.199198   5.997757   4.750474
    15  C    6.995152   7.546433   7.268835   6.168275   4.792287
    16  S    6.056145   6.853522   6.878616   5.977822   4.537639
    17  H    6.492609   7.559750   7.917562   7.252087   5.864649
    18  H    5.836315   7.058433   7.687085   7.275870   6.029243
    19  H    4.065638   4.716178   4.718309   3.911472   2.566301
    20  H    4.073390   4.700069   4.678815   3.857895   2.514425
    21  H    1.091122   2.078308   3.401615   4.087963   4.127346
    22  H    2.040267   1.086699   2.033052   3.237448   4.069592
    23  H    4.112113   3.307228   2.027180   1.101599   2.123625
    24  H    5.169962   4.828882   3.823855   2.553144   2.173501
    25  H    5.061027   5.465037   5.123771   4.029887   2.645865
    26  H    7.237447   7.202696   6.367553   5.086097   4.232820
    27  H    7.654230   8.228371   7.956131   6.850148   5.479454
    28  H    8.365054   8.797755   8.362098   7.174717   5.899164
                   11         12         13         14         15
    11  C    0.000000
    12  C    1.393791   0.000000
    13  C    2.526990   1.300838   0.000000
    14  C    3.725448   2.341268   1.421763   0.000000
    15  C    4.050999   2.706334   2.318107   1.220812   0.000000
    16  S    4.274634   3.237675   3.490505   2.811648   1.679496
    17  H    5.946279   5.108628   5.480043   4.734306   3.544244
    18  H    6.464369   5.939305   6.587491   6.087276   4.952944
    19  H    2.741849   2.445329   3.432064   3.709618   3.277787
    20  H    2.672456   2.405810   3.391745   3.689911   3.178263
    21  H    5.469898   6.295922   7.586998   8.229294   7.779682
    22  H    5.340438   6.532032   7.806103   8.773873   8.629774
    23  H    2.355568   3.734013   4.713244   6.025104   6.405028
    24  H    1.071309   1.974821   2.677420   4.058937   4.646404
    25  H    2.040581   1.020062   1.862569   2.280279   2.157954
    26  H    2.897628   2.051799   1.055586   2.160199   3.248766
    27  H    4.709163   3.342203   2.782676   1.459639   0.780457
    28  H    4.912861   3.526576   2.572217   1.201399   1.516035
                   16         17         18         19         20
    16  S    0.000000
    17  H    2.004149   0.000000
    18  H    3.285148   1.652587   0.000000
    19  H    2.570296   3.670659   4.074132   0.000000
    20  H    2.463866   3.731678   4.102303   2.044364   0.000000
    21  H    6.678998   6.817781   5.912582   4.826409   4.849733
    22  H    7.899339   8.502594   7.874451   5.759609   5.746157
    23  H    6.491950   7.958980   8.147157   4.551972   4.486327
    24  H    5.148678   6.919293   7.514354   3.740841   3.662809
    25  H    2.284672   4.098967   4.936122   1.707712   1.764180
    26  H    4.532963   6.527158   7.639182   4.353242   4.283311
    27  H    2.082255   3.679869   5.208360   3.798135   3.915124
    28  H    3.135986   4.815245   6.336892   4.636254   4.548199
                   21         22         23         24         25
    21  H    0.000000
    22  H    2.288869   0.000000
    23  H    5.163650   4.058211   0.000000
    24  H    6.257019   5.781863   2.109746   0.000000
    25  H    5.957938   6.551636   4.351012   2.877290   0.000000
    26  H    8.266834   8.228741   4.741063   2.632526   2.840862
    27  H    8.415499   9.310572   7.062721   5.253084   2.833827
    28  H    9.202751   9.884033   7.214567   5.234730   3.344475
                   26         27         28
    26  H    0.000000
    27  H    3.610856   0.000000
    28  H    3.108158   1.204013   0.000000
 Stoichiometry    C13H12N2S
 Framework group  C1[X(C13H12N2S)]
 Deg. of freedom    78
 Full point group                 C1      NOp   1
 Largest Abelian subgroup         C1      NOp   1
 Largest concise Abelian subgroup C1      NOp   1
                         Standard orientation:                         
 ---------------------------------------------------------------------
 Center     Atomic      Atomic             Coordinates (Angstroms)
 Number     Number       Type             X           Y           Z
 ---------------------------------------------------------------------
      1          6           0        1.888614    3.038745    0.042866
      2          6           0        1.055389    1.994187    0.032363
      3          6           0        0.188050    0.852364    0.027578
      4          6           0       -1.243182    0.533152    0.022583
      5          7           0       -2.015156    1.549378    0.031571
      6          6           0       -3.357189    1.436412    0.014939
      7          6           0       -4.153762    0.365685   -0.016749
      8          7           0       -3.932450   -0.980983   -0.038410
      9          6           0       -2.773618   -1.529506   -0.031343
     10          6           0       -1.452774   -0.953640   -0.000977
     11          6           0       -0.507732   -1.924913   -0.001593
     12          6           0        0.875623   -1.761523    0.046216
     13          6           0        1.955504   -2.486805    0.047609
     14          6           0        3.215793   -1.829101    0.070085
     15          6           0        3.327430   -0.622537   -0.078656
     16         16           0        2.676443    0.925612   -0.091238
     17          1           0        2.967975    2.898576    0.106338
     18          1           0        1.836105    4.099542    0.019200
     19          1           0        0.436763    0.418491    1.063357
     20          1           0        0.446446    0.371479   -0.980443
     21          1           0       -3.832452    2.418477    0.029874
     22          1           0       -5.215755    0.595823   -0.027830
     23          1           0       -2.754544   -2.630794   -0.049237
     24          1           0       -0.674493   -2.982847   -0.027468
     25          1           0        1.185392   -0.792458    0.120257
     26          1           0        1.898477   -3.539334   -0.008897
     27          1           0        4.008426   -0.625681    0.302590
     28          1           0        4.398955   -1.694953   -0.089573
 ---------------------------------------------------------------------
 Rotational constants (GHZ):           0.8737150           0.3463630           0.2487169
 Standard basis: 6-31G(2df,p) (6D, 7F)
 There are   560 symmetry adapted cartesian basis functions of A   symmetry.
 There are   512 symmetry adapted basis functions of A   symmetry.
   512 basis functions,   812 primitive gaussians,   560 cartesian basis functions
    60 alpha electrons       60 beta electrons
       nuclear repulsion energy      1136.2273282869 Hartrees.
 NAtoms=   28 NActive=   28 NUniq=   28 SFac= 1.00D+00 NAtFMM=   60 NAOKFM=F Big=F
 Integral buffers will be    131072 words long.
 Raffenetti 2 integral format.
 Two-electron integral symmetry is turned on.
 One-electron integrals computed using PRISM.
 PrsmSu:  requested number of processors reduced to:  12 ShMem   1 Linda.
 NBasis=   512 RedAO= T EigKep=  1.07D-04  NBF=   512
 NBsUse=   512 1.00D-06 EigRej= -1.00D+00 NBFU=   512
 ExpMin= 1.17D-01 ExpMax= 2.19D+04 ExpMxC= 3.30D+03 IAcc=3 IRadAn=         5 AccDes= 0.00D+00
 Harris functional with IExCor=  402 and IRadAn=       5 diagonalized for initial guess.
 HarFok:  IExCor=  402 AccDes= 0.00D+00 IRadAn=         5 IDoV= 1 UseB2=F ITyADJ=14
 ICtDFT=  3500011 ScaDFX=  1.000000  1.000000  1.000000  1.000000
 FoFCou: FMM=F IPFlag=           0 FMFlag=      100000 FMFlg1=           0
         NFxFlg=           0 DoJE=T BraDBF=F KetDBF=T FulRan=T
         wScrn=  0.000000 ICntrl=       500 IOpCl=  0 I1Cent=   200000004 NGrid=           0
         NMat0=    1 NMatS0=      1 NMatT0=    0 NMatD0=    1 NMtDS0=    0 NMtDT0=    0
 Petite list used in FoFCou.
 Requested convergence on RMS density matrix=1.00D-08 within 128 cycles.
 Requested convergence on MAX density matrix=1.00D-06.
 Requested convergence on             energy=1.00D-06.
 No special actions if energy rises.
 Integral accuracy reduced to 1.0D-05 until final iterations.
 Initial convergence to 1.0D-05 achieved.  Increase integral accuracy.
 SCF Done:  E(RB3LYP) =  -1009.70304316     A.U. after   18 cycles
            NFock= 18  Conv=0.43D-08     -V/T= 2.0030

 **********************************************************************

            Population analysis using the SCF density.

 **********************************************************************

 Orbital symmetries:
       Occupied  (A) (A) (A) (A) (A) (A) (A) (A) (A) (A) (A) (A)
                 (A) (A) (A) (A) (A) (A) (A) (A) (A) (A) (A) (A)
                 (A) (A) (A) (A) (A) (A) (A) (A) (A) (A) (A) (A)
                 (A) (A) (A) (A) (A) (A) (A) (A) (A) (A) (A) (A)
                 (A) (A) (A) (A) (A) (A) (A) (A) (A) (A) (A) (A)
       Virtual   (A) (A) (A) (A) (A) (A) (A) (A) (A) (A) (A) (A)
                 (A) (A) (A) (A) (A) (A) (A) (A) (A) (A) (A) (A)
                 (A) (A) (A) (A) (A) (A) (A) (A) (A) (A) (A) (A)
                 (A) (A) (A) (A) (A) (A) (A) (A) (A) (A) (A) (A)
                 (A) (A) (A) (A) (A) (A) (A) (A) (A) (A) (A) (A)
                 (A) (A) (A) (A) (A) (A) (A) (A) (A) (A) (A) (A)
                 (A) (A) (A) (A) (A) (A) (A) (A) (A) (A) (A) (A)
                 (A) (A) (A) (A) (A) (A) (A) (A) (A) (A) (A) (A)
                 (A) (A) (A) (A) (A) (A) (A) (A) (A) (A) (A) (A)
                 (A) (A) (A) (A) (A) (A) (A) (A) (A) (A) (A) (A)
                 (A) (A) (A) (A) (A) (A) (A) (A) (A) (A) (A) (A)
                 (A) (A) (A) (A) (A) (A) (A) (A) (A) (A) (A) (A)
                 (A) (A) (A) (A) (A) (A) (A) (A) (A) (A) (A) (A)
                 (A) (A) (A) (A) (A) (A) (A) (A) (A) (A) (A) (A)
                 (A) (A) (A) (A) (A) (A) (A) (A) (A) (A) (A) (A)
                 (A) (A) (A) (A) (A) (A) (A) (A) (A) (A) (A) (A)
                 (A) (A) (A) (A) (A) (A) (A) (A) (A) (A) (A) (A)
                 (A) (A) (A) (A) (A) (A) (A) (A) (A) (A) (A) (A)
                 (A) (A) (A) (A) (A) (A) (A) (A) (A) (A) (A) (A)
                 (A) (A) (A) (A) (A) (A) (A) (A) (A) (A) (A) (A)
                 (A) (A) (A) (A) (A) (A) (A) (A) (A) (A) (A) (A)
                 (A) (A) (A) (A) (A) (A) (A) (A) (A) (A) (A) (A)
                 (A) (A) (A) (A) (A) (A) (A) (A) (A) (A) (A) (A)
                 (A) (A) (A) (A) (A) (A) (A) (A) (A) (A) (A) (A)
                 (A) (A) (A) (A) (A) (A) (A) (A) (A) (A) (A) (A)
                 (A) (A) (A) (A) (A) (A) (A) (A) (A) (A) (A) (A)
                 (A) (A) (A) (A) (A) (A) (A) (A) (A) (A) (A) (A)
                 (A) (A) (A) (A) (A) (A) (A) (A) (A) (A) (A) (A)
                 (A) (A) (A) (A) (A) (A) (A) (A) (A) (A) (A) (A)
                 (A) (A) (A) (A) (A) (A) (A) (A) (A) (A) (A) (A)
                 (A) (A) (A) (A) (A) (A) (A) (A) (A) (A) (A) (A)
                 (A) (A) (A) (A) (A) (A) (A) (A) (A) (A) (A) (A)
                 (A) (A) (A) (A) (A) (A) (A) (A) (A) (A) (A) (A)
                 (A) (A) (A) (A) (A) (A) (A) (A) (A) (A) (A) (A)
                 (A) (A) (A) (A) (A) (A) (A) (A) (A) (A) (A) (A)
                 (A) (A) (A) (A) (A) (A) (A) (A) (A) (A) (A) (A)
                 (A) (A) (A) (A) (A) (A) (A) (A) (A) (A) (A) (A)
                 (A) (A) (A) (A) (A) (A) (A) (A)
 The electronic state is 1-A.
 Alpha  occ. eigenvalues --  -88.86042 -14.33287 -14.32860 -10.25773 -10.25654
 Alpha  occ. eigenvalues --  -10.24106 -10.23133 -10.22108 -10.21329 -10.21202
 Alpha  occ. eigenvalues --  -10.20668 -10.20633 -10.19143 -10.18625 -10.16672
 Alpha  occ. eigenvalues --  -10.16464  -7.92705  -5.89155  -5.88670  -5.88295
 Alpha  occ. eigenvalues --   -0.96756  -0.92808  -0.91013  -0.86598  -0.84541
 Alpha  occ. eigenvalues --   -0.80147  -0.77315  -0.74579  -0.70938  -0.68425
 Alpha  occ. eigenvalues --   -0.67532  -0.61511  -0.58625  -0.56967  -0.56110
 Alpha  occ. eigenvalues --   -0.54382  -0.51450  -0.50759  -0.50369  -0.47900
 Alpha  occ. eigenvalues --   -0.46246  -0.45518  -0.43947  -0.41646  -0.41293
 Alpha  occ. eigenvalues --   -0.40262  -0.38977  -0.38065  -0.36527  -0.35551
 Alpha  occ. eigenvalues --   -0.34563  -0.31863  -0.30639  -0.29516  -0.27575
 Alpha  occ. eigenvalues --   -0.26244  -0.25071  -0.24058  -0.22848  -0.18887
 Alpha virt. eigenvalues --   -0.08154  -0.07815  -0.04196  -0.01131   0.02602
 Alpha virt. eigenvalues --    0.04906   0.05709   0.09647   0.09935   0.10245
 Alpha virt. eigenvalues --    0.11313   0.11508   0.12340   0.14307   0.15076
 Alpha virt. eigenvalues --    0.16291   0.17841   0.18416   0.18706   0.19099
 Alpha virt. eigenvalues --    0.20461   0.21897   0.23366   0.24456   0.26740
 Alpha virt. eigenvalues --    0.28817   0.30012   0.31173   0.32214   0.34988
 Alpha virt. eigenvalues --    0.35354   0.36542   0.36820   0.38353   0.39081
 Alpha virt. eigenvalues --    0.40100   0.40346   0.40629   0.42073   0.42677
 Alpha virt. eigenvalues --    0.43413   0.44841   0.46486   0.47040   0.47487
 Alpha virt. eigenvalues --    0.48166   0.48961   0.49487   0.50066   0.50686
 Alpha virt. eigenvalues --    0.50852   0.51871   0.52668   0.53016   0.53413
 Alpha virt. eigenvalues --    0.54252   0.54801   0.55389   0.57205   0.58053
 Alpha virt. eigenvalues --    0.58694   0.60534   0.61136   0.62738   0.63790
 Alpha virt. eigenvalues --    0.64819   0.65646   0.66382   0.67964   0.68458
 Alpha virt. eigenvalues --    0.68827   0.70042   0.70220   0.71288   0.72881
 Alpha virt. eigenvalues --    0.73094   0.74135   0.75071   0.75473   0.75654
 Alpha virt. eigenvalues --    0.76342   0.76762   0.77118   0.77777   0.78163
 Alpha virt. eigenvalues --    0.78666   0.79477   0.80268   0.80964   0.81798
 Alpha virt. eigenvalues --    0.82477   0.83209   0.84097   0.84774   0.86322
 Alpha virt. eigenvalues --    0.87188   0.87460   0.89279   0.89706   0.90391
 Alpha virt. eigenvalues --    0.91249   0.92179   0.92263   0.94622   0.95095
 Alpha virt. eigenvalues --    0.95864   0.96908   0.98761   1.01015   1.02376
 Alpha virt. eigenvalues --    1.03485   1.04110   1.05563   1.06288   1.07865
 Alpha virt. eigenvalues --    1.09582   1.09698   1.10329   1.11574   1.13284
 Alpha virt. eigenvalues --    1.13875   1.15855   1.16784   1.20067   1.21487
 Alpha virt. eigenvalues --    1.21935   1.23095   1.24138   1.27224   1.28307
 Alpha virt. eigenvalues --    1.29148   1.30189   1.31493   1.32715   1.33480
 Alpha virt. eigenvalues --    1.33705   1.36108   1.37623   1.38387   1.39845
 Alpha virt. eigenvalues --    1.43377   1.43714   1.44877   1.46519   1.46832
 Alpha virt. eigenvalues --    1.48370   1.48804   1.51134   1.52080   1.53487
 Alpha virt. eigenvalues --    1.54656   1.55177   1.56074   1.57850   1.59900
 Alpha virt. eigenvalues --    1.60258   1.61376   1.61968   1.63401   1.64752
 Alpha virt. eigenvalues --    1.65187   1.66162   1.67121   1.68592   1.70460
 Alpha virt. eigenvalues --    1.70866   1.73861   1.74924   1.76174   1.77554
 Alpha virt. eigenvalues --    1.79142   1.82693   1.84070   1.84880   1.85790
 Alpha virt. eigenvalues --    1.86696   1.88248   1.91449   1.92682   1.96646
 Alpha virt. eigenvalues --    1.98550   1.99083   2.00926   2.01911   2.02684
 Alpha virt. eigenvalues --    2.04495   2.06493   2.07442   2.09303   2.11164
 Alpha virt. eigenvalues --    2.12899   2.14001   2.15185   2.16672   2.18570
 Alpha virt. eigenvalues --    2.20084   2.22838   2.24046   2.24464   2.25135
 Alpha virt. eigenvalues --    2.26859   2.28480   2.30039   2.31069   2.31416
 Alpha virt. eigenvalues --    2.33611   2.36079   2.36194   2.38113   2.39478
 Alpha virt. eigenvalues --    2.41461   2.43367   2.43859   2.46016   2.46422
 Alpha virt. eigenvalues --    2.49379   2.50283   2.52561   2.54306   2.57318
 Alpha virt. eigenvalues --    2.59532   2.62811   2.64954   2.66126   2.68591
 Alpha virt. eigenvalues --    2.69727   2.73027   2.73396   2.74227   2.76145
 Alpha virt. eigenvalues --    2.77201   2.78864   2.80145   2.80818   2.82101
 Alpha virt. eigenvalues --    2.85707   2.87308   2.87686   2.89609   2.90754
 Alpha virt. eigenvalues --    2.91992   2.92316   2.96079   2.97507   2.99094
 Alpha virt. eigenvalues --    2.99991   3.00898   3.02301   3.03561   3.03965
 Alpha virt. eigenvalues --    3.04324   3.05503   3.06450   3.08420   3.08640
 Alpha virt. eigenvalues --    3.08801   3.09879   3.11366   3.12174   3.14123
 Alpha virt. eigenvalues --    3.14856   3.15441   3.16245   3.16823   3.19492
 Alpha virt. eigenvalues --    3.20709   3.23222   3.24491   3.24935   3.25374
 Alpha virt. eigenvalues --    3.26666   3.28212   3.28868   3.29744   3.31932
 Alpha virt. eigenvalues --    3.32598   3.33007   3.35033   3.35746   3.36079
 Alpha virt. eigenvalues --    3.36703   3.39506   3.39838   3.40866   3.42074
 Alpha virt. eigenvalues --    3.43958   3.44789   3.46690   3.47228   3.49437
 Alpha virt. eigenvalues --    3.50871   3.51580   3.51856   3.53312   3.55592
 Alpha virt. eigenvalues --    3.56192   3.57793   3.59547   3.60057   3.62422
 Alpha virt. eigenvalues --    3.63024   3.64793   3.66112   3.67520   3.68693
 Alpha virt. eigenvalues --    3.69837   3.70793   3.71964   3.74241   3.74853
 Alpha virt. eigenvalues --    3.76409   3.77336   3.79327   3.82314   3.85486
 Alpha virt. eigenvalues --    3.85987   3.88523   3.89951   3.90822   3.91779
 Alpha virt. eigenvalues --    3.92611   3.95306   3.97705   3.99690   4.01629
 Alpha virt. eigenvalues --    4.03380   4.03991   4.05724   4.07267   4.07574
 Alpha virt. eigenvalues --    4.10080   4.11134   4.12048   4.12901   4.13772
 Alpha virt. eigenvalues --    4.14736   4.17662   4.19542   4.20558   4.22023
 Alpha virt. eigenvalues --    4.24527   4.25580   4.27802   4.28492   4.29368
 Alpha virt. eigenvalues --    4.30588   4.34577   4.35202   4.36815   4.39378
 Alpha virt. eigenvalues --    4.39587   4.40529   4.41443   4.42802   4.43346
 Alpha virt. eigenvalues --    4.45942   4.46771   4.48013   4.48985   4.50247
 Alpha virt. eigenvalues --    4.52020   4.52678   4.54660   4.55333   4.55894
 Alpha virt. eigenvalues --    4.56785   4.58216   4.60674   4.61808   4.63008
 Alpha virt. eigenvalues --    4.65180   4.65600   4.67371   4.68093   4.68852
 Alpha virt. eigenvalues --    4.70024   4.71493   4.72328   4.75164   4.77936
 Alpha virt. eigenvalues --    4.78172   4.79624   4.82082   4.83642   4.84280
 Alpha virt. eigenvalues --    4.85573   4.87806   4.88632   4.90610   4.93034
 Alpha virt. eigenvalues --    4.96083   4.97990   5.00285   5.02570   5.04212
 Alpha virt. eigenvalues --    5.06116   5.09431   5.10091   5.10873   5.13307
 Alpha virt. eigenvalues --    5.14401   5.18527   5.20513   5.23458   5.24106
 Alpha virt. eigenvalues --    5.28437   5.30125   5.30967   5.32600   5.36520
 Alpha virt. eigenvalues --    5.39984   5.42767   5.45089   5.49150   5.56323
 Alpha virt. eigenvalues --    5.57834   5.59258   5.62439   5.69587   5.74187
 Alpha virt. eigenvalues --    5.77059   5.81088   5.83131   5.88007   5.97792
 Alpha virt. eigenvalues --    6.03208   6.10036   6.15784   6.24779   6.32007
 Alpha virt. eigenvalues --    6.40396   6.55062   6.63603   6.82950   7.31114
 Alpha virt. eigenvalues --   10.00752  10.10358  10.20526  10.47885  10.71336
 Alpha virt. eigenvalues --   11.15783  11.24391  11.30038  11.38150  11.39030
 Alpha virt. eigenvalues --   11.65669  11.89431  12.17815  12.36184  12.72165
 Alpha virt. eigenvalues --   18.20763  25.15563
          Condensed to atoms (all electrons):
               1          2          3          4          5          6
     1  C    5.167925   0.706147  -0.042630  -0.003692   0.000538  -0.000007
     2  C    0.706147   4.769183   0.311245  -0.044691   0.006571   0.000674
     3  C   -0.042630   0.311245   5.265226   0.321747  -0.063638   0.002850
     4  C   -0.003692  -0.044691   0.321747   4.831686   0.657470  -0.070512
     5  N    0.000538   0.006571  -0.063638   0.657470   6.394205   0.499995
     6  C   -0.000007   0.000674   0.002850  -0.070512   0.499995   4.745369
     7  C    0.000000   0.000049   0.000675  -0.006593  -0.030356   0.577903
     8  N   -0.000000   0.000003   0.000084  -0.013643  -0.010592  -0.029564
     9  C   -0.000000  -0.000106   0.003386  -0.013822  -0.008542  -0.005913
    10  C    0.000152   0.010921  -0.047266   0.310895  -0.065225  -0.004202
    11  C   -0.000028   0.001596  -0.017946  -0.018634   0.006444   0.000140
    12  C    0.000019   0.003437  -0.014274  -0.028149   0.000056  -0.000064
    13  C    0.000017  -0.000836   0.002347   0.000938   0.000001  -0.000000
    14  C   -0.000140   0.000039   0.000439   0.000047   0.000000  -0.000000
    15  C   -0.001409  -0.004656   0.000375   0.000082  -0.000000   0.000000
    16  S   -0.134717   0.047957  -0.052069   0.013469   0.000432   0.000019
    17  H    0.361512   0.006584   0.002036  -0.000092  -0.000000  -0.000000
    18  H    0.356775  -0.034327  -0.002475   0.000121   0.000001   0.000001
    19  H    0.003753  -0.031022   0.339017  -0.055279  -0.001895  -0.000253
    20  H    0.004729  -0.035487   0.349397  -0.060374  -0.002110  -0.000312
    21  H   -0.000000  -0.000067  -0.000430   0.002633  -0.033993   0.363216
    22  H   -0.000000  -0.000001   0.000011  -0.001104   0.004117  -0.059318
    23  H    0.000000   0.000002  -0.000087   0.003180  -0.000208   0.000158
    24  H   -0.000000  -0.000003  -0.000818   0.003801  -0.000055   0.000007
    25  H    0.000388   0.003087  -0.030598  -0.004337   0.000157  -0.000011
    26  H    0.000000   0.000003  -0.000066  -0.000046  -0.000000  -0.000000
    27  H   -0.000181   0.000965   0.000375   0.000013  -0.000000   0.000000
    28  H    0.000008  -0.000027   0.000025   0.000002   0.000000   0.000000
               7          8          9         10         11         12
     1  C    0.000000  -0.000000  -0.000000   0.000152  -0.000028   0.000019
     2  C    0.000049   0.000003  -0.000106   0.010921   0.001596   0.003437
     3  C    0.000675   0.000084   0.003386  -0.047266  -0.017946  -0.014274
     4  C   -0.006593  -0.013643  -0.013822   0.310895  -0.018634  -0.028149
     5  N   -0.030356  -0.010592  -0.008542  -0.065225   0.006444   0.000056
     6  C    0.577903  -0.029564  -0.005913  -0.004202   0.000140  -0.000064
     7  C    4.708308   0.494210  -0.065859  -0.008191  -0.000045   0.000011
     8  N    0.494210   6.328696   0.618931  -0.024018   0.006836  -0.000358
     9  C   -0.065859   0.618931   4.713000   0.418906  -0.055129  -0.000317
    10  C   -0.008191  -0.024018   0.418906   4.997859   0.411068   0.028936
    11  C   -0.000045   0.006836  -0.055129   0.411068   5.160322   0.460245
    12  C    0.000011  -0.000358  -0.000317   0.028936   0.460245   4.635945
    13  C   -0.000000  -0.000000  -0.000255   0.007688  -0.003275   0.565741
    14  C    0.000000   0.000000   0.000005  -0.000043   0.009105   0.026828
    15  C   -0.000000  -0.000000  -0.000001   0.000142   0.001299  -0.025267
    16  S    0.000001  -0.000000   0.000016  -0.000616   0.002143   0.000702
    17  H   -0.000000   0.000000  -0.000000   0.000001   0.000002   0.000015
    18  H   -0.000000  -0.000000  -0.000000   0.000000   0.000000   0.000001
    19  H    0.000001  -0.000010  -0.000399   0.005085  -0.003707  -0.015557
    20  H   -0.000010  -0.000007  -0.000370   0.007806  -0.007967   0.000774
    21  H   -0.052043   0.003611  -0.000742   0.000501   0.000022  -0.000000
    22  H    0.368734  -0.035302   0.002080   0.000294   0.000012  -0.000000
    23  H    0.003576  -0.024313   0.366475  -0.073050  -0.007618  -0.000415
    24  H   -0.000047   0.000491  -0.012390  -0.061924   0.346234  -0.030133
    25  H   -0.000002  -0.000001  -0.000296  -0.037851  -0.087836   0.322185
    26  H   -0.000000  -0.000000  -0.000022  -0.000161  -0.021014  -0.043092
    27  H    0.000000  -0.000000  -0.000000   0.000011  -0.000240  -0.000294
    28  H   -0.000000   0.000000  -0.000000  -0.000002  -0.000005   0.002615
              13         14         15         16         17         18
     1  C    0.000017  -0.000140  -0.001409  -0.134717   0.361512   0.356775
     2  C   -0.000836   0.000039  -0.004656   0.047957   0.006584  -0.034327
     3  C    0.002347   0.000439   0.000375  -0.052069   0.002036  -0.002475
     4  C    0.000938   0.000047   0.000082   0.013469  -0.000092   0.000121
     5  N    0.000001   0.000000  -0.000000   0.000432  -0.000000   0.000001
     6  C   -0.000000  -0.000000   0.000000   0.000019  -0.000000   0.000001
     7  C   -0.000000   0.000000  -0.000000   0.000001  -0.000000  -0.000000
     8  N   -0.000000   0.000000  -0.000000  -0.000000   0.000000  -0.000000
     9  C   -0.000255   0.000005  -0.000001   0.000016  -0.000000  -0.000000
    10  C    0.007688  -0.000043   0.000142  -0.000616   0.000001   0.000000
    11  C   -0.003275   0.009105   0.001299   0.002143   0.000002   0.000000
    12  C    0.565741   0.026828  -0.025267   0.000702   0.000015   0.000001
    13  C    5.045739   0.415801  -0.038233  -0.021721  -0.000008   0.000000
    14  C    0.415801   5.228229   0.441382  -0.057170  -0.000030   0.000002
    15  C   -0.038233   0.441382   4.801682   0.395607   0.000357  -0.000077
    16  S   -0.021721  -0.057170   0.395607  16.115864  -0.019865   0.015771
    17  H   -0.000008  -0.000030   0.000357  -0.019865   0.518357  -0.064407
    18  H    0.000000   0.000002  -0.000077   0.015771  -0.064407   0.590583
    19  H    0.003717   0.000348   0.000035  -0.030949   0.000298  -0.000181
    20  H    0.003842  -0.000217  -0.001193  -0.026528   0.000378  -0.000168
    21  H    0.000000   0.000000   0.000000  -0.000001   0.000000  -0.000000
    22  H    0.000000  -0.000000   0.000000  -0.000000  -0.000000  -0.000000
    23  H   -0.000006  -0.000000   0.000000  -0.000001   0.000000  -0.000000
    24  H   -0.017257  -0.000701  -0.000048  -0.000086   0.000000  -0.000000
    25  H   -0.051131  -0.061028   0.013958   0.002265   0.000009  -0.000008
    26  H    0.357998  -0.066522   0.003777  -0.000411   0.000000  -0.000000
    27  H    0.023252  -0.073026   0.353095  -0.095176  -0.000658   0.000007
    28  H   -0.026458   0.336095  -0.041371   0.015140   0.000020  -0.000000
              19         20         21         22         23         24
     1  C    0.003753   0.004729  -0.000000  -0.000000   0.000000  -0.000000
     2  C   -0.031022  -0.035487  -0.000067  -0.000001   0.000002  -0.000003
     3  C    0.339017   0.349397  -0.000430   0.000011  -0.000087  -0.000818
     4  C   -0.055279  -0.060374   0.002633  -0.001104   0.003180   0.003801
     5  N   -0.001895  -0.002110  -0.033993   0.004117  -0.000208  -0.000055
     6  C   -0.000253  -0.000312   0.363216  -0.059318   0.000158   0.000007
     7  C    0.000001  -0.000010  -0.052043   0.368734   0.003576  -0.000047
     8  N   -0.000010  -0.000007   0.003611  -0.035302  -0.024313   0.000491
     9  C   -0.000399  -0.000370  -0.000742   0.002080   0.366475  -0.012390
    10  C    0.005085   0.007806   0.000501   0.000294  -0.073050  -0.061924
    11  C   -0.003707  -0.007967   0.000022   0.000012  -0.007618   0.346234
    12  C   -0.015557   0.000774  -0.000000  -0.000000  -0.000415  -0.030133
    13  C    0.003717   0.003842   0.000000   0.000000  -0.000006  -0.017257
    14  C    0.000348  -0.000217   0.000000  -0.000000  -0.000000  -0.000701
    15  C    0.000035  -0.001193   0.000000   0.000000   0.000000  -0.000048
    16  S   -0.030949  -0.026528  -0.000001  -0.000000  -0.000001  -0.000086
    17  H    0.000298   0.000378   0.000000  -0.000000   0.000000   0.000000
    18  H   -0.000181  -0.000168  -0.000000  -0.000000  -0.000000  -0.000000
    19  H    0.619995  -0.004346   0.000015  -0.000001   0.000003  -0.000178
    20  H   -0.004346   0.618693   0.000014  -0.000001   0.000003  -0.000173
    21  H    0.000015   0.000014   0.623361  -0.006359   0.000011   0.000000
    22  H   -0.000001  -0.000001  -0.006359   0.625214  -0.000295   0.000000
    23  H    0.000003   0.000003   0.000011  -0.000295   0.611079   0.008118
    24  H   -0.000178  -0.000173   0.000000   0.000000   0.008118   0.641381
    25  H   -0.005479  -0.020583   0.000000   0.000000  -0.000018   0.014110
    26  H   -0.000056  -0.000048  -0.000000   0.000000  -0.000001   0.007029
    27  H   -0.000452   0.000010  -0.000000  -0.000000  -0.000000   0.000001
    28  H   -0.000005  -0.000038   0.000000   0.000000  -0.000000   0.000001
              25         26         27         28
     1  C    0.000388   0.000000  -0.000181   0.000008
     2  C    0.003087   0.000003   0.000965  -0.000027
     3  C   -0.030598  -0.000066   0.000375   0.000025
     4  C   -0.004337  -0.000046   0.000013   0.000002
     5  N    0.000157  -0.000000  -0.000000   0.000000
     6  C   -0.000011  -0.000000   0.000000   0.000000
     7  C   -0.000002  -0.000000   0.000000  -0.000000
     8  N   -0.000001  -0.000000  -0.000000   0.000000
     9  C   -0.000296  -0.000022  -0.000000  -0.000000
    10  C   -0.037851  -0.000161   0.000011  -0.000002
    11  C   -0.087836  -0.021014  -0.000240  -0.000005
    12  C    0.322185  -0.043092  -0.000294   0.002615
    13  C   -0.051131   0.357998   0.023252  -0.026458
    14  C   -0.061028  -0.066522  -0.073026   0.336095
    15  C    0.013958   0.003777   0.353095  -0.041371
    16  S    0.002265  -0.000411  -0.095176   0.015140
    17  H    0.000009   0.000000  -0.000658   0.000020
    18  H   -0.000008  -0.000000   0.000007  -0.000000
    19  H   -0.005479  -0.000056  -0.000452  -0.000005
    20  H   -0.020583  -0.000048   0.000010  -0.000038
    21  H    0.000000  -0.000000  -0.000000   0.000000
    22  H    0.000000   0.000000  -0.000000   0.000000
    23  H   -0.000018  -0.000001  -0.000000  -0.000000
    24  H    0.014110   0.007029   0.000001   0.000001
    25  H    0.904374   0.016770  -0.001731   0.000416
    26  H    0.016770   0.670961  -0.000382  -0.002592
    27  H   -0.001731  -0.000382   0.794462  -0.070863
    28  H    0.000416  -0.002592  -0.070863   0.650513
 Mulliken charges:
               1
     1  C   -0.419157
     2  C    0.282760
     3  C   -0.326938
     4  C    0.174886
     5  N   -0.353370
     6  C   -0.020176
     7  C    0.009678
     8  N   -0.315054
     9  C    0.041364
    10  C    0.122287
    11  C   -0.182022
    12  C    0.110409
    13  C   -0.267899
    14  C   -0.199442
    15  C    0.100463
    16  S   -0.170076
    17  H    0.195491
    18  H    0.138384
    19  H    0.177502
    20  H    0.174286
    21  H    0.100251
    22  H    0.101918
    23  H    0.113409
    24  H    0.102642
    25  H    0.023191
    26  H    0.077876
    27  H    0.070812
    28  H    0.136524
 Sum of Mulliken charges =  -0.00000
 Mulliken charges with hydrogens summed into heavy atoms:
               1
     1  C   -0.085282
     2  C    0.282760
     3  C    0.024850
     4  C    0.174886
     5  N   -0.353370
     6  C    0.080076
     7  C    0.111596
     8  N   -0.315054
     9  C    0.154773
    10  C    0.122287
    11  C   -0.079381
    12  C    0.133600
    13  C   -0.190023
    14  C   -0.062917
    15  C    0.171275
    16  S   -0.170076
 Electronic spatial extent (au):  <R**2>=           4156.4098
 Charge=             -0.0000 electrons
 Dipole moment (field-independent basis, Debye):
    X=              1.2352    Y=             -0.1635    Z=              0.2553  Tot=              1.2718
 Quadrupole moment (field-independent basis, Debye-Ang):
   XX=           -104.5536   YY=            -93.8510   ZZ=           -101.8750
   XY=             -2.1292   XZ=              0.7455   YZ=              0.6174
 Traceless Quadrupole moment (field-independent basis, Debye-Ang):
   XX=             -4.4604   YY=              6.2422   ZZ=             -1.7818
   XY=             -2.1292   XZ=              0.7455   YZ=              0.6174
 Octapole moment (field-independent basis, Debye-Ang**2):
  XXX=             44.7050  YYY=              8.5947  ZZZ=              0.6661  XYY=             10.8957
  XXY=             27.8330  XXZ=              3.2834  XZZ=             -4.3233  YZZ=              1.1863
  YYZ=             -1.0080  XYZ=              2.3588
 Hexadecapole moment (field-independent basis, Debye-Ang**3):
 XXXX=          -3884.5527 YYYY=          -1520.7277 ZZZZ=           -116.1418 XXXY=           -169.5082
 XXXZ=              7.3466 YYYX=             88.1288 YYYZ=              4.3569 ZZZX=              2.0514
 ZZZY=              0.8319 XXYY=           -917.5126 XXZZ=           -704.3130 YYZZ=           -317.5440
 XXYZ=              6.7808 YYXZ=             -1.7617 ZZXY=              1.2747
 N-N= 1.136227328287D+03 E-N=-4.639031763432D+03  KE= 1.006718348562D+03
 PrsmSu:  requested number of processors reduced to:  13 ShMem   1 Linda.
 Calling FoFJK, ICntrl=      2127 FMM=F ISym2X=0 I1Cent= 0 IOpClX= 0 NMat=1 NMatS=1 NMatT=0.
 ***** Axes restored to original set *****
 -------------------------------------------------------------------
 Center     Atomic                   Forces (Hartrees/Bohr)
 Number     Number              X              Y              Z
 -------------------------------------------------------------------
      1        6           0.026194941    0.040413128   -0.005357815
      2        6          -0.070685000    0.002399956    0.004349113
      3        6           0.034518854   -0.006359035   -0.001736005
      4        6          -0.008765487    0.014714871    0.000128709
      5        7           0.000182729   -0.004496378    0.000189510
      6        6           0.006044904    0.028532227   -0.000400234
      7        6           0.025986523    0.008972095    0.000389241
      8        7           0.005842504   -0.012826642   -0.000188805
      9        6           0.013019480    0.006133129    0.001069518
     10        6           0.018014538    0.010535122   -0.000632479
     11        6          -0.025413477   -0.025265338   -0.001606726
     12        6           0.001666437    0.028181020   -0.002869600
     13        6           0.002453014   -0.078339288    0.009438183
     14        6           0.054625021   -0.159939204    0.009958582
     15        6           0.349438019    0.326549159    0.222077075
     16       16          -0.066721910   -0.019029581    0.014238681
     17        1           0.005185880   -0.006998493    0.002330610
     18        1           0.021984499    0.030681933   -0.000789169
     19        1          -0.003752816   -0.008626852    0.032856587
     20        1          -0.005481627   -0.005528148   -0.032783874
     21        1           0.006069660   -0.001498832   -0.000003785
     22        1           0.001705526    0.001649387   -0.000097389
     23        1           0.001331254    0.007139041    0.000199907
     24        1           0.029904408    0.002562329    0.000967407
     25        1          -0.018722355    0.025169144   -0.003761187
     26        1           0.008240323   -0.025906656   -0.000797181
     27        1          -0.480641179   -0.086999192   -0.245585995
     28        1           0.067775337   -0.091818904   -0.001582879
 -------------------------------------------------------------------
 Cartesian Forces:  Max     0.480641179 RMS     0.087959847

 GradGradGradGradGradGradGradGradGradGradGradGradGradGradGradGradGradGrad
 Berny optimization.
 FormGI is forming the generalized inverse of G from B-inverse, IUseBI=4.
 Internal  Forces:  Max     0.536399466 RMS     0.061531509
 Search for a local minimum.
 Step number   1 out of a maximum of  146
 All quantities printed in internal units (Hartrees-Bohrs-Radians)
 Mixed Optimization -- RFO/linear search
 Second derivative matrix not updated -- first step.
 ITU=  0
     Eigenvalues ---    0.00517   0.00606   0.00885   0.01243   0.01400
     Eigenvalues ---    0.01558   0.01674   0.01811   0.01956   0.02080
     Eigenvalues ---    0.02238   0.02326   0.02427   0.02514   0.02546
     Eigenvalues ---    0.02561   0.02708   0.02730   0.02809   0.02870
     Eigenvalues ---    0.02895   0.03206   0.03889   0.03963   0.05548
     Eigenvalues ---    0.10593   0.13041   0.14293   0.14488   0.15604
     Eigenvalues ---    0.15987   0.15999   0.15999   0.16000   0.16000
     Eigenvalues ---    0.16000   0.16000   0.16000   0.17458   0.21464
     Eigenvalues ---    0.21997   0.22120   0.22191   0.23146   0.23481
     Eigenvalues ---    0.23745   0.24067   0.24563   0.24817   0.24991
     Eigenvalues ---    0.24999   0.28690   0.29035   0.31539   0.33506
     Eigenvalues ---    0.34683   0.34781   0.35197   0.35905   0.37065
     Eigenvalues ---    0.38213   0.38229   0.38664   0.39113   0.40151
     Eigenvalues ---    0.41902   0.44328   0.46268   0.50637   0.53414
     Eigenvalues ---    0.54184   0.57280   0.58061   0.66245   0.70293
     Eigenvalues ---    0.73376   0.94026   1.22485
 RFO step:  Lambda=-4.37498459D-01 EMin= 5.17379399D-03
 Linear search not attempted -- first point.
 Maximum step size (   0.300) exceeded in Quadratic search.
    -- Step size scaled by   0.449
 Iteration  1 RMS(Cart)=  0.07683150 RMS(Int)=  0.00280515
 Iteration  2 RMS(Cart)=  0.00413472 RMS(Int)=  0.00018174
 Iteration  3 RMS(Cart)=  0.00000581 RMS(Int)=  0.00018171
 Iteration  4 RMS(Cart)=  0.00000000 RMS(Int)=  0.00018171
 Variable       Old X    -DE/DX   Delta X   Delta X   Delta X     New X
                                 (Linear)    (Quad)   (Total)
    R1        2.52508  -0.01620   0.00000  -0.00714  -0.00715   2.51794
    R2        2.06032  -0.00109   0.00000  -0.00062  -0.00062   2.05970
    R3        2.00757   0.02128   0.00000   0.01165   0.01165   2.01922
    R4        2.70967   0.04382   0.00000   0.02179   0.02181   2.73148
    R5        3.67645   0.08868   0.00000   0.06462   0.06471   3.74116
    R6        2.77111   0.03827   0.00000   0.02003   0.02009   2.79120
    R7        2.17355  -0.02584   0.00000  -0.01601  -0.01601   2.15754
    R8        2.16629  -0.02581   0.00000  -0.01592  -0.01592   2.15038
    R9        2.41171   0.02774   0.00000   0.01042   0.01042   2.42213
   R10        2.83776   0.00610   0.00000   0.00155   0.00152   2.83928
   R11        2.54524   0.03815   0.00000   0.01763   0.01764   2.56287
   R12        2.52262   0.01826   0.00000   0.00861   0.00862   2.53124
   R13        2.06192  -0.00118   0.00000  -0.00068  -0.00068   2.06125
   R14        2.57929   0.01062   0.00000   0.00540   0.00541   2.58470
   R15        2.05356   0.00234   0.00000   0.00133   0.00133   2.05490
   R16        2.42285   0.00905   0.00000   0.00338   0.00338   2.42623
   R17        2.72355   0.02780   0.00000   0.01437   0.01437   2.73791
   R18        2.08172  -0.00613   0.00000  -0.00356  -0.00356   2.07816
   R19        2.56089   0.03688   0.00000   0.01698   0.01691   2.57781
   R20        2.63388   0.04018   0.00000   0.02115   0.02109   2.65497
   R21        2.02448   0.01358   0.00000   0.00754   0.00754   2.03203
   R22        2.45823   0.05991   0.00000   0.02457   0.02450   2.48273
   R23        1.92764   0.03146   0.00000   0.01603   0.01603   1.94367
   R24        2.68674   0.03862   0.00000   0.02168   0.02163   2.70838
   R25        1.99477   0.02685   0.00000   0.01454   0.01454   2.00931
   R26        2.30700   0.33422   0.00000   0.10883   0.10884   2.41584
   R27        2.27031  -0.03880   0.00000  -0.02549  -0.02549   2.24482
   R28        3.17379   0.06079   0.00000   0.03374   0.03380   3.20759
   R29        1.47485   0.53640   0.00000   0.14484   0.14484   1.61969
    A1        2.11447   0.00908   0.00000   0.00682   0.00682   2.12129
    A2        2.41823  -0.03573   0.00000  -0.02684  -0.02684   2.39139
    A3        1.75036   0.02671   0.00000   0.02006   0.02006   1.77042
    A4        1.48096   0.11575   0.00000   0.09112   0.09096   1.57192
    A5        1.63727   0.01921   0.00000   0.01915   0.01933   1.65659
    A6        2.43986  -0.04158   0.00000  -0.02074  -0.02065   2.41922
    A7        1.73816   0.00677   0.00000   0.00369   0.00365   1.74181
    A8        1.77280   0.00832   0.00000   0.00392   0.00386   1.77666
    A9        1.70319   0.01812   0.00000   0.01092   0.01118   1.71437
   A10        1.69682   0.01661   0.00000   0.01047   0.01073   1.70755
   A11        2.19553  -0.02172   0.00000  -0.01738  -0.01778   2.17774
   A12        2.00096   0.02101   0.00000   0.01816   0.01817   2.01914
   A13        1.93029  -0.00084   0.00000  -0.00683  -0.00683   1.92346
   A14        2.35191  -0.02018   0.00000  -0.01133  -0.01134   2.34056
   A15        2.13630   0.02178   0.00000   0.01367   0.01366   2.14996
   A16        2.29447  -0.00459   0.00000  -0.00239  -0.00238   2.29208
   A17        1.93729   0.00863   0.00000   0.00595   0.00595   1.94324
   A18        2.05142  -0.00403   0.00000  -0.00356  -0.00356   2.04786
   A19        2.33922  -0.01450   0.00000  -0.00920  -0.00919   2.33002
   A20        1.99713   0.00687   0.00000   0.00431   0.00431   2.00144
   A21        1.94684   0.00763   0.00000   0.00488   0.00488   1.95172
   A22        2.17557   0.00507   0.00000   0.00266   0.00265   2.17822
   A23        2.28831   0.01710   0.00000   0.00979   0.00977   2.29808
   A24        2.03004  -0.01261   0.00000  -0.00794  -0.00793   2.02210
   A25        1.96484  -0.00450   0.00000  -0.00185  -0.00184   1.96300
   A26        2.12216  -0.00468   0.00000  -0.00321  -0.00317   2.11899
   A27        2.22975  -0.00605   0.00000  -0.00745  -0.00759   2.22216
   A28        1.93128   0.01074   0.00000   0.01067   0.01076   1.94204
   A29        2.22447   0.01291   0.00000   0.00738   0.00719   2.23166
   A30        2.21334  -0.03361   0.00000  -0.02408  -0.02398   2.18935
   A31        1.84532   0.02066   0.00000   0.01668   0.01678   1.86210
   A32        2.43196  -0.01172   0.00000  -0.00869  -0.00858   2.42339
   A33        1.99902   0.00382   0.00000   0.00281   0.00275   2.00178
   A34        1.85199   0.00781   0.00000   0.00582   0.00576   1.85775
   A35        2.06912  -0.00109   0.00000   0.00314   0.00298   2.07210
   A36        2.10718   0.00492   0.00000   0.00172   0.00178   2.10896
   A37        2.10597  -0.00347   0.00000  -0.00455  -0.00448   2.10149
   A38        2.13688  -0.00901   0.00000  -0.00033   0.00003   2.13691
   A39        2.74537  -0.10583   0.00000  -0.08425  -0.08457   2.66079
   A40        1.35246   0.10626   0.00000   0.07831   0.07876   1.43122
   A41        2.63935  -0.01551   0.00000  -0.00735  -0.00735   2.63199
   A42        1.58709   0.08422   0.00000   0.06295   0.06302   1.65011
   A43        1.92366  -0.06427   0.00000  -0.04978  -0.04986   1.87380
   A44        2.54775  -0.05513   0.00000  -0.03840  -0.03817   2.50958
   A45        3.11823   0.13496   0.00000   0.11027   0.11028   3.22851
   A46        3.13554   0.00661   0.00000   0.00617   0.00607   3.14160
    D1       -0.12786   0.00301   0.00000   0.00320   0.00322  -0.12464
    D2        3.03448  -0.00296   0.00000  -0.00115  -0.00107   3.03341
    D3        3.07593   0.00166   0.00000   0.00128   0.00123   3.07717
    D4        1.08672   0.00161   0.00000   0.00062   0.00107   1.08779
    D5       -1.17481  -0.00195   0.00000  -0.00087  -0.00130  -1.17611
    D6       -0.04189   0.00339   0.00000   0.00256   0.00249  -0.03940
    D7       -2.03110   0.00334   0.00000   0.00190   0.00233  -2.02877
    D8        1.99055  -0.00022   0.00000   0.00041  -0.00004   1.99051
    D9       -3.07633   0.00362   0.00000   0.00161   0.00158  -3.07474
   D10        1.21662  -0.00693   0.00000  -0.00728  -0.00755   1.20907
   D11       -1.04877   0.01080   0.00000   0.00868   0.00890  -1.03987
   D12        3.02003   0.00050   0.00000   0.00055   0.00065   3.02068
   D13       -0.11551  -0.00611   0.00000  -0.00562  -0.00541  -0.12092
   D14       -0.00817   0.00191   0.00000   0.00097   0.00097  -0.00721
   D15        3.12725   0.00092   0.00000   0.00054   0.00053   3.12778
   D16        1.99373   0.00938   0.00000   0.00778   0.00784   2.00157
   D17       -1.15403   0.00840   0.00000   0.00735   0.00740  -1.14663
   D18       -2.06054  -0.00407   0.00000  -0.00468  -0.00476  -2.06530
   D19        1.07488  -0.00506   0.00000  -0.00511  -0.00520   1.06969
   D20        3.12948  -0.00165   0.00000  -0.00073  -0.00074   3.12873
   D21       -0.00399  -0.00051   0.00000  -0.00023  -0.00024  -0.00423
   D22       -3.12425   0.00196   0.00000   0.00092   0.00094  -3.12330
   D23        0.01383   0.00444   0.00000   0.00243   0.00240   0.01623
   D24        0.00945   0.00092   0.00000   0.00053   0.00055   0.01000
   D25       -3.13565   0.00341   0.00000   0.00203   0.00200  -3.13365
   D26       -0.00459  -0.00048   0.00000  -0.00032  -0.00033  -0.00491
   D27        3.13837  -0.00008   0.00000  -0.00010  -0.00011   3.13826
   D28        0.00537   0.00052   0.00000   0.00028   0.00029   0.00566
   D29       -3.13668   0.00032   0.00000   0.00015   0.00015  -3.13653
   D30       -3.13766   0.00011   0.00000   0.00006   0.00006  -3.13760
   D31        0.00348  -0.00010   0.00000  -0.00007  -0.00008   0.00340
   D32       -0.00001   0.00024   0.00000   0.00015   0.00016   0.00015
   D33       -3.14115   0.00044   0.00000   0.00029   0.00029  -3.14086
   D34        0.00005  -0.00043   0.00000  -0.00020  -0.00020  -0.00014
   D35        3.13934  -0.00108   0.00000  -0.00059  -0.00059   3.13875
   D36       -0.00561  -0.00035   0.00000  -0.00026  -0.00028  -0.00589
   D37        3.13895  -0.00242   0.00000  -0.00150  -0.00149   3.13746
   D38        3.13822   0.00030   0.00000   0.00013   0.00011   3.13833
   D39       -0.00040  -0.00177   0.00000  -0.00111  -0.00110  -0.00150
   D40        0.02408   0.00045   0.00000  -0.00039  -0.00035   0.02373
   D41       -3.13125  -0.00282   0.00000  -0.00215  -0.00203  -3.13329
   D42       -3.12071   0.00269   0.00000   0.00096   0.00097  -3.11975
   D43        0.00714  -0.00058   0.00000  -0.00080  -0.00072   0.00642
   D44       -3.13013  -0.00785   0.00000  -0.00564  -0.00546  -3.13560
   D45        0.03735  -0.00312   0.00000  -0.00208  -0.00199   0.03536
   D46        0.02288  -0.00477   0.00000  -0.00392  -0.00377   0.01912
   D47       -3.09282  -0.00005   0.00000  -0.00036  -0.00030  -3.09312
   D48        3.10759   0.00540   0.00000   0.00408   0.00402   3.11160
   D49        0.01153  -0.00358   0.00000  -0.00346  -0.00339   0.00814
   D50       -0.05852   0.00091   0.00000   0.00070   0.00072  -0.05780
   D51        3.12861  -0.00807   0.00000  -0.00684  -0.00669   3.12192
   D52       -0.16243  -0.00510   0.00000  -0.00357  -0.00353  -0.16595
   D53       -2.75683  -0.02189   0.00000  -0.01935  -0.01888  -2.77571
   D54        2.93366   0.00410   0.00000   0.00413   0.00402   2.93768
   D55        0.33926  -0.01268   0.00000  -0.01165  -0.01133   0.32793
   D56        0.30637   0.00341   0.00000   0.00070   0.00021   0.30659
   D57        2.72168   0.01501   0.00000   0.01304   0.01261   2.73429
   D58       -3.04238  -0.03902   0.00000  -0.03254  -0.03174  -3.07412
   D59       -0.62707  -0.02741   0.00000  -0.02020  -0.01934  -0.64641
   D60       -0.11684   0.00725   0.00000   0.00690   0.00706  -0.10978
   D61       -2.47233  -0.03091   0.00000  -0.02640  -0.02599  -2.49831
         Item               Value     Threshold  Converged?
 Maximum Force            0.536399     0.000450     NO 
 RMS     Force            0.061532     0.000300     NO 
 Maximum Displacement     0.410446     0.001800     NO 
 RMS     Displacement     0.076893     0.001200     NO 
 Predicted change in Energy=-1.727174D-01
 GradGradGradGradGradGradGradGradGradGradGradGradGradGradGradGradGradGrad

                          Input orientation:                          
 ---------------------------------------------------------------------
 Center     Atomic      Atomic             Coordinates (Angstroms)
 Number     Number       Type             X           Y           Z
 ---------------------------------------------------------------------
      1          6           0        0.872691    0.382410    0.003596
      2          6           0        1.963464   -0.382796   -0.004086
      3          6           0        3.214146   -1.107234   -0.020536
      4          6           0        4.662471   -0.817588   -0.030739
      5          7           0        4.980771    0.423996   -0.032073
      6          6           0        6.264577    0.861174   -0.026381
      7          6           0        7.426081    0.194138   -0.013714
      8          7           0        7.748441   -1.135084   -0.007715
      9          6           0        6.896659   -2.095728   -0.014018
     10          6           0        5.447887   -2.098433   -0.028064
     11          6           0        4.955447   -3.370542   -0.035502
     12          6           0        3.610315   -3.774338   -0.073615
     13          6           0        2.911219   -4.886656   -0.083008
     14          6           0        1.480599   -4.800952   -0.091781
     15          6           0        0.858620   -3.698511    0.087356
     16         16           0        0.831340   -2.001760    0.124739
     17          1           0       -0.126856   -0.049081   -0.048368
     18          1           0        0.650926    1.427054    0.039457
     19          1           0        3.139095   -1.601159   -1.047145
     20          1           0        3.174080   -1.663046    0.971611
     21          1           0        6.312839    1.950855   -0.032151
     22          1           0        8.311780    0.824964   -0.007111
     23          1           0        7.318878   -3.111154   -0.010528
     24          1           0        5.547234   -4.268301   -0.026022
     25          1           0        2.931774   -3.003537   -0.131537
     26          1           0        3.393415   -5.833715   -0.049309
     27          1           0        0.145775   -3.957010   -0.312211
     28          1           0        0.397353   -5.250943    0.095864
 ---------------------------------------------------------------------
                    Distance matrix (angstroms):
                    1          2          3          4          5
     1  C    0.000000
     2  C    1.332435   0.000000
     3  C    2.775253   1.445437   0.000000
     4  C    3.975375   2.733934   1.477039   0.000000
     5  N    4.108445   3.123434   2.337897   1.281736   0.000000
     6  C    5.413183   4.477448   3.630399   2.320561   1.356214
     7  C    6.556117   5.493008   4.408403   2.943029   2.456158
     8  N    7.041225   5.833687   4.534398   3.102344   3.176683
     9  C    6.513805   5.222131   3.812881   2.574007   3.165432
    10  C    5.204614   3.883966   2.443795   1.502481   2.565319
    11  C    5.545725   4.228425   2.855681   2.569714   3.794624
    12  C    4.977861   3.770877   2.696889   3.138669   4.416546
    13  C    5.650323   4.603176   3.792057   4.430229   5.699883
    14  C    5.219759   4.445329   4.080908   5.098551   6.289264
    15  C    4.081804   3.496142   3.503549   4.773148   5.831076
    16  S    2.387604   1.979734   2.549323   4.012980   4.809019
    17  H    1.089945   2.117254   3.504676   4.850626   5.129515
    18  H    1.068526   2.236114   3.605039   4.597373   4.445087
    19  H    3.189856   1.988590   1.141718   1.991919   2.919485
    20  H    3.227590   2.014105   1.137932   1.983636   2.937219
    21  H    5.661847   4.935968   4.353613   3.223041   2.026254
    22  H    7.452249   6.462183   5.451554   4.001998   3.355148
    23  H    7.332019   6.010361   4.567780   3.509608   4.238453
    24  H    6.594038   5.285928   3.928826   3.562337   4.726369
    25  H    3.965189   2.796812   1.920422   2.789955   3.994529
    26  H    6.707985   5.635542   4.729968   5.174203   6.455923
    27  H    4.411202   4.021684   4.197761   5.507789   6.530610
    28  H    5.654124   5.114836   5.011806   6.153202   7.295822
                    6          7          8          9         10
     6  C    0.000000
     7  C    1.339473   0.000000
     8  N    2.487417   1.367765   0.000000
     9  C    3.023731   2.350271   1.283904   0.000000
    10  C    3.070221   3.028092   2.494194   1.448842   0.000000
    11  C    4.429596   4.337217   3.577549   2.322480   1.364116
    12  C    5.341845   5.505675   4.908573   3.690710   2.487449
    13  C    6.654755   6.797297   6.121983   4.865981   3.769866
    14  C    7.412853   7.765679   7.261645   6.054583   4.800733
    15  C    7.073050   7.635081   7.351858   6.247967   4.861578
    16  S    6.143232   6.952104   6.972443   6.067634   4.620087
    17  H    6.455964   7.556932   7.949928   7.315716   5.939530
    18  H    5.642485   6.886627   7.545958   7.170915   5.953524
    19  H    4.107759   4.761231   4.748022   3.928261   2.572223
    20  H    4.113253   4.743365   4.707717   3.875083   2.521728
    21  H    1.090765   2.079832   3.403611   4.088522   4.140640
    22  H    2.047613   1.087404   2.039397   3.245468   4.092502
    23  H    4.109889   3.307031   2.022223   1.099713   2.127561
    24  H    5.179391   4.841857   3.829190   2.557570   2.172141
    25  H    5.104373   5.517047   5.167855   4.069182   2.675957
    26  H    7.284617   7.252494   6.406646   5.123135   4.263055
    27  H    7.793352   8.385939   8.115202   7.009116   5.625605
    28  H    8.473325   8.891790   8.425528   7.225540   5.954962
                   11         12         13         14         15
    11  C    0.000000
    12  C    1.404949   0.000000
    13  C    2.545531   1.313802   0.000000
    14  C    3.758165   2.364309   1.433211   0.000000
    15  C    4.111769   2.757442   2.377788   1.278407   0.000000
    16  S    4.348275   3.302133   3.562538   2.881647   1.697381
    17  H    6.071414   5.276801   5.712550   5.016580   3.782581
    18  H    6.446040   5.985419   6.707224   6.284396   5.129994
    19  H    2.730068   2.427451   3.431615   3.728539   3.299476
    20  H    2.665161   2.395903   3.401908   3.720905   3.207238
    21  H    5.491793   6.331129   7.637092   8.303071   7.853542
    22  H    5.372900   6.577368   7.860943   8.850036   8.718964
    23  H    2.377753   3.767921   4.752380   6.078447   6.487642
    24  H    1.075301   1.999479   2.708170   4.101897   4.724469
    25  H    2.058923   1.028546   1.883856   2.310452   2.197469
    26  H    2.916737   2.070911   1.063283   2.174228   3.317071
    27  H    4.853190   3.477547   2.926509   1.594548   0.857102
    28  H    4.932482   3.540086   2.546413   1.187908   1.619533
                   16         17         18         19         20
    16  S    0.000000
    17  H    2.181986   0.000000
    18  H    3.434616   1.670818   0.000000
    19  H    2.619070   3.751391   4.067156   0.000000
    20  H    2.514032   3.813322   4.096820   2.020008   0.000000
    21  H    6.759780   6.743121   5.686541   4.870285   4.890770
    22  H    7.997796   8.483881   7.684618   5.807273   5.791723
    23  H    6.583100   8.050880   8.065941   4.563468   4.498995
    24  H    5.234462   7.070899   7.511004   3.735702   3.662579
    25  H    2.341166   4.253345   4.986145   1.687598   1.752874
    26  H    4.612852   6.771581   7.761952   4.356018   4.299403
    27  H    2.117528   3.926302   5.419132   3.879449   4.010125
    28  H    3.278165   5.230198   6.683047   4.705798   4.620623
                   21         22         23         24         25
    21  H    0.000000
    22  H    2.294345   0.000000
    23  H    5.161057   4.059420   0.000000
    24  H    6.266106   5.795207   2.116117   0.000000
    25  H    5.998957   6.604345   4.390091   2.907127   0.000000
    26  H    8.314016   8.278291   4.777353   2.662705   2.868760
    27  H    8.544822   9.468051   7.229100   5.417984   2.950177
    28  H    9.320690   9.978247   7.245517   5.244207   3.394972
                   26         27         28
    26  H    0.000000
    27  H    3.760094   0.000000
    28  H    3.055665   1.379883   0.000000
 Stoichiometry    C13H12N2S
 Framework group  C1[X(C13H12N2S)]
 Deg. of freedom    78
 Full point group                 C1      NOp   1
 Largest Abelian subgroup         C1      NOp   1
 Largest concise Abelian subgroup C1      NOp   1
                         Standard orientation:                         
 ---------------------------------------------------------------------
 Center     Atomic      Atomic             Coordinates (Angstroms)
 Number     Number       Type             X           Y           Z
 ---------------------------------------------------------------------
      1          6           0        1.744460    3.133742    0.048232
      2          6           0        1.050672    1.996270    0.034199
      3          6           0        0.193958    0.832103    0.027427
      4          6           0       -1.249383    0.518426    0.023110
      5          7           0       -2.037623    1.529070    0.034166
      6          6           0       -3.389064    1.416611    0.017583
      7          6           0       -4.186799    0.341139   -0.016584
      8          7           0       -3.950670   -1.005867   -0.041090
      9          6           0       -2.785870   -1.545879   -0.034913
     10          6           0       -1.457030   -0.969405   -0.003200
     11          6           0       -0.497037   -1.938541   -0.003691
[...]
 53,0.00003069,0.00002702,0.00001008,-0.00010536,0.00010423,-0.00005793
 ,0.00010248,0.00004935,-0.00010163,0.00008536,-0.00008776,-0.00001240,
 0.01523290,-0.14869261,0.12847436,-0.00007947,0.00002877,-0.00003258,0
 .00014030,0.00004888,-0.00001156,0.00022927,-0.00030399,0.00032263,0.0
 0011494,0.00191219,-0.00068359,-0.00391279,0.00245817,-0.00073663,-0.0
 1923419,-0.01837336,0.01359260,-0.21725808,-0.10473458,0.08661767,0.01
 291150,0.00511468,-0.00583400,0.00073437,0.00325343,-0.00141825,-0.000
 38914,-0.00034961,-0.00055870,0.00028170,0.00004248,0.00006728,-0.0000
 2420,-0.00001163,0.00006044,0.00000081,-0.00003208,-0.00001619,0.00000
 640,0.00001125,-0.00000270,-0.00001159,0.00000526,0.00001713,-0.000017
 38,-0.00000875,-0.00001782,-0.00002617,-0.00002353,0.00000535,0.000082
 71,-0.00005066,0.00006944,-0.00010690,-0.00006366,0.00009033,0.0000179
 3,0.00004323,-0.00005409,0.00038053,0.00021694,-0.00018035,0.22621461,
 -0.00003188,0.00008531,-0.00005779,-0.00002588,-0.00000740,0.00017218,
 -0.00065957,-0.00002401,-0.00079069,0.00097793,-0.00054977,-0.00102904
 ,0.00006679,0.00418727,0.00572726,0.01245768,0.00383190,-0.00457696,-0
 .10942904,-0.11036376,0.06405754,-0.01639178,-0.02164185,0.01446951,0.
 00332032,0.00093465,0.00497796,-0.00061155,0.00107594,0.00136320,0.000
 21839,0.00012598,-0.00007594,0.00006028,0.00002948,-0.00000576,-0.0000
 1087,-0.00001511,-0.00000985,0.00001221,0.00001385,-0.00000014,-0.0000
 2022,0.00000587,0.00001841,-0.00005516,-0.00001476,-0.00002197,-0.0000
 2055,-0.00004687,-0.00002043,0.00004192,-0.00001782,0.00006293,0.00006
 214,-0.00005372,-0.00006439,0.00009273,-0.00002555,-0.00008944,-0.0003
 0606,-0.00056916,-0.00201243,0.11042588,0.12413692,-0.00005636,0.00008
 885,-0.00006471,0.00000733,-0.00002240,0.00021251,-0.00084113,-0.00034
 909,-0.00083033,0.00032310,0.00168753,-0.00126767,-0.00348471,0.004332
 07,0.00829391,0.00051146,-0.00466854,0.00380464,0.08122177,0.06270276,
 -0.08921199,0.01170530,0.01545468,-0.01343213,0.00158395,0.00313334,0.
 00033647,-0.00045007,0.00127643,0.00162008,0.00063264,0.00000460,0.000
 10225,-0.00001052,0.00005279,0.00001885,-0.00000652,0.00004610,0.00003
 946,-0.00000198,-0.00005676,-0.00006030,0.00002913,0.00004417,0.000101
 04,-0.00009805,-0.00002113,-0.00006899,-0.00002815,-0.00005462,-0.0000
 2446,0.00006762,-0.00002377,0.00009544,-0.00001378,-0.00011663,-0.0000
 0372,0.00015222,-0.00004405,-0.00015684,-0.00034296,-0.00192446,-0.002
 40377,-0.09137086,-0.08203307,0.09273919,0.00011706,0.00005209,0.00002
 782,-0.00008561,-0.00000800,-0.00015989,0.00030623,0.00043424,0.000455
 04,0.00019204,-0.00382705,-0.00064036,0.00125899,0.00192217,-0.0020002
 1,-0.00273963,-0.00124193,0.00185199,0.00522476,-0.00707696,-0.0021319
 7,0.00429516,-0.01696736,0.01917339,-0.07946576,0.05994096,-0.07267629
 ,-0.01109972,0.00999117,-0.02237065,-0.00041062,0.00209849,0.00145290,
 -0.00139887,-0.00141472,0.00106604,0.00042157,-0.00064872,-0.00063687,
 -0.00013509,0.00035566,0.00024567,-0.00014443,-0.00015339,-0.00031142,
 0.00012284,-0.00006178,0.00018796,0.00000300,-0.00001986,0.00002920,0.
 00001548,-0.00000444,-0.00003558,-0.00015869,-0.00006896,-0.00002809,-
 0.00014444,0.00002943,0.00012866,0.00053155,0.00034016,0.00067763,-0.0
 0004657,-0.00015904,0.00041543,0.08305104,0.00005446,-0.00002199,0.000
 03377,-0.00027226,-0.00003437,0.00000265,-0.00011539,0.00000572,-0.000
 25461,-0.00111242,0.00113868,-0.00025538,-0.00008664,-0.00051709,0.001
 69161,0.00146912,-0.00020179,-0.00032824,-0.00684925,0.00576957,0.0050
 0198,0.00249581,-0.03079585,0.02147746,0.04897280,-0.13666255,0.113497
 33,-0.00135239,0.00755407,-0.00178123,-0.00030746,-0.00052512,-0.00009
 693,0.00045858,-0.00011777,0.00055237,-0.00034790,-0.00006973,-0.00001
 715,0.00012122,0.00019696,0.00006904,-0.00012623,-0.00005609,-0.000111
 07,0.00012910,0.00009097,0.00001675,0.00002126,-0.00000261,-0.00000649
 ,-0.00005371,0.00003629,-0.00001447,0.00007928,0.00004759,-0.00007829,
 0.00012646,0.00003665,-0.00008395,-0.00004590,-0.00069923,-0.00104568,
 0.00045255,-0.00101624,0.00052441,-0.04396063,0.15591313,0.00004163,-0
 .00001295,0.00003124,-0.00030050,-0.00004311,0.00009001,-0.00020159,0.
 00014926,-0.00040904,-0.00196626,0.00102828,-0.00093552,-0.00024356,-0
 .00077130,0.00226379,0.00170301,0.00078888,-0.00123897,-0.00528555,0.0
 0516382,0.00684898,0.00704206,0.00728445,-0.00651430,-0.07382716,0.117
 61123,-0.18422277,-0.00242962,0.00913165,-0.00155177,-0.00044858,-0.00
 055015,0.00068701,0.00009212,-0.00059746,0.00034155,-0.00009400,-0.000
 03683,-0.00012580,-0.00001522,0.00027110,0.00008226,-0.00010495,-0.000
 08908,-0.00016421,0.00014587,0.00012715,0.00000341,0.00001225,-0.00001
 540,-0.00000921,-0.00003421,0.00001828,-0.00000459,0.00001776,-0.00001
 495,-0.00005033,0.00007025,0.00006911,-0.00006260,-0.00055526,-0.00054
 701,-0.00111847,0.00014962,-0.00000425,0.00024014,0.07612134,-0.138754
 58,0.18635404,0.00016395,0.00003352,0.00009372,-0.00032896,-0.00012264
 ,-0.00017420,0.00039157,-0.00022006,0.00021980,0.00025891,0.00017586,-
 0.00218729,0.00047652,-0.00005504,0.00038549,-0.00018618,0.00012988,-0
 .00011437,0.00008610,-0.00003033,0.00008192,-0.00006647,0.00048941,-0.
 00006712,0.00028619,-0.00203584,0.00069851,0.00454527,-0.00398557,-0.0
 0305649,-0.22915174,0.12034000,0.05167532,-0.02078254,0.01251401,0.008
 19116,-0.00212645,0.00016725,-0.00380784,-0.00081518,-0.00130766,0.001
 36686,-0.00010777,-0.00052500,-0.00079107,0.00024919,0.00012267,0.0004
 3768,0.00001326,-0.00002668,0.00001704,-0.00002844,0.00003315,-0.00004
 320,-0.00005085,0.00001387,-0.00002353,0.00004981,0.00002895,-0.000019
 82,-0.00002317,-0.00002927,-0.00002223,0.00001049,0.00001489,0.0000037
 3,0.00034918,0.00024740,0.00014044,0.24648972,0.00008645,-0.00001482,0
 .00010810,-0.00031585,-0.00019697,-0.00027108,0.00077100,-0.00120875,-
 0.00009382,0.00136649,0.00279677,-0.00806101,-0.00021273,0.00147564,0.
 00113855,-0.00026289,0.00014656,-0.00024081,-0.00062011,0.00005105,-0.
 00040021,-0.00206740,-0.00180422,-0.00023374,0.00162812,-0.00143966,0.
 00525313,0.01872696,-0.01616421,-0.01179951,0.11840814,-0.11616595,-0.
 03894087,-0.01161145,0.00653234,0.00108849,0.00050878,0.00017979,-0.00
 107825,-0.00124478,-0.00088572,0.00032289,0.00041875,-0.00026036,-0.00
 054431,0.00010147,0.00022104,0.00027079,0.00001259,-0.00001079,0.00001
 702,-0.00000249,0.00004535,-0.00000414,-0.00004249,-0.00000264,0.00007
 285,0.00028780,-0.00001227,-0.00023321,0.00000795,0.00005180,0.0001367
 4,-0.00006324,-0.00005275,-0.00004822,0.00027219,-0.00002124,-0.000111
 31,-0.12630538,0.12612134,0.00009928,0.00003371,-0.00002933,-0.0000681
 8,0.00008383,0.00002718,-0.00041248,0.00066188,0.00020197,-0.00606898,
 -0.00387661,0.00557330,0.00182508,-0.00409101,-0.00023569,0.00095642,0
 .00063124,-0.00059327,-0.00010848,-0.00026079,0.00032690,0.00128563,0.
 00085080,0.00066077,0.00102868,0.00359920,-0.00455885,0.01848360,-0.01
 261819,0.00078158,0.04444556,-0.04470057,-0.06722151,-0.00568626,0.007
 14269,0.00819065,-0.00432685,-0.00113572,-0.00007661,0.00134798,-0.000
 24704,0.00088036,-0.00079735,0.00005215,0.00018343,0.00012414,-0.00021
 100,0.00000528,0.00002048,0.00000420,-0.00001224,-0.00010797,0.0000086
 2,-0.00005423,0.00001400,0.00008302,-0.00008008,-0.00016581,0.00000459
 ,0.00013326,-0.00006600,-0.00000477,0.00007510,-0.00003929,-0.00001834
 ,-0.00009638,-0.00079769,-0.00008998,-0.00053971,-0.05220564,0.0540241
 5,0.05601806,0.00006014,-0.00000682,0.00003101,-0.00004455,-0.00017199
 ,0.00001535,0.00012585,-0.00030489,0.00007556,-0.00042425,0.00063704,-
 0.00003772,0.00030700,-0.00022996,-0.00007635,0.00001827,0.00005534,-0
 .00002583,0.00004970,0.00024390,-0.00018404,-0.00100911,-0.00031583,-0
 .00028445,0.00047341,-0.00177391,0.00121326,-0.00376632,0.00002686,-0.
 00193956,0.00375929,-0.00744102,-0.02582171,-0.05792129,-0.00107587,-0
 .00242974,0.00543306,0.00528400,0.02792081,0.00174055,0.00142891,0.000
 02398,-0.00001490,-0.00002289,-0.00000774,-0.00009332,-0.00001368,-0.0
 0031546,0.00000570,-0.00000229,0.00000647,-0.00002907,0.00002552,-0.00
 001494,-0.00006495,0.00002159,-0.00011029,0.00007585,0.00007894,-0.000
 10093,0.00000389,-0.00004488,0.00000373,-0.00001290,-0.00003024,0.0000
 4578,-0.00000335,0.00003394,-0.00002818,0.00051942,0.00036320,0.001094
 41,0.05450521,0.00000416,0.00001022,0.00005214,0.00003683,-0.00023059,
 -0.00025078,0.00010737,0.00011636,0.00019755,0.00034577,0.00029356,-0.
 00048264,0.00010908,0.00022177,-0.00011887,-0.00016817,0.00005693,0.00
 014180,0.00010226,0.00010006,0.00003694,-0.00037383,0.00018925,-0.0002
 3864,-0.00048825,-0.00113644,0.00046831,-0.00107595,0.00323935,0.00099
 923,-0.00469519,-0.00329584,-0.01123970,0.00608155,-0.05122818,-0.0638
 4472,-0.00515120,0.00587114,0.00327816,0.00189760,-0.00579204,0.001266
 71,0.00064504,-0.00000774,-0.00000791,-0.00071171,0.00067026,0.0009494
 1,0.00002085,-0.00000640,-0.00000126,-0.00002866,-0.00001385,-0.000003
 67,-0.00005027,0.00000842,0.00004181,0.00001764,0.00002627,0.00005598,
 -0.00000232,-0.00003583,-0.00001475,0.00000043,-0.00002505,0.00001301,
 0.00017505,0.00000440,0.00000989,-0.00070064,0.00010585,-0.00004649,0.
 00555452,0.04090271,0.00010436,0.00002450,0.00003615,-0.00027336,0.000
 12088,-0.00009405,0.00002023,-0.00009443,-0.00023308,-0.00009419,0.000
 35064,-0.00003676,0.00020114,-0.00020567,-0.00002626,-0.00005359,0.000
 07181,-0.00000583,0.00009281,0.00009268,-0.00006016,-0.00045259,-0.000
 10616,-0.00021104,0.00039402,-0.00061692,0.00049216,-0.00164728,0.0010
 8635,-0.00059323,0.00238462,-0.00298933,-0.00813753,-0.00037138,-0.063
 03331,-0.30960977,-0.00099947,-0.00497380,-0.01600187,-0.00176547,0.00
 189294,0.00092638,0.00000889,-0.00004471,-0.00017598,0.00037465,-0.000
 21111,0.00006707,0.00002105,-0.00000883,0.00000043,-0.00002864,0.00001
 208,-0.00003430,0.00000554,-0.00009655,0.00011334,0.00008305,-0.000089
 99,0.00001027,-0.00000281,-0.00003765,0.00001094,-0.00001576,-0.000017
 00,0.00003104,-0.00006236,0.00000795,-0.00003695,-0.00038115,-0.000183
 22,0.00037858,-0.00145586,0.07143990,0.33259846,-0.00011591,-0.0000168
 1,0.00007545,-0.00055520,0.00259010,0.00021303,0.00036044,-0.00112457,
 -0.00009271,-0.00009691,-0.00086751,-0.00002622,-0.00013823,0.00011624
 ,0.00006794,0.00010871,-0.00003306,-0.00004388,-0.00006370,0.00000376,
 -0.00000969,0.00015230,0.00006634,0.00010282,-0.00007695,0.00008990,-0
 .00028343,0.00000204,-0.00041008,-0.00029954,0.00030729,0.00183307,0.0
 0235456,0.00113042,0.00449651,0.02806737,-0.05542275,-0.00574075,-0.03
 419764,-0.00427950,-0.00744735,-0.02920559,-0.00074891,-0.00088577,-0.
 00160954,0.00024828,0.00042329,0.00090426,-0.00001705,0.00001501,-0.00
 005673,0.00002006,-0.00008435,-0.00004395,0.00050115,-0.00047674,-0.00
 066320,-0.00010700,-0.00004984,-0.00011861,0.00000238,0.00001102,-0.00
 000663,0.00000595,0.00000874,-0.00000894,-0.00002250,-0.00001435,0.000
 01424,0.00001879,-0.00011080,0.00013334,-0.00349108,-0.00150178,0.0028
 5560,0.06661562,-0.00056993,-0.00002827,-0.00007185,0.00240265,-0.0031
 6218,-0.00066478,-0.00008172,-0.00328726,-0.00075166,-0.00145362,-0.00
 061485,0.00060432,0.00052119,0.00008776,-0.00059616,-0.00023234,-0.000
 01365,0.00015018,0.00026184,-0.00000819,0.00008280,0.00006987,0.000291
 01,-0.00018054,-0.00018169,-0.00001869,-0.00028954,-0.00140872,-0.0004
 7684,0.00049384,0.00038543,-0.00758296,0.00038458,0.00139356,0.0067726
 6,0.00075149,-0.00396428,-0.04688154,-0.04564685,-0.00682461,0.0027662
 4,-0.00610871,0.00195816,-0.00141023,-0.00104996,0.00089414,-0.0000565
 2,-0.00022014,-0.00003104,0.00006480,-0.00005055,-0.00000576,0.0000162
 8,0.00007875,-0.00042153,-0.00030538,-0.00168659,-0.00003170,0.0002114
 5,-0.00005610,0.00002726,0.00000439,-0.00002250,0.00001203,0.00001103,
 0.00002461,-0.00003919,-0.00003939,-0.00007409,0.00073502,0.00041812,-
 0.00009399,-0.00196417,0.00969188,-0.00246467,0.00978329,0.04200423,0.
 00003424,0.00017481,-0.00028765,-0.00028655,-0.00088650,-0.00041936,0.
 00016733,-0.00363970,-0.00101126,-0.00014009,0.00069264,-0.00003171,0.
 00034099,0.00015278,-0.00024237,-0.00010242,0.00004608,0.00000047,0.00
 007327,-0.00004066,0.00004243,-0.00008335,0.00000665,-0.00012334,-0.00
 000327,0.00002688,0.00023496,0.00073202,0.00025162,0.00022492,-0.00197
 123,0.00143493,0.00096633,-0.00172746,-0.00514200,-0.01841358,-0.02995
 461,-0.04421242,-0.32076119,-0.00282681,-0.00363157,-0.00881426,0.0019
 5049,-0.00110025,-0.00044701,0.00041211,0.00027632,0.00139197,0.000003
 63,0.00001126,0.00001087,0.00002019,0.00003164,-0.00006271,-0.00057435
 ,-0.00168716,-0.00123793,0.00012243,-0.00056078,0.00000297,0.00000165,
 0.00000406,0.00002352,-0.00000670,-0.00000723,0.00000653,-0.00000090,0
 .00000462,-0.00000093,-0.00026484,-0.00015040,0.00018801,0.00289193,-0
 .00186422,0.00030762,0.03237204,0.05893873,0.34832490,-0.00020697,0.00
 005823,-0.00012219,0.00058028,0.00006205,0.00104862,0.00030254,0.00007
 046,-0.00025126,0.00002304,0.00003232,0.00014506,0.00002442,-0.0000338
 2,-0.00003874,-0.00002219,0.00002248,-0.00000230,0.00003433,0.00000265
 ,0.00000869,-0.00001388,0.00002995,-0.00003169,-0.00000620,-0.00002390
 ,-0.00000604,-0.00000079,0.00001466,-0.00004259,-0.00009271,-0.0000314
 3,0.00023222,-0.00063075,-0.00020519,-0.00080401,-0.00125374,0.0011392
 0,0.00398996,-0.01695053,-0.00522763,-0.00916318,-0.31822251,-0.045512
 49,-0.05833726,0.00135803,0.00068933,-0.00064188,0.00001052,0.00001088
 ,0.00002008,0.00002080,-0.00003338,-0.00003367,0.00002459,-0.00003100,
 0.00002234,-0.00002793,-0.00002074,0.00000013,0.00000266,0.00000030,0.
 00000183,-0.00000949,-0.00000647,0.00000458,-0.00000789,-0.00000583,-0
 .00000561,-0.00006936,-0.00002554,-0.00001778,-0.00001105,0.00001433,0
 .00004419,0.00034660,-0.00006795,-0.00008636,0.33396380,-0.00054311,0.
 00008830,0.00005841,-0.00110472,-0.00038804,-0.00284987,-0.00064873,-0
 .00026599,0.00040366,0.00011789,-0.00001561,-0.00034293,-0.00033349,-0
 .00016723,0.00023729,0.00013448,0.00005207,-0.00004405,-0.00005404,-0.
 00007487,0.00008543,0.00009982,0.00014121,0.00005936,-0.00021799,0.000
 06497,-0.00014193,0.00002778,-0.00022292,0.00010575,0.00026515,-0.0013
 0995,-0.00026033,0.00140820,0.00039636,0.00081651,0.00094244,0.0075059
 4,-0.00640728,0.01285307,0.00511755,0.00183236,-0.05119175,-0.04354973
 ,-0.01637080,-0.01082152,-0.00571454,-0.00797826,0.00007740,-0.0001680
 1,-0.00015204,0.00006118,-0.00005044,0.00017755,0.00011264,-0.00004869
 ,0.00010159,-0.00010007,0.00000360,-0.00010547,-0.00000561,-0.00000007
 ,0.00002580,-0.00000915,-0.00001445,-0.00002992,0.00006718,-0.00000901
 ,-0.00002492,0.00034421,0.00013445,0.00015306,-0.00002078,0.00025282,-
 0.00003514,0.00000845,-0.00049408,-0.00002474,0.04873409,0.04271476,0.
 00012725,0.00030685,-0.00007242,-0.00052719,0.00118305,-0.00344360,-0.
 00079144,-0.00065734,0.00060810,0.00049902,-0.00027187,-0.00072626,-0.
 00029631,0.00008717,0.00026512,0.00010936,-0.00000830,-0.00003376,-0.0
 0013766,0.00000872,-0.00008394,-0.00002141,-0.00019227,0.00011950,0.00
 019311,0.00006191,0.00011456,-0.00002701,0.00002436,0.00002352,-0.0002
 0611,0.00111574,-0.00011028,-0.00019620,0.00016919,0.00048122,0.002438
 23,-0.00648309,0.00070821,0.01823726,0.00150875,0.00849233,-0.06861473
 ,-0.01770734,-0.05856452,-0.01479362,-0.01015552,-0.00452957,0.0000595
 3,-0.00003698,-0.00009081,0.00000174,0.00010047,0.00008090,0.00001170,
 -0.00006927,0.00003976,-0.00010369,-0.00000223,-0.00004304,-0.00000737
 ,0.00000017,0.00000878,-0.00000823,-0.00000648,-0.00001411,0.00001796,
 0.00004530,0.00005265,-0.00010241,-0.00005441,-0.00003716,0.00001147,-
 0.00027051,0.00003122,0.00021244,0.00019658,0.00006244,0.06405095,0.02
 781121,0.05740902,0.00034115,0.00014111,-0.00007224,-0.00064936,-0.000
 36576,-0.00029396,0.00003371,0.00012474,-0.00025670,-0.00008942,0.0002
 1456,0.00010647,0.00016585,-0.00007351,-0.00006059,-0.00008032,0.00001
 936,0.00001868,0.00006508,-0.00000067,0.00000826,-0.00005994,-0.000000
 40,-0.00005865,0.00005606,0.00001606,0.00004593,0.00008812,0.00005885,
 0.00000685,-0.00008881,0.00045759,0.00035319,0.00170160,0.00081024,-0.
 00051300,-0.00236822,-0.01300670,-0.02646951,-0.06685653,-0.02988140,-
 0.05060261,0.00571602,0.01237213,0.02035728,-0.00168884,0.00196122,0.0
 0344875,0.00001923,-0.00000020,0.00005079,-0.00004653,0.00004008,-0.00
 004397,0.00000472,-0.00009836,0.00016748,0.00004266,-0.00013276,0.0000
 5285,-0.00000330,-0.00000633,0.00000342,-0.00000265,-0.00000160,0.0000
 0996,-0.00002573,-0.00001162,-0.00001036,-0.00017125,-0.00007473,0.000
 01018,-0.00019120,-0.00016452,0.00101375,-0.00468434,-0.00116619,-0.00
 109337,0.00083438,-0.00020304,-0.00013662,0.06793783,0.00025872,0.0002
 8578,0.00007617,-0.00030751,0.00173529,0.00111481,-0.00013597,0.000133
 37,0.00001876,-0.00007564,0.00001730,0.00005039,0.00009940,-0.00007563
 ,-0.00000761,-0.00004431,0.00001912,0.00000672,0.00003598,0.00000863,0
 .00000042,-0.00003437,-0.00000902,-0.00002555,0.00005838,0.00002675,-0
 .00000390,-0.00005760,-0.00003369,-0.00020635,0.00031215,0.00006288,0.
 00050295,-0.00123268,-0.00040447,0.00130893,0.00480262,0.00118101,-0.0
 0515148,-0.03404123,-0.10056012,-0.11819225,0.00022520,-0.00207710,-0.
 01333271,0.00180864,0.00422144,-0.00414678,-0.00000801,0.00009741,0.00
 009592,0.00006442,-0.00023263,-0.00029350,0.00004788,-0.00006896,-0.00
 006546,0.00000522,0.00001787,-0.00001678,-0.00000646,-0.00001403,-0.00
 000240,-0.00000193,0.00000008,0.00000729,-0.00002674,-0.00000397,-0.00
 000571,-0.00004596,-0.00003977,0.00006136,-0.00033454,0.00001072,0.000
 10877,-0.00068195,0.00204019,0.00089462,0.00034446,-0.00397840,0.00329
 616,0.02897182,0.09763997,-0.00025273,-0.00012899,0.00004490,0.0000231
 6,-0.00031497,-0.00030631,0.00002218,-0.00015021,-0.00015526,0.0001282
 0,0.00004770,-0.00006848,-0.00005792,-0.00001792,0.00002093,0.00001008
 ,0.00004965,-0.00002819,0.00001084,-0.00002629,0.00002679,-0.00004572,
 0.00002053,-0.00002660,0.00000850,0.00000561,0.00004082,0.00013110,0.0
 0007349,0.00020681,-0.00044933,0.00022337,-0.00017347,0.00126249,0.000
 77080,-0.00012864,-0.00287594,-0.00297901,-0.00368159,-0.04528153,-0.1
 2016225,-0.25070066,-0.00680921,-0.00957257,-0.01113645,0.00146865,-0.
 00232326,0.00177508,0.00001440,-0.00006181,-0.00007692,-0.00001421,0.0
 0008894,0.00011651,-0.00000744,-0.00004119,0.00010319,0.00000322,-0.00
 005976,0.00003967,-0.00000028,-0.00000575,0.00001470,-0.00000519,-0.00
 000780,-0.00000616,0.00000123,-0.00000716,-0.00000993,-0.00005047,0.00
 001584,-0.00008938,-0.00050098,-0.00056669,0.00025314,-0.00070681,-0.0
 0167721,0.00006536,0.00001593,0.00289969,-0.00074786,0.05395775,0.1339
 0720,0.26462802\\-0.00000822,-0.00001503,0.00002672,0.00002463,-0.0000
 0130,0.00002200,-0.00007261,-0.00000826,-0.00001987,0.00002695,0.00004
 723,-0.00004616,0.00000879,-0.00005348,0.00001022,-0.00000007,0.000012
 55,-0.00000546,-0.00001229,0.00000600,-0.00000443,0.00001416,-0.000002
 14,0.00000564,-0.00000862,-0.00000134,0.00000090,0.00000611,-0.0000155
 6,0.00001126,0.00001289,0.00000891,0.00002198,0.00000600,-0.00000737,-
 0.00001957,-0.00004267,0.00000292,-0.00000108,0.00002149,0.00000060,0.
 00004077,0.00003583,0.00003994,-0.00000188,0.00001170,-0.00000806,-0.0
 0003981,0.00000466,-0.00000477,-0.00001259,-0.00000280,0.00000204,0.00
 000201,0.00000258,0.00001277,0.00001241,0.00001503,-0.00000108,0.00000
 579,-0.00000148,-0.00000466,-0.00000210,0.00000164,-0.00000031,0.00000
 302,0.00000034,-0.00000146,0.00000048,-0.00000707,0.00000162,-0.000004
 34,0.00000152,0.00001045,-0.00001038,0.00000127,-0.00000584,-0.0000062
 0,-0.00003580,-0.00001283,0.00000328,-0.00000396,-0.00000157,0.0000074
 1\\\@


 THE PROBLEM WITH THE LADDER OF SUCCESS IS YOU CAN'T
 CLIMB IT WHILE YOU'RE TWIDDLING YOUR THUMBS.
 Job cpu time:       0 days  9 hours 45 minutes 11.6 seconds.
 Elapsed time:       0 days  2 hours 26 minutes 18.3 seconds.
 File lengths (MBytes):  RWF=    553 Int=      0 D2E=      0 Chk=     22 Scr=      1
 Normal termination of Gaussian 16 at Thu May 18 19:11:59 2023.
### All Done ###
