### Starting Gaussian ###
 Entering Gaussian System, Link 0=g16
 Initial command:
 /cluster/software/gaussian/gaussian-16-A.03/avx2/g16/l1.exe "/local/scratch/yxie/Gau-27846.inp" -scrdir="/local/scratch/yxie/"
 Entering Link 1 = /cluster/software/gaussian/gaussian-16-A.03/avx2/g16/l1.exe PID=     27847.
  
 Copyright (c) 1988,1990,1992,1993,1995,1998,2003,2009,2016,
            Gaussian, Inc.  All Rights Reserved.
  
 This is part of the Gaussian(R) 16 program.  It is based on
 the Gaussian(R) 09 system (copyright 2009, Gaussian, Inc.),
 the Gaussian(R) 03 system (copyright 2003, Gaussian, Inc.),
 the Gaussian(R) 98 system (copyright 1998, Gaussian, Inc.),
 the Gaussian(R) 94 system (copyright 1995, Gaussian, Inc.),
 the Gaussian 92(TM) system (copyright 1992, Gaussian, Inc.),
 the Gaussian 90(TM) system (copyright 1990, Gaussian, Inc.),
 the Gaussian 88(TM) system (copyright 1988, Gaussian, Inc.),
 the Gaussian 86(TM) system (copyright 1986, Carnegie Mellon
 University), and the Gaussian 82(TM) system (copyright 1983,
 Carnegie Mellon University). Gaussian is a federally registered
 trademark of Gaussian, Inc.
  
 This software contains proprietary and confidential information,
 including trade secrets, belonging to Gaussian, Inc.
  
 This software is provided under written license and may be
 used, copied, transmitted, or stored only in accord with that
 written license.
  
 The following legend is applicable only to US Government
 contracts under FAR:
  
                    RESTRICTED RIGHTS LEGEND
  
 Use, reproduction and disclosure by the US Government is
 subject to restrictions as set forth in subparagraphs (a)
 and (c) of the Commercial Computer Software - Restricted
 Rights clause in FAR 52.227-19.
  
 Gaussian, Inc.
 340 Quinnipiac St., Bldg. 40, Wallingford CT 06492
  
  
 ---------------------------------------------------------------
 Warning -- This program may not be used in any manner that
 competes with the business of Gaussian, Inc. or will provide
 assistance to any competitor of Gaussian, Inc.  The licensee
 of this program is prohibited from giving any competitor of
 Gaussian, Inc. access to this program.  By using this program,
 the user acknowledges that Gaussian, Inc. is engaged in the
 business of creating and licensing software in the field of
 computational chemistry and represents and warrants to the
 licensee that it is not a competitor of Gaussian, Inc. and that
 it will not use this program in any manner prohibited above.
 ---------------------------------------------------------------
  

 Cite this work as:
 Gaussian 16, Revision A.03,
 M. J. Frisch, G. W. Trucks, H. B. Schlegel, G. E. Scuseria, 
 M. A. Robb, J. R. Cheeseman, G. Scalmani, V. Barone, 
 G. A. Petersson, H. Nakatsuji, X. Li, M. Caricato, A. V. Marenich, 
 J. Bloino, B. G. Janesko, R. Gomperts, B. Mennucci, H. P. Hratchian, 
 J. V. Ortiz, A. F. Izmaylov, J. L. Sonnenberg, D. Williams-Young, 
 F. Ding, F. Lipparini, F. Egidi, J. Goings, B. Peng, A. Petrone, 
 T. Henderson, D. Ranasinghe, V. G. Zakrzewski, J. Gao, N. Rega, 
 G. Zheng, W. Liang, M. Hada, M. Ehara, K. Toyota, R. Fukuda, 
 J. Hasegawa, M. Ishida, T. Nakajima, Y. Honda, O. Kitao, H. Nakai, 
 T. Vreven, K. Throssell, J. A. Montgomery, Jr., J. E. Peralta, 
 F. Ogliaro, M. J. Bearpark, J. J. Heyd, E. N. Brothers, K. N. Kudin, 
 V. N. Staroverov, T. A. Keith, R. Kobayashi, J. Normand, 
 K. Raghavachari, A. P. Rendell, J. C. Burant, S. S. Iyengar, 
 J. Tomasi, M. Cossi, J. M. Millam, M. Klene, C. Adamo, R. Cammi, 
 J. W. Ochterski, R. L. Martin, K. Morokuma, O. Farkas, 
 J. B. Foresman, and D. J. Fox, Gaussian, Inc., Wallingford CT, 2016.
 
 ******************************************
 Gaussian 16:  ES64L-G16RevA.03 25-Dec-2016
                18-May-2023 
 ******************************************
 %chk=CdC[N]CdCCqdCNdSrCCCCS[CH]N.chk
 %NProcShared=20
 Will use up to   20 processors via shared memory.
 -----------------------------
 # opt freq b3lyp/6-31g(2df,p)
 -----------------------------
 1/18=20,19=15,26=3,38=1/1,3;
 2/9=110,12=2,17=6,18=5,40=1/2;
 3/5=1,6=6,7=104,11=2,25=1,30=1,71=1,74=-5/1,2,3;
 4//1;
 5/5=2,38=5/2;
 6/7=2,8=2,9=2,10=2,28=1/1;
 7//1,2,3,16;
 1/18=20,19=15,26=3/3(2);
 2/9=110/2;
 99//99;
 2/9=110/2;
 3/5=1,6=6,7=104,11=2,25=1,30=1,71=1,74=-5/1,2,3;
 4/5=5,16=3,69=1/1;
 5/5=2,38=5/2;
 7//1,2,3,16;
 1/18=20,19=15,26=3/3(-5);
 2/9=110/2;
 6/7=2,8=2,9=2,10=2,19=2,28=1/1;
 99/9=1/99;
 -------------------
 Title Card Required
 -------------------
 Symbolic Z-matrix:
 Charge =  0 Multiplicity = 1
 C                     0.93065  -0.07624  -0.06726 
 C                     2.25794  -0.3132   -0.12969 
 N                     2.85722  -1.49007  -0.44009 
 C                     4.22297  -1.41336  -0.41991 
 C                     5.16811  -2.35116  -0.66734 
 C                     6.65437  -2.21084  -0.63022 
 C                     7.33676  -1.0589   -0.32595 
 N                     6.9486    0.20656   0.00859 
 S                     8.10938   1.15282   0.25996 
 C                     7.41676  -3.52274  -0.97647 
 C                     8.96462  -3.43052  -0.95174 
 C                     9.72085  -4.71668  -1.2943 
 C                     11.24459  -4.48715  -1.23857 
 S                     12.0797  -6.0384   -1.73926 
 C                     13.7379  -5.74024  -1.3857 
 N                     14.63083  -6.7684   -1.84264 
 H                     0.53573   0.89391   0.1886 
 H                     0.26763  -0.89903  -0.28439 
 H                     2.85738   0.58006   0.10591 
 H                     4.68529  -0.45315  -0.16669 
 H                     4.79422  -3.3364   -0.92754 
 H                     8.41197  -1.20448  -0.36491 
 H                     7.11237  -3.86583  -1.97627 
 H                     7.11212  -4.31475  -0.27662 
 H                     9.28194  -3.11795   0.05064 
 H                     9.28072  -2.66285  -1.66876 
 H                     9.4309   -5.04901  -2.29818 
 H                     9.4393   -5.50454  -0.58528 
 H                     11.55138  -4.19082  -0.22817 
 H                     11.53837  -3.68757  -1.92873 
 H                     14.03482  -5.09179  -0.56431 
 H                     14.26025  -7.1103   -2.73333 
 H                     14.46497  -7.57877  -1.24099 
 

 GradGradGradGradGradGradGradGradGradGradGradGradGradGradGradGradGradGrad
 Berny optimization.
 Initialization pass.
                           ----------------------------
                           !    Initial Parameters    !
                           ! (Angstroms and Degrees)  !
 --------------------------                            --------------------------
 ! Name  Definition              Value          Derivative Info.                !
 --------------------------------------------------------------------------------
 ! R1    R(1,2)                  1.3497         estimate D2E/DX2                !
 ! R2    R(1,17)                 1.0782         estimate D2E/DX2                !
 ! R3    R(1,18)                 1.0788         estimate D2E/DX2                !
 ! R4    R(2,3)                  1.3567         estimate D2E/DX2                !
 ! R5    R(2,19)                 1.1012         estimate D2E/DX2                !
 ! R6    R(3,4)                  1.3681         estimate D2E/DX2                !
 ! R7    R(4,5)                  1.3542         estimate D2E/DX2                !
 ! R8    R(4,20)                 1.0954         estimate D2E/DX2                !
 ! R9    R(5,6)                  1.4933         estimate D2E/DX2                !
 ! R10   R(5,21)                 1.0854         estimate D2E/DX2                !
 ! R11   R(6,7)                  1.373          estimate D2E/DX2                !
 ! R12   R(6,10)                 1.5563         estimate D2E/DX2                !
 ! R13   R(7,8)                  1.3653         estimate D2E/DX2                !
 ! R14   R(7,22)                 1.0857         estimate D2E/DX2                !
 ! R15   R(8,9)                  1.5186         estimate D2E/DX2                !
 ! R16   R(10,11)                1.5508         estimate D2E/DX2                !
 ! R17   R(10,23)                1.1            estimate D2E/DX2                !
 ! R18   R(10,24)                1.0999         estimate D2E/DX2                !
 ! R19   R(11,12)                1.5308         estimate D2E/DX2                !
 ! R20   R(11,25)                1.0969         estimate D2E/DX2                !
 ! R21   R(11,26)                1.097          estimate D2E/DX2                !
 ! R22   R(12,13)                1.5419         estimate D2E/DX2                !
 ! R23   R(12,27)                1.0965         estimate D2E/DX2                !
 ! R24   R(12,28)                1.0967         estimate D2E/DX2                !
 ! R25   R(13,14)                1.8315         estimate D2E/DX2                !
 ! R26   R(13,29)                1.0967         estimate D2E/DX2                !
 ! R27   R(13,30)                1.0963         estimate D2E/DX2                !
 ! R28   R(14,15)                1.7215         estimate D2E/DX2                !
 ! R29   R(15,16)                1.4364         estimate D2E/DX2                !
 ! R30   R(15,31)                1.0878         estimate D2E/DX2                !
 ! R31   R(16,32)                1.0235         estimate D2E/DX2                !
 ! R32   R(16,33)                1.0228         estimate D2E/DX2                !
 ! A1    A(2,1,17)             121.9454         estimate D2E/DX2                !
 ! A2    A(2,1,18)             117.4636         estimate D2E/DX2                !
 ! A3    A(17,1,18)            120.591          estimate D2E/DX2                !
 ! A4    A(1,2,3)              126.6748         estimate D2E/DX2                !
 ! A5    A(1,2,19)             112.5185         estimate D2E/DX2                !
 ! A6    A(3,2,19)             120.8067         estimate D2E/DX2                !
 ! A7    A(2,3,4)              112.8907         estimate D2E/DX2                !
 ! A8    A(3,4,5)              130.9356         estimate D2E/DX2                !
 ! A9    A(3,4,20)             118.2888         estimate D2E/DX2                !
 ! A10   A(5,4,20)             110.7756         estimate D2E/DX2                !
 ! A11   A(4,5,6)              128.6817         estimate D2E/DX2                !
 ! A12   A(4,5,21)             115.5919         estimate D2E/DX2                !
 ! A13   A(6,5,21)             115.7264         estimate D2E/DX2                !
 ! A14   A(5,6,7)              125.3793         estimate D2E/DX2                !
 ! A15   A(5,6,10)             113.7536         estimate D2E/DX2                !
 ! A16   A(7,6,10)             120.8671         estimate D2E/DX2                !
 ! A17   A(6,7,8)              133.6809         estimate D2E/DX2                !
 ! A18   A(6,7,22)             111.8229         estimate D2E/DX2                !
 ! A19   A(8,7,22)             114.4962         estimate D2E/DX2                !
 ! A20   A(7,8,9)              113.6289         estimate D2E/DX2                !
 ! A21   A(6,10,11)            115.8016         estimate D2E/DX2                !
 ! A22   A(6,10,23)            109.243          estimate D2E/DX2                !
 ! A23   A(6,10,24)            109.2523         estimate D2E/DX2                !
 ! A24   A(11,10,23)           108.0134         estimate D2E/DX2                !
 ! A25   A(11,10,24)           108.0054         estimate D2E/DX2                !
 ! A26   A(23,10,24)           106.0863         estimate D2E/DX2                !
 ! A27   A(10,11,12)           116.0741         estimate D2E/DX2                !
 ! A28   A(10,11,25)           108.6787         estimate D2E/DX2                !
 ! A29   A(10,11,26)           108.5904         estimate D2E/DX2                !
 ! A30   A(12,11,25)           107.5177         estimate D2E/DX2                !
 ! A31   A(12,11,26)           107.4181         estimate D2E/DX2                !
 ! A32   A(25,11,26)           108.333          estimate D2E/DX2                !
 ! A33   A(11,12,13)           110.7944         estimate D2E/DX2                !
 ! A34   A(11,12,27)           109.2012         estimate D2E/DX2                !
 ! A35   A(11,12,28)           109.3955         estimate D2E/DX2                !
 ! A36   A(13,12,27)           109.8477         estimate D2E/DX2                !
 ! A37   A(13,12,28)           109.7108         estimate D2E/DX2                !
 ! A38   A(27,12,28)           107.8355         estimate D2E/DX2                !
 ! A39   A(12,13,14)           108.3381         estimate D2E/DX2                !
 ! A40   A(12,13,29)           110.484          estimate D2E/DX2                !
 ! A41   A(12,13,30)           110.5249         estimate D2E/DX2                !
 ! A42   A(14,13,29)           110.6801         estimate D2E/DX2                !
 ! A43   A(14,13,30)           108.871          estimate D2E/DX2                !
 ! A44   A(29,13,30)           107.9353         estimate D2E/DX2                !
 ! A45   A(13,14,15)           103.6719         estimate D2E/DX2                !
 ! A46   A(14,15,16)           114.1723         estimate D2E/DX2                !
 ! A47   A(14,15,31)           121.4156         estimate D2E/DX2                !
 ! A48   A(16,15,31)           119.8158         estimate D2E/DX2                !
 ! A49   A(15,16,32)           106.9098         estimate D2E/DX2                !
 ! A50   A(15,16,33)           106.2113         estimate D2E/DX2                !
 ! A51   A(32,16,33)           100.8663         estimate D2E/DX2                !
 ! D1    D(17,1,2,3)          -179.9986         estimate D2E/DX2                !
 ! D2    D(17,1,2,19)           -0.0017         estimate D2E/DX2                !
 ! D3    D(18,1,2,3)            -0.0033         estimate D2E/DX2                !
 ! D4    D(18,1,2,19)          179.9935         estimate D2E/DX2                !
 ! D5    D(1,2,3,4)            179.9942         estimate D2E/DX2                !
 ! D6    D(19,2,3,4)            -0.0024         estimate D2E/DX2                !
 ! D7    D(2,3,4,5)           -179.9963         estimate D2E/DX2                !
 ! D8    D(2,3,4,20)             0.0            estimate D2E/DX2                !
 ! D9    D(3,4,5,6)           -179.9922         estimate D2E/DX2                !
 ! D10   D(3,4,5,21)             0.0175         estimate D2E/DX2                !
 ! D11   D(20,4,5,6)             0.0113         estimate D2E/DX2                !
 ! D12   D(20,4,5,21)         -179.979          estimate D2E/DX2                !
 ! D13   D(4,5,6,7)              0.0114         estimate D2E/DX2                !
 ! D14   D(4,5,6,10)          -179.9968         estimate D2E/DX2                !
 ! D15   D(21,5,6,7)          -179.9983         estimate D2E/DX2                !
 ! D16   D(21,5,6,10)           -0.0065         estimate D2E/DX2                !
 ! D17   D(5,6,7,8)              0.0186         estimate D2E/DX2                !
 ! D18   D(5,6,7,22)          -179.9696         estimate D2E/DX2                !
 ! D19   D(10,6,7,8)          -179.9727         estimate D2E/DX2                !
 ! D20   D(10,6,7,22)            0.0391         estimate D2E/DX2                !
 ! D21   D(5,6,10,11)         -179.988          estimate D2E/DX2                !
 ! D22   D(5,6,10,23)           57.8327         estimate D2E/DX2                !
 ! D23   D(5,6,10,24)          -57.8118         estimate D2E/DX2                !
 ! D24   D(7,6,10,11)            0.0043         estimate D2E/DX2                !
 ! D25   D(7,6,10,23)         -122.1751         estimate D2E/DX2                !
 ! D26   D(7,6,10,24)          122.1805         estimate D2E/DX2                !
 ! D27   D(6,7,8,9)            179.9372         estimate D2E/DX2                !
 ! D28   D(22,7,8,9)            -0.0749         estimate D2E/DX2                !
 ! D29   D(6,10,11,12)        -179.8749         estimate D2E/DX2                !
 ! D30   D(6,10,11,25)          58.8489         estimate D2E/DX2                !
 ! D31   D(6,10,11,26)         -58.7976         estimate D2E/DX2                !
 ! D32   D(23,10,11,12)        -57.045          estimate D2E/DX2                !
 ! D33   D(23,10,11,25)       -178.3213         estimate D2E/DX2                !
 ! D34   D(23,10,11,26)         64.0322         estimate D2E/DX2                !
 ! D35   D(24,10,11,12)         57.2893         estimate D2E/DX2                !
 ! D36   D(24,10,11,25)        -63.987          estimate D2E/DX2                !
 ! D37   D(24,10,11,26)        178.3665         estimate D2E/DX2                !
 ! D38   D(10,11,12,13)        179.7858         estimate D2E/DX2                !
 ! D39   D(10,11,12,27)         58.6662         estimate D2E/DX2                !
 ! D40   D(10,11,12,28)        -59.138          estimate D2E/DX2                !
 ! D41   D(25,11,12,13)        -58.3208         estimate D2E/DX2                !
 ! D42   D(25,11,12,27)       -179.4404         estimate D2E/DX2                !
 ! D43   D(25,11,12,28)         62.7554         estimate D2E/DX2                !
 ! D44   D(26,11,12,13)         58.0841         estimate D2E/DX2                !
 ! D45   D(26,11,12,27)        -63.0355         estimate D2E/DX2                !
 ! D46   D(26,11,12,28)        179.1603         estimate D2E/DX2                !
 ! D47   D(11,12,13,14)       -177.2022         estimate D2E/DX2                !
 ! D48   D(11,12,13,29)         61.3999         estimate D2E/DX2                !
 ! D49   D(11,12,13,30)        -57.9976         estimate D2E/DX2                !
 ! D50   D(27,12,13,14)        -56.4653         estimate D2E/DX2                !
 ! D51   D(27,12,13,29)       -177.8631         estimate D2E/DX2                !
 ! D52   D(27,12,13,30)         62.7394         estimate D2E/DX2                !
 ! D53   D(28,12,13,14)         61.9081         estimate D2E/DX2                !
 ! D54   D(28,12,13,29)        -59.4898         estimate D2E/DX2                !
 ! D55   D(28,12,13,30)       -178.8873         estimate D2E/DX2                !
 ! D56   D(12,13,14,15)       -170.8979         estimate D2E/DX2                !
 ! D57   D(29,13,14,15)        -49.621          estimate D2E/DX2                !
 ! D58   D(30,13,14,15)         68.8603         estimate D2E/DX2                !
 ! D59   D(13,14,15,16)       -173.0126         estimate D2E/DX2                !
 ! D60   D(13,14,15,31)         31.0987         estimate D2E/DX2                !
 ! D61   D(14,15,16,32)         36.1914         estimate D2E/DX2                !
 ! D62   D(14,15,16,33)        -70.8812         estimate D2E/DX2                !
 ! D63   D(31,15,16,32)       -167.5003         estimate D2E/DX2                !
 ! D64   D(31,15,16,33)         85.427          estimate D2E/DX2                !
 --------------------------------------------------------------------------------
 Trust Radius=3.00D-01 FncErr=1.00D-07 GrdErr=1.00D-06 EigMax=2.50D+02 EigMin=1.00D-04
 Number of steps in this run=    157 maximum allowed number of steps=    198.
 GradGradGradGradGradGradGradGradGradGradGradGradGradGradGradGradGradGrad

                          Input orientation:                          
 ---------------------------------------------------------------------
 Center     Atomic      Atomic             Coordinates (Angstroms)
 Number     Number       Type             X           Y           Z
 ---------------------------------------------------------------------
      1          6           0        0.930650   -0.076240   -0.067260
      2          6           0        2.257940   -0.313200   -0.129690
      3          7           0        2.857220   -1.490070   -0.440090
      4          6           0        4.222970   -1.413360   -0.419910
      5          6           0        5.168110   -2.351160   -0.667340
      6          6           0        6.654370   -2.210840   -0.630220
      7          6           0        7.336760   -1.058900   -0.325950
      8          7           0        6.948600    0.206560    0.008590
      9         16           0        8.109380    1.152820    0.259960
     10          6           0        7.416760   -3.522740   -0.976470
     11          6           0        8.964620   -3.430520   -0.951740
     12          6           0        9.720850   -4.716680   -1.294300
     13          6           0       11.244590   -4.487150   -1.238570
     14         16           0       12.079700   -6.038400   -1.739260
     15          6           0       13.737900   -5.740240   -1.385700
     16          7           0       14.630830   -6.768400   -1.842640
     17          1           0        0.535730    0.893910    0.188600
     18          1           0        0.267630   -0.899030   -0.284390
     19          1           0        2.857380    0.580060    0.105910
     20          1           0        4.685290   -0.453150   -0.166690
     21          1           0        4.794220   -3.336400   -0.927540
     22          1           0        8.411970   -1.204480   -0.364910
     23          1           0        7.112370   -3.865830   -1.976270
     24          1           0        7.112120   -4.314750   -0.276620
     25          1           0        9.281940   -3.117950    0.050640
     26          1           0        9.280720   -2.662850   -1.668760
     27          1           0        9.430900   -5.049010   -2.298180
     28          1           0        9.439300   -5.504540   -0.585280
     29          1           0       11.551380   -4.190820   -0.228170
     30          1           0       11.538370   -3.687570   -1.928730
     31          1           0       14.034820   -5.091790   -0.564310
     32          1           0       14.260250   -7.110300   -2.733330
     33          1           0       14.464970   -7.578770   -1.240990
 ---------------------------------------------------------------------
                    Distance matrix (angstroms):
                    1          2          3          4          5
     1  C    0.000000
     2  C    1.349721   0.000000
     3  N    2.418592   1.356653   0.000000
     4  C    3.570941   2.270666   1.368051   0.000000
     5  C    4.846795   3.593249   2.476556   1.354245   0.000000
     6  C    6.134689   4.814578   3.869626   2.567472   1.493331
     7  C    6.486200   5.137022   4.501690   3.135308   2.547455
     8  N    6.025069   4.721394   4.451882   3.199502   3.188880
     9  S    7.290530   6.044865   5.921159   4.706558   4.667851
    10  C    7.400990   6.134461   5.020842   3.867756   2.554327
    11  C    8.750896   7.441304   6.428644   5.180253   3.957195
    12  C   10.015335   8.743110   7.632176   6.473265   5.168772
    13  C   11.278539   9.970524   8.942485   7.708537   6.466248
    14  S   12.753206  11.481968  10.364810   9.211943   7.906632
    15  C   14.065733  12.760086  11.719527  10.497073   9.243549
    16  N   15.350307  14.060306  12.978667  11.790851  10.508873
    17  H    1.078247   2.127071   3.386433   4.391983   5.720320
    18  H    1.078761   2.080496   2.660742   3.990942   5.125430
    19  H    2.042794   1.101249   2.140924   2.472862   3.811750
    20  H    3.774820   2.431663   2.119384   1.095383   2.021437
    21  H    5.127953   4.026043   2.720020   2.069323   1.085447
    22  H    7.571768   6.222684   5.562595   4.194565   3.453834
    23  H    7.497931   6.292577   5.109832   4.097011   2.790640
    24  H    7.497958   6.292619   5.109766   4.097046   2.790613
    25  H    8.888754   7.565429   6.645889   5.359125   4.245828
    26  H    8.887014   7.563665   6.644275   5.357396   4.244238
    27  H   10.097509   8.864626   7.702715   6.623321   5.301831
    28  H   10.106033   8.872965   7.711085   6.631380   5.309765
    29  H   11.391030  10.070435   9.106447   7.839429   6.657579
    30  H   11.359159  10.037395   9.077853   7.807922   6.630031
    31  H   14.040017  12.716868  11.744214  10.479699   9.281175
    32  H   15.305691  14.036914  12.918012  11.770897  10.468273
    33  H   15.519131  14.249038  13.132158  11.982697  10.681226
                    6          7          8          9         10
     6  C    0.000000
     7  C    1.373027   0.000000
     8  N    2.517632   1.365274   0.000000
     9  S    3.771430   2.414940   1.518554   0.000000
    10  C    1.556345   2.549526   3.885511   4.885626   0.000000
    11  C    2.632157   2.943828   4.267894   4.817329   1.550802
    12  C    4.015412   4.472241   5.798378   6.282005   2.614448
    13  C    5.159631   5.277964   6.483969   6.624530   3.956143
    14  S    6.731596   7.020566   8.269383   8.454228   5.352887
    15  C    7.950082   8.000788   9.132528   9.050012   6.711303
    16  N    9.266349   9.386277  10.540103  10.473584   7.957849
    17  H    6.909971   7.094522   6.452112   7.578410   8.259102
    18  H    6.529234   7.071060   6.778165   8.124004   7.646757
    19  H    4.769501   4.789315   4.109386   5.285385   6.228359
    20  H    2.679853   2.724443   2.364003   3.805990   4.187965
    21  H    2.194412   3.466039   4.250913   5.705571   2.629607
    22  H    2.042623   1.085720   2.066879   2.457415   2.595916
    23  H    2.181881   3.263857   4.533305   5.584049   1.099984
    24  H    2.181973   3.263963   4.533247   5.583616   1.099943
    25  H    2.861912   2.857487   4.061848   4.433756   2.167419
    26  H    2.860174   2.855657   4.060271   4.432983   2.166339
    27  H    4.306555   4.918952   6.253320   6.837630   2.851873
    28  H    4.313504   4.924596   6.258828   6.841313   2.858536
    29  H    5.297421   5.251810   6.370133   6.374961   4.254570
    30  H    5.265009   5.208871   6.323246   6.322793   4.233395
    31  H    7.923084   7.822086   8.866524   8.647856   6.813994
    32  H    9.288552   9.505242  10.701158  10.727168   7.924046
    33  H    9.497009   9.703473  10.893513  10.903533   8.136253
                   11         12         13         14         15
    11  C    0.000000
    12  C    1.530829   0.000000
    13  C    2.529229   1.541938   0.000000
    14  S    4.138230   2.740275   1.831523   0.000000
    15  C    5.320463   4.146410   2.794365   1.721491   0.000000
    16  N    6.636345   5.349592   4.127423   2.655532   1.436395
    17  H    9.541869  10.864812  12.069478  13.602824  14.858925
    18  H    9.082479  10.244888  11.587869  12.963594  14.356127
    19  H    7.382530   8.781985   9.890881  11.500428  12.671101
    20  H    5.271973   6.693733   7.774735   9.399218  10.554101
    21  H    4.171532   5.129461   6.559591   7.812676   9.272420
    22  H    2.367498   3.861668   4.423001   6.221564   7.069700
    23  H    2.161015   2.827224   4.243287   5.426841   6.910849
    24  H    2.160881   2.828903   4.246455   5.457759   6.867535
    25  H    1.096885   2.134817   2.718228   4.422695   5.366103
    26  H    1.096975   2.133577   2.714760   4.385613   5.423735
    27  H    2.156346   1.096490   2.174381   2.882260   4.456531
    28  H    2.158975   1.096678   2.172773   2.930595   4.378834
    29  H    2.791583   2.182659   1.096741   2.444600   2.919152
    30  H    2.764918   2.182876   1.096337   2.419781   3.057167
    31  H    5.349472   4.391347   2.933530   2.469630   1.087810
    32  H    6.690182   5.329763   4.267251   2.625251   1.991487
    33  H    6.895324   5.540855   4.464187   2.882798   1.982363
                   16         17         18         19         20
    16  N    0.000000
    17  H   16.171233   0.000000
    18  H   15.594203   1.873561   0.000000
    19  H   14.014665   2.344227   3.007798   0.000000
    20  H   11.899788   4.377174   4.441664   2.117331   0.000000
    21  H   10.458247   6.105410   5.181161   4.489769   2.983939
    22  H    8.474380   8.169747   8.150464   5.853181   3.806827
    23  H    8.060398   8.402022   7.649498   6.496642   4.561982
    24  H    8.062494   8.402111   7.649461   6.496792   4.562186
    25  H    6.746919   9.623422   9.289437   7.413050   5.317667
    26  H    6.746069   9.621600   9.287806   7.411155   5.315728
    27  H    5.495734  10.983006  10.258811   8.982051   6.941613
    28  H    5.489106  10.991479  10.267463   8.990093   6.949271
    29  H    4.328215  12.139717  11.754236   9.922628   7.817746
    30  H    4.366032  12.105004  11.726440   9.884939   7.780165
    31  H    2.190976  14.785835  14.394204  12.552061  10.444558
    32  H    1.023501  16.154489  15.503890  14.043802  11.940902
    33  H    1.022835  16.366238  15.719366  14.251905  12.147869
                   21         22         23         24         25
    21  H    0.000000
    22  H    4.236715   0.000000
    23  H    2.598836   3.371680   0.000000
    24  H    2.598755   3.372119   1.757936   0.000000
    25  H    4.598281   2.142638   3.061817   2.499510   0.000000
    26  H    4.596929   2.140466   2.498693   3.060989   1.778610
    27  H    5.129375   4.422235   2.622808   3.162686   3.044362
    28  H    5.137581   4.426566   3.167779   2.631851   2.474867
    29  H    6.846778   4.335069   4.781870   4.441254   2.525697
    30  H    6.827098   4.287849   4.429843   4.765974   3.055135
    31  H    9.412865   6.838668   7.170559   6.972111   5.183057
    32  H   10.349344   8.642367   7.886185   8.058926   6.962249
    33  H   10.565006   8.833906   8.269661   8.102360   6.959240
                   26         27         28         29         30
    26  H    0.000000
    27  H    2.472344   0.000000
    28  H    3.045370   1.772457   0.000000
    29  H    3.092877   3.085104   2.512821   0.000000
    30  H    2.492914   2.536029   3.084207   1.773509   0.000000
    31  H    5.451699   4.919778   4.614066   2.663121   3.172655
    32  H    6.760831   5.268861   5.516715   4.705015   4.446470
    33  H    7.157213   5.732294   5.476289   4.581814   4.917256
                   31         32         33
    31  H    0.000000
    32  H    2.971506   0.000000
    33  H    2.613043   1.577483   0.000000
 Stoichiometry    C11H17N3S2
 Framework group  C1[X(C11H17N3S2)]
 Deg. of freedom    93
 Full point group                 C1      NOp   1
 Largest Abelian subgroup         C1      NOp   1
 Largest concise Abelian subgroup C1      NOp   1
                         Standard orientation:                         
 ---------------------------------------------------------------------
 Center     Atomic      Atomic             Coordinates (Angstroms)
 Number     Number       Type             X           Y           Z
 ---------------------------------------------------------------------
      1          6           0       -7.503971   -1.475940    0.019762
      2          6           0       -6.247628   -0.982669    0.014044
      3          7           0       -5.095716   -1.699313    0.019291
      4          6           0       -3.978117   -0.910347    0.010934
      5          6           0       -2.663206   -1.234364    0.012383
      6          6           0       -1.478077   -0.325838    0.003033
      7          6           0       -1.528297    1.046218   -0.008866
      8          7           0       -2.549485    1.952368   -0.015213
      9         16           0       -2.081337    3.396911   -0.027013
     10          6           0       -0.113864   -1.074908    0.008120
     11          6           0        1.149808   -0.175999   -0.000940
     12          6           0        2.495140   -0.906421    0.001002
     13          6           0        3.663995    0.099126   -0.013963
     14         16           0        5.232957   -0.842235   -0.095654
     15          6           0        6.441055    0.357620    0.158077
     16          7           0        7.785851   -0.115141   -0.018710
     17          1           0       -8.369414   -0.832821    0.014858
     18          1           0       -7.617222   -2.548695    0.029449
     19          1           0       -6.226851    0.118339    0.004087
     20          1           0       -4.110335    0.176983    0.001226
     21          1           0       -2.442183   -2.297032    0.021408
     22          1           0       -0.535820    1.486385   -0.014436
     23          1           0       -0.063195   -1.741781   -0.865194
     24          1           0       -0.061218   -1.726571    0.892676
     25          1           0        1.125373    0.473305    0.882783
     26          1           0        1.121630    0.457928   -0.895757
     27          1           0        2.553114   -1.557776   -0.879149
     28          1           0        2.564041   -1.540422    0.893190
     29          1           0        3.637850    0.731378    0.881812
     30          1           0        3.596964    0.753430   -0.891088
     31          1           0        6.251803    1.230327    0.779282
     32          1           0        7.765125   -0.791438   -0.786659
     33          1           0        7.978838   -0.730624    0.775097
 ---------------------------------------------------------------------
 Rotational constants (GHZ):           0.8020573           0.1021547           0.0909003
 Standard basis: 6-31G(2df,p) (6D, 7F)
 There are   589 symmetry adapted cartesian basis functions of A   symmetry.
 There are   541 symmetry adapted basis functions of A   symmetry.
   541 basis functions,   871 primitive gaussians,   589 cartesian basis functions
    68 alpha electrons       68 beta electrons
       nuclear repulsion energy      1136.9017961551 Hartrees.
 NAtoms=   33 NActive=   33 NUniq=   33 SFac= 1.00D+00 NAtFMM=   60 NAOKFM=F Big=F
 Integral buffers will be    131072 words long.
 Raffenetti 2 integral format.
 Two-electron integral symmetry is turned on.
 One-electron integrals computed using PRISM.
 PrsmSu:  requested number of processors reduced to:  12 ShMem   1 Linda.
 NBasis=   541 RedAO= T EigKep=  2.39D-04  NBF=   541
 NBsUse=   541 1.00D-06 EigRej= -1.00D+00 NBFU=   541
 ExpMin= 1.17D-01 ExpMax= 2.19D+04 ExpMxC= 3.30D+03 IAcc=3 IRadAn=         5 AccDes= 0.00D+00
 Harris functional with IExCor=  402 and IRadAn=       5 diagonalized for initial guess.
 HarFok:  IExCor=  402 AccDes= 0.00D+00 IRadAn=         5 IDoV= 1 UseB2=F ITyADJ=14
 ICtDFT=  3500011 ScaDFX=  1.000000  1.000000  1.000000  1.000000
 FoFCou: FMM=F IPFlag=           0 FMFlag=      100000 FMFlg1=           0
         NFxFlg=           0 DoJE=T BraDBF=F KetDBF=T FulRan=T
         wScrn=  0.000000 ICntrl=       500 IOpCl=  0 I1Cent=   200000004 NGrid=           0
         NMat0=    1 NMatS0=      1 NMatT0=    0 NMatD0=    1 NMtDS0=    0 NMtDT0=    0
 Petite list used in FoFCou.
 Requested convergence on RMS density matrix=1.00D-08 within 128 cycles.
 Requested convergence on MAX density matrix=1.00D-06.
 Requested convergence on             energy=1.00D-06.
 No special actions if energy rises.
 Integral accuracy reduced to 1.0D-05 until final iterations.
 EnCoef did     4 forward-backward iterations
 EnCoef did     2 forward-backward iterations
 EnCoef did   100 forward-backward iterations
 EnCoef did   100 forward-backward iterations
 EnCoef did   100 forward-backward iterations
 EnCoef did    58 forward-backward iterations
 Rare condition: small coef for last iteration:  0.777D-15
 EnCoef did   100 forward-backward iterations
 EnCoef did   100 forward-backward iterations
 EnCoef did   100 forward-backward iterations
 EnCoef did    23 forward-backward iterations
 EnCoef did    14 forward-backward iterations
 Rare condition: small coef for last iteration:  0.000D+00
 EnCoef did   100 forward-backward iterations
 Restarting incremental Fock formation.
 Initial convergence to 1.0D-05 achieved.  Increase integral accuracy.
 SCF Done:  E(RB3LYP) =  -1389.84512450     A.U. after   36 cycles
            NFock= 36  Conv=0.10D-08     -V/T= 2.0051

 **********************************************************************

            Population analysis using the SCF density.

 **********************************************************************

 Orbital symmetries:
       Occupied  (A) (A) (A) (A) (A) (A) (A) (A) (A) (A) (A) (A)
                 (A) (A) (A) (A) (A) (A) (A) (A) (A) (A) (A) (A)
                 (A) (A) (A) (A) (A) (A) (A) (A) (A) (A) (A) (A)
                 (A) (A) (A) (A) (A) (A) (A) (A) (A) (A) (A) (A)
                 (A) (A) (A) (A) (A) (A) (A) (A) (A) (A) (A) (A)
                 (A) (A) (A) (A) (A) (A) (A) (A)
       Virtual   (A) (A) (A) (A) (A) (A) (A) (A) (A) (A) (A) (A)
                 (A) (A) (A) (A) (A) (A) (A) (A) (A) (A) (A) (A)
                 (A) (A) (A) (A) (A) (A) (A) (A) (A) (A) (A) (A)
                 (A) (A) (A) (A) (A) (A) (A) (A) (A) (A) (A) (A)
                 (A) (A) (A) (A) (A) (A) (A) (A) (A) (A) (A) (A)
                 (A) (A) (A) (A) (A) (A) (A) (A) (A) (A) (A) (A)
                 (A) (A) (A) (A) (A) (A) (A) (A) (A) (A) (A) (A)
                 (A) (A) (A) (A) (A) (A) (A) (A) (A) (A) (A) (A)
                 (A) (A) (A) (A) (A) (A) (A) (A) (A) (A) (A) (A)
                 (A) (A) (A) (A) (A) (A) (A) (A) (A) (A) (A) (A)
                 (A) (A) (A) (A) (A) (A) (A) (A) (A) (A) (A) (A)
                 (A) (A) (A) (A) (A) (A) (A) (A) (A) (A) (A) (A)
                 (A) (A) (A) (A) (A) (A) (A) (A) (A) (A) (A) (A)
                 (A) (A) (A) (A) (A) (A) (A) (A) (A) (A) (A) (A)
                 (A) (A) (A) (A) (A) (A) (A) (A) (A) (A) (A) (A)
                 (A) (A) (A) (A) (A) (A) (A) (A) (A) (A) (A) (A)
                 (A) (A) (A) (A) (A) (A) (A) (A) (A) (A) (A) (A)
                 (A) (A) (A) (A) (A) (A) (A) (A) (A) (A) (A) (A)
                 (A) (A) (A) (A) (A) (A) (A) (A) (A) (A) (A) (A)
                 (A) (A) (A) (A) (A) (A) (A) (A) (A) (A) (A) (A)
                 (A) (A) (A) (A) (A) (A) (A) (A) (A) (A) (A) (A)
                 (A) (A) (A) (A) (A) (A) (A) (A) (A) (A) (A) (A)
                 (A) (A) (A) (A) (A) (A) (A) (A) (A) (A) (A) (A)
                 (A) (A) (A) (A) (A) (A) (A) (A) (A) (A) (A) (A)
                 (A) (A) (A) (A) (A) (A) (A) (A) (A) (A) (A) (A)
                 (A) (A) (A) (A) (A) (A) (A) (A) (A) (A) (A) (A)
                 (A) (A) (A) (A) (A) (A) (A) (A) (A) (A) (A) (A)
                 (A) (A) (A) (A) (A) (A) (A) (A) (A) (A) (A) (A)
                 (A) (A) (A) (A) (A) (A) (A) (A) (A) (A) (A) (A)
                 (A) (A) (A) (A) (A) (A) (A) (A) (A) (A) (A) (A)
                 (A) (A) (A) (A) (A) (A) (A) (A) (A) (A) (A) (A)
                 (A) (A) (A) (A) (A) (A) (A) (A) (A) (A) (A) (A)
                 (A) (A) (A) (A) (A) (A) (A) (A) (A) (A) (A) (A)
                 (A) (A) (A) (A) (A) (A) (A) (A) (A) (A) (A) (A)
                 (A) (A) (A) (A) (A) (A) (A) (A) (A) (A) (A) (A)
                 (A) (A) (A) (A) (A) (A) (A) (A) (A) (A) (A) (A)
                 (A) (A) (A) (A) (A) (A) (A) (A) (A) (A) (A) (A)
                 (A) (A) (A) (A) (A) (A) (A) (A) (A) (A) (A) (A)
                 (A) (A) (A) (A) (A) (A) (A) (A) (A) (A) (A) (A)
                 (A) (A) (A) (A) (A)
 The electronic state is 1-A.
 Alpha  occ. eigenvalues --  -88.94624 -88.84806 -14.38375 -14.34474 -14.31442
 Alpha  occ. eigenvalues --  -10.29213 -10.25795 -10.22207 -10.21779 -10.20869
 Alpha  occ. eigenvalues --  -10.20657 -10.20092 -10.19931 -10.19372 -10.18487
 Alpha  occ. eigenvalues --  -10.16588  -8.00820  -7.91359  -5.97199  -5.96857
 Alpha  occ. eigenvalues --   -5.96580  -5.87734  -5.87685  -5.86737  -0.95401
 Alpha  occ. eigenvalues --   -0.93469  -0.89839  -0.85727  -0.82191  -0.78983
 Alpha  occ. eigenvalues --   -0.75127  -0.72461  -0.69669  -0.67360  -0.63313
 Alpha  occ. eigenvalues --   -0.62177  -0.59868  -0.56690  -0.53520  -0.53285
 Alpha  occ. eigenvalues --   -0.51502  -0.50842  -0.49356  -0.48669  -0.48188
 Alpha  occ. eigenvalues --   -0.46208  -0.44877  -0.44169  -0.42497  -0.40578
 Alpha  occ. eigenvalues --   -0.40126  -0.39672  -0.38292  -0.37552  -0.37399
 Alpha  occ. eigenvalues --   -0.35978  -0.35839  -0.35668  -0.35188  -0.34356
 Alpha  occ. eigenvalues --   -0.33129  -0.30764  -0.28816  -0.28206  -0.24155
 Alpha  occ. eigenvalues --   -0.22767  -0.17109  -0.15768
 Alpha virt. eigenvalues --   -0.14671  -0.08240  -0.01770   0.01758   0.04846
 Alpha virt. eigenvalues --    0.05675   0.06978   0.07234   0.08186   0.09002
 Alpha virt. eigenvalues --    0.09427   0.10399   0.11107   0.11579   0.12391
 Alpha virt. eigenvalues --    0.13054   0.14108   0.14730   0.15845   0.15929
 Alpha virt. eigenvalues --    0.16724   0.16847   0.18690   0.19494   0.19694
 Alpha virt. eigenvalues --    0.20289   0.21125   0.21223   0.23102   0.23837
 Alpha virt. eigenvalues --    0.25185   0.25696   0.27594   0.30164   0.31131
 Alpha virt. eigenvalues --    0.32085   0.32966   0.33947   0.34397   0.35802
 Alpha virt. eigenvalues --    0.37595   0.37818   0.38625   0.39574   0.40266
 Alpha virt. eigenvalues --    0.40872   0.41893   0.42553   0.43241   0.43830
 Alpha virt. eigenvalues --    0.44181   0.46261   0.46817   0.47045   0.47656
 Alpha virt. eigenvalues --    0.48990   0.49741   0.49855   0.50510   0.51379
 Alpha virt. eigenvalues --    0.51795   0.53228   0.54549   0.55518   0.55752
 Alpha virt. eigenvalues --    0.56155   0.57551   0.57631   0.57946   0.59096
 Alpha virt. eigenvalues --    0.59478   0.60034   0.60563   0.62157   0.62971
 Alpha virt. eigenvalues --    0.63599   0.64695   0.65682   0.66462   0.67416
 Alpha virt. eigenvalues --    0.67887   0.68754   0.70727   0.70866   0.71936
 Alpha virt. eigenvalues --    0.72165   0.72525   0.72867   0.73528   0.73788
 Alpha virt. eigenvalues --    0.74827   0.75463   0.76138   0.76742   0.77683
 Alpha virt. eigenvalues --    0.78435   0.78803   0.79196   0.79351   0.80160
 Alpha virt. eigenvalues --    0.80329   0.81571   0.81725   0.82375   0.82977
 Alpha virt. eigenvalues --    0.83497   0.83859   0.84702   0.85880   0.86124
 Alpha virt. eigenvalues --    0.87532   0.88461   0.89032   0.90710   0.91157
 Alpha virt. eigenvalues --    0.92098   0.92228   0.94318   0.95017   0.95564
 Alpha virt. eigenvalues --    0.96366   0.97095   0.97666   1.00257   1.02766
 Alpha virt. eigenvalues --    1.03288   1.05026   1.06039   1.06692   1.08408
 Alpha virt. eigenvalues --    1.10988   1.12651   1.14213   1.15365   1.15650
 Alpha virt. eigenvalues --    1.17483   1.18251   1.19951   1.20955   1.23075
 Alpha virt. eigenvalues --    1.23749   1.24553   1.25607   1.27155   1.28297
 Alpha virt. eigenvalues --    1.29159   1.30330   1.31419   1.33136   1.34595
 Alpha virt. eigenvalues --    1.36044   1.37238   1.38704   1.40332   1.42459
 Alpha virt. eigenvalues --    1.42786   1.43846   1.45518   1.47265   1.48301
 Alpha virt. eigenvalues --    1.48687   1.49166   1.49606   1.50516   1.51672
 Alpha virt. eigenvalues --    1.54377   1.54808   1.55899   1.56856   1.58329
 Alpha virt. eigenvalues --    1.59945   1.60345   1.62203   1.64011   1.64523
 Alpha virt. eigenvalues --    1.65190   1.66799   1.67350   1.68263   1.68511
 Alpha virt. eigenvalues --    1.71217   1.71620   1.72100   1.72804   1.73495
 Alpha virt. eigenvalues --    1.76329   1.76590   1.77195   1.77870   1.80378
 Alpha virt. eigenvalues --    1.80637   1.81323   1.82720   1.83268   1.84658
 Alpha virt. eigenvalues --    1.86943   1.87635   1.88262   1.89605   1.92021
 Alpha virt. eigenvalues --    1.94796   1.95666   1.96095   1.97479   1.99800
 Alpha virt. eigenvalues --    2.01092   2.02786   2.04245   2.05891   2.07664
 Alpha virt. eigenvalues --    2.08244   2.10775   2.11351   2.14578   2.15261
 Alpha virt. eigenvalues --    2.16602   2.18046   2.18179   2.18881   2.19296
 Alpha virt. eigenvalues --    2.20033   2.20966   2.22071   2.23254   2.23454
 Alpha virt. eigenvalues --    2.23882   2.26107   2.27267   2.29377   2.30255
 Alpha virt. eigenvalues --    2.31754   2.33989   2.35360   2.39180   2.39309
 Alpha virt. eigenvalues --    2.40289   2.42142   2.43363   2.43541   2.47194
 Alpha virt. eigenvalues --    2.48432   2.51453   2.53208   2.56969   2.57918
 Alpha virt. eigenvalues --    2.58658   2.60987   2.61285   2.66020   2.66697
 Alpha virt. eigenvalues --    2.67238   2.70364   2.70774   2.73144   2.74339
 Alpha virt. eigenvalues --    2.74954   2.76121   2.77413   2.77715   2.78148
 Alpha virt. eigenvalues --    2.79502   2.80770   2.81254   2.84085   2.84331
 Alpha virt. eigenvalues --    2.85175   2.85780   2.86762   2.87226   2.88788
 Alpha virt. eigenvalues --    2.89531   2.89883   2.90771   2.92101   2.94801
 Alpha virt. eigenvalues --    2.95170   2.95983   2.98848   2.99985   3.01436
 Alpha virt. eigenvalues --    3.01708   3.03289   3.06014   3.06956   3.07298
 Alpha virt. eigenvalues --    3.08769   3.10976   3.11976   3.13170   3.14042
 Alpha virt. eigenvalues --    3.14297   3.15917   3.16183   3.18428   3.20331
 Alpha virt. eigenvalues --    3.21195   3.22950   3.23461   3.25046   3.25437
 Alpha virt. eigenvalues --    3.27704   3.28808   3.29083   3.30218   3.33672
 Alpha virt. eigenvalues --    3.34541   3.35599   3.36723   3.38433   3.39218
 Alpha virt. eigenvalues --    3.41700   3.41976   3.42301   3.43239   3.46089
 Alpha virt. eigenvalues --    3.47516   3.47549   3.48345   3.49177   3.51277
 Alpha virt. eigenvalues --    3.54782   3.54886   3.56601   3.57007   3.58093
 Alpha virt. eigenvalues --    3.58603   3.60611   3.65645   3.67047   3.67700
 Alpha virt. eigenvalues --    3.68532   3.69166   3.69612   3.72403   3.73763
 Alpha virt. eigenvalues --    3.74779   3.76082   3.76398   3.78968   3.80285
 Alpha virt. eigenvalues --    3.82640   3.84555   3.87819   3.88254   3.88791
 Alpha virt. eigenvalues --    3.90521   3.93568   3.95759   3.96835   3.98400
 Alpha virt. eigenvalues --    4.00654   4.01650   4.01810   4.04404   4.06635
 Alpha virt. eigenvalues --    4.10094   4.13540   4.14770   4.15945   4.17069
 Alpha virt. eigenvalues --    4.17854   4.17958   4.23384   4.24033   4.24804
 Alpha virt. eigenvalues --    4.26414   4.26893   4.30750   4.32214   4.32924
 Alpha virt. eigenvalues --    4.33941   4.35857   4.37527   4.37972   4.39303
 Alpha virt. eigenvalues --    4.40198   4.41785   4.41977   4.42546   4.44210
 Alpha virt. eigenvalues --    4.44738   4.44976   4.46302   4.47150   4.47634
 Alpha virt. eigenvalues --    4.48082   4.49636   4.50775   4.51229   4.51712
 Alpha virt. eigenvalues --    4.52032   4.54340   4.55316   4.55729   4.56630
 Alpha virt. eigenvalues --    4.57504   4.60024   4.60909   4.62169   4.63261
 Alpha virt. eigenvalues --    4.63649   4.64731   4.65514   4.66697   4.67897
 Alpha virt. eigenvalues --    4.69482   4.70815   4.70856   4.71445   4.71890
 Alpha virt. eigenvalues --    4.73809   4.75385   4.76469   4.77944   4.78331
 Alpha virt. eigenvalues --    4.78901   4.80085   4.80919   4.84426   4.84831
 Alpha virt. eigenvalues --    4.86940   4.87527   4.89036   4.89355   4.91587
 Alpha virt. eigenvalues --    4.92237   4.94524   4.95027   4.98353   5.00469
 Alpha virt. eigenvalues --    5.04505   5.04683   5.05612   5.08224   5.16570
 Alpha virt. eigenvalues --    5.19948   5.26789   5.27791   5.31952   5.34507
 Alpha virt. eigenvalues --    5.36516   5.37058   5.39536   5.44411   5.48385
 Alpha virt. eigenvalues --    5.50487   5.56544   5.61822   5.63512   5.68995
 Alpha virt. eigenvalues --    5.80508   5.82195   5.95983   6.03341   6.08941
 Alpha virt. eigenvalues --    6.48946   9.36454   9.95770  10.15114  10.63596
 Alpha virt. eigenvalues --   10.83596  11.06156  11.27060  11.30583  11.39648
 Alpha virt. eigenvalues --   11.43544  11.49815  11.68305  11.95783  12.24329
 Alpha virt. eigenvalues --   12.43781  12.56363  14.90028
          Condensed to atoms (all electrons):
               1          2          3          4          5          6
     1  C    5.180818   0.568581  -0.002495   0.001994  -0.000706   0.000004
     2  C    0.568581   4.510640   0.510113  -0.091228   0.004774  -0.000059
     3  N   -0.002495   0.510113   6.409727   0.509397   0.005183   0.001067
     4  C    0.001994  -0.091228   0.509397   4.723091   0.479409   0.022435
     5  C   -0.000706   0.004774   0.005183   0.479409   5.092958   0.420592
     6  C    0.000004  -0.000059   0.001067   0.022435   0.420592   4.665628
     7  C   -0.000001  -0.000019   0.000170  -0.022662   0.006127   0.518921
     8  N   -0.000002  -0.000127   0.000185  -0.013823  -0.010485   0.000133
     9  S    0.000000   0.000004  -0.000022   0.000213   0.001189  -0.006356
    10  C   -0.000000   0.000002  -0.000049   0.004168  -0.075825   0.392893
    11  C   -0.000000  -0.000000   0.000000  -0.000073   0.001616  -0.029941
    12  C   -0.000000   0.000000  -0.000000   0.000001  -0.000030   0.001747
    13  C   -0.000000  -0.000000   0.000000  -0.000000   0.000000  -0.000083
    14  S   -0.000000   0.000000   0.000000   0.000000  -0.000000   0.000001
    15  C    0.000000   0.000000  -0.000000  -0.000000   0.000000  -0.000000
    16  N    0.000000   0.000000   0.000000  -0.000000  -0.000000   0.000000
    17  H    0.367404  -0.007862   0.002474  -0.000105   0.000005  -0.000000
    18  H    0.329193   0.006072  -0.007654   0.000429   0.000018  -0.000000
    19  H   -0.086215   0.376178  -0.076778   0.000595   0.000902   0.000025
    20  H    0.000670  -0.006615  -0.067114   0.337671  -0.041095  -0.030831
    21  H    0.000003   0.000155  -0.007209  -0.027212   0.339152  -0.063790
    22  H   -0.000000  -0.000000   0.000002  -0.000362   0.008951  -0.070130
    23  H   -0.000000  -0.000000   0.000001  -0.000056  -0.001281  -0.016960
    24  H   -0.000000  -0.000000   0.000001  -0.000055  -0.001145  -0.017054
    25  H   -0.000000  -0.000000  -0.000000  -0.000001   0.000200  -0.001044
    26  H   -0.000000  -0.000000  -0.000000  -0.000001   0.000194  -0.001108
    27  H   -0.000000  -0.000000   0.000000  -0.000000  -0.000000   0.000092
    28  H   -0.000000  -0.000000   0.000000  -0.000000  -0.000001   0.000105
    29  H    0.000000   0.000000  -0.000000   0.000000   0.000000   0.000006
    30  H    0.000000   0.000000  -0.000000  -0.000000   0.000000   0.000007
    31  H    0.000000   0.000000  -0.000000  -0.000000   0.000000   0.000000
    32  H    0.000000   0.000000   0.000000  -0.000000  -0.000000   0.000000
    33  H    0.000000   0.000000   0.000000  -0.000000  -0.000000   0.000000
               7          8          9         10         11         12
     1  C   -0.000001  -0.000002   0.000000  -0.000000  -0.000000  -0.000000
     2  C   -0.000019  -0.000127   0.000004   0.000002  -0.000000   0.000000
     3  N    0.000170   0.000185  -0.000022  -0.000049   0.000000  -0.000000
     4  C   -0.022662  -0.013823   0.000213   0.004168  -0.000073   0.000001
     5  C    0.006127  -0.010485   0.001189  -0.075825   0.001616  -0.000030
     6  C    0.518921   0.000133  -0.006356   0.392893  -0.029941   0.001747
     7  C    4.803518   0.501537  -0.164873  -0.032815  -0.004423   0.000267
     8  N    0.501537   6.292972   0.391397   0.004213  -0.000009  -0.000009
     9  S   -0.164873   0.391397  16.033825  -0.000697  -0.000529   0.000007
    10  C   -0.032815   0.004213  -0.000697   5.014129   0.404825  -0.027926
    11  C   -0.004423  -0.000009  -0.000529   0.404825   4.837028   0.397594
    12  C    0.000267  -0.000009   0.000007  -0.027926   0.397594   4.888844
    13  C    0.000012   0.000000  -0.000001   0.001697  -0.032282   0.399418
    14  S    0.000000  -0.000000  -0.000000  -0.000111   0.001315  -0.028070
    15  C   -0.000000   0.000000  -0.000000   0.000000  -0.000015   0.001196
    16  N    0.000000   0.000000  -0.000000  -0.000000   0.000000  -0.000017
    17  H    0.000000  -0.000000   0.000000   0.000000   0.000000   0.000000
    18  H    0.000000  -0.000000   0.000000   0.000000  -0.000000  -0.000000
    19  H    0.000001  -0.000083   0.000034   0.000000  -0.000000   0.000000
    20  H    0.013553   0.025364  -0.001135  -0.000278   0.000006   0.000000
    21  H    0.004604  -0.000039   0.000022  -0.008403   0.000171  -0.000013
    22  H    0.361910  -0.072091   0.032262  -0.027307   0.005087   0.000213
    23  H   -0.000517  -0.000051   0.000023   0.352627  -0.031043  -0.004296
    24  H   -0.000569  -0.000052   0.000024   0.352463  -0.031278  -0.003992
    25  H   -0.000895  -0.000015   0.000204  -0.028695   0.369100  -0.038776
    26  H   -0.000823  -0.000012   0.000194  -0.028758   0.369412  -0.038902
    27  H   -0.000002   0.000000  -0.000000  -0.001754  -0.026660   0.365169
    28  H   -0.000001   0.000000  -0.000000  -0.001584  -0.025677   0.365051
    29  H   -0.000008   0.000000   0.000001   0.000028  -0.000637  -0.028415
    30  H   -0.000011   0.000000   0.000001   0.000065  -0.000330  -0.027966
    31  H   -0.000000  -0.000000   0.000000   0.000000   0.000003  -0.000019
    32  H    0.000000   0.000000  -0.000000  -0.000000   0.000000  -0.000001
    33  H    0.000000   0.000000  -0.000000   0.000000   0.000000   0.000007
              13         14         15         16         17         18
     1  C   -0.000000  -0.000000   0.000000   0.000000   0.367404   0.329193
     2  C   -0.000000   0.000000   0.000000   0.000000  -0.007862   0.006072
     3  N    0.000000   0.000000  -0.000000   0.000000   0.002474  -0.007654
     4  C   -0.000000   0.000000  -0.000000  -0.000000  -0.000105   0.000429
     5  C    0.000000  -0.000000   0.000000  -0.000000   0.000005   0.000018
     6  C   -0.000083   0.000001  -0.000000   0.000000  -0.000000  -0.000000
     7  C    0.000012   0.000000  -0.000000   0.000000   0.000000   0.000000
     8  N    0.000000  -0.000000   0.000000   0.000000  -0.000000  -0.000000
     9  S   -0.000001  -0.000000  -0.000000  -0.000000   0.000000   0.000000
    10  C    0.001697  -0.000111   0.000000  -0.000000   0.000000   0.000000
    11  C   -0.032282   0.001315  -0.000015   0.000000   0.000000  -0.000000
    12  C    0.399418  -0.028070   0.001196  -0.000017   0.000000  -0.000000
    13  C    4.928006   0.274636  -0.014729   0.001859   0.000000   0.000000
    14  S    0.274636  15.539465   0.373011  -0.042134   0.000000  -0.000000
    15  C   -0.014729   0.373011   5.059848   0.411083   0.000000   0.000000
    16  N    0.001859  -0.042134   0.411083   6.446864   0.000000   0.000000
    17  H    0.000000   0.000000   0.000000   0.000000   0.565404  -0.041282
    18  H    0.000000  -0.000000   0.000000   0.000000  -0.041282   0.595316
    19  H   -0.000000   0.000000  -0.000000   0.000000  -0.006926   0.008979
    20  H    0.000000   0.000000  -0.000000   0.000000  -0.000019   0.000058
    21  H    0.000000   0.000000   0.000000   0.000000   0.000000   0.000003
    22  H    0.000036  -0.000001   0.000000   0.000000  -0.000000   0.000000
    23  H    0.000040   0.000008   0.000000   0.000000   0.000000  -0.000000
    24  H    0.000055   0.000004   0.000000   0.000000   0.000000  -0.000000
    25  H   -0.003666   0.000131   0.000005   0.000000  -0.000000  -0.000000
    26  H   -0.003717   0.000149   0.000001   0.000000  -0.000000  -0.000000
    27  H   -0.032063  -0.000589   0.000088   0.000000  -0.000000   0.000000
    28  H   -0.034432   0.001836  -0.000006   0.000000  -0.000000   0.000000
    29  H    0.371843  -0.043643  -0.002152   0.000061   0.000000   0.000000
    30  H    0.368839  -0.041131   0.001051   0.000004   0.000000   0.000000
    31  H   -0.000985  -0.049021   0.365528  -0.022319   0.000000   0.000000
    32  H    0.000112   0.003293  -0.057793   0.347567   0.000000   0.000000
    33  H   -0.000015   0.000927  -0.064750   0.340490   0.000000   0.000000
              19         20         21         22         23         24
     1  C   -0.086215   0.000670   0.000003  -0.000000  -0.000000  -0.000000
     2  C    0.376178  -0.006615   0.000155  -0.000000  -0.000000  -0.000000
     3  N   -0.076778  -0.067114  -0.007209   0.000002   0.000001   0.000001
     4  C    0.000595   0.337671  -0.027212  -0.000362  -0.000056  -0.000055
     5  C    0.000902  -0.041095   0.339152   0.008951  -0.001281  -0.001145
     6  C    0.000025  -0.030831  -0.063790  -0.070130  -0.016960  -0.017054
     7  C    0.000001   0.013553   0.004604   0.361910  -0.000517  -0.000569
     8  N   -0.000083   0.025364  -0.000039  -0.072091  -0.000051  -0.000052
     9  S    0.000034  -0.001135   0.000022   0.032262   0.000023   0.000024
    10  C    0.000000  -0.000278  -0.008403  -0.027307   0.352627   0.352463
    11  C   -0.000000   0.000006   0.000171   0.005087  -0.031043  -0.031278
    12  C    0.000000   0.000000  -0.000013   0.000213  -0.004296  -0.003992
    13  C   -0.000000   0.000000   0.000000   0.000036   0.000040   0.000055
    14  S    0.000000   0.000000   0.000000  -0.000001   0.000008   0.000004
    15  C   -0.000000  -0.000000   0.000000   0.000000   0.000000   0.000000
    16  N    0.000000   0.000000   0.000000   0.000000   0.000000   0.000000
    17  H   -0.006926  -0.000019   0.000000  -0.000000   0.000000   0.000000
    18  H    0.008979   0.000058   0.000003   0.000000  -0.000000  -0.000000
    19  H    0.682442   0.016881   0.000069  -0.000000  -0.000000  -0.000000
    20  H    0.016881   0.625078   0.009786   0.000751   0.000007   0.000007
    21  H    0.000069   0.009786   0.664486  -0.000160   0.002919   0.002917
    22  H   -0.000000   0.000751  -0.000160   0.675859   0.000382   0.000379
    23  H   -0.000000   0.000007   0.002919   0.000382   0.607885  -0.039665
    24  H   -0.000000   0.000007   0.002917   0.000379  -0.039665   0.608486
    25  H   -0.000000   0.000000   0.000012   0.004554   0.005842  -0.005467
    26  H   -0.000000   0.000000   0.000012   0.004617  -0.005458   0.005843
    27  H   -0.000000  -0.000000   0.000002   0.000018   0.004338  -0.000370
    28  H   -0.000000  -0.000000   0.000002   0.000020  -0.000373   0.004220
    29  H   -0.000000  -0.000000   0.000000   0.000005   0.000006   0.000008
    30  H    0.000000  -0.000000   0.000000   0.000009   0.000007   0.000006
    31  H    0.000000   0.000000   0.000000   0.000000  -0.000000   0.000000
    32  H    0.000000   0.000000   0.000000   0.000000  -0.000000   0.000000
    33  H    0.000000   0.000000   0.000000   0.000000   0.000000  -0.000000
              25         26         27         28         29         30
     1  C   -0.000000  -0.000000  -0.000000  -0.000000   0.000000   0.000000
     2  C   -0.000000  -0.000000  -0.000000  -0.000000   0.000000   0.000000
     3  N   -0.000000  -0.000000   0.000000   0.000000  -0.000000  -0.000000
     4  C   -0.000001  -0.000001  -0.000000  -0.000000   0.000000  -0.000000
     5  C    0.000200   0.000194  -0.000000  -0.000001   0.000000   0.000000
     6  C   -0.001044  -0.001108   0.000092   0.000105   0.000006   0.000007
     7  C   -0.000895  -0.000823  -0.000002  -0.000001  -0.000008  -0.000011
     8  N   -0.000015  -0.000012   0.000000   0.000000   0.000000   0.000000
     9  S    0.000204   0.000194  -0.000000  -0.000000   0.000001   0.000001
    10  C   -0.028695  -0.028758  -0.001754  -0.001584   0.000028   0.000065
    11  C    0.369100   0.369412  -0.026660  -0.025677  -0.000637  -0.000330
    12  C   -0.038776  -0.038902   0.365169   0.365051  -0.028415  -0.027966
    13  C   -0.003666  -0.003717  -0.032063  -0.034432   0.371843   0.368839
    14  S    0.000131   0.000149  -0.000589   0.001836  -0.043643  -0.041131
    15  C    0.000005   0.000001   0.000088  -0.000006  -0.002152   0.001051
    16  N    0.000000   0.000000   0.000000   0.000000   0.000061   0.000004
    17  H   -0.000000  -0.000000  -0.000000  -0.000000   0.000000   0.000000
    18  H   -0.000000  -0.000000   0.000000   0.000000   0.000000   0.000000
    19  H   -0.000000  -0.000000  -0.000000  -0.000000  -0.000000   0.000000
    20  H    0.000000   0.000000  -0.000000  -0.000000  -0.000000  -0.000000
    21  H    0.000012   0.000012   0.000002   0.000002   0.000000   0.000000
    22  H    0.004554   0.004617   0.000018   0.000020   0.000005   0.000009
    23  H    0.005842  -0.005458   0.004338  -0.000373   0.000006   0.000007
    24  H   -0.005467   0.005843  -0.000370   0.004220   0.000008   0.000006
    25  H    0.614748  -0.040687   0.005835  -0.005486   0.004456  -0.000343
    26  H   -0.040687   0.612680  -0.005482   0.005823  -0.000365   0.004830
    27  H    0.005835  -0.005482   0.606621  -0.038708   0.005307  -0.004432
    28  H   -0.005486   0.005823  -0.038708   0.608072  -0.005238   0.005336
    29  H    0.004456  -0.000365   0.005307  -0.005238   0.584544  -0.038099
    30  H   -0.000343   0.004830  -0.004432   0.005336  -0.038099   0.576081
    31  H   -0.000001   0.000000   0.000006  -0.000003   0.004727  -0.000077
    32  H   -0.000000   0.000000   0.000001  -0.000000   0.000020  -0.000014
    33  H    0.000000  -0.000000  -0.000000   0.000001  -0.000002   0.000007
              31         32         33
     1  C    0.000000   0.000000   0.000000
     2  C    0.000000   0.000000   0.000000
     3  N   -0.000000   0.000000   0.000000
     4  C   -0.000000  -0.000000  -0.000000
     5  C    0.000000  -0.000000  -0.000000
     6  C    0.000000   0.000000   0.000000
     7  C   -0.000000   0.000000   0.000000
     8  N   -0.000000   0.000000   0.000000
     9  S    0.000000  -0.000000  -0.000000
    10  C    0.000000  -0.000000   0.000000
    11  C    0.000003   0.000000   0.000000
    12  C   -0.000019  -0.000001   0.000007
    13  C   -0.000985   0.000112  -0.000015
    14  S   -0.049021   0.003293   0.000927
    15  C    0.365528  -0.057793  -0.064750
    16  N   -0.022319   0.347567   0.340490
    17  H    0.000000   0.000000   0.000000
    18  H    0.000000   0.000000   0.000000
    19  H    0.000000   0.000000   0.000000
    20  H    0.000000   0.000000   0.000000
    21  H    0.000000   0.000000   0.000000
    22  H    0.000000   0.000000   0.000000
    23  H   -0.000000  -0.000000   0.000000
    24  H    0.000000   0.000000  -0.000000
    25  H   -0.000001  -0.000000   0.000000
    26  H    0.000000   0.000000  -0.000000
    27  H    0.000006   0.000001  -0.000000
    28  H   -0.000003  -0.000000   0.000001
    29  H    0.004727   0.000020  -0.000002
    30  H   -0.000077  -0.000014   0.000007
    31  H    0.534063   0.004995   0.000284
    32  H    0.004995   0.473336  -0.036223
    33  H    0.000284  -0.036223   0.491747
 Mulliken charges:
               1
     1  C   -0.359250
     2  C    0.129392
     3  N   -0.276999
     4  C    0.076178
     5  C   -0.230702
     6  C    0.213701
     7  C    0.016998
     8  N   -0.119002
     9  S   -0.285790
    10  C   -0.292909
    11  C   -0.203260
    12  C   -0.221082
    13  C   -0.224582
    14  S    0.009925
    15  C   -0.072366
    16  N   -0.483459
    17  H    0.120908
    18  H    0.108868
    19  H    0.083896
    20  H    0.117251
    21  H    0.082512
    22  H    0.074996
    23  H    0.125612
    24  H    0.125235
    25  H    0.119988
    26  H    0.121558
    27  H    0.122584
    28  H    0.121040
    29  H    0.147548
    30  H    0.156159
    31  H    0.162818
    32  H    0.264706
    33  H    0.267527
 Sum of Mulliken charges =  -0.00000
 Mulliken charges with hydrogens summed into heavy atoms:
               1
     1  C   -0.129475
     2  C    0.213289
     3  N   -0.276999
     4  C    0.193429
     5  C   -0.148190
     6  C    0.213701
     7  C    0.091993
     8  N   -0.119002
     9  S   -0.285790
    10  C   -0.042061
    11  C    0.038287
    12  C    0.022543
    13  C    0.079126
    14  S    0.009925
    15  C    0.090452
    16  N    0.048774
 Electronic spatial extent (au):  <R**2>=          10956.2600
 Charge=             -0.0000 electrons
 Dipole moment (field-independent basis, Debye):
    X=             11.7736    Y=             -3.0321    Z=              0.6370  Tot=             12.1745
 Quadrupole moment (field-independent basis, Debye-Ang):
   XX=            -93.9318   YY=           -125.0961   ZZ=           -109.8732
   XY=             -6.3956   XZ=              4.4598   YZ=              0.9873
 Traceless Quadrupole moment (field-independent basis, Debye-Ang):
   XX=             15.7019   YY=            -15.4624   ZZ=             -0.2395
   XY=             -6.3956   XZ=              4.4598   YZ=              0.9873
 Octapole moment (field-independent basis, Debye-Ang**2):
  XXX=            249.1957  YYY=            -33.6752  ZZZ=              0.4531  XYY=             73.2063
  XXY=            -51.4899  XXZ=             31.0601  XZZ=             30.8816  YZZ=              3.2544
  YYZ=              1.2203  XYZ=              4.9650
 Hexadecapole moment (field-independent basis, Debye-Ang**3):
 XXXX=         -11528.8314 YYYY=          -1848.2867 ZZZZ=           -151.4624 XXXY=           -801.8841
 XXXZ=            226.8879 YYYX=             56.9445 YYYZ=              3.3045 ZZZX=              4.9158
 ZZZY=              0.7304 XXYY=          -2557.3523 XXZZ=          -2163.4370 YYZZ=           -305.3318
 XXYZ=             33.8727 YYXZ=              5.9773 ZZXY=            -25.7675
 N-N= 1.136901796155D+03 E-N=-5.543149543876D+03  KE= 1.382735221646D+03
 PrsmSu:  requested number of processors reduced to:  13 ShMem   1 Linda.
 Calling FoFJK, ICntrl=      2127 FMM=F ISym2X=0 I1Cent= 0 IOpClX= 0 NMat=1 NMatS=1 NMatT=0.
 ***** Axes restored to original set *****
 -------------------------------------------------------------------
 Center     Atomic                   Forces (Hartrees/Bohr)
 Number     Number              X              Y              Z
 -------------------------------------------------------------------
      1        6          -0.000061492   -0.018042077   -0.004762495
      2        6           0.001139679    0.023257073    0.006157347
      3        7           0.040316603   -0.008701963   -0.002339923
      4        6          -0.033051292    0.045982514    0.012123948
      5        6           0.046924057   -0.038640640   -0.010190188
      6        6          -0.067197084   -0.013845613   -0.003691042
      7        6           0.017060733   -0.006115062   -0.001762322
      8        7          -0.059308993   -0.072779135   -0.019181792
      9       16           0.061710770    0.071091806    0.018780992
     10        6           0.007403815    0.008210021    0.002284818
     11        6          -0.004375832    0.004479071    0.001018088
     12        6          -0.003818134    0.000695338    0.000847453
     13        6          -0.010575759    0.001767102   -0.001759627
     14       16           0.007826855    0.015613664    0.003579143
     15        6          -0.003315498   -0.022680090   -0.005936486
     16        7          -0.021015045    0.008938865    0.003493751
     17        1          -0.000735290    0.001386851    0.000363775
     18        1          -0.008480544   -0.000125532   -0.000029099
     19        1           0.008073032   -0.006367438   -0.001672974
     20        1          -0.007160978    0.005172831    0.001377270
     21        1           0.002513518   -0.005300724   -0.001371285
     22        1           0.005559993    0.006005766    0.001787209
     23        1          -0.002707028    0.001834657    0.002009229
     24        1          -0.002786847    0.002608683   -0.000824615
     25        1           0.000639824    0.003447519   -0.001401852
     26        1           0.000716958    0.002289003    0.002954165
     27        1           0.001013067   -0.002265572    0.000130988
     28        1           0.000968976   -0.001816339   -0.001630157
     29        1           0.001674239   -0.003762393   -0.001525667
     30        1           0.000834109   -0.002803217    0.000228604
     31        1           0.001053342   -0.001038926   -0.003318349
     32        1           0.005104000    0.003859225   -0.002295337
     33        1           0.014056248   -0.002355266    0.006556429
 -------------------------------------------------------------------
 Cartesian Forces:  Max     0.072779135 RMS     0.018996428

 GradGradGradGradGradGradGradGradGradGradGradGradGradGradGradGradGradGrad
 Berny optimization.
 FormGI is forming the generalized inverse of G from B-inverse, IUseBI=4.
 Internal  Forces:  Max     0.094579996 RMS     0.012704879
 Search for a local minimum.
 Step number   1 out of a maximum of  157
 All quantities printed in internal units (Hartrees-Bohrs-Radians)
 Mixed Optimization -- RFO/linear search
 Second derivative matrix not updated -- first step.
 ITU=  0
     Eigenvalues ---    0.00230   0.00230   0.00230   0.00230   0.00358
     Eigenvalues ---    0.00854   0.01131   0.01210   0.01409   0.01773
     Eigenvalues ---    0.01837   0.02114   0.02151   0.02265   0.02345
     Eigenvalues ---    0.02446   0.02485   0.02575   0.02694   0.02754
     Eigenvalues ---    0.02754   0.03245   0.03588   0.03692   0.04761
     Eigenvalues ---    0.04854   0.05011   0.05247   0.05662   0.06955
     Eigenvalues ---    0.07957   0.08791   0.09701   0.10879   0.11928
     Eigenvalues ---    0.12534   0.13117   0.13516   0.15354   0.16000
     Eigenvalues ---    0.16000   0.16000   0.16000   0.16000   0.16000
     Eigenvalues ---    0.16000   0.16000   0.21913   0.21967   0.21990
     Eigenvalues ---    0.22000   0.22000   0.22000   0.22000   0.22059
     Eigenvalues ---    0.22188   0.23783   0.25000   0.25000   0.25000
     Eigenvalues ---    0.25000   0.25000   0.27119   0.27583   0.28348
     Eigenvalues ---    0.29347   0.33087   0.33423   0.33544   0.33684
     Eigenvalues ---    0.33688   0.34019   0.34029   0.34045   0.34052
     Eigenvalues ---    0.34073   0.34090   0.34198   0.35067   0.35312
     Eigenvalues ---    0.35344   0.36144   0.36207   0.40084   0.43784
     Eigenvalues ---    0.43889   0.50399   0.51353   0.51896   0.53630
     Eigenvalues ---    0.54128   0.55081   0.70846
 RFO step:  Lambda=-5.92668086D-02 EMin= 2.30000000D-03
 Linear search not attempted -- first point.
 Maximum step size (   0.300) exceeded in Quadratic search.
    -- Step size scaled by   0.744
 Iteration  1 RMS(Cart)=  0.13368573 RMS(Int)=  0.00526769
 Iteration  2 RMS(Cart)=  0.01505141 RMS(Int)=  0.00032974
 Iteration  3 RMS(Cart)=  0.00013008 RMS(Int)=  0.00032115
 Iteration  4 RMS(Cart)=  0.00000004 RMS(Int)=  0.00032115
 Variable       Old X    -DE/DX   Delta X   Delta X   Delta X     New X
                                 (Linear)    (Quad)   (Total)
    R1        2.55060   0.00597   0.00000   0.00728   0.00728   2.55789
    R2        2.03759   0.00160   0.00000   0.00283   0.00283   2.04042
    R3        2.03856   0.00531   0.00000   0.00940   0.00940   2.04796
    R4        2.56370   0.00014   0.00000   0.00017   0.00017   2.56387
    R5        2.08106  -0.00113   0.00000  -0.00213  -0.00213   2.07893
    R6        2.58524  -0.03967   0.00000  -0.05152  -0.05152   2.53372
    R7        2.55915   0.03150   0.00000   0.03901   0.03901   2.59817
    R8        2.06997   0.00183   0.00000   0.00339   0.00339   2.07337
    R9        2.82199  -0.04910   0.00000  -0.09363  -0.09363   2.72836
   R10        2.05120   0.00427   0.00000   0.00770   0.00770   2.05890
   R11        2.59464   0.01085   0.00000   0.01432   0.01432   2.60897
   R12        2.94107  -0.01891   0.00000  -0.04256  -0.04256   2.89850
   R13        2.57999  -0.00234   0.00000  -0.00302  -0.00302   2.57698
   R14        2.05171   0.00464   0.00000   0.00836   0.00836   2.06008
   R15        2.86965   0.09458   0.00000   0.09164   0.09164   2.96130
   R16        2.93059  -0.00892   0.00000  -0.01980  -0.01980   2.91079
   R17        2.07867  -0.00165   0.00000  -0.00310  -0.00310   2.07557
   R18        2.07859  -0.00163   0.00000  -0.00306  -0.00306   2.07553
   R19        2.89285   0.00222   0.00000   0.00468   0.00468   2.89752
   R20        2.07281  -0.00011   0.00000  -0.00021  -0.00021   2.07260
   R21        2.07298  -0.00012   0.00000  -0.00023  -0.00023   2.07275
   R22        2.91384  -0.00471   0.00000  -0.01022  -0.01022   2.90363
   R23        2.07206   0.00030   0.00000   0.00056   0.00056   2.07262
   R24        2.07242   0.00000   0.00000   0.00000   0.00000   2.07243
   R25        3.46108  -0.00086   0.00000  -0.00215  -0.00215   3.45893
   R26        2.07254  -0.00195   0.00000  -0.00364  -0.00364   2.06890
   R27        2.07178  -0.00196   0.00000  -0.00365  -0.00365   2.06812
   R28        3.25315  -0.00657   0.00000  -0.01242  -0.01242   3.24072
   R29        2.71439  -0.01110   0.00000  -0.01794  -0.01794   2.69645
   R30        2.05566  -0.00284   0.00000  -0.00515  -0.00515   2.05051
   R31        1.93414  -0.00114   0.00000  -0.00171  -0.00171   1.93243
   R32        1.93288   0.00344   0.00000   0.00514   0.00514   1.93802
    A1        2.12835  -0.00428   0.00000  -0.01451  -0.01451   2.11384
    A2        2.05013   0.00888   0.00000   0.03011   0.03011   2.08024
    A3        2.10471  -0.00460   0.00000  -0.01561  -0.01561   2.08910
    A4        2.21089  -0.01593   0.00000  -0.04245  -0.04245   2.16845
    A5        1.96382   0.01874   0.00000   0.05778   0.05778   2.02160
    A6        2.10847  -0.00281   0.00000  -0.01534  -0.01534   2.09314
    A7        1.97031   0.01314   0.00000   0.03161   0.03161   2.00192
    A8        2.28526  -0.03412   0.00000  -0.09089  -0.09089   2.19437
    A9        2.06453   0.00800   0.00000   0.01472   0.01472   2.07925
   A10        1.93340   0.02612   0.00000   0.07617   0.07617   2.00957
   A11        2.24592  -0.00939   0.00000  -0.02502  -0.02502   2.22090
   A12        2.01746   0.00905   0.00000   0.02728   0.02728   2.04474
   A13        2.01981   0.00034   0.00000  -0.00226  -0.00226   2.01754
   A14        2.18828   0.00326   0.00000   0.00784   0.00784   2.19612
   A15        1.98537  -0.00457   0.00000  -0.01100  -0.01100   1.97437
   A16        2.10953   0.00131   0.00000   0.00316   0.00316   2.11269
   A17        2.33317  -0.03307   0.00000  -0.08809  -0.08809   2.24508
   A18        1.95168   0.02369   0.00000   0.06832   0.06832   2.01999
   A19        1.99834   0.00938   0.00000   0.01977   0.01977   2.01811
   A20        1.98320   0.04712   0.00000   0.11334   0.11334   2.09653
   A21        2.02112   0.00571   0.00000   0.01609   0.01610   2.03722
   A22        1.90665  -0.00397   0.00000  -0.01517  -0.01529   1.89136
   A23        1.90681  -0.00411   0.00000  -0.01564  -0.01576   1.89105
   A24        1.88519   0.00082   0.00000   0.00765   0.00771   1.89290
   A25        1.88505   0.00100   0.00000   0.00842   0.00848   1.89353
   A26        1.85155   0.00023   0.00000  -0.00239  -0.00259   1.84896
   A27        2.02587  -0.01447   0.00000  -0.03780  -0.03768   1.98819
   A28        1.89680   0.00405   0.00000   0.00981   0.00991   1.90671
   A29        1.89526   0.00412   0.00000   0.01033   0.01044   1.90570
   A30        1.87654   0.00530   0.00000   0.01547   0.01547   1.89200
   A31        1.87480   0.00530   0.00000   0.01572   0.01573   1.89053
   A32        1.89077  -0.00403   0.00000  -0.01301  -0.01317   1.87759
   A33        1.93373  -0.00136   0.00000  -0.00263  -0.00262   1.93111
   A34        1.90592   0.00178   0.00000   0.00827   0.00826   1.91418
   A35        1.90931   0.00163   0.00000   0.00762   0.00761   1.91692
   A36        1.91720  -0.00050   0.00000  -0.00379  -0.00379   1.91342
   A37        1.91482  -0.00036   0.00000  -0.00320  -0.00320   1.91161
   A38        1.88208  -0.00115   0.00000  -0.00626  -0.00631   1.87578
   A39        1.89086   0.00628   0.00000   0.01615   0.01615   1.90701
   A40        1.92831   0.00043   0.00000   0.00402   0.00406   1.93237
   A41        1.92902  -0.00015   0.00000   0.00381   0.00381   1.93283
   A42        1.93173  -0.00486   0.00000  -0.01943  -0.01947   1.91226
   A43        1.90016  -0.00282   0.00000  -0.00863  -0.00871   1.89145
   A44        1.88383   0.00097   0.00000   0.00361   0.00351   1.88734
   A45        1.80942   0.00462   0.00000   0.01110   0.01110   1.82052
   A46        1.99268   0.02338   0.00000   0.06658   0.06546   2.05814
   A47        2.11910  -0.00769   0.00000  -0.01044  -0.01155   2.10755
   A48        2.09118  -0.01154   0.00000  -0.02441  -0.02560   2.06558
   A49        1.86593   0.00469   0.00000   0.02433   0.02333   1.88926
   A50        1.85374   0.01660   0.00000   0.06497   0.06401   1.91774
   A51        1.76045   0.00482   0.00000   0.04005   0.03779   1.79824
    D1       -3.14157   0.00000   0.00000   0.00000   0.00000  -3.14156
    D2       -0.00003   0.00000   0.00000   0.00002   0.00002  -0.00001
    D3       -0.00006   0.00000   0.00000   0.00003   0.00003  -0.00003
    D4        3.14148   0.00000   0.00000   0.00004   0.00004   3.14152
    D5        3.14149  -0.00000   0.00000  -0.00001  -0.00001   3.14148
    D6       -0.00004  -0.00000   0.00000  -0.00003  -0.00003  -0.00007
    D7       -3.14153  -0.00004   0.00000  -0.00033  -0.00033   3.14133
    D8       -0.00000  -0.00002   0.00000  -0.00023  -0.00023  -0.00023
    D9       -3.14146  -0.00001   0.00000  -0.00008  -0.00007  -3.14153
   D10        0.00031  -0.00002   0.00000  -0.00015  -0.00015   0.00015
   D11        0.00020  -0.00002   0.00000  -0.00017  -0.00017   0.00002
   D12       -3.14123  -0.00003   0.00000  -0.00025  -0.00025  -3.14148
   D13        0.00020  -0.00000   0.00000  -0.00000  -0.00000   0.00020
   D14       -3.14154  -0.00001   0.00000  -0.00012  -0.00012   3.14153
   D15       -3.14156   0.00001   0.00000   0.00008   0.00008  -3.14149
   D16       -0.00011  -0.00000   0.00000  -0.00004  -0.00004  -0.00016
   D17        0.00032  -0.00002   0.00000  -0.00020  -0.00020   0.00013
   D18       -3.14106  -0.00011   0.00000  -0.00103  -0.00103   3.14109
   D19       -3.14112  -0.00001   0.00000  -0.00007  -0.00007  -3.14118
   D20        0.00068  -0.00010   0.00000  -0.00090  -0.00090  -0.00022
   D21       -3.14138  -0.00009   0.00000  -0.00081  -0.00081   3.14099
   D22        1.00937  -0.00213   0.00000  -0.01046  -0.01033   0.99904
   D23       -1.00901   0.00208   0.00000   0.00949   0.00936  -0.99964
   D24        0.00007  -0.00010   0.00000  -0.00092  -0.00092  -0.00085
   D25       -2.13236  -0.00214   0.00000  -0.01057  -0.01044  -2.14280
   D26        2.13245   0.00207   0.00000   0.00938   0.00925   2.14170
   D27        3.14050   0.00006   0.00000   0.00054   0.00055   3.14105
   D28       -0.00131   0.00015   0.00000   0.00139   0.00139   0.00008
   D29       -3.13941  -0.00007   0.00000  -0.00059  -0.00058  -3.13999
   D30        1.02711  -0.00015   0.00000  -0.00232  -0.00231   1.02480
   D31       -1.02621   0.00011   0.00000   0.00198   0.00198  -1.02424
   D32       -0.99562  -0.00064   0.00000  -0.00324  -0.00321  -0.99884
   D33       -3.11229  -0.00072   0.00000  -0.00497  -0.00494  -3.11723
   D34        1.11757  -0.00047   0.00000  -0.00067  -0.00065   1.11692
   D35        0.99989   0.00054   0.00000   0.00207   0.00204   1.00193
   D36       -1.11678   0.00046   0.00000   0.00034   0.00032  -1.11646
   D37        3.11308   0.00072   0.00000   0.00464   0.00461   3.11769
   D38        3.13785   0.00002   0.00000   0.00026   0.00026   3.13812
   D39        1.02392   0.00035   0.00000   0.00124   0.00125   1.02517
   D40       -1.03215  -0.00023   0.00000  -0.00042  -0.00043  -1.03258
   D41       -1.01789  -0.00039   0.00000  -0.00057  -0.00064  -1.01853
   D42       -3.13183  -0.00006   0.00000   0.00041   0.00036  -3.13147
   D43        1.09529  -0.00064   0.00000  -0.00125  -0.00133   1.09396
   D44        1.01376   0.00030   0.00000   0.00011   0.00018   1.01394
   D45       -1.10018   0.00063   0.00000   0.00109   0.00117  -1.09900
   D46        3.12694   0.00005   0.00000  -0.00057  -0.00051   3.12643
   D47       -3.09276  -0.00081   0.00000  -0.00558  -0.00559  -3.09835
   D48        1.07163   0.00091   0.00000   0.00556   0.00556   1.07719
   D49       -1.01225  -0.00048   0.00000  -0.00394  -0.00393  -1.01618
   D50       -0.98550   0.00020   0.00000   0.00056   0.00055  -0.98496
   D51       -3.10430   0.00192   0.00000   0.01171   0.01169  -3.09260
   D52        1.09501   0.00053   0.00000   0.00220   0.00221   1.09722
   D53        1.08050  -0.00173   0.00000  -0.01130  -0.01130   1.06920
[...]
 00000134,-0.00001916,0.00001592,-0.00000166,0.00002935,0.00001028,0.00
 000716,-0.00007104,0.00001006,-0.00005553,-0.00001027,0.00007659,-0.00
 008591,-0.00031241,-0.00011912,-0.00006612,0.00015003,-0.00003966,0.00
 003725,0.00002034,0.00008053,0.00005649,-0.00007287,-0.00002352,-0.000
 06048,-0.00109591,0.00088239,0.00082754,0.01256181,-0.00313219,0.02602
 326,0.00279897,-0.04902565,0.01329444,0.00114978,-0.00133592,0.0010026
 0,-0.00050725,0.00062617,-0.00067863,0.00002760,0.00008919,0.00007125,
 0.00000846,-0.00010818,0.00000045,0.00000095,-0.00000027,-0.00000015,-
 0.00000074,-0.00000019,0.00000103,-0.00000069,-0.00000253,0.00000014,0
 .00000052,0.00000465,0.00000812,-0.00002752,-0.00002346,0.00002251,-0.
 00007851,-0.00001251,-0.00005137,0.00000779,0.00001542,-0.00018256,0.0
 0014348,0.00018742,-0.00077585,-0.00081168,0.00108787,0.00011753,0.003
 38945,-0.00401585,0.00021925,-0.00978767,0.00162647,-0.02468251,-0.008
 12208,0.05220473,0.00000484,-0.00000323,0.00000644,-0.00001066,0.00000
 412,0.00000189,0.00002592,-0.00000099,0.00002762,0.00001155,0.00002894
 ,-0.00004599,0.00010749,-0.00009907,0.00001226,0.00008963,-0.00002094,
 0.00021839,-0.00013553,0.00010167,-0.00003279,0.00011675,-0.00004675,0
 .00004351,-0.00002085,0.00001008,0.00000904,0.00051721,-0.00041144,0.0
 0088459,-0.00141572,0.00095016,-0.00228363,-0.09016116,0.01325745,-0.2
 6270725,-0.00723539,0.00096736,-0.02221142,-0.00031021,-0.00043902,-0.
 00037519,0.00039065,0.00016503,0.00036279,-0.00006446,-0.00005986,0.00
 009333,0.00000110,0.00000129,-0.00000173,0.00000139,0.00000050,-0.0000
 0079,0.00000066,0.00000176,-0.00000163,-0.00001026,0.00000409,-0.00000
 500,0.00000319,0.00000068,0.00001031,0.00000368,0.00002041,-0.00000279
 ,0.00001287,0.00002289,-0.00001518,-0.00049485,0.00001320,0.00044222,0
 .00012209,0.00030744,0.00030834,0.00044511,0.00044021,0.00109750,-0.00
 203803,0.00011952,-0.00458164,0.09659847,-0.01592897,0.28929118,0.0000
 0140,0.00000095,-0.00000064,-0.00000571,-0.00000544,-0.00000013,0.0000
 1075,0.00002018,0.00000121,-0.00001073,-0.00000830,-0.00000451,0.00002
 160,0.00002450,0.00002772,-0.00003821,-0.00006378,0.00001211,-0.000108
 88,0.00011809,-0.00007236,0.00010465,-0.00007202,0.00005847,-0.0000003
 8,0.00004350,-0.00002010,0.00006233,0.00030218,0.00012211,0.00110303,-
 0.00193286,-0.00075826,-0.01514407,-0.02007962,-0.00363010,-0.12972821
 ,-0.12498332,-0.02741492,0.00068231,0.02175447,0.00294579,0.00253575,0
 .00105160,-0.00189180,-0.00017540,-0.00004552,0.00000195,-0.00000088,0
 .00000117,0.00000048,0.00000107,0.00000018,0.00000080,-0.00000003,0.00
 000362,0.00000211,-0.00001158,0.00000928,0.00000005,0.00001693,0.00000
 411,0.00000931,0.00000410,0.00000059,0.00003108,0.00023973,0.00012138,
 -0.00010589,-0.00000283,-0.00002444,-0.00002732,-0.00001485,0.00112062
 ,0.00028455,-0.00004483,0.00008185,0.00001486,-0.00277647,0.00044717,0
 .00405961,0.00111093,0.00062714,-0.00008791,0.14704938,-0.00000423,0.0
 0000129,-0.00000198,0.00001171,-0.00000313,-0.00000450,-0.00002217,-0.
 00001200,0.00000027,0.00001095,0.00000405,0.00000823,-0.00002030,-0.00
 003382,-0.00002301,0.00004210,0.00009951,0.00004129,0.00002830,-0.0000
 3495,0.00004655,-0.00012791,-0.00001015,-0.00011948,0.00006703,0.00001
 333,0.00006708,0.00016713,0.00019047,0.00017899,0.00072857,0.00119934,
 -0.00029208,-0.00142443,-0.00087201,0.00014162,-0.12976744,-0.21451905
 ,-0.03953120,-0.00039371,-0.02328874,-0.00115767,-0.00239126,0.0006696
 0,0.00136734,0.00039885,0.00074447,0.00001466,-0.00000029,0.00000023,-
 0.00000028,-0.00000073,-0.00000040,0.00000065,0.00000062,0.00000017,-0
 .00000030,0.00001140,-0.00000645,0.00000040,-0.00000446,-0.00000557,-0
 .00001249,0.00004916,-0.00000675,0.00000161,0.00011608,-0.00011402,-0.
 00008947,-0.00003162,-0.00001469,0.00001331,-0.00033397,0.00031777,-0.
 00016127,0.00000489,-0.00001021,0.00004053,0.00038443,0.00089243,0.000
 29744,0.00017547,0.00006668,0.00015200,0.13196014,0.23220830,0.0000040
 9,-0.00000243,0.00000092,-0.00000877,0.00000469,0.00000007,0.00001481,
 0.00001141,0.00000719,-0.00000057,-0.00001019,-0.00001361,0.00001009,0
 .00003161,0.00001232,-0.00010229,-0.00013945,-0.00001039,0.00001028,-0
 .00004708,0.00002446,0.00009716,0.00008057,0.00004401,-0.00007216,-0.0
 0002796,-0.00004214,-0.00001907,0.00018012,-0.00011578,-0.00088634,0.0
 0078470,0.00058994,0.01459715,0.01859476,0.00351035,-0.02909952,-0.037
 81181,-0.05716638,0.00205137,0.00466719,0.00044853,-0.00067200,-0.0010
 7217,0.00048161,0.00047950,-0.00016130,-0.00032554,0.00000045,-0.00000
 031,0.00000037,0.00000038,0.00000045,0.00000025,-0.00000065,-0.0000000
 5,0.00000032,-0.00000768,0.00000757,0.00000078,-0.00000329,0.00000391,
 0.00000555,-0.00003069,0.00000862,-0.00003501,-0.00013101,-0.00008460,
 0.00000149,0.00002063,0.00002362,-0.00003532,-0.00007240,-0.00053595,0
 .00015680,-0.00003270,-0.00020460,-0.00000709,0.00384676,-0.00006548,-
 0.00256647,-0.00083276,0.00038656,0.00095814,0.02705683,0.03947292,0.0
 5787179,0.00000552,0.00000071,0.00000269,-0.00001147,0.00000703,-0.000
 00837,0.00001362,0.00001058,0.00001165,-0.00001623,-0.00001863,-0.0000
 0232,0.00003503,0.00006702,0.00002005,-0.00004999,-0.00011554,-0.00012
 040,-0.00005161,0.00000923,-0.00004974,0.00011691,0.00005880,0.0001236
 5,-0.00006194,-0.00002417,-0.00005750,-0.00000650,-0.00004355,0.000156
 74,0.00160788,-0.00107429,0.00044549,0.00936449,-0.00007409,0.02464114
 ,-0.07941439,-0.00676882,-0.09259009,-0.01018898,0.00817997,-0.0100058
 2,0.00203726,0.00002537,-0.00187232,-0.00041233,0.00028205,0.00080666,
 0.00000017,-0.00000047,-0.00000011,-0.00000035,0.,0.00000007,-0.000000
 41,-0.00000041,-0.00000041,-0.00000976,0.00000795,-0.00000173,0.000003
 43,-0.00000036,0.00000265,-0.00003600,0.00000730,-0.00002293,-0.000006
 11,-0.00000777,0.00001117,-0.00009120,0.00002224,-0.00022491,-0.000078
 66,0.00011179,-0.00011082,-0.00029285,0.00021184,-0.00048831,0.0010609
 5,-0.00005289,-0.00076328,-0.00376660,0.00003138,0.00371763,-0.0051425
 4,-0.00010233,-0.01669124,0.08583298,-0.00003144,0.00002625,-0.0000104
 7,0.00005299,-0.00005264,0.00001207,-0.00012718,-0.00004934,-0.0000764
 6,0.00011412,0.00001002,0.00007708,-0.00016214,-0.00005227,-0.00009960
 ,0.00023376,0.00036327,0.00011681,0.00020270,-0.00019750,0.00006217,-0
 .00060582,-0.00005844,-0.00035838,0.00031014,0.00009410,0.00018774,0.0
 0000562,-0.00018136,0.00005510,-0.00045556,0.00053931,-0.00084784,0.00
 021339,0.00032922,0.00251127,-0.00421038,-0.04280666,0.00315526,0.0153
 8352,-0.01060939,0.01781939,-0.00215791,0.00029626,0.00117830,-0.00001
 308,-0.00010075,-0.00049084,-0.00000471,0.00000071,-0.00000152,-0.0000
 0181,-0.00000245,-0.00000079,0.00000112,0.00000529,0.00000177,0.000031
 32,-0.00003685,0.00000152,-0.00002472,-0.00001311,-0.00002227,0.000137
 62,-0.00005982,0.00006391,-0.00003007,-0.00003650,0.00000470,0.0000504
 9,-0.00003769,0.00001407,-0.00007228,0.00003216,-0.00005134,0.00024932
 ,0.00019869,0.00006085,0.00070797,0.00000445,0.00025832,-0.00014045,0.
 00084375,0.00044907,-0.00929658,0.00217201,-0.02402421,-0.00042745,0.0
 4910915,0.00000996,-0.00001372,0.00000597,-0.00001336,0.00002192,-0.00
 000115,0.00004701,0.00000589,0.00003527,-0.00004055,0.00001578,-0.0000
 2694,0.00005937,-0.00004098,0.00003655,-0.00000826,-0.00006983,-0.0000
 1479,-0.00008691,0.00006686,-0.00002406,0.00018845,-0.00000934,0.00009
 248,-0.00008903,-0.00003729,-0.00003785,0.00030664,-0.00001968,0.00028
 582,-0.00126204,0.00060991,0.00042578,-0.00722486,0.00005936,-0.020575
 43,-0.09025021,-0.00074957,-0.28443792,0.00225300,0.00035461,0.0015115
 2,-0.00071156,-0.00051424,0.00125288,0.00026940,-0.00028383,-0.0001995
 5,0.00000250,0.00000001,0.00000004,0.00000142,0.00000131,-0.00000103,0
 .00000022,-0.00000325,-0.00000245,-0.00000542,0.00000794,-0.00000374,0
 .00001197,0.00001067,0.00000002,-0.00001222,0.00001644,-0.00001173,-0.
 00000120,0.00000758,-0.00002261,-0.00016572,0.00002687,0.00027372,0.00
 007236,-0.00003795,-0.00000290,0.00073009,-0.00062226,0.00050366,-0.00
 016601,0.00027047,0.00114577,0.00386439,0.00042005,-0.00145018,-0.0008
 4977,0.00054008,-0.00368741,0.09327638,-0.00004203,0.30493456,-0.00000
 427,0.00000645,-0.00000661,0.00000526,-0.00001215,0.00001951,-0.000016
 80,-0.00001546,-0.00005902,0.00003576,0.00001525,0.00004821,-0.0000510
 8,-0.00001382,-0.00004557,0.00011466,0.00010527,0.00005074,0.00007959,
 -0.00015780,-0.00003885,-0.00022412,0.00009968,-0.00007301,0.00010765,
 0.00000781,0.00001427,0.00000716,0.00000024,-0.00001941,-0.00002314,0.
 00000644,0.00003380,-0.00017976,0.00024192,0.00001396,0.00227189,-0.00
 252093,-0.00033922,-0.00501301,-0.01351078,0.00850786,-0.04662861,-0.0
 4023184,0.02863378,0.00457920,0.02593459,-0.00709391,-0.00000205,-0.00
 000082,0.00000192,-0.00000061,-0.00000063,0.00000016,-0.00000154,0.000
 00061,0.00000339,-0.00000020,-0.00001244,0.00000400,-0.00001495,-0.000
 00926,0.00000993,0.00000827,-0.00001913,0.00004968,0.00000416,-0.00000
 799,-0.00000615,0.00001722,0.00000061,-0.00001421,-0.00000745,0.000078
 42,0.00004490,-0.00002154,0.00000134,-0.00002107,0.00021812,0.00008355
 ,-0.00006498,0.00004347,-0.00002098,-0.00013650,0.00008639,0.00079988,
 0.00041406,-0.00052776,0.00010930,-0.00018772,0.04572505,0.00003043,-0
 .00002919,0.00000917,-0.00004460,0.00005874,-0.00000161,0.00012071,0.0
 0001867,0.00005197,-0.00009724,0.00002127,-0.00004234,0.00012643,0.000
 01263,0.00007105,-0.00012982,-0.00024465,-0.00012155,-0.00016973,0.000
 09296,-0.00007834,0.00048957,0.00011747,0.00031242,-0.00026298,-0.0001
 2319,-0.00017167,0.00002344,0.00000252,-0.00003206,0.00000448,-0.00006
 857,0.00005687,0.00001888,0.00007901,-0.00000225,0.00172988,0.00117472
 ,-0.00031031,-0.00002618,-0.00071471,0.00023152,-0.02733590,-0.3148114
 0,0.08593986,-0.00253824,-0.01984524,0.00579101,0.00000474,-0.00000249
 ,0.00000286,0.00000113,0.00000240,0.00000022,-0.00000307,-0.00001003,-
 0.00000298,-0.00002965,0.00002086,-0.00000501,0.00000963,0.00001041,0.
 00001881,-0.00010116,0.00004567,-0.00003071,-0.00001051,0.00002070,0.0
 0002032,-0.00000764,-0.00000454,0.00000546,0.00002379,-0.00001148,-0.0
 0001746,0.00000638,0.00000170,-0.00000158,0.00005794,-0.00010871,-0.00
 004043,0.00002527,0.00000696,-0.00002055,-0.00088737,0.00025061,-0.000
 11590,-0.00025289,0.00017031,-0.00000460,0.02668035,0.33336718,-0.0000
 5868,0.00005828,-0.00002345,0.00008373,-0.00011778,0.00003610,-0.00022
 538,-0.00005638,-0.00018246,0.00022213,-0.00001479,0.00015402,-0.00029
 203,-0.00004433,-0.00018161,0.00041132,0.00058006,0.00025594,0.0004237
 3,-0.00043684,0.00010269,-0.00112179,0.00002560,-0.00061880,0.00054434
 ,0.00017432,0.00029635,-0.00007096,-0.00004415,0.00005296,0.00005451,0
 .00006122,-0.00009999,-0.00015478,-0.00045929,-0.00005013,-0.00139818,
 0.00090300,0.00040868,0.00692166,0.01384907,-0.00353960,0.02453047,0.0
 9361217,-0.05985754,-0.00078499,-0.01414395,0.00547787,-0.00001148,0.0
 0000296,-0.00000139,-0.00000236,-0.00000496,-0.00000104,0.00000167,0.0
 0001669,0.00000884,0.00004845,-0.00005383,0.00001268,-0.00004240,-0.00
 003202,-0.00001621,0.00016019,-0.00009498,0.00011492,-0.00000989,-0.00
 004099,-0.00002943,0.00003880,0.00001824,-0.00002213,0.00000165,-0.000
 00163,0.00006531,-0.00001110,-0.00003727,-0.00001505,-0.00017281,-0.00
 008588,0.00003395,0.00000738,0.00009499,-0.00000288,0.00035725,-0.0012
 4320,-0.00009822,-0.00004794,-0.00019340,-0.00003067,-0.03165568,-0.09
 069753,0.05581273,-0.00000623,0.00000632,-0.00000399,0.00001182,-0.000
 00786,0.00000515,-0.00002933,-0.00001933,-0.00002721,0.00002758,0.0000
 0690,0.00002626,-0.00004527,-0.00002347,-0.00003743,0.00007673,0.00012
 898,0.00004333,0.00008333,-0.00008818,0.00004173,-0.00018228,0.0000290
 4,-0.00012949,0.00007630,0.00000399,0.00005375,-0.00000811,-0.00003414
 ,0.00004430,0.00007000,0.00007518,-0.00008947,-0.00000693,-0.00019801,
 0.00007513,-0.00119969,-0.00005162,-0.00071061,0.00083774,-0.00009676,
 0.00013357,0.00568697,0.02545030,-0.01073543,-0.05665703,-0.02618023,0
 .03944232,-0.00000110,-0.00000082,0.00000015,-0.00000127,-0.00000097,0
 .00000015,-0.00000052,-0.00000071,0.00000040,0.00001034,-0.00001181,0.
 00000242,-0.00001041,-0.00000727,-0.00000589,0.00003200,-0.00001413,0.
 00001691,-0.00000052,-0.00000876,-0.00000759,0.00000463,-0.00000051,-0
 .00000654,-0.00001872,-0.00000204,0.00000291,0.00000015,-0.00000468,0.
 00000065,-0.00003155,0.00001004,0.00001438,-0.00000075,0.00000283,-0.0
 0000275,0.00028105,-0.00041065,0.00001549,-0.00002122,0.00011899,0.000
 04315,-0.00114688,0.00295942,0.00375754,0.05015590,-0.00007624,0.00007
 788,-0.00002084,0.00010052,-0.00015833,0.00001608,-0.00028154,-0.00002
 411,-0.00015213,0.00025588,-0.00007595,0.00011584,-0.00029149,0.000026
 71,-0.00014397,0.00031199,0.00046350,0.00027406,0.00037065,-0.00026037
 ,0.00016589,-0.00105960,-0.00016228,-0.00065278,0.00054383,0.00025278,
 0.00035426,-0.00003115,0.00003522,-0.00002116,-0.00003786,-0.00004026,
 0.00008320,-0.00005623,0.00025621,-0.00007718,-0.00009474,-0.00034572,
 -0.00003654,-0.00057816,0.00066721,0.00044719,0.00057730,-0.02032833,0
 .00304734,-0.02998999,-0.42959135,0.09850599,-0.00001424,0.00000679,-0
 .00000570,-0.00000088,-0.00000589,-0.00000103,0.00000433,0.00002739,0.
 00000824,0.00005724,-0.00004052,0.00001149,-0.00002417,-0.00002403,-0.
 00002347,0.00016838,-0.00009073,0.00006720,-0.00001151,-0.00004178,-0.
 00002234,0.00001893,0.00001575,-0.00000407,-0.00003376,-0.00001687,0.0
 0002101,-0.00000439,-0.00001097,-0.00000750,-0.00000036,-0.00003493,-0
 .00001658,0.00001414,-0.00000089,-0.00000449,-0.00015440,0.00004829,0.
 00008707,-0.00012494,0.00012632,0.00002290,0.00252004,0.00020250,-0.00
 115794,0.02497857,0.45081651,0.00003949,-0.00003384,0.00000947,-0.0000
 5906,0.00007418,-0.00000390,0.00014921,0.00002867,0.00006451,-0.000117
 07,0.00001566,-0.00005550,0.00016419,0.00003580,0.00009129,-0.00017609
 ,-0.00035755,-0.00014506,-0.00022822,0.00014622,-0.00007613,0.00065428
 ,0.00014068,0.00037500,-0.00034430,-0.00015049,-0.00021267,0.00003717,
 0.00005076,-0.00003834,-0.00001585,-0.00011372,0.00012417,-0.00003970,
 0.00016295,-0.00008800,0.00077429,-0.00088179,-0.00042957,-0.00095075,
 -0.00095610,-0.00048719,-0.00468364,-0.01232180,0.00229900,0.03947108,
 0.09678585,-0.04621394,0.00000599,-0.00000348,0.00000353,0.00000082,0.
 00000266,0.00000112,-0.00000353,-0.00001205,-0.00000280,-0.00003833,0.
 00002959,-0.00000449,0.00001584,0.00001286,0.00002517,-0.00013800,0.00
 006237,-0.00004999,-0.00000190,0.00002583,0.00002226,-0.00001497,-0.00
 001343,-0.00000189,0.00001483,0.00001290,-0.00002798,0.00000849,0.0000
 0925,-0.00001116,0.00002713,0.00000058,0.00002063,-0.00000851,-0.00002
 611,0.00000702,0.00004006,0.00021174,-0.00008979,-0.00015908,0.0002604
 2,0.00003440,0.00338417,-0.00063051,0.00282611,-0.03415347,-0.09900128
 ,0.04546168,0.00006211,-0.00005802,0.00001915,-0.00008523,0.00012926,-
 0.00002678,0.00022757,0.00002821,0.00015333,-0.00021842,0.00004091,-0.
 00013385,0.00026317,0.00001146,0.00014834,-0.00036154,-0.00044209,-0.0
 0021915,-0.00034032,0.00028920,-0.00013600,0.00099083,0.00007946,0.000
 60828,-0.00051256,-0.00021769,-0.00032007,0.00004231,0.00006544,-0.000
 05879,-0.00010346,-0.00017110,0.00012846,-0.00008421,0.00056601,-0.000
 14322,-0.00001989,-0.00007128,0.00132368,0.00132805,0.00264778,-0.0012
 4864,-0.01798086,-0.00640543,0.01107015,-0.29128583,-0.08916522,0.1999
 3280,0.00001202,-0.00000617,0.00000298,0.00000004,0.00000433,0.0000018
 5,-0.00000395,-0.00002226,-0.00000835,-0.00004562,0.00003944,-0.000010
 44,0.00002500,0.00002174,0.00001713,-0.00014070,0.00008246,-0.00008411
 ,-0.00000028,0.00003219,0.00002099,-0.00001783,-0.00000951,0.00000873,
 0.00005355,-0.00001636,-0.00002371,-0.00001843,0.00003089,-0.00000342,
 -0.00001836,-0.00001426,-0.00000054,0.00003687,-0.00001951,-0.00004594
 ,-0.00010582,0.00007880,0.00004407,0.00010865,-0.00016077,-0.00006147,
 0.00055992,-0.00041553,-0.00150435,0.00201331,0.00294385,-0.00365457,0
 .30561992,0.00003913,-0.00004073,0.00001325,-0.00005189,0.00008509,-0.
 00000930,0.00014700,0.00001081,0.00008569,-0.00013575,0.00003869,-0.00
 006357,0.00015585,-0.00001742,0.00007916,-0.00016804,-0.00023289,-0.00
 015545,-0.00019043,0.00012988,-0.00008232,0.00059379,0.00010939,0.0003
 7073,-0.00032641,-0.00016015,-0.00020048,0.00003984,-0.00006653,0.0000
 1860,0.00003656,0.00010026,-0.00012106,0.00020174,-0.00049353,0.000204
 06,0.00098975,0.00070072,-0.00053512,0.00171833,-0.00224807,-0.0002708
 1,0.02149151,0.00988181,-0.01620805,-0.08763753,-0.10489825,0.07360874
 ,0.00000807,-0.00000361,0.00000222,0.00000070,0.00000277,-0.00000035,-
 0.00000234,-0.00001531,-0.00000599,-0.00002922,0.00002176,-0.00000716,
 0.00001346,0.00001332,0.00000944,-0.00009404,0.00005242,-0.00004511,-0
 .00000147,0.00002185,0.00001428,-0.00001256,-0.00000635,0.00000449,0.0
 0002101,-0.00002096,-0.00002003,0.00001028,0.00000536,0.00001168,-0.00
 004526,0.00000727,0.00002650,-0.00002581,0.00000931,0.00001742,-0.0001
 3905,0.00005336,-0.00004227,0.00005532,-0.00002649,-0.00001008,-0.0001
 5771,0.00029689,-0.00043546,-0.02660860,-0.00176975,0.01643318,0.09010
 378,0.09845905,-0.00006149,0.00006053,-0.00001960,0.00009086,-0.000119
 82,-0.00000692,-0.00023532,-0.00002223,-0.00008170,0.00018419,-0.00006
 118,0.00006355,-0.00022929,-0.00000149,-0.00012001,0.00020122,0.000423
 48,0.00018516,0.00030502,-0.00012128,0.00013061,-0.00079624,-0.0002478
 6,-0.00046785,0.00040821,0.00021172,0.00026326,-0.00003269,-0.00008183
 ,0.00005509,0.00000299,0.00019659,-0.00015898,0.00020712,-0.00029087,0
 .00017137,0.00003982,0.00147718,-0.00004439,0.00057530,-0.00175454,0.0
 0264349,0.00701588,-0.00006637,-0.00695103,0.19742104,0.07533314,-0.13
 664994,-0.00001070,0.00000500,-0.00000467,-0.00000220,-0.00000506,0.00
 000193,0.00000371,0.00002023,0.00000561,0.00005388,-0.00003260,0.00000
 768,-0.00001329,-0.00001439,-0.00003416,0.00016615,-0.00007665,0.00003
 295,-0.00000014,-0.00003100,-0.00002042,0.00000934,0.00001983,-0.00001
 027,-0.00001947,-0.00004760,0.00002074,-0.00002927,0.00000952,0.000004
 93,-0.00004068,-0.00000616,0.00000540,0.00002615,0.00000388,-0.0000564
 7,-0.00016264,0.00004021,0.00007829,0.00000133,-0.00007066,-0.00000806
 ,-0.00147242,-0.00018410,-0.00088853,0.00219016,-0.00187875,-0.0034269
 6,-0.20579654,-0.07268684,0.14527989\\0.00001199,0.00000333,0.00000670
 ,-0.00002233,-0.00001186,-0.00000412,0.00001608,0.00001744,0.00000510,
 -0.00001566,-0.00003618,-0.00000823,0.00001634,0.00000985,0.00002425,-
 0.00004171,0.00001478,-0.00004905,0.00000467,-0.00000509,-0.00001378,0
 .00010554,0.00008138,0.00008225,-0.00007463,-0.00009700,-0.00005984,0.
 00000088,-0.00000835,0.00004401,0.00000623,-0.00000745,-0.00000515,-0.
 00002102,0.00002016,0.00001016,0.00003326,-0.00004281,0.00000166,0.000
 00523,0.00003219,-0.00002719,0.00000756,-0.00004471,0.00002115,-0.0000
 1569,0.00002983,-0.00000226,0.00000035,0.00000043,-0.00000135,0.000002
 91,0.00000040,0.00000142,0.00000301,0.00000273,0.00000039,-0.00000074,
 0.00000764,-0.00000265,0.00000493,0.00000498,-0.00001290,-0.00001524,0
 .00001395,-0.00000124,-0.00000004,0.00000207,-0.00000145,0.00000533,-0
 .00000543,0.00000029,0.00000300,-0.00000464,-0.00000611,-0.00000395,0.
 00000565,-0.00000028,-0.00000016,-0.00000269,0.00000105,0.00000351,-0.
 00000186,-0.00000266,-0.00000239,0.00000591,-0.00000158,-0.00000324,0.
 00000900,-0.00000139,0.00000045,-0.00000062,-0.00001158,-0.00000881,0.
 00001254,0.00000162,-0.00000565,-0.00000556,0.00001274\\\@


 WE ARE PERHAPS NOT FAR REMOVED FROM THE TIME WHEN WE SHALL BE ABLE TO SUBMIT
 THE BULK OF CHEMICAL PHENOMENA TO CALCULATION.

            -- JOSEPH LOUIS GAY-LUSSAC
               MEMOIRES DE LA SOCIETE D'ARCUEIL, 2, 207 (1808)
 Job cpu time:       0 days  8 hours 15 minutes 32.6 seconds.
 Elapsed time:       0 days  2 hours  3 minutes 54.8 seconds.
 File lengths (MBytes):  RWF=    767 Int=      0 D2E=      0 Chk=     24 Scr=      1
 Normal termination of Gaussian 16 at Thu May 18 22:45:54 2023.
### All Done ###
