### Starting Gaussian ###
 Entering Gaussian System, Link 0=g16
 Initial command:
 /cluster/software/gaussian/gaussian-16-A.03/avx2/g16/l1.exe "/local/scratch/cz9n3/Gau-11265.inp" -scrdir="/local/scratch/cz9n3/"
 Entering Link 1 = /cluster/software/gaussian/gaussian-16-A.03/avx2/g16/l1.exe PID=     11266.
  
 Copyright (c) 1988,1990,1992,1993,1995,1998,2003,2009,2016,
            Gaussian, Inc.  All Rights Reserved.
  
 This is part of the Gaussian(R) 16 program.  It is based on
 the Gaussian(R) 09 system (copyright 2009, Gaussian, Inc.),
 the Gaussian(R) 03 system (copyright 2003, Gaussian, Inc.),
 the Gaussian(R) 98 system (copyright 1998, Gaussian, Inc.),
 the Gaussian(R) 94 system (copyright 1995, Gaussian, Inc.),
 the Gaussian 92(TM) system (copyright 1992, Gaussian, Inc.),
 the Gaussian 90(TM) system (copyright 1990, Gaussian, Inc.),
 the Gaussian 88(TM) system (copyright 1988, Gaussian, Inc.),
 the Gaussian 86(TM) system (copyright 1986, Carnegie Mellon
 University), and the Gaussian 82(TM) system (copyright 1983,
 Carnegie Mellon University). Gaussian is a federally registered
 trademark of Gaussian, Inc.
  
 This software contains proprietary and confidential information,
 including trade secrets, belonging to Gaussian, Inc.
  
 This software is provided under written license and may be
 used, copied, transmitted, or stored only in accord with that
 written license.
  
 The following legend is applicable only to US Government
 contracts under FAR:
  
                    RESTRICTED RIGHTS LEGEND
  
 Use, reproduction and disclosure by the US Government is
 subject to restrictions as set forth in subparagraphs (a)
 and (c) of the Commercial Computer Software - Restricted
 Rights clause in FAR 52.227-19.
  
 Gaussian, Inc.
 340 Quinnipiac St., Bldg. 40, Wallingford CT 06492
  
  
 ---------------------------------------------------------------
 Warning -- This program may not be used in any manner that
 competes with the business of Gaussian, Inc. or will provide
 assistance to any competitor of Gaussian, Inc.  The licensee
 of this program is prohibited from giving any competitor of
 Gaussian, Inc. access to this program.  By using this program,
 the user acknowledges that Gaussian, Inc. is engaged in the
 business of creating and licensing software in the field of
 computational chemistry and represents and warrants to the
 licensee that it is not a competitor of Gaussian, Inc. and that
 it will not use this program in any manner prohibited above.
 ---------------------------------------------------------------
  

 Cite this work as:
 Gaussian 16, Revision A.03,
 M. J. Frisch, G. W. Trucks, H. B. Schlegel, G. E. Scuseria, 
 M. A. Robb, J. R. Cheeseman, G. Scalmani, V. Barone, 
 G. A. Petersson, H. Nakatsuji, X. Li, M. Caricato, A. V. Marenich, 
 J. Bloino, B. G. Janesko, R. Gomperts, B. Mennucci, H. P. Hratchian, 
 J. V. Ortiz, A. F. Izmaylov, J. L. Sonnenberg, D. Williams-Young, 
 F. Ding, F. Lipparini, F. Egidi, J. Goings, B. Peng, A. Petrone, 
 T. Henderson, D. Ranasinghe, V. G. Zakrzewski, J. Gao, N. Rega, 
 G. Zheng, W. Liang, M. Hada, M. Ehara, K. Toyota, R. Fukuda, 
 J. Hasegawa, M. Ishida, T. Nakajima, Y. Honda, O. Kitao, H. Nakai, 
 T. Vreven, K. Throssell, J. A. Montgomery, Jr., J. E. Peralta, 
 F. Ogliaro, M. J. Bearpark, J. J. Heyd, E. N. Brothers, K. N. Kudin, 
 V. N. Staroverov, T. A. Keith, R. Kobayashi, J. Normand, 
 K. Raghavachari, A. P. Rendell, J. C. Burant, S. S. Iyengar, 
 J. Tomasi, M. Cossi, J. M. Millam, M. Klene, C. Adamo, R. Cammi, 
 J. W. Ochterski, R. L. Martin, K. Morokuma, O. Farkas, 
 J. B. Foresman, and D. J. Fox, Gaussian, Inc., Wallingford CT, 2016.
 
 ******************************************
 Gaussian 16:  ES64L-G16RevA.03 25-Dec-2016
                18-May-2023 
 ******************************************
 %chk=CdCC1qCqCrOrC2dCCdCNdCOC1C2.chk
 %NProcShared=20
 Will use up to   20 processors via shared memory.
 -----------------------------
 # opt freq b3lyp/6-31g(2df,p)
 -----------------------------
 1/18=20,19=15,26=3,38=1/1,3;
 2/9=110,12=2,17=6,18=5,40=1/2;
 3/5=1,6=6,7=104,11=2,25=1,30=1,71=1,74=-5/1,2,3;
 4//1;
 5/5=2,38=5/2;
 6/7=2,8=2,9=2,10=2,28=1/1;
 7//1,2,3,16;
 1/18=20,19=15,26=3/3(2);
 2/9=110/2;
 99//99;
 2/9=110/2;
 3/5=1,6=6,7=104,11=2,25=1,30=1,71=1,74=-5/1,2,3;
 4/5=5,16=3,69=1/1;
 5/5=2,38=5/2;
 7//1,2,3,16;
 1/18=20,19=15,26=3/3(-5);
 2/9=110/2;
 6/7=2,8=2,9=2,10=2,19=2,28=1/1;
 99/9=1/99;
 -------------------
 Title Card Required
 -------------------
 Symbolic Z-matrix:
 Charge =  0 Multiplicity = 1
 C                     1.01563   0.0856   -0.10105 
 C                     2.3442    0.32623  -0.1481 
 C                     3.37309  -0.77431  -0.42062 
 C                     3.39252  -0.89521  -1.95368 
 C                     4.12666   0.38352  -2.38879 
 O                     4.03907  -2.05236  -2.47534 
 C                     4.87405  -1.36165   0.2829 
 C                     5.97755  -0.84842   0.86151 
 C                     6.13998   0.5108    0.56709 
 C                     6.20018   1.39344   1.60699 
 N                     5.05593   2.09108   1.69516 
 C                     4.03461   1.33352   2.10528 
 O                     3.70679  -0.11621   2.25281 
 C                     3.20182  -1.28649   1.13504 
 C                     4.15016  -2.59129   0.66145 
 H                     0.34867   0.88805   0.20587 
 H                     0.53669  -0.87812  -0.28779 
 H                     2.70536   1.31956   0.04855 
 H                     2.38361  -0.89834  -2.39175 
 H                     5.15515   0.34262  -2.02644 
 H                     3.66773   1.27639  -1.9436 
 H                     4.16743   0.53727  -3.46149 
 H                     4.97673  -2.02077  -2.22241 
 H                     6.28531  -1.32158   1.81064 
 H                     5.41644   0.86241  -0.15153 
 H                     6.69974   1.19675   2.54027 
 H                     3.64412   1.88292   2.97579 
 H                     2.20725  -1.66902   1.40985 
 H                     4.1059   -3.21571  -0.26076 
 H                     4.49632  -3.28838   1.42984 
 

 GradGradGradGradGradGradGradGradGradGradGradGradGradGradGradGradGradGrad
 Berny optimization.
 Initialization pass.
                           ----------------------------
                           !    Initial Parameters    !
                           ! (Angstroms and Degrees)  !
 --------------------------                            --------------------------
 ! Name  Definition              Value          Derivative Info.                !
 --------------------------------------------------------------------------------
 ! R1    R(1,2)                  1.351          estimate D2E/DX2                !
 ! R2    R(1,16)                 1.0876         estimate D2E/DX2                !
 ! R3    R(1,17)                 1.0923         estimate D2E/DX2                !
 ! R4    R(2,3)                  1.531          estimate D2E/DX2                !
 ! R5    R(2,18)                 1.0751         estimate D2E/DX2                !
 ! R6    R(3,4)                  1.5379         estimate D2E/DX2                !
 ! R7    R(3,7)                  1.7586         estimate D2E/DX2                !
 ! R8    R(3,14)                 1.6467         estimate D2E/DX2                !
 ! R9    R(4,5)                  1.5373         estimate D2E/DX2                !
 ! R10   R(4,6)                  1.4245         estimate D2E/DX2                !
 ! R11   R(4,19)                 1.0999         estimate D2E/DX2                !
 ! R12   R(5,20)                 1.0912         estimate D2E/DX2                !
 ! R13   R(5,21)                 1.0982         estimate D2E/DX2                !
 ! R14   R(5,22)                 1.0844         estimate D2E/DX2                !
 ! R15   R(6,23)                 0.9717         estimate D2E/DX2                !
 ! R16   R(7,8)                  1.3476         estimate D2E/DX2                !
 ! R17   R(7,15)                 1.4763         estimate D2E/DX2                !
 ! R18   R(8,9)                  1.4002         estimate D2E/DX2                !
 ! R19   R(8,24)                 1.1043         estimate D2E/DX2                !
 ! R20   R(9,10)                 1.3653         estimate D2E/DX2                !
 ! R21   R(9,25)                 1.0787         estimate D2E/DX2                !
 ! R22   R(10,11)                1.3431         estimate D2E/DX2                !
 ! R23   R(10,26)                1.0767         estimate D2E/DX2                !
 ! R24   R(11,12)                1.3361         estimate D2E/DX2                !
 ! R25   R(12,13)                1.4936         estimate D2E/DX2                !
 ! R26   R(12,27)                1.101          estimate D2E/DX2                !
 ! R27   R(14,15)                1.6811         estimate D2E/DX2                !
 ! R28   R(14,28)                1.1005         estimate D2E/DX2                !
 ! R29   R(15,29)                1.1146         estimate D2E/DX2                !
 ! R30   R(15,30)                1.0937         estimate D2E/DX2                !
 ! A1    A(2,1,16)             118.7803         estimate D2E/DX2                !
 ! A2    A(2,1,17)             125.6199         estimate D2E/DX2                !
 ! A3    A(16,1,17)            115.4883         estimate D2E/DX2                !
 ! A4    A(1,2,3)              122.6177         estimate D2E/DX2                !
 ! A5    A(1,2,18)             119.2456         estimate D2E/DX2                !
 ! A6    A(3,2,18)             118.0966         estimate D2E/DX2                !
 ! A7    A(2,3,4)              104.03           estimate D2E/DX2                !
 ! A8    A(2,3,7)              137.9381         estimate D2E/DX2                !
 ! A9    A(2,3,14)              89.1707         estimate D2E/DX2                !
 ! A10   A(4,3,7)              111.2065         estimate D2E/DX2                !
 ! A11   A(4,3,14)             156.7161         estimate D2E/DX2                !
 ! A12   A(7,3,14)              66.8574         estimate D2E/DX2                !
 ! A13   A(3,4,5)              102.872          estimate D2E/DX2                !
 ! A14   A(3,4,6)              115.7624         estimate D2E/DX2                !
 ! A15   A(3,4,19)             112.6839         estimate D2E/DX2                !
 ! A16   A(5,4,6)              110.8109         estimate D2E/DX2                !
 ! A17   A(5,4,19)             109.1275         estimate D2E/DX2                !
 ! A18   A(6,4,19)             105.5552         estimate D2E/DX2                !
 ! A19   A(4,5,20)             108.9612         estimate D2E/DX2                !
 ! A20   A(4,5,21)             111.2212         estimate D2E/DX2                !
 ! A21   A(4,5,22)             114.5727         estimate D2E/DX2                !
 ! A22   A(20,5,21)            106.842          estimate D2E/DX2                !
 ! A23   A(20,5,22)            107.3584         estimate D2E/DX2                !
 ! A24   A(21,5,22)            107.544          estimate D2E/DX2                !
 ! A25   A(4,6,23)             108.4366         estimate D2E/DX2                !
 ! A26   A(3,7,8)              138.0284         estimate D2E/DX2                !
 ! A27   A(3,7,15)              87.8368         estimate D2E/DX2                !
 ! A28   A(8,7,15)             127.4941         estimate D2E/DX2                !
 ! A29   A(7,8,9)              111.9888         estimate D2E/DX2                !
 ! A30   A(7,8,24)             115.7268         estimate D2E/DX2                !
 ! A31   A(9,8,24)             124.3561         estimate D2E/DX2                !
 ! A32   A(8,9,10)             118.1979         estimate D2E/DX2                !
 ! A33   A(8,9,25)             112.2528         estimate D2E/DX2                !
 ! A34   A(10,9,25)            109.0424         estimate D2E/DX2                !
 ! A35   A(9,10,11)            110.38           estimate D2E/DX2                !
 ! A36   A(9,10,26)            124.2337         estimate D2E/DX2                !
 ! A37   A(11,10,26)           115.6763         estimate D2E/DX2                !
 ! A38   A(10,11,12)           112.1407         estimate D2E/DX2                !
 ! A39   A(11,12,13)           138.4528         estimate D2E/DX2                !
 ! A40   A(11,12,27)           103.3489         estimate D2E/DX2                !
 ! A41   A(13,12,27)           109.1722         estimate D2E/DX2                !
 ! A42   A(3,14,15)             85.2161         estimate D2E/DX2                !
 ! A43   A(3,14,28)            115.9779         estimate D2E/DX2                !
 ! A44   A(15,14,28)           108.0824         estimate D2E/DX2                !
 ! A45   A(7,15,14)             72.6842         estimate D2E/DX2                !
 ! A46   A(7,15,29)            105.8988         estimate D2E/DX2                !
 ! A47   A(7,15,30)            123.7691         estimate D2E/DX2                !
 ! A48   A(14,15,29)           130.2033         estimate D2E/DX2                !
 ! A49   A(14,15,30)           118.3801         estimate D2E/DX2                !
 ! A50   A(29,15,30)           103.6974         estimate D2E/DX2                !
 ! D1    D(16,1,2,3)           173.2647         estimate D2E/DX2                !
 ! D2    D(16,1,2,18)           -4.3842         estimate D2E/DX2                !
 ! D3    D(17,1,2,3)            -2.7126         estimate D2E/DX2                !
 ! D4    D(17,1,2,18)          179.6385         estimate D2E/DX2                !
 ! D5    D(1,2,3,4)             83.1446         estimate D2E/DX2                !
 ! D6    D(1,2,3,7)           -130.398          estimate D2E/DX2                !
 ! D7    D(1,2,3,14)           -77.4659         estimate D2E/DX2                !
 ! D8    D(18,2,3,4)           -99.1808         estimate D2E/DX2                !
 ! D9    D(18,2,3,7)            47.2766         estimate D2E/DX2                !
 ! D10   D(18,2,3,14)          100.2087         estimate D2E/DX2                !
 ! D11   D(2,3,4,5)             72.7407         estimate D2E/DX2                !
 ! D12   D(2,3,4,6)           -166.2653         estimate D2E/DX2                !
 ! D13   D(2,3,4,19)           -44.6343         estimate D2E/DX2                !
 ! D14   D(7,3,4,5)            -83.8645         estimate D2E/DX2                !
 ! D15   D(7,3,4,6)             37.1295         estimate D2E/DX2                !
 ! D16   D(7,3,4,19)           158.7605         estimate D2E/DX2                !
 ! D17   D(14,3,4,5)          -164.3759         estimate D2E/DX2                !
 ! D18   D(14,3,4,6)           -43.3819         estimate D2E/DX2                !
 ! D19   D(14,3,4,19)           78.2491         estimate D2E/DX2                !
 ! D20   D(2,3,7,8)            -38.2467         estimate D2E/DX2                !
 ! D21   D(2,3,7,15)           112.0744         estimate D2E/DX2                !
 ! D22   D(4,3,7,8)            106.6528         estimate D2E/DX2                !
 ! D23   D(4,3,7,15)          -103.0261         estimate D2E/DX2                !
 ! D24   D(14,3,7,8)           -98.4345         estimate D2E/DX2                !
 ! D25   D(14,3,7,15)           51.8866         estimate D2E/DX2                !
 ! D26   D(2,3,14,15)          171.6895         estimate D2E/DX2                !
 ! D27   D(2,3,14,28)           63.8893         estimate D2E/DX2                !
 ! D28   D(4,3,14,15)           46.2582         estimate D2E/DX2                !
 ! D29   D(4,3,14,28)          -61.542          estimate D2E/DX2                !
 ! D30   D(7,3,14,15)          -43.855          estimate D2E/DX2                !
 ! D31   D(7,3,14,28)         -151.6552         estimate D2E/DX2                !
 ! D32   D(3,4,5,20)            65.0758         estimate D2E/DX2                !
 ! D33   D(3,4,5,21)           -52.4437         estimate D2E/DX2                !
 ! D34   D(3,4,5,22)          -174.6604         estimate D2E/DX2                !
 ! D35   D(6,4,5,20)           -59.2444         estimate D2E/DX2                !
 ! D36   D(6,4,5,21)          -176.7639         estimate D2E/DX2                !
 ! D37   D(6,4,5,22)            61.0194         estimate D2E/DX2                !
 ! D38   D(19,4,5,20)         -175.0593         estimate D2E/DX2                !
 ! D39   D(19,4,5,21)           67.4212         estimate D2E/DX2                !
 ! D40   D(19,4,5,22)          -54.7955         estimate D2E/DX2                !
 ! D41   D(3,4,6,23)           -63.0441         estimate D2E/DX2                !
 ! D42   D(5,4,6,23)            53.575          estimate D2E/DX2                !
 ! D43   D(19,4,6,23)          171.5877         estimate D2E/DX2                !
 ! D44   D(3,7,8,9)            -18.6113         estimate D2E/DX2                !
 ! D45   D(3,7,8,24)           131.8637         estimate D2E/DX2                !
 ! D46   D(15,7,8,9)          -160.0308         estimate D2E/DX2                !
 ! D47   D(15,7,8,24)           -9.5558         estimate D2E/DX2                !
 ! D48   D(3,7,15,14)          -47.9299         estimate D2E/DX2                !
 ! D49   D(3,7,15,29)           79.9665         estimate D2E/DX2                !
 ! D50   D(3,7,15,30)         -160.9135         estimate D2E/DX2                !
 ! D51   D(8,7,15,14)          107.4029         estimate D2E/DX2                !
 ! D52   D(8,7,15,29)         -124.7007         estimate D2E/DX2                !
 ! D53   D(8,7,15,30)           -5.5806         estimate D2E/DX2                !
 ! D54   D(7,8,9,10)           121.9491         estimate D2E/DX2                !
 ! D55   D(7,8,9,25)            -6.3209         estimate D2E/DX2                !
 ! D56   D(24,8,9,10)          -25.519          estimate D2E/DX2                !
 ! D57   D(24,8,9,25)         -153.789          estimate D2E/DX2                !
 ! D58   D(8,9,10,11)         -105.952          estimate D2E/DX2                !
 ! D59   D(8,9,10,26)           38.3271         estimate D2E/DX2                !
 ! D60   D(25,9,10,11)          23.8114         estimate D2E/DX2                !
 ! D61   D(25,9,10,26)         168.0905         estimate D2E/DX2                !
 ! D62   D(9,10,11,12)          69.9483         estimate D2E/DX2                !
 ! D63   D(26,10,11,12)        -77.669          estimate D2E/DX2                !
 ! D64   D(10,11,12,13)        -15.2273         estimate D2E/DX2                !
 ! D65   D(10,11,12,27)        125.7297         estimate D2E/DX2                !
 ! D66   D(11,12,13,27)        139.5432         estimate D2E/DX2                !
 ! D67   D(3,14,15,7)           52.6526         estimate D2E/DX2                !
 ! D68   D(3,14,15,29)         -43.7898         estimate D2E/DX2                !
 ! D69   D(3,14,15,30)         172.2129         estimate D2E/DX2                !
 ! D70   D(28,14,15,7)         168.4422         estimate D2E/DX2                !
 ! D71   D(28,14,15,29)         71.9997         estimate D2E/DX2                !
 ! D72   D(28,14,15,30)        -71.9976         estimate D2E/DX2                !
 --------------------------------------------------------------------------------
 Trust Radius=3.00D-01 FncErr=1.00D-07 GrdErr=1.00D-06 EigMax=2.50D+02 EigMin=1.00D-04
 Number of steps in this run=    162 maximum allowed number of steps=    180.
 GradGradGradGradGradGradGradGradGradGradGradGradGradGradGradGradGradGrad

                          Input orientation:                          
 ---------------------------------------------------------------------
 Center     Atomic      Atomic             Coordinates (Angstroms)
 Number     Number       Type             X           Y           Z
 ---------------------------------------------------------------------
      1          6           0        1.015630    0.085600   -0.101050
      2          6           0        2.344200    0.326230   -0.148100
      3          6           0        3.373090   -0.774310   -0.420620
      4          6           0        3.392520   -0.895210   -1.953680
      5          6           0        4.126660    0.383520   -2.388790
      6          8           0        4.039070   -2.052360   -2.475340
      7          6           0        4.874050   -1.361650    0.282900
      8          6           0        5.977550   -0.848420    0.861510
      9          6           0        6.139980    0.510800    0.567090
     10          6           0        6.200180    1.393440    1.606990
     11          7           0        5.055930    2.091080    1.695160
     12          6           0        4.034610    1.333520    2.105280
     13          8           0        3.706790   -0.116210    2.252810
     14          6           0        3.201820   -1.286490    1.135040
     15          6           0        4.150160   -2.591290    0.661450
     16          1           0        0.348670    0.888050    0.205870
     17          1           0        0.536690   -0.878120   -0.287790
     18          1           0        2.705360    1.319560    0.048550
     19          1           0        2.383610   -0.898340   -2.391750
     20          1           0        5.155150    0.342620   -2.026440
     21          1           0        3.667730    1.276390   -1.943600
     22          1           0        4.167430    0.537270   -3.461490
     23          1           0        4.976730   -2.020770   -2.222410
     24          1           0        6.285310   -1.321580    1.810640
     25          1           0        5.416440    0.862410   -0.151530
     26          1           0        6.699740    1.196750    2.540270
     27          1           0        3.644120    1.882920    2.975790
     28          1           0        2.207250   -1.669020    1.409850
     29          1           0        4.105900   -3.215710   -0.260760
     30          1           0        4.496320   -3.288380    1.429840
 ---------------------------------------------------------------------
                    Distance matrix (angstroms):
                    1          2          3          4          5
     1  C    0.000000
     2  C    1.351005   0.000000
     3  C    2.529662   1.531036   0.000000
     4  C    3.169201   2.418886   1.537943   0.000000
     5  C    3.873115   2.863763   2.404606   1.537346   0.000000
     6  O    4.398786   3.734477   2.509744   1.424483   2.438990
     7  C    4.138763   3.071619   1.758633   2.723011   3.277520
     8  C    5.139997   3.949727   2.903887   3.822285   3.938010
     9  C    5.185187   3.866977   3.206674   3.984932   3.578671
    10  C    5.613146   4.368966   4.099119   5.079296   4.613641
    11  N    4.855136   3.723679   3.939408   4.999889   4.523047
    12  C    3.942009   2.991628   3.355701   4.674898   4.594305
    13  O    3.581023   2.795849   2.773388   4.289541   4.687267
    14  C    2.861813   2.232224   1.646736   3.119240   4.007698
    15  C    4.191948   3.525448   2.253027   3.207742   4.260752
    16  H    1.087640   2.103111   3.507570   4.136266   4.610859
    17  H    1.092251   2.176480   2.841406   3.306244   4.346702
    18  H    2.097671   1.075087   2.247282   3.063710   2.972691
    19  H    2.843732   2.556382   2.209029   1.099916   2.163654
    20  H    4.572615   3.380809   2.646116   2.155083   1.091220
    21  H    3.441890   2.424532   2.571313   2.188993   1.098193
    22  H    4.629299   3.787778   3.405600   2.219454   1.084429
    23  H    4.962588   4.091624   2.715101   1.961842   2.555565
    24  H    5.779640   4.699392   3.709319   4.766564   5.020194
    25  H    4.469129   3.118679   2.631832   3.230050   2.626443
    26  H    6.365558   5.191904   4.870169   5.958992   5.619405
    27  H    4.427896   3.724482   4.320871   5.664008   5.591043
    28  H    2.604125   2.535150   2.347405   3.649244   4.725116
    29  H    4.524812   3.957476   2.554016   2.959664   4.181315
    30  H    5.083559   4.492986   3.317589   4.288805   5.310502
                    6          7          8          9         10
     6  O    0.000000
     7  C    2.963471   0.000000
     8  C    4.042492   1.347556   0.000000
     9  C    4.498888   2.278028   1.400195   0.000000
    10  C    5.762756   3.332020   2.373024   1.365309   0.000000
    11  N    5.966169   3.734823   3.191397   2.223734   1.343050
    12  C    5.696164   3.360010   3.175349   2.734132   2.222966
    13  O    5.120009   2.606561   2.761919   3.025757   2.985485
    14  C    3.784493   1.878336   2.823367   3.490788   4.049065
    15  C    3.184688   1.476256   2.533175   3.686631   4.579815
    16  H    5.427149   5.054320   5.927013   5.814815   6.038106
    17  H    4.293120   4.401384   5.561001   5.835818   6.389468
    18  H    4.417991   3.456447   4.008524   3.566454   3.827265
    19  H    2.019727   3.683843   4.847948   4.985050   5.984011
    20  H    2.680126   2.883852   3.230352   2.779312   3.924044
    21  H    3.391344   3.656742   4.209362   3.605789   4.362762
    22  H    2.774014   4.257425   4.887228   4.485656   5.527621
    23  H    0.971688   2.592597   3.447696   3.942500   5.274274
    24  H    4.893798   2.080204   1.104285   2.219269   2.723978
    25  H    3.974057   2.330099   2.065922   1.078682   1.997156
    26  H    6.541577   3.869661   2.742720   2.162706   1.076689
    27  H    6.734778   4.392223   4.168368   3.730130   2.940518
    28  H    4.312449   2.911411   3.897335   4.574738   5.035972
    29  H    2.502442   2.079221   3.219724   4.325470   5.396180
    30  H    4.121560   2.273860   2.910403   4.228442   4.985375
                   11         12         13         14         15
    11  N    0.000000
    12  C    1.336110   0.000000
    13  O    2.646371   1.493636   0.000000
    14  C    3.893512   2.915366   1.695276   0.000000
    15  C    4.879914   4.183555   2.975739   1.681113   0.000000
    16  H    5.081689   4.170414   4.058999   3.705732   5.173460
    17  H    5.759494   4.780542   4.133363   3.048627   4.110131
    18  H    2.971826   2.448926   2.814793   2.866780   4.214005
    19  H    5.725448   5.284910   4.892287   3.641205   3.912647
    20  H    4.113060   4.394156   4.540953   4.057641   4.103972
    21  H    3.978868   4.065869   4.421619   4.032797   4.688067
    22  H    5.458461   5.624996   5.769961   5.038511   5.175599
    23  H    5.679871   5.555875   5.026698   3.868067   3.053745
    24  H    3.629182   3.493139   2.880485   3.156830   2.737091
    25  H    2.247190   2.687860   3.108287   3.343288   3.767286
    26  H    2.053326   2.703857   3.280891   4.514044   4.937567
    27  H    1.917434   1.100959   2.126769   3.691768   5.062687
    28  H    4.725964   3.583031   2.317417   1.100463   2.277188
    29  H    5.734998   5.128228   4.010514   2.547059   1.114599
    30  H    5.414993   4.693757   3.370949   2.402124   1.093702
                   16         17         18         19         20
    16  H    0.000000
    17  H    1.843477   0.000000
    18  H    2.401029   3.105809   0.000000
    19  H    3.752306   2.799673   3.313256   0.000000
    20  H    5.327565   5.083629   3.355811   3.058573   0.000000
    21  H    3.973310   4.145724   2.212845   2.565005   1.758183
    22  H    5.306176   5.025731   3.882011   2.527317   1.752954
    23  H    5.981364   4.976179   4.634025   2.830688   2.378203
    24  H    6.534634   6.135690   4.785042   5.749998   4.332437
    25  H    5.080422   5.182661   2.756623   4.161356   1.963095
    26  H    6.773537   7.091276   4.709440   6.880640   4.895931
    27  H    4.418395   5.284924   3.125281   6.175336   5.447756
    28  H    3.382676   2.509636   3.321575   3.882939   4.954281
    29  H    5.583491   4.266652   4.756665   3.588538   4.108560
    30  H    6.011961   4.943508   5.133090   4.977990   5.056094
                   21         22         23         24         25
    21  H    0.000000
    22  H    1.760678   0.000000
    23  H    3.558438   2.955310   0.000000
    24  H    5.262651   5.977967   4.297295   0.000000
    25  H    2.537889   3.552686   3.576956   3.061839   0.000000
    26  H    5.413365   6.547414   6.000360   2.654449   3.000738
    27  H    4.956696   6.597212   6.635957   4.313036   3.736668
    28  H    4.696176   5.695610   4.581164   4.112411   4.375494
    29  H    4.816939   4.932881   2.456481   3.553626   4.284916
    30  H    5.736182   6.218430   3.895710   2.685851   4.536123
                   26         27         28         29         30
    26  H    0.000000
    27  H    3.161854   0.000000
    28  H    5.447289   4.139208   0.000000
    29  H    5.834688   6.056775   2.964466   0.000000
    30  H    5.119034   5.464298   2.804027   1.736617   0.000000
 Stoichiometry    C12H15NO2
 Framework group  C1[X(C12H15NO2)]
 Deg. of freedom    84
 Full point group                 C1      NOp   1
 Largest Abelian subgroup         C1      NOp   1
 Largest concise Abelian subgroup C1      NOp   1
                         Standard orientation:                         
 ---------------------------------------------------------------------
 Center     Atomic      Atomic             Coordinates (Angstroms)
 Number     Number       Type             X           Y           Z
 ---------------------------------------------------------------------
      1          6           0       -1.352434    2.768892   -0.126850
      2          6           0       -0.709286    1.639214   -0.494822
      3          6           0       -1.003438    0.277753    0.140761
      4          6           0       -2.234125   -0.233884   -0.626640
      5          6           0       -1.650722   -0.608708   -1.998711
      6          8           0       -2.909835   -1.344123   -0.043597
      7          6           0       -0.101066   -1.052001    0.855092
      8          6           0        1.057821   -1.705531    0.641116
      9          6           0        1.544572   -1.498915   -0.655390
     10          6           0        2.790263   -0.958649   -0.798347
     11          7           0        2.702179    0.321328   -1.195442
     12          6           0        2.224467    1.115424   -0.232949
     13          8           0        1.511205    0.984499    1.072832
     14          6           0       -0.120156    0.727604    1.455747
     15          6           0       -0.700423   -0.687286    2.153971
     16          1           0       -1.019127    3.718922   -0.538323
     17          1           0       -2.157165    2.831820    0.608990
     18          1           0        0.067010    1.694625   -1.236514
     19          1           0       -3.002545    0.541484   -0.761363
     20          1           0       -0.953214   -1.438394   -1.872755
     21          1           0       -1.079447    0.224735   -2.428881
     22          1           0       -2.387258   -0.913975   -2.733771
     23          1           0       -2.300935   -2.101222   -0.028804
     24          1           0        1.695944   -1.853447    1.530141
     25          1           0        0.849564   -0.948380   -1.269743
     26          1           0        3.628885   -1.194099   -0.165469
     27          1           0        2.989804    1.902454   -0.149564
     28          1           0       -0.512932    1.578890    2.031993
     29          1           0       -1.726168   -1.123362    2.150124
     30          1           0       -0.291460   -0.995828    3.120271
 ---------------------------------------------------------------------
 Rotational constants (GHZ):           0.8696732           0.5552476           0.5047391
 Standard basis: 6-31G(2df,p) (6D, 7F)
 There are   540 symmetry adapted cartesian basis functions of A   symmetry.
 There are   495 symmetry adapted basis functions of A   symmetry.
   495 basis functions,   765 primitive gaussians,   540 cartesian basis functions
    55 alpha electrons       55 beta electrons
       nuclear repulsion energy      1040.9149162278 Hartrees.
 NAtoms=   30 NActive=   30 NUniq=   30 SFac= 1.00D+00 NAtFMM=   60 NAOKFM=F Big=F
 Integral buffers will be    131072 words long.
 Raffenetti 2 integral format.
 Two-electron integral symmetry is turned on.
 One-electron integrals computed using PRISM.
 PrsmSu:  requested number of processors reduced to:  12 ShMem   1 Linda.
 NBasis=   495 RedAO= T EigKep=  3.81D-04  NBF=   495
 NBsUse=   495 1.00D-06 EigRej= -1.00D+00 NBFU=   495
 ExpMin= 1.61D-01 ExpMax= 5.48D+03 ExpMxC= 8.25D+02 IAcc=3 IRadAn=         5 AccDes= 0.00D+00
 Harris functional with IExCor=  402 and IRadAn=       5 diagonalized for initial guess.
 HarFok:  IExCor=  402 AccDes= 0.00D+00 IRadAn=         5 IDoV= 1 UseB2=F ITyADJ=14
 ICtDFT=  3500011 ScaDFX=  1.000000  1.000000  1.000000  1.000000
 FoFCou: FMM=F IPFlag=           0 FMFlag=      100000 FMFlg1=           0
         NFxFlg=           0 DoJE=T BraDBF=F KetDBF=T FulRan=T
         wScrn=  0.000000 ICntrl=       500 IOpCl=  0 I1Cent=   200000004 NGrid=           0
         NMat0=    1 NMatS0=      1 NMatT0=    0 NMatD0=    1 NMtDS0=    0 NMtDT0=    0
 Petite list used in FoFCou.
 Requested convergence on RMS density matrix=1.00D-08 within 128 cycles.
 Requested convergence on MAX density matrix=1.00D-06.
 Requested convergence on             energy=1.00D-06.
 No special actions if energy rises.
 Integral accuracy reduced to 1.0D-05 until final iterations.
 Initial convergence to 1.0D-05 achieved.  Increase integral accuracy.
 SCF Done:  E(RB3LYP) =  -671.033436113     A.U. after   18 cycles
            NFock= 18  Conv=0.76D-08     -V/T= 2.0080

 **********************************************************************

            Population analysis using the SCF density.

 **********************************************************************

 Orbital symmetries:
       Occupied  (A) (A) (A) (A) (A) (A) (A) (A) (A) (A) (A) (A)
                 (A) (A) (A) (A) (A) (A) (A) (A) (A) (A) (A) (A)
                 (A) (A) (A) (A) (A) (A) (A) (A) (A) (A) (A) (A)
                 (A) (A) (A) (A) (A) (A) (A) (A) (A) (A) (A) (A)
                 (A) (A) (A) (A) (A) (A) (A)
       Virtual   (A) (A) (A) (A) (A) (A) (A) (A) (A) (A) (A) (A)
                 (A) (A) (A) (A) (A) (A) (A) (A) (A) (A) (A) (A)
                 (A) (A) (A) (A) (A) (A) (A) (A) (A) (A) (A) (A)
                 (A) (A) (A) (A) (A) (A) (A) (A) (A) (A) (A) (A)
                 (A) (A) (A) (A) (A) (A) (A) (A) (A) (A) (A) (A)
                 (A) (A) (A) (A) (A) (A) (A) (A) (A) (A) (A) (A)
                 (A) (A) (A) (A) (A) (A) (A) (A) (A) (A) (A) (A)
                 (A) (A) (A) (A) (A) (A) (A) (A) (A) (A) (A) (A)
                 (A) (A) (A) (A) (A) (A) (A) (A) (A) (A) (A) (A)
                 (A) (A) (A) (A) (A) (A) (A) (A) (A) (A) (A) (A)
                 (A) (A) (A) (A) (A) (A) (A) (A) (A) (A) (A) (A)
                 (A) (A) (A) (A) (A) (A) (A) (A) (A) (A) (A) (A)
                 (A) (A) (A) (A) (A) (A) (A) (A) (A) (A) (A) (A)
                 (A) (A) (A) (A) (A) (A) (A) (A) (A) (A) (A) (A)
                 (A) (A) (A) (A) (A) (A) (A) (A) (A) (A) (A) (A)
                 (A) (A) (A) (A) (A) (A) (A) (A) (A) (A) (A) (A)
                 (A) (A) (A) (A) (A) (A) (A) (A) (A) (A) (A) (A)
                 (A) (A) (A) (A) (A) (A) (A) (A) (A) (A) (A) (A)
                 (A) (A) (A) (A) (A) (A) (A) (A) (A) (A) (A) (A)
                 (A) (A) (A) (A) (A) (A) (A) (A) (A) (A) (A) (A)
                 (A) (A) (A) (A) (A) (A) (A) (A) (A) (A) (A) (A)
                 (A) (A) (A) (A) (A) (A) (A) (A) (A) (A) (A) (A)
                 (A) (A) (A) (A) (A) (A) (A) (A) (A) (A) (A) (A)
                 (A) (A) (A) (A) (A) (A) (A) (A) (A) (A) (A) (A)
                 (A) (A) (A) (A) (A) (A) (A) (A) (A) (A) (A) (A)
                 (A) (A) (A) (A) (A) (A) (A) (A) (A) (A) (A) (A)
                 (A) (A) (A) (A) (A) (A) (A) (A) (A) (A) (A) (A)
                 (A) (A) (A) (A) (A) (A) (A) (A) (A) (A) (A) (A)
                 (A) (A) (A) (A) (A) (A) (A) (A) (A) (A) (A) (A)
                 (A) (A) (A) (A) (A) (A) (A) (A) (A) (A) (A) (A)
                 (A) (A) (A) (A) (A) (A) (A) (A) (A) (A) (A) (A)
                 (A) (A) (A) (A) (A) (A) (A) (A) (A) (A) (A) (A)
                 (A) (A) (A) (A) (A) (A) (A) (A) (A) (A) (A) (A)
                 (A) (A) (A) (A) (A) (A) (A) (A) (A) (A) (A) (A)
                 (A) (A) (A) (A) (A) (A) (A) (A) (A) (A) (A) (A)
                 (A) (A) (A) (A) (A) (A) (A) (A) (A) (A) (A) (A)
                 (A) (A) (A) (A) (A) (A) (A) (A)
 The electronic state is 1-A.
 Alpha  occ. eigenvalues --  -19.17232 -19.14231 -14.34749 -10.30700 -10.29663
 Alpha  occ. eigenvalues --  -10.25524 -10.23001 -10.22078 -10.20758 -10.19858
 Alpha  occ. eigenvalues --  -10.19468 -10.18936 -10.18190 -10.18190 -10.17849
 Alpha  occ. eigenvalues --   -1.02171  -0.99557  -0.94216  -0.86696  -0.80783
 Alpha  occ. eigenvalues --   -0.77861  -0.75063  -0.71495  -0.66831  -0.63711
 Alpha  occ. eigenvalues --   -0.61933  -0.60300  -0.56996  -0.56329  -0.53245
 Alpha  occ. eigenvalues --   -0.49885  -0.48987  -0.47614  -0.46923  -0.45575
 Alpha  occ. eigenvalues --   -0.44952  -0.44383  -0.43744  -0.42962  -0.39880
 Alpha  occ. eigenvalues --   -0.38800  -0.38207  -0.38179  -0.36448  -0.36345
 Alpha  occ. eigenvalues --   -0.34035  -0.33896  -0.32027  -0.30141  -0.28714
 Alpha  occ. eigenvalues --   -0.27854  -0.25571  -0.24759  -0.22508  -0.17748
 Alpha virt. eigenvalues --   -0.07884  -0.04593  -0.01983   0.00263   0.00895
 Alpha virt. eigenvalues --    0.06621   0.08054   0.09479   0.10208   0.12093
 Alpha virt. eigenvalues --    0.12279   0.13146   0.13636   0.14411   0.14941
 Alpha virt. eigenvalues --    0.15551   0.16225   0.16956   0.17062   0.19066
 Alpha virt. eigenvalues --    0.19193   0.19645   0.20406   0.21249   0.23401
 Alpha virt. eigenvalues --    0.24802   0.27209   0.27760   0.29923   0.30382
 Alpha virt. eigenvalues --    0.31032   0.33729   0.34463   0.37203   0.39280
 Alpha virt. eigenvalues --    0.41341   0.41875   0.44435   0.45105   0.45629
 Alpha virt. eigenvalues --    0.46641   0.48014   0.49130   0.49745   0.50398
 Alpha virt. eigenvalues --    0.51156   0.51344   0.52762   0.53774   0.54074
 Alpha virt. eigenvalues --    0.54491   0.56135   0.56340   0.56553   0.57663
 Alpha virt. eigenvalues --    0.59320   0.59843   0.60032   0.61569   0.63969
 Alpha virt. eigenvalues --    0.64523   0.65618   0.66032   0.67609   0.68145
 Alpha virt. eigenvalues --    0.68713   0.70893   0.71165   0.71721   0.72430
 Alpha virt. eigenvalues --    0.73538   0.74014   0.74571   0.75312   0.75757
 Alpha virt. eigenvalues --    0.76094   0.77124   0.77751   0.78894   0.79454
 Alpha virt. eigenvalues --    0.79555   0.80668   0.80793   0.81491   0.82173
 Alpha virt. eigenvalues --    0.85069   0.85378   0.85656   0.87050   0.87844
 Alpha virt. eigenvalues --    0.89314   0.90674   0.91903   0.92897   0.93698
 Alpha virt. eigenvalues --    0.94280   0.95208   0.96622   0.97087   0.98546
 Alpha virt. eigenvalues --    0.99254   1.00937   1.01638   1.03119   1.05115
 Alpha virt. eigenvalues --    1.05843   1.06314   1.08234   1.09405   1.11357
 Alpha virt. eigenvalues --    1.13748   1.15044   1.16532   1.17697   1.18578
 Alpha virt. eigenvalues --    1.19632   1.22193   1.22575   1.24549   1.26100
 Alpha virt. eigenvalues --    1.28053   1.29224   1.30472   1.31476   1.33324
 Alpha virt. eigenvalues --    1.34525   1.35959   1.36641   1.39793   1.40226
 Alpha virt. eigenvalues --    1.41350   1.42447   1.43781   1.45431   1.46065
 Alpha virt. eigenvalues --    1.46492   1.47370   1.48237   1.49720   1.50371
 Alpha virt. eigenvalues --    1.51031   1.52057   1.52912   1.55641   1.57698
 Alpha virt. eigenvalues --    1.58778   1.59098   1.60217   1.61234   1.63030
 Alpha virt. eigenvalues --    1.64047   1.66081   1.66847   1.68094   1.68880
 Alpha virt. eigenvalues --    1.69288   1.70824   1.71912   1.73801   1.74646
 Alpha virt. eigenvalues --    1.76445   1.77824   1.78836   1.79765   1.80397
 Alpha virt. eigenvalues --    1.81637   1.83714   1.86310   1.86872   1.89038
 Alpha virt. eigenvalues --    1.90786   1.92698   1.95012   1.97432   1.99190
 Alpha virt. eigenvalues --    1.99384   2.01430   2.01748   2.04344   2.05925
 Alpha virt. eigenvalues --    2.08681   2.08964   2.13496   2.17655   2.20113
 Alpha virt. eigenvalues --    2.21350   2.22109   2.24108   2.24739   2.26608
 Alpha virt. eigenvalues --    2.28802   2.31129   2.32871   2.34199   2.35764
 Alpha virt. eigenvalues --    2.39677   2.42506   2.42674   2.46294   2.48437
 Alpha virt. eigenvalues --    2.49489   2.50852   2.53945   2.55065   2.56164
 Alpha virt. eigenvalues --    2.58439   2.61058   2.63203   2.64410   2.65945
 Alpha virt. eigenvalues --    2.68484   2.71052   2.71931   2.74697   2.75927
 Alpha virt. eigenvalues --    2.77165   2.79237   2.79845   2.81575   2.82131
 Alpha virt. eigenvalues --    2.83791   2.84766   2.86322   2.86559   2.87411
 Alpha virt. eigenvalues --    2.88644   2.89203   2.90663   2.91087   2.93401
 Alpha virt. eigenvalues --    2.94702   2.94958   2.95678   2.97783   2.98306
 Alpha virt. eigenvalues --    2.99332   3.01390   3.02531   3.03105   3.03864
 Alpha virt. eigenvalues --    3.04542   3.07854   3.08578   3.10014   3.11503
 Alpha virt. eigenvalues --    3.12616   3.13165   3.15426   3.16474   3.17760
 Alpha virt. eigenvalues --    3.19970   3.20388   3.21941   3.22396   3.22889
 Alpha virt. eigenvalues --    3.23776   3.25351   3.27563   3.29106   3.29464
 Alpha virt. eigenvalues --    3.31651   3.32257   3.33812   3.35239   3.35819
 Alpha virt. eigenvalues --    3.36585   3.38357   3.40143   3.41797   3.42230
 Alpha virt. eigenvalues --    3.42997   3.46640   3.47691   3.48787   3.49249
 Alpha virt. eigenvalues --    3.52516   3.53988   3.54929   3.57189   3.58753
 Alpha virt. eigenvalues --    3.60733   3.62663   3.63444   3.65306   3.67024
 Alpha virt. eigenvalues --    3.69472   3.70387   3.72369   3.74762   3.76616
 Alpha virt. eigenvalues --    3.78488   3.79002   3.81646   3.85373   3.85818
 Alpha virt. eigenvalues --    3.86949   3.88359   3.91133   3.94055   3.94894
 Alpha virt. eigenvalues --    3.95498   3.97905   3.99207   4.01001   4.02224
 Alpha virt. eigenvalues --    4.03741   4.05611   4.09575   4.10642   4.12756
 Alpha virt. eigenvalues --    4.14864   4.18624   4.19218   4.20302   4.21257
 Alpha virt. eigenvalues --    4.22459   4.24535   4.24859   4.27531   4.29798
 Alpha virt. eigenvalues --    4.29993   4.32779   4.32974   4.33806   4.35542
 Alpha virt. eigenvalues --    4.35719   4.38458   4.39988   4.42167   4.43323
 Alpha virt. eigenvalues --    4.43661   4.44884   4.46032   4.46314   4.48162
 Alpha virt. eigenvalues --    4.49394   4.49976   4.50447   4.51782   4.52889
 Alpha virt. eigenvalues --    4.53347   4.55824   4.56666   4.57986   4.58504
 Alpha virt. eigenvalues --    4.58761   4.59710   4.61632   4.62636   4.63234
 Alpha virt. eigenvalues --    4.64849   4.65986   4.67870   4.69182   4.71531
 Alpha virt. eigenvalues --    4.72782   4.73311   4.74095   4.76208   4.77421
 Alpha virt. eigenvalues --    4.78566   4.79687   4.82804   4.83454   4.84312
 Alpha virt. eigenvalues --    4.85372   4.86591   4.88262   4.89065   4.89984
 Alpha virt. eigenvalues --    4.91679   4.94632   4.95021   4.99328   5.00687
 Alpha virt. eigenvalues --    5.02268   5.03318   5.04502   5.07702   5.08255
 Alpha virt. eigenvalues --    5.10745   5.12943   5.14427   5.16990   5.19516
 Alpha virt. eigenvalues --    5.20478   5.21840   5.23703   5.24912   5.28398
 Alpha virt. eigenvalues --    5.29680   5.33156   5.33510   5.35620   5.36020
 Alpha virt. eigenvalues --    5.39251   5.40594   5.41353   5.44901   5.48769
 Alpha virt. eigenvalues --    5.49454   5.50089   5.51451   5.54375   5.56646
 Alpha virt. eigenvalues --    5.61116   5.63149   5.68321   5.69788   5.74341
 Alpha virt. eigenvalues --    5.78754   5.83317   5.88989   5.90499   5.97219
 Alpha virt. eigenvalues --    6.01406   6.08517   6.09620   6.17887   6.33275
 Alpha virt. eigenvalues --    6.40077   6.59665   7.08759   7.11849  10.29028
 Alpha virt. eigenvalues --   10.75910  10.95990  11.18520  11.37770  11.42055
 Alpha virt. eigenvalues --   11.58538  12.02013  12.20142  12.29860  12.37049
 Alpha virt. eigenvalues --   12.58366  12.76407  13.33502  13.38968  13.78601
          Condensed to atoms (all electrons):
               1          2          3          4          5          6
     1  C    5.016458   0.670260  -0.013494  -0.003966  -0.000395   0.000143
     2  C    0.670260   4.924760   0.327135  -0.057986  -0.006028   0.001453
     3  C   -0.013494   0.327135   4.941403   0.340510  -0.042400  -0.067732
     4  C   -0.003966  -0.057986   0.340510   4.686086   0.367461   0.394377
     5  C   -0.000395  -0.006028  -0.042400   0.367461   5.095587  -0.035360
     6  O    0.000143   0.001453  -0.067732   0.394377  -0.035360   7.840970
     7  C    0.002376  -0.012702   0.290410  -0.023374  -0.010394   0.001375
     8  C    0.000010  -0.002928  -0.035172   0.002058   0.000355  -0.000009
     9  C   -0.000008  -0.000270  -0.010973   0.000038  -0.004750  -0.000040
    10  C    0.000001   0.000434  -0.000223  -0.000070   0.000335  -0.000001
    11  N    0.000110  -0.002883   0.000577   0.000049   0.000026   0.000000
    12  C    0.002137  -0.001980   0.000331   0.000104  -0.000161  -0.000000
    13  O   -0.001630  -0.001284  -0.011839   0.000403  -0.000028  -0.000002
    14  C   -0.025025  -0.089457   0.294567  -0.005094   0.003466  -0.000731
    15  C    0.001439   0.006772  -0.050336  -0.002868   0.000411  -0.006961
    16  H    0.366404  -0.010798   0.002280   0.000183  -0.000035   0.000001
    17  H    0.361830  -0.020872  -0.008684   0.000605   0.000100  -0.000054
    18  H   -0.046687   0.335247  -0.048144   0.001156  -0.001493  -0.000081
    19  H    0.005626  -0.001169  -0.042390   0.355543  -0.048388  -0.016612
    20  H    0.000051   0.000247  -0.007159  -0.023971   0.367650  -0.002443
    21  H    0.001538   0.002971  -0.006551  -0.018075   0.354397   0.002971
    22  H   -0.000085   0.000486   0.003285  -0.016414   0.364157   0.000278
    23  H   -0.000001  -0.000043  -0.003092  -0.069212  -0.005413   0.306763
    24  H    0.000001   0.000045   0.003286  -0.000033  -0.000037  -0.000003
    25  H    0.000064   0.001164   0.004612  -0.002102  -0.000183   0.000027
    26  H    0.000000  -0.000008   0.000002  -0.000000  -0.000002   0.000000
    27  H   -0.000044  -0.000619   0.000043  -0.000001   0.000000  -0.000000
    28  H    0.004146   0.000736  -0.041213  -0.000353  -0.000095  -0.000032
    29  H    0.000011   0.000370  -0.014898   0.000587   0.000518   0.021705
    30  H   -0.000022  -0.000461   0.004753   0.000289  -0.000005   0.000102
               7          8          9         10         11         12
     1  C    0.002376   0.000010  -0.000008   0.000001   0.000110   0.002137
     2  C   -0.012702  -0.002928  -0.000270   0.000434  -0.002883  -0.001980
     3  C    0.290410  -0.035172  -0.010973  -0.000223   0.000577   0.000331
     4  C   -0.023374   0.002058   0.000038  -0.000070   0.000049   0.000104
     5  C   -0.010394   0.000355  -0.004750   0.000335   0.000026  -0.000161
     6  O    0.001375  -0.000009  -0.000040  -0.000001   0.000000  -0.000000
     7  C    4.855878   0.609217  -0.019468  -0.006400   0.002189   0.008465
     8  C    0.609217   5.008088   0.443947  -0.055699   0.006595   0.009439
     9  C   -0.019468   0.443947   4.992228   0.554531  -0.077034  -0.020917
    10  C   -0.006400  -0.055699   0.554531   4.932684   0.420163  -0.148693
    11  N    0.002189   0.006595  -0.077034   0.420163   6.439694   0.550197
    12  C    0.008465   0.009439  -0.020917  -0.148693   0.550197   4.842914
    13  O   -0.049979  -0.011185   0.003820   0.006391  -0.039194   0.309010
    14  C   -0.052373  -0.017838  -0.001295  -0.000811   0.000616  -0.020000
    15  C    0.350536  -0.040893   0.004602  -0.000050   0.000002   0.000075
    16  H   -0.000073   0.000000   0.000001   0.000000   0.000001   0.000006
    17  H   -0.000115   0.000002  -0.000000   0.000000  -0.000000   0.000012
    18  H   -0.003820   0.000408   0.000058   0.000679   0.003556   0.011019
    19  H    0.003358  -0.000100  -0.000039   0.000001  -0.000000  -0.000001
    20  H    0.002908  -0.000081  -0.001298   0.000403  -0.000144  -0.000032
    21  H    0.000203   0.000065  -0.000780   0.000020   0.000049  -0.000134
    22  H    0.000191  -0.000003   0.000169  -0.000007  -0.000002   0.000002
    23  H    0.018216   0.000127  -0.000102   0.000018  -0.000001  -0.000001
    24  H   -0.017186   0.339519  -0.037723  -0.002525  -0.000662   0.000433
    25  H   -0.010087  -0.055590   0.350630  -0.035490  -0.015981   0.001130
    26  H   -0.000159  -0.007851  -0.047271   0.380625  -0.047057  -0.008643
    27  H   -0.000427  -0.000130   0.000436   0.013691  -0.056631   0.350436
    28  H    0.009029   0.001305  -0.000110  -0.000086  -0.000040   0.001717
    29  H   -0.024041   0.003380  -0.000418  -0.000035   0.000002   0.000024
    30  H   -0.025575  -0.002397   0.000402   0.000044  -0.000002  -0.000046
              13         14         15         16         17         18
     1  C   -0.001630  -0.025025   0.001439   0.366404   0.361830  -0.046687
     2  C   -0.001284  -0.089457   0.006772  -0.010798  -0.020872   0.335247
     3  C   -0.011839   0.294567  -0.050336   0.002280  -0.008684  -0.048144
     4  C    0.000403  -0.005094  -0.002868   0.000183   0.000605   0.001156
     5  C   -0.000028   0.003466   0.000411  -0.000035   0.000100  -0.001493
     6  O   -0.000002  -0.000731  -0.006961   0.000001  -0.000054  -0.000081
     7  C   -0.049979  -0.052373   0.350536  -0.000073  -0.000115  -0.003820
     8  C   -0.011185  -0.017838  -0.040893   0.000000   0.000002   0.000408
     9  C    0.003820  -0.001295   0.004602   0.000001  -0.000000   0.000058
    10  C    0.006391  -0.000811  -0.000050   0.000000   0.000000   0.000679
    11  N   -0.039194   0.000616   0.000002   0.000001  -0.000000   0.003556
    12  C    0.309010  -0.020000   0.000075   0.000006   0.000012   0.011019
    13  O    7.989499   0.229670  -0.004652  -0.000049   0.000014  -0.004611
    14  C    0.229670   5.074787   0.244764   0.000154   0.001517   0.007986
    15  C   -0.004652   0.244764   5.205628  -0.000003  -0.000119  -0.000116
    16  H   -0.000049   0.000154  -0.000003   0.573989  -0.043988  -0.007391
    17  H    0.000014   0.001517  -0.000119  -0.043988   0.591147   0.006306
    18  H   -0.004611   0.007986  -0.000116  -0.007391   0.006306   0.638092
    19  H   -0.000007  -0.001106  -0.000403  -0.000163   0.000454  -0.000204
    20  H    0.000009   0.000143  -0.000046   0.000001  -0.000001  -0.000051
    21  H    0.000022   0.000564  -0.000066  -0.000003   0.000039   0.003698
    22  H    0.000000  -0.000123  -0.000008   0.000001  -0.000000  -0.000060
    23  H    0.000006   0.000299   0.000011   0.000000  -0.000001  -0.000000
    24  H    0.001640   0.000468  -0.007521  -0.000000  -0.000000  -0.000009
    25  H    0.000106  -0.001670   0.000774   0.000001  -0.000001   0.000393
    26  H    0.001235  -0.000089   0.000025   0.000000  -0.000000   0.000035
    27  H   -0.030656   0.001093  -0.000020   0.000019   0.000001   0.001190
    28  H   -0.028189   0.363628  -0.053072  -0.000346   0.001387   0.000122
    29  H    0.000072  -0.012001   0.338573  -0.000000  -0.000008  -0.000025
    30  H    0.000084  -0.019062   0.355109  -0.000000   0.000006   0.000013
              19         20         21         22         23         24
     1  C    0.005626   0.000051   0.001538  -0.000085  -0.000001   0.000001
     2  C   -0.001169   0.000247   0.002971   0.000486  -0.000043   0.000045
     3  C   -0.042390  -0.007159  -0.006551   0.003285  -0.003092   0.003286
     4  C    0.355543  -0.023971  -0.018075  -0.016414  -0.069212  -0.000033
     5  C   -0.048388   0.367650   0.354397   0.364157  -0.005413  -0.000037
     6  O   -0.016612  -0.002443   0.002971   0.000278   0.306763  -0.000003
     7  C    0.003358   0.002908   0.000203   0.000191   0.018216  -0.017186
     8  C   -0.000100  -0.000081   0.000065  -0.000003   0.000127   0.339519
     9  C   -0.000039  -0.001298  -0.000780   0.000169  -0.000102  -0.037723
    10  C    0.000001   0.000403   0.000020  -0.000007   0.000018  -0.002525
    11  N   -0.000000  -0.000144   0.000049  -0.000002  -0.000001  -0.000662
    12  C   -0.000001  -0.000032  -0.000134   0.000002  -0.000001   0.000433
    13  O   -0.000007   0.000009   0.000022   0.000000   0.000006   0.001640
    14  C   -0.001106   0.000143   0.000564  -0.000123   0.000299   0.000468
    15  C   -0.000403  -0.000046  -0.000066  -0.000008   0.000011  -0.007521
    16  H   -0.000163   0.000001  -0.000003   0.000001   0.000000  -0.000000
    17  H    0.000454  -0.000001   0.000039  -0.000000  -0.000001  -0.000000
    18  H   -0.000204  -0.000051   0.003698  -0.000060  -0.000000  -0.000009
    19  H    0.622694   0.004996   0.000329  -0.002497   0.007202   0.000002
    20  H    0.004996   0.568254  -0.030166  -0.028275   0.006245   0.000015
    21  H    0.000329  -0.030166   0.583669  -0.030025   0.000010  -0.000001
    22  H   -0.002497  -0.028275  -0.030025   0.586882  -0.000094   0.000000
    23  H    0.007202   0.006245   0.000010  -0.000094   0.457665   0.000044
    24  H    0.000002   0.000015  -0.000001   0.000000   0.000044   0.595179
    25  H    0.000108   0.005565   0.002647  -0.000253   0.000091   0.006461
    26  H   -0.000000  -0.000005   0.000000   0.000000   0.000000   0.004379
    27  H   -0.000000  -0.000001   0.000002  -0.000000   0.000000   0.000033
    28  H    0.000204  -0.000005  -0.000001   0.000001  -0.000008   0.000130
    29  H   -0.000091  -0.000038  -0.000032  -0.000003  -0.004280  -0.000090
    30  H    0.000018   0.000001   0.000000  -0.000000   0.000062   0.002420
              25         26         27         28         29         30
     1  C    0.000064   0.000000  -0.000044   0.004146   0.000011  -0.000022
     2  C    0.001164  -0.000008  -0.000619   0.000736   0.000370  -0.000461
     3  C    0.004612   0.000002   0.000043  -0.041213  -0.014898   0.004753
     4  C   -0.002102  -0.000000  -0.000001  -0.000353   0.000587   0.000289
     5  C   -0.000183  -0.000002   0.000000  -0.000095   0.000518  -0.000005
     6  O    0.000027   0.000000  -0.000000  -0.000032   0.021705   0.000102
     7  C   -0.010087  -0.000159  -0.000427   0.009029  -0.024041  -0.025575
     8  C   -0.055590  -0.007851  -0.000130   0.001305   0.003380  -0.002397
     9  C    0.350630  -0.047271   0.000436  -0.000110  -0.000418   0.000402
    10  C   -0.035490   0.380625   0.013691  -0.000086  -0.000035   0.000044
    11  N   -0.015981  -0.047057  -0.056631  -0.000040   0.000002  -0.000002
    12  C    0.001130  -0.008643   0.350436   0.001717   0.000024  -0.000046
    13  O    0.000106   0.001235  -0.030656  -0.028189   0.000072   0.000084
    14  C   -0.001670  -0.000089   0.001093   0.363628  -0.012001  -0.019062
    15  C    0.000774   0.000025  -0.000020  -0.053072   0.338573   0.355109
    16  H    0.000001   0.000000   0.000019  -0.000346  -0.000000  -0.000000
    17  H   -0.000001  -0.000000   0.000001   0.001387  -0.000008   0.000006
    18  H    0.000393   0.000035   0.001190   0.000122  -0.000025   0.000013
    19  H    0.000108  -0.000000  -0.000000   0.000204  -0.000091   0.000018
    20  H    0.005565  -0.000005  -0.000001  -0.000005  -0.000038   0.000001
    21  H    0.002647   0.000000   0.000002  -0.000001  -0.000032   0.000000
    22  H   -0.000253   0.000000  -0.000000   0.000001  -0.000003  -0.000000
    23  H    0.000091   0.000000   0.000000  -0.000008  -0.004280   0.000062
    24  H    0.006461   0.004379   0.000033   0.000130  -0.000090   0.002420
    25  H    0.640139   0.007703   0.000199   0.000042  -0.000063   0.000009
    26  H    0.007703   0.589639   0.000376  -0.000000  -0.000001   0.000004
    27  H    0.000199   0.000376   0.568048  -0.000108  -0.000000   0.000001
    28  H    0.000042  -0.000000  -0.000108   0.597043   0.000754   0.000271
    29  H   -0.000063  -0.000001  -0.000000   0.000754   0.595161  -0.052929
    30  H    0.000009   0.000004   0.000001   0.000271  -0.052929   0.635102
 Mulliken charges:
               1
     1  C   -0.341247
     2  C   -0.062594
     3  C    0.191105
     4  C    0.074068
     5  C   -0.399299
     6  O   -0.440104
     7  C    0.101822
     8  C   -0.194638
     9  C   -0.128367
    10  C   -0.059930
    11  N   -0.184192
    12  C    0.113158
    13  O   -0.358677
    14  C    0.022956
    15  C   -0.341586
    16  H    0.119809
    17  H    0.110424
    18  H    0.102736
    19  H    0.112635
    20  H    0.137229
    21  H    0.132636
    22  H    0.122395
    23  H    0.285490
    24  H    0.111733
    25  H    0.099555
    26  H    0.127064
    27  H    0.153070
    28  H    0.143143
    29  H    0.147797
    30  H    0.101811
 Sum of Mulliken charges =  -0.00000
 Mulliken charges with hydrogens summed into heavy atoms:
               1
     1  C   -0.111014
     2  C    0.040142
     3  C    0.191105
     4  C    0.186703
     5  C   -0.007038
     6  O   -0.154615
     7  C    0.101822
     8  C   -0.082905
     9  C   -0.028812
    10  C    0.067133
    11  N   -0.184192
    12  C    0.266229
    13  O   -0.358677
    14  C    0.166098
    15  C   -0.091978
 Electronic spatial extent (au):  <R**2>=           2683.2559
 Charge=             -0.0000 electrons
 Dipole moment (field-independent basis, Debye):
    X=              0.2861    Y=              0.2118    Z=              0.6424  Tot=              0.7344
 Quadrupole moment (field-independent basis, Debye-Ang):
   XX=            -92.7820   YY=            -86.9213   ZZ=            -89.0370
   XY=             -2.6182   XZ=              3.5663   YZ=             -1.1127
 Traceless Quadrupole moment (field-independent basis, Debye-Ang):
   XX=             -3.2019   YY=              2.6588   ZZ=              0.5431
   XY=             -2.6182   XZ=              3.5663   YZ=             -1.1127
 Octapole moment (field-independent basis, Debye-Ang**2):
  XXX=             31.4202  YYY=              6.2278  ZZZ=              9.6699  XYY=             -5.0511
  XXY=              6.9272  XXZ=             10.8369  XZZ=            -15.5195  YZZ=             -5.4518
  YYZ=              3.5911  XYZ=             -6.2325
 Hexadecapole moment (field-independent basis, Debye-Ang**3):
 XXXX=          -1802.5969 YYYY=           -979.4438 ZZZZ=           -770.9840 XXXY=            -27.0598
 XXXZ=             58.3267 YYYX=             53.1690 YYYZ=             -5.7181 ZZZX=             23.2733
 ZZZY=              0.6792 XXYY=           -448.2618 XXZZ=           -447.6160 YYZZ=           -298.5513
 XXYZ=              3.9655 YYXZ=             -2.9731 ZZXY=              5.2691
 N-N= 1.040914916228D+03 E-N=-3.643437832740D+03  KE= 6.657091919533D+02
 PrsmSu:  requested number of processors reduced to:  13 ShMem   1 Linda.
 Calling FoFJK, ICntrl=      2127 FMM=F ISym2X=0 I1Cent= 0 IOpClX= 0 NMat=1 NMatS=1 NMatT=0.
 ***** Axes restored to original set *****
 -------------------------------------------------------------------
 Center     Atomic                   Forces (Hartrees/Bohr)
 Number     Number              X              Y              Z
 -------------------------------------------------------------------
      1        6           0.016274261    0.008201130   -0.001077695
      2        6          -0.004024861    0.021686845   -0.010552831
      3        6           0.000961370    0.024499176    0.073123405
      4        6           0.005822812   -0.030637947   -0.011423362
      5        6           0.002131593    0.007673625    0.004631535
      6        8          -0.000055863    0.002674866    0.001125204
      7        6           0.012956673   -0.003449032   -0.026088345
      8        6           0.001595175   -0.014914135   -0.010820140
      9        6           0.008826048    0.022270900    0.022061955
     10        6           0.023401179   -0.046472362   -0.043857452
     11        7          -0.065683099    0.001697772    0.050661671
     12        6           0.022167731    0.006095820    0.019305382
     13        8          -0.004532943    0.013818167   -0.025733685
     14        6          -0.010411009   -0.079538649   -0.062823151
     15        6           0.013316433    0.018343417    0.031172136
     16        1           0.000485942   -0.000374654   -0.004642489
     17        1           0.006170029    0.001759406    0.000314694
     18        1          -0.003218614    0.010364922    0.003533808
     19        1           0.003187756   -0.003051795    0.005712826
     20        1           0.001638283   -0.000446855   -0.001510791
     21        1           0.001139052   -0.002681724   -0.003816913
     22        1          -0.004147907   -0.005725625   -0.006923645
     23        1          -0.006339630    0.002558886    0.000432057
     24        1           0.012511620    0.001333220   -0.016307322
     25        1           0.007671559    0.000410623   -0.011525900
     26        1           0.010555659    0.004478273    0.005570668
     27        1          -0.034776072   -0.007141748   -0.013153397
     28        1           0.007464382    0.024789871    0.018680517
     29        1          -0.034449491    0.010763085    0.006862579
     30        1           0.009361932    0.011014523    0.007068681
 -------------------------------------------------------------------
 Cartesian Forces:  Max     0.079538649 RMS     0.021279575

 GradGradGradGradGradGradGradGradGradGradGradGradGradGradGradGradGradGrad
 Berny optimization.
 FormGI is forming the generalized inverse of G from B-inverse, IUseBI=4.
 Internal  Forces:  Max     0.151532929 RMS     0.026938619
 Search for a local minimum.
 Step number   1 out of a maximum of  162
 All quantities printed in internal units (Hartrees-Bohrs-Radians)
 Mixed Optimization -- RFO/linear search
 Second derivative matrix not updated -- first step.
 ITU=  0
     Eigenvalues ---    0.00264   0.00272   0.00355   0.00924   0.01121
     Eigenvalues ---    0.01251   0.01323   0.01368   0.01887   0.02086
     Eigenvalues ---    0.02359   0.02445   0.02537   0.02548   0.02737
     Eigenvalues ---    0.02750   0.02782   0.03093   0.03608   0.03891
     Eigenvalues ---    0.04021   0.04217   0.04672   0.04746   0.05042
     Eigenvalues ---    0.05074   0.05137   0.05637   0.06416   0.07016
     Eigenvalues ---    0.08740   0.10455   0.13565   0.14176   0.14526
     Eigenvalues ---    0.14781   0.15106   0.15472   0.15538   0.15992
     Eigenvalues ---    0.16000   0.16000   0.16000   0.16000   0.16000
     Eigenvalues ---    0.16000   0.17399   0.18368   0.19864   0.20228
     Eigenvalues ---    0.22002   0.22283   0.22343   0.22767   0.22791
     Eigenvalues ---    0.23108   0.25000   0.28702   0.28755   0.29328
     Eigenvalues ---    0.29908   0.32118   0.33054   0.33213   0.33576
     Eigenvalues ---    0.33631   0.33691   0.33883   0.34388   0.34554
     Eigenvalues ---    0.34672   0.35087   0.35464   0.36154   0.36397
     Eigenvalues ---    0.36595   0.41792   0.45588   0.51889   0.53034
     Eigenvalues ---    0.54808   0.55545   0.56527   0.58086
 RFO step:  Lambda=-2.83641292D-01 EMin= 2.64040281D-03
 Linear search not attempted -- first point.
 Maximum step size (   0.300) exceeded in Quadratic search.
    -- Step size scaled by   0.678
 Iteration  1 RMS(Cart)=  0.24856240 RMS(Int)=  0.02573159
 Iteration  2 RMS(Cart)=  0.20803317 RMS(Int)=  0.01136658
 Iteration  3 RMS(Cart)=  0.01751974 RMS(Int)=  0.00122816
 Iteration  4 RMS(Cart)=  0.00008643 RMS(Int)=  0.00122732
 Iteration  5 RMS(Cart)=  0.00000008 RMS(Int)=  0.00122732
 Variable       Old X    -DE/DX   Delta X   Delta X   Delta X     New X
                                 (Linear)    (Quad)   (Total)
    R1        2.55303  -0.02445   0.00000  -0.01993  -0.01993   2.53310
    R2        2.05534  -0.00188   0.00000  -0.00201  -0.00201   2.05333
    R3        2.06405  -0.00431   0.00000  -0.00465  -0.00465   2.05941
    R4        2.89324   0.01718   0.00000   0.02019   0.02019   2.91343
    R5        2.03162   0.00914   0.00000   0.00954   0.00954   2.04116
    R6        2.90629   0.01411   0.00000   0.01676   0.01676   2.92305
    R7        3.32333  -0.02489   0.00000  -0.03849  -0.03859   3.28474
    R8        3.11188  -0.01596   0.00000  -0.02273  -0.02289   3.08899
    R9        2.90516   0.00153   0.00000   0.00182   0.00182   2.90698
   R10        2.69188  -0.00772   0.00000  -0.00746  -0.00746   2.68442
   R11        2.07854  -0.00519   0.00000  -0.00567  -0.00567   2.07287
   R12        2.06211   0.00106   0.00000   0.00114   0.00114   2.06325
   R13        2.07528  -0.00421   0.00000  -0.00458  -0.00458   2.07070
   R14        2.04927   0.00588   0.00000   0.00625   0.00625   2.05552
   R15        1.83622  -0.00592   0.00000  -0.00493  -0.00493   1.83129
   R16        2.54651  -0.03219   0.00000  -0.02600  -0.02600   2.52051
   R17        2.78972  -0.00588   0.00000  -0.00618  -0.00601   2.78371
   R18        2.64598  -0.00915   0.00000  -0.00839  -0.00839   2.63759
   R19        2.08680  -0.01110   0.00000  -0.01222  -0.01222   2.07457
   R20        2.58006  -0.02544   0.00000  -0.02149  -0.02149   2.55857
   R21        2.03841   0.00267   0.00000   0.00280   0.00280   2.04121
   R22        2.53800   0.08012   0.00000   0.06398   0.06398   2.60198
   R23        2.03465   0.00891   0.00000   0.00932   0.00932   2.04397
   R24        2.52488  -0.00016   0.00000  -0.00012  -0.00012   2.52476
   R25        2.82256  -0.01496   0.00000  -0.01651  -0.01651   2.80605
   R26        2.08051  -0.00163   0.00000  -0.00178  -0.00178   2.07873
   R27        3.17684  -0.01478   0.00000  -0.02056  -0.02045   3.15640
   R28        2.07957  -0.01070   0.00000  -0.01170  -0.01170   2.06788
   R29        2.10629  -0.01034   0.00000  -0.01159  -0.01159   2.09470
   R30        2.06680   0.00091   0.00000   0.00098   0.00098   2.06778
    A1        2.07311   0.00384   0.00000   0.00591   0.00591   2.07901
    A2        2.19248  -0.00673   0.00000  -0.01025  -0.01025   2.18223
    A3        2.01565   0.00307   0.00000   0.00473   0.00472   2.02037
    A4        2.14008  -0.00376   0.00000  -0.00503  -0.00504   2.13504
    A5        2.08123  -0.00491   0.00000  -0.00781  -0.00782   2.07341
    A6        2.06117   0.00879   0.00000   0.01311   0.01311   2.07428
    A7        1.81567   0.00159   0.00000   0.00647   0.00684   1.82251
    A8        2.40747  -0.00526   0.00000  -0.01060  -0.01064   2.39684
    A9        1.55632   0.01862   0.00000   0.03152   0.03195   1.58827
   A10        1.94092   0.00532   0.00000   0.00504   0.00470   1.94562
   A11        2.73521  -0.03012   0.00000  -0.05634  -0.05636   2.67885
   A12        1.16688  -0.00835   0.00000  -0.00975  -0.00937   1.15751
   A13        1.79546   0.02414   0.00000   0.03507   0.03513   1.83059
   A14        2.02043  -0.00691   0.00000  -0.00911  -0.00911   2.01132
   A15        1.96671  -0.00848   0.00000  -0.01320  -0.01326   1.95344
   A16        1.93401  -0.00966   0.00000  -0.01215  -0.01214   1.92187
   A17        1.90463  -0.00457   0.00000  -0.00546  -0.00539   1.89924
   A18        1.84228   0.00484   0.00000   0.00420   0.00405   1.84634
   A19        1.90173   0.00302   0.00000   0.00496   0.00494   1.90667
   A20        1.94118   0.00393   0.00000   0.00627   0.00625   1.94742
   A21        1.99967  -0.01278   0.00000  -0.02017  -0.02017   1.97950
   A22        1.86475   0.00006   0.00000   0.00141   0.00137   1.86611
   A23        1.87376   0.00337   0.00000   0.00459   0.00459   1.87834
   A24        1.87700   0.00315   0.00000   0.00419   0.00419   1.88119
   A25        1.89258  -0.00627   0.00000  -0.00958  -0.00958   1.88299
   A26        2.40905  -0.02502   0.00000  -0.03929  -0.03945   2.36960
   A27        1.53304   0.02349   0.00000   0.03420   0.03379   1.56683
   A28        2.22519  -0.00950   0.00000  -0.01873  -0.01955   2.20564
   A29        1.95457  -0.05398   0.00000  -0.07943  -0.08491   1.86966
   A30        2.01981   0.00953   0.00000   0.00016  -0.00617   2.01364
   A31        2.17042   0.00004   0.00000  -0.01329  -0.01916   2.15126
   A32        2.06294  -0.15153   0.00000  -0.20478  -0.20798   1.85496
   A33        1.95918   0.05078   0.00000   0.06018   0.05357   2.01276
   A34        1.90315   0.02130   0.00000   0.01088   0.00820   1.91135
   A35        1.92649  -0.03613   0.00000  -0.05169  -0.05315   1.87335
   A36        2.16829  -0.01061   0.00000  -0.02404  -0.02511   2.14318
   A37        2.01893   0.02131   0.00000   0.02521   0.02317   2.04211
   A38        1.95722   0.04061   0.00000   0.05160   0.05160   2.00882
   A39        2.41646  -0.01731   0.00000  -0.01971  -0.02001   2.39645
   A40        1.80378   0.03455   0.00000   0.05675   0.05646   1.86024
   A41        1.90541  -0.00489   0.00000  -0.00490  -0.00532   1.90010
   A42        1.48730   0.02135   0.00000   0.03057   0.03020   1.51750
   A43        2.02420   0.01625   0.00000   0.03208   0.03085   2.05504
   A44        1.88639   0.01245   0.00000   0.02848   0.02733   1.91372
   A45        1.26858  -0.01359   0.00000  -0.01831  -0.01795   1.25063
   A46        1.84828   0.01204   0.00000   0.02345   0.02330   1.87158
   A47        2.16018  -0.00231   0.00000  -0.00933  -0.00967   2.15051
   A48        2.27248  -0.01308   0.00000  -0.02455  -0.02423   2.24825
   A49        2.06612   0.00142   0.00000  -0.00108  -0.00152   2.06460
   A50        1.80986   0.01021   0.00000   0.02058   0.02056   1.83042
    D1        3.02404   0.00561   0.00000   0.01235   0.01233   3.03637
    D2       -0.07652   0.00191   0.00000   0.00404   0.00407  -0.07245
    D3       -0.04734   0.00225   0.00000   0.00503   0.00500  -0.04234
    D4        3.13528  -0.00145   0.00000  -0.00329  -0.00326   3.13202
    D5        1.45115  -0.01356   0.00000  -0.02515  -0.02492   1.42623
    D6       -2.27587  -0.00711   0.00000  -0.01917  -0.01908  -2.29495
    D7       -1.35204   0.00910   0.00000   0.01726   0.01689  -1.33515
    D8       -1.73103  -0.01020   0.00000  -0.01739  -0.01713  -1.74816
    D9        0.82513  -0.00375   0.00000  -0.01141  -0.01128   0.81385
   D10        1.74897   0.01245   0.00000   0.02502   0.02468   1.77365
   D11        1.26956  -0.00157   0.00000  -0.00539  -0.00546   1.26411
   D12       -2.90188  -0.00051   0.00000  -0.00099  -0.00106  -2.90293
   D13       -0.77902  -0.00636   0.00000  -0.01334  -0.01331  -0.79232
   D14       -1.46371  -0.00236   0.00000  -0.00336  -0.00345  -1.46716
   D15        0.64803  -0.00130   0.00000   0.00104   0.00095   0.64898
   D16        2.77089  -0.00716   0.00000  -0.01131  -0.01130   2.75959
   D17       -2.86890   0.00671   0.00000   0.01002   0.01008  -2.85882
   D18       -0.75716   0.00776   0.00000   0.01442   0.01448  -0.74268
   D19        1.36570   0.00191   0.00000   0.00208   0.00223   1.36794
   D20       -0.66753   0.03678   0.00000   0.08401   0.08409  -0.58345
   D21        1.95607   0.01829   0.00000   0.03995   0.03992   1.99599
   D22        1.86144   0.04244   0.00000   0.09011   0.09021   1.95165
   D23       -1.79814   0.02395   0.00000   0.04605   0.04604  -1.75210
   D24       -1.71801   0.00872   0.00000   0.02792   0.02782  -1.69019
   D25        0.90559  -0.00977   0.00000  -0.01614  -0.01635   0.88925
   D26        2.99655   0.02125   0.00000   0.04033   0.04053   3.03708
   D27        1.11508  -0.00410   0.00000  -0.00844  -0.00894   1.10614
   D28        0.80736   0.01279   0.00000   0.02341   0.02408   0.83144
   D29       -1.07411  -0.01256   0.00000  -0.02536  -0.02538  -1.09949
   D30       -0.76541   0.00579   0.00000   0.00929   0.00962  -0.75580
   D31       -2.64688  -0.01956   0.00000  -0.03947  -0.03985  -2.68673
   D32        1.13579   0.00229   0.00000   0.00535   0.00533   1.14112
   D33       -0.91532  -0.00196   0.00000  -0.00313  -0.00317  -0.91849
   D34       -3.04840   0.00033   0.00000   0.00146   0.00143  -3.04697
   D35       -1.03401   0.00087   0.00000   0.00116   0.00119  -1.03282
   D36       -3.08511  -0.00338   0.00000  -0.00732  -0.00732  -3.09243
   D37        1.06499  -0.00110   0.00000  -0.00274  -0.00271   1.06228
   D38       -3.05536   0.00320   0.00000   0.00621   0.00623  -3.04913
   D39        1.17672  -0.00105   0.00000  -0.00227  -0.00227   1.17445
   D40       -0.95636   0.00124   0.00000   0.00232   0.00233  -0.95403
   D41       -1.10033  -0.01027   0.00000  -0.01630  -0.01632  -1.11665
   D42        0.93506   0.00933   0.00000   0.01418   0.01416   0.94922
   D43        2.99477   0.00169   0.00000   0.00383   0.00386   2.99863
   D44       -0.32483   0.07148   0.00000   0.15101   0.15067  -0.17416
   D45        2.30146  -0.00378   0.00000  -0.00965  -0.00818   2.29327
   D46       -2.79306   0.09227   0.00000   0.20225   0.20078  -2.59228
   D47       -0.16678   0.01700   0.00000   0.04158   0.04193  -0.12485
   D48       -0.83654   0.00828   0.00000   0.01324   0.01339  -0.82314
   D49        1.39568  -0.00920   0.00000  -0.01887  -0.01876   1.37692
   D50       -2.80847   0.01451   0.00000   0.02491   0.02498  -2.78349
   D51        1.87453  -0.01605   0.00000  -0.03573  -0.03609   1.83844
   D52       -2.17644  -0.03353   0.00000  -0.06783  -0.06824  -2.24468
   D53       -0.09740  -0.00982   0.00000  -0.02406  -0.02450  -0.12190
   D54        2.12841  -0.11986   0.00000  -0.25425  -0.25326   1.87516
   D55       -0.11032  -0.05929   0.00000  -0.13748  -0.13586  -0.24618
   D56       -0.44539  -0.03800   0.00000  -0.07914  -0.08075  -0.52614
   D57       -2.68412   0.02256   0.00000   0.03763   0.03664  -2.64748
   D58       -1.84921   0.03927   0.00000   0.08255   0.07891  -1.77030
   D59        0.66893   0.00415   0.00000   0.00776   0.00567   0.67460
   D60        0.41559  -0.00202   0.00000  -0.00308  -0.00099   0.41460
   D61        2.93373  -0.03713   0.00000  -0.07787  -0.07423   2.85950
   D62        1.22083  -0.09238   0.00000  -0.19903  -0.19957   1.02126
   D63       -1.35558  -0.05034   0.00000  -0.11501  -0.11447  -1.47005
   D64       -0.26577  -0.01277   0.00000  -0.03112  -0.03148  -0.29724
   D65        2.19440   0.01724   0.00000   0.04092   0.04128   2.23568
   D66        2.43549   0.04000   0.00000   0.08868   0.08847   2.52396
   D67        0.91896  -0.01407   0.00000  -0.02293  -0.02292   0.89604
   D68       -0.76428  -0.02182   0.00000  -0.04448  -0.04474  -0.80902
   D69        3.00568  -0.02280   0.00000  -0.04162  -0.04169   2.96399
   D70        2.93987   0.01075   0.00000   0.02259   0.02304   2.96291
   D71        1.25663   0.00299   0.00000   0.00103   0.00123   1.25786
   D72       -1.25659   0.00201   0.00000   0.00389   0.00428  -1.25232
         Item               Value     Threshold  Converged?
 Maximum Force            0.151533     0.000450     NO 
 RMS     Force            0.026939     0.000300     NO 
 Maximum Displacement     2.340298     0.001800     NO 
 RMS     Displacement     0.445406     0.001200     NO 
 Predicted change in Energy=-1.778616D-01
 GradGradGradGradGradGradGradGradGradGradGradGradGradGradGradGradGradGrad

                          Input orientation:                          
 ---------------------------------------------------------------------
 Center     Atomic      Atomic             Coordinates (Angstroms)
 Number     Number       Type             X           Y           Z
 ---------------------------------------------------------------------
      1          6           0        1.260424    0.479258    0.107501
      2          6           0        2.583494    0.612191   -0.061754
      3          6           0        3.507607   -0.595389   -0.316049
      4          6           0        3.366094   -0.876621   -1.830483
      5          6           0        4.119975    0.274455   -2.518293
      6          8           0        3.881638   -2.126892   -2.265167
      7          6           0        5.009665   -1.208889    0.307500
      8          6           0        6.133223   -0.675774    0.789594
      9          6           0        6.078478    0.695901    0.537320
     10          6           0        5.857018    1.293046    1.732109
     11          7           0        4.520797    1.620985    1.785436
     12          6           0        3.679013    0.592181    1.651354
     13          8           0        3.737022   -0.808979    1.163188
     14          6           0        3.440527   -1.015544    1.262229
     15          6           0        4.300827   -2.384267    0.842275
     16          1           0        0.672184    1.350831    0.381328
     17          1           0        0.713311   -0.461268    0.046486
     18          1           0        3.021174    1.596907    0.012175
     19          1           0        2.318329   -0.856912   -2.154557
     20          1           0        5.182120    0.205002   -2.275181
     21          1           0        3.774653    1.251698   -2.162681
     22          1           0        4.028905    0.264163   -3.602159
     23          1           0        4.838358   -2.124204   -2.110924
     24          1           0        6.485462   -1.099729    1.739011
     25          1           0        5.320663    1.006215   -0.167078
     26          1           0        6.316512    0.953896    2.650668
     27          1           0        2.981541    0.644488    2.500371
     28          1           0        2.467568   -1.303739    1.671772
     29          1           0        4.131177   -3.078901   -0.004718
     30          1           0        4.700929   -3.011811    1.644414
 ---------------------------------------------------------------------
                    Distance matrix (angstroms):
                    1          2          3          4          5
     1  C    0.000000
     2  C    1.340460   0.000000
     3  C    2.526676   1.541720   0.000000
     4  C    3.166707   2.440784   1.546812   0.000000
     5  C    3.887643   2.917092   2.445711   1.538309   0.000000
     6  O    4.392305   3.747371   2.506884   1.420533   2.426385
     7  C    4.116631   3.055975   1.738210   2.717112   3.313150
     8  C    5.054060   3.870946   2.850047   3.816037   3.987257
     9  C    4.842038   3.546944   3.000841   3.928911   3.653782
    10  C    4.942700   3.794399   3.644292   4.858417   4.703271
    11  N    3.840449   2.860580   3.217936   4.543814   4.527238
    12  C    2.871552   2.033544   2.304426   3.791898   4.204920
    13  O    2.984556   2.202461   1.512083   3.017321   3.856654
    14  C    2.884559   2.266486   1.634622   3.096724   4.051924
    15  C    4.240722   3.570050   2.273983   3.207858   4.288931
    16  H    1.086576   2.096430   3.509092   4.136520   4.631809
    17  H    1.089791   2.159078   2.820906   3.276094   4.327210
    18  H    2.087695   1.080136   2.269473   3.103659   3.059332
    19  H    2.832211   2.570681   2.205195   1.096915   2.158292
    20  H    4.596965   3.437720   2.698669   2.160003   1.091823
    21  H    3.474440   2.498343   2.625470   2.192491   1.095769
    22  H    4.633825   3.839897   3.436438   2.208969   1.087735
    23  H    4.949852   4.095286   2.707351   1.950044   2.536846
    24  H    5.697022   4.625882   3.653116   4.745684   5.060489
    25  H    4.103489   2.767389   2.423737   3.183132   2.739587
    26  H    5.679525   4.627031   4.369398   5.668904   5.657258
    27  H    2.952182   2.593062   3.121900   4.606294   5.159452
    28  H    2.661432   2.586376   2.352631   3.640820   4.772609
    29  H    4.573217   4.002841   2.579458   2.961217   4.190845
    30  H    5.136803   4.530776   3.332646   4.291356   5.335277
                    6          7          8          9         10
     6  O    0.000000
     7  C    2.955299   0.000000
     8  C    4.062874   1.333795   0.000000
[...]
 00000997,0.00001633,-0.00001754,-0.00003760,-0.00002732,0.00024690,-0.
 00013805,-0.00013359,-0.00012466,-0.00034618,0.00001917,0.00000612,-0.
 00001343,-0.00001431,0.00001632,-0.00002077,0.00000538,0.00001523,-0.0
 0001024,0.00000918,-0.00000025,-0.00003491,-0.11120642,0.12456536,-0.0
 0004477,0.00038388,-0.00011076,-0.00083711,-0.00060638,0.00001441,0.00
 058177,-0.00080881,0.00728228,0.00103225,0.00018777,0.00032852,0.00010
 983,-0.00005638,-0.00013016,0.00003927,-0.00040607,-0.00020283,-0.0174
 7614,0.01297558,-0.00718972,-0.09777980,0.05508686,-0.09739865,0.00637
 648,-0.00279488,0.00667293,-0.00072874,-0.00174238,-0.00150859,-0.0003
 1298,0.00071324,0.00125393,0.00048011,-0.00009294,-0.00023353,-0.00000
 148,0.00002486,0.00026362,-0.00083054,0.00032830,-0.00037629,0.0016691
 1,-0.00489196,-0.00195010,-0.00006881,0.00007659,0.00015314,-0.0000091
 5,-0.00003559,-0.00005932,0.00007418,0.00005498,-0.00012392,0.00001030
 ,-0.00000353,0.00011970,-0.00005486,0.00005030,-0.00000371,0.00002356,
 0.00000123,0.00002696,-0.00003225,0.00000011,-0.00005827,-0.00009689,0
 .00005063,0.00004006,0.10902450,-0.05488559,0.09264608,-0.00065531,0.0
 0004334,0.00013075,-0.00344644,-0.00064239,-0.00269931,0.00052057,-0.0
 0034896,-0.00004855,-0.00010994,0.00018289,-0.00012622,0.00005602,-0.0
 0000139,0.00003842,-0.00000397,0.00005422,0.00019814,0.00005067,-0.000
 61618,-0.00173854,-0.00773584,0.00540902,-0.00461167,-0.12721552,0.120
 22176,-0.08881548,0.00677593,-0.00272024,0.00423537,0.00100813,-0.0050
 5228,-0.00268952,-0.00122305,-0.00070645,-0.00000845,0.00052282,0.0007
 9984,0.00048273,-0.00050929,-0.00026507,-0.00043799,0.00028878,0.00082
 956,0.00056359,-0.00000473,-0.00001082,0.00000041,0.00007050,0.0000176
 0,0.00014912,-0.00239514,-0.00125020,-0.00260362,-0.00002303,-0.000054
 85,-0.00003543,-0.00002966,0.00002589,0.00003457,0.00002466,-0.0000035
 1,-0.00004485,-0.00003499,-0.00000130,0.00002679,0.00003823,0.00004965
 ,-0.00002153,0.00096125,0.00297952,-0.00040547,0.12955209,0.00027363,0
 .00073406,-0.00006097,-0.00055428,-0.00128129,0.00067531,-0.00068804,-
 0.00048012,0.00039584,0.00010712,-0.00009557,-0.00007483,0.00003320,-0
 .00005753,0.00000625,-0.00009455,0.00021297,0.00000025,0.00145250,0.00
 111634,-0.00206345,0.01237458,-0.00972928,0.01247555,0.10733632,-0.168
 29668,0.09770391,0.00173146,0.00240818,-0.00072163,0.00068869,-0.00414
 519,-0.00223795,-0.00102186,-0.00042871,0.00007405,0.00039465,0.001023
 41,0.00037100,-0.00042821,-0.00068838,-0.00059653,-0.00025247,0.000760
 11,0.00032179,0.00005973,0.00006381,0.00013718,0.00002381,-0.00010122,
 -0.00029777,0.00023354,0.00150936,-0.00032379,-0.00010210,-0.00002384,
 -0.00003493,-0.00000110,-0.00003419,0.00005682,-0.00005022,0.00004956,
 -0.00006838,-0.00000034,0.00003978,0.00000125,0.00006339,0.00005032,0.
 00008335,0.00014547,-0.00283493,-0.00168392,-0.12472287,0.17444430,-0.
 00007230,0.00025309,0.00008844,-0.00275012,-0.00063586,-0.00108449,0.0
 0013958,-0.00000331,-0.00009286,0.00002343,0.00005902,0.00009636,-0.00
 002759,-0.00000086,-0.00000349,-0.00000298,0.00003220,-0.00002826,0.00
 050914,0.00123069,-0.00055097,0.01114991,-0.01019964,0.00933625,-0.081
 54295,0.09707708,-0.12985663,-0.01966085,0.02224938,-0.01737332,-0.002
 40104,-0.00114218,0.00208665,0.00007167,0.00055481,0.00032115,0.000263
 67,-0.00041089,-0.00006108,-0.00013660,0.00012650,-0.00004139,-0.00014
 145,0.00002035,0.00012428,0.00000813,-0.00003130,0.00003566,0.00017203
 ,-0.00000306,0.00014464,-0.00296934,-0.00084956,-0.00201767,-0.0000063
 2,0.00001268,-0.00002876,0.00003266,-0.00004499,-0.00000436,-0.0000470
 8,0.00000166,-0.00003659,0.00001759,0.00002453,-0.00000522,0.00001598,
 0.00000135,0.00003548,0.00043311,-0.00352754,-0.00025008,0.09415105,-0
 .10666534,0.14355573,0.00026515,-0.00010520,-0.00030168,-0.00023606,0.
 00016729,0.00006545,-0.00026575,-0.00022698,-0.00078170,0.00002808,0.0
 0002040,0.00004806,-0.00004269,-0.00000269,-0.00001194,0.00005633,-0.0
 0004844,0.00001503,-0.00055910,0.00036484,0.00118894,-0.00014851,-0.00
 141574,0.00008617,0.00627083,-0.00760222,0.00836587,-0.10787079,0.0908
 9681,-0.06996558,-0.02493602,0.01791238,-0.01237330,0.00040381,0.00927
 118,0.00453725,0.00039040,-0.00397383,-0.00349508,0.00076110,0.0007909
 0,0.00135878,-0.00007675,-0.00026857,-0.00021920,0.00007460,0.00000116
 ,0.00009194,0.00006438,0.00004131,-0.00001179,0.00006259,0.00017135,-0
 .00009518,0.00002533,0.00001984,0.00002464,0.00001750,0.00000147,-0.00
 004849,0.00001333,-0.00001036,-0.00000002,0.00000955,0.00000701,-0.000
 00234,-0.00002849,-0.00005019,-0.00006451,-0.00025394,0.00036305,-0.00
 040043,0.00369898,0.00331469,0.00278939,0.12216408,0.00022732,0.000130
 69,0.00029051,0.00032916,-0.00018195,0.00021818,-0.00013336,0.00000355
 ,-0.00012445,0.00003567,-0.00022614,-0.00003710,0.00001163,0.00001778,
 0.00002749,0.00001507,0.00010332,0.00006809,0.00015830,0.00061009,0.00
 087018,-0.00345617,-0.00125330,-0.00286971,0.00318048,-0.00415312,0.00
 850282,0.09710893,-0.16712670,0.10415016,0.00782150,-0.00070967,0.0024
 8143,-0.00203078,-0.00365442,0.00062509,-0.00156690,0.00087605,-0.0001
 3272,0.00015242,-0.00002747,0.00085386,-0.00007292,-0.00006493,-0.0002
 4743,0.00004845,0.00001775,0.00007506,0.00001263,-0.00000184,-0.000140
 58,0.00013292,0.00022765,-0.00013080,0.00000996,-0.00000980,0.00001820
 ,-0.00000148,0.00000689,-0.00004009,0.00001114,0.00000691,-0.00002705,
 -0.00000306,0.00001068,0.00002713,-0.00001578,-0.00005770,-0.00007307,
 -0.00010889,0.00125212,-0.00032098,0.00592772,0.00595780,0.00177586,-0
 .10817635,0.16791385,0.00009602,-0.00019367,0.00018617,0.00016789,0.00
 020518,-0.00025501,-0.00018464,0.00014304,-0.00045552,-0.00000841,-0.0
 0006036,-0.00001618,-0.00000502,0.00002286,0.00001547,0.00005312,-0.00
 005203,0.00006120,0.00023185,-0.00006640,0.00064134,-0.00174635,0.0021
 2786,-0.00087221,-0.01554235,0.01985940,-0.01107136,-0.06287007,0.0993
 8882,-0.13154630,0.00638436,-0.00551471,0.00915283,0.00080434,-0.00163
 182,0.00190449,0.00025888,-0.00100184,0.00022620,-0.00039689,0.0003936
 1,0.00063144,0.00009312,0.00003262,0.00001795,0.00005218,-0.00000704,0
 .00002282,-0.00002446,0.00001719,-0.00001049,0.00000217,-0.00012315,0.
 00014352,0.00003453,0.00000249,0.00002895,-0.00000490,0.00001620,-0.00
 003345,0.00002401,-0.00001655,0.00000565,-0.00000332,-0.00000984,0.000
 01548,-0.00002163,-0.00003143,-0.00008164,0.00048172,-0.00046730,-0.00
 017734,0.00412449,0.00229303,-0.00423720,0.06788893,-0.11587749,0.1370
 2202,0.00014095,-0.00041491,-0.00123475,-0.00044726,0.00054761,-0.0000
 2302,-0.00017249,0.00017930,-0.00004513,-0.00006848,-0.00008935,0.0000
 4915,-0.00000032,0.00006107,0.00003115,0.00009753,-0.00014777,0.000052
 44,-0.00026255,0.00038995,0.00022986,0.00069660,-0.00030806,0.00008350
 ,-0.00102537,0.00034425,0.00014339,0.00083077,-0.00301183,0.00038283,-
 0.02493689,-0.00429782,0.00430654,-0.29974767,0.02809590,0.06358780,-0
 .00023167,0.00779578,0.00653480,-0.00161384,-0.00001305,-0.00191551,0.
 00033912,0.00011722,0.00062899,0.00005491,0.00001354,0.00003535,0.0002
 7622,0.00040306,-0.00029056,0.00006554,-0.00002650,0.00002712,0.000039
 76,0.00002762,0.00003311,0.00001459,-0.00000123,-0.00002743,0.00001415
 ,-0.00005039,0.00003213,0.00000797,-0.00002751,0.00002207,-0.00001903,
 -0.00002200,-0.00009243,0.00000471,0.00001073,-0.00002826,-0.00006910,
 -0.00007456,0.00000940,-0.00007484,0.00032536,0.00009922,0.32618170,0.
 00011140,0.00027440,0.00038185,0.00015233,-0.00039737,-0.00007359,-0.0
 0009366,-0.00015837,-0.00018838,0.00013978,0.00006675,0.00000321,-0.00
 004322,-0.00005851,-0.00005366,-0.00007408,0.00008733,-0.00009816,-0.0
 0037657,0.00017973,0.00054081,0.00078234,-0.00005481,-0.00049655,-0.00
 022964,-0.00057146,-0.00058383,-0.00471390,0.00186505,-0.00467584,-0.0
 2826648,-0.00061732,0.00718035,0.03397849,-0.04737334,-0.00886898,0.02
 618555,-0.01824166,-0.01900975,0.00437397,0.00153373,0.00457865,-0.000
 14963,-0.00129387,-0.00132069,-0.00003739,-0.00008207,0.00010889,-0.00
 010602,-0.00004423,-0.00006582,-0.00004440,0.00010154,-0.00003058,-0.0
 0000673,0.00000017,-0.00000648,0.00000112,0.00000193,-0.00000380,-0.00
 000438,0.00002476,-0.00000450,0.00000973,0.00001521,-0.00002991,-0.000
 01643,-0.00001925,0.00007023,-0.00004485,-0.00003019,0.00004558,0.0000
 2796,-0.00007183,0.00008508,-0.00145152,0.00023739,0.00063135,-0.03000
 527,0.06487536,0.00009325,0.00059238,-0.00091701,0.00003973,0.00004009
 ,0.00010051,0.00011737,0.00002921,0.00013043,0.00004966,-0.00010966,-0
 .00016447,0.00000930,-0.00002576,-0.00000456,-0.00005184,0.00017213,0.
 00001112,-0.00007175,0.00002541,-0.00016919,-0.00009283,-0.00054442,0.
 00041990,-0.00174680,0.00182256,0.00097242,0.00228855,-0.00712362,0.01
 053536,-0.01169149,-0.00147131,0.00053934,0.06882107,-0.00890966,-0.06
 356911,0.01477393,-0.00699186,0.00331564,-0.00063135,0.00032809,0.0018
 9010,0.00020337,-0.00039599,-0.00037174,-0.00011156,-0.00004207,-0.000
 04082,-0.00030489,-0.00017017,-0.00044751,-0.00015211,0.00000893,-0.00
 007659,-0.00001541,-0.00001577,-0.00000054,-0.00001295,0.00000261,0.00
 000690,-0.00000622,0.00002759,-0.00001382,-0.00000651,0.00001408,-0.00
 000106,0.00000960,-0.00000775,0.00002671,-0.00002801,0.00004398,-0.000
 06406,-0.00006818,0.00004321,-0.00006647,0.00173382,0.00024191,-0.0009
 6338,-0.07307228,0.02260165,0.04950927,-0.00054303,-0.00026831,0.00033
 360,0.00051646,0.00014014,-0.00017771,0.00045788,0.00184228,0.00079219
 ,0.00036709,-0.00136096,0.00017053,0.00011178,0.00013095,0.00013416,0.
 00046530,0.00049744,-0.00020667,-0.00531246,-0.00183959,0.00153571,-0.
 00021062,0.00073299,0.00242484,0.00027420,0.00032886,-0.00136460,0.000
 06737,-0.00092562,0.00016187,0.00020668,0.00013385,-0.00023549,-0.0006
 0490,0.00040723,-0.00000964,0.00488767,-0.00189996,-0.00490412,-0.2375
 4605,-0.11371296,0.00397298,-0.01262724,-0.01182605,0.00108409,0.00013
 441,0.00007191,-0.00006515,0.00019086,0.00032336,-0.00027773,-0.000030
 44,0.00020081,-0.00003456,0.00013134,-0.00004423,0.00066846,0.00001794
 ,0.00001844,-0.00013170,0.00000352,0.00002872,-0.00001097,0.00000571,-
 0.00002499,0.00005330,-0.00008405,0.00006221,-0.00029307,0.00002327,0.
 00009316,0.00022093,-0.00001222,-0.00013964,-0.00002418,0.00009980,0.0
 0006418,0.00012574,0.00000304,-0.00036940,-0.00002946,0.24890446,-0.00
 013185,-0.00013813,0.00017862,-0.00107236,0.00043896,0.00048406,-0.014
 65936,-0.00515679,-0.00125489,-0.00015594,0.00024966,-0.00170976,0.000
 23590,-0.00007840,-0.00001510,-0.00005003,0.00056459,0.00023848,-0.000
 38722,-0.00272496,0.00181633,-0.00010717,0.00152026,0.00024148,-0.0001
 2207,-0.00023578,0.00023383,0.00029067,-0.00035023,0.00022656,-0.00030
 117,-0.00125498,-0.00051524,-0.00309513,0.00252389,0.00064077,-0.00947
 453,-0.01042725,-0.01124475,-0.11319760,-0.11918533,0.00764513,0.01294
 729,0.00925314,0.00025545,0.00021469,0.00013953,-0.00016149,0.00049206
 ,-0.00034494,-0.00002105,0.00019646,-0.00050781,-0.00008321,0.00056747
 ,0.00006513,0.00060590,0.00006567,0.00004059,-0.00013128,-0.00002222,-
 0.00000346,-0.00001187,0.00003935,0.00002179,0.00004166,0.00008990,-0.
 00003619,0.00002258,0.00023523,0.00002972,-0.00075565,0.00001037,0.000
 01994,0.00000401,-0.00000674,-0.00002989,-0.00002044,0.00020353,-0.000
 34851,-0.00030467,0.12734471,0.12531210,-0.00035434,-0.00001511,0.0001
 9708,0.00153216,-0.00027782,-0.00067898,0.01649017,0.00928759,-0.00006
 009,0.00068704,0.00071532,0.00240243,-0.00020337,0.00001556,0.00012720
 ,-0.00027610,-0.00064543,-0.00008045,0.00193562,0.00317426,-0.00208256
 ,0.00196585,-0.00110252,-0.00174300,-0.00079193,-0.00031115,0.00086217
 ,0.00113408,0.00030899,-0.00005231,-0.00105935,-0.00282714,-0.00080257
 ,-0.00590927,0.00556876,0.00196371,-0.02055794,-0.02798499,-0.01893039
 ,0.00800405,0.00996349,-0.04034743,0.00189699,0.00067872,0.00140789,-0
 .00007875,-0.00001048,0.00008077,-0.00023192,0.00014593,0.00000372,-0.
 00015456,0.00054663,0.00003870,-0.00079114,-0.00014097,-0.00017011,-0.
 00007171,-0.00002377,0.00010096,0.00001976,-0.00002487,0.00001876,-0.0
 0003322,-0.00002117,-0.00003249,0.00004585,0.00000254,0.00018275,-0.00
 025193,-0.00007504,0.00056531,0.00015272,0.00019842,0.00000812,-0.0001
 9557,-0.00011200,-0.00015610,0.00040730,-0.00036282,-0.00047018,-0.003
 67148,0.00313920,0.05737927,0.00010169,-0.00013268,-0.00005700,0.00007
 009,0.00034724,-0.00036055,-0.00089595,-0.00090803,-0.00072409,-0.0004
 9464,0.00152533,0.00013960,0.00009285,-0.00045979,-0.00025568,-0.00120
 984,-0.00029653,-0.00312410,-0.00344731,-0.00940751,-0.00492231,0.0008
 2902,-0.00322601,-0.00073864,-0.00029685,0.00008878,0.00038681,-0.0013
 9026,-0.00030281,0.00016923,0.00078594,0.00125988,0.00003773,-0.000413
 87,-0.00214171,0.00040755,-0.00322471,0.00719099,0.00438957,0.00747061
 ,0.01829507,0.01474764,-0.05212303,-0.03328260,-0.02897031,0.00004599,
 -0.00003035,-0.00000763,0.00002052,0.00001890,0.00004661,-0.00001533,0
 .00002724,0.00001934,0.00007790,0.00002597,0.00000905,-0.00001467,0.00
 000326,-0.00000965,-0.00003271,-0.00013281,0.00013583,0.00001487,0.000
 08816,-0.00007687,0.00050133,-0.00031449,0.00019146,0.00033231,-0.0001
 0339,-0.00028268,0.00012531,0.00003972,0.00002765,0.00008458,-0.000078
 08,-0.00007982,-0.00021303,0.00050815,0.00003962,0.00096311,-0.0013851
 9,0.00005285,0.05306631,-0.00004954,-0.00003463,0.00011820,0.00073077,
 -0.00007843,0.00050556,-0.00038407,-0.00052730,0.00023969,0.00085479,-
 0.00332502,-0.00037029,-0.00002006,0.00032758,0.00010852,-0.00262109,0
 .00286617,-0.00362613,-0.00491472,-0.01308604,-0.00893237,0.00149556,-
 0.00227972,0.00126485,-0.00049541,-0.00063470,-0.00085893,-0.00123601,
 -0.00081032,0.00038997,0.00107398,-0.00034487,-0.00018050,-0.00017742,
 0.00031778,-0.00006610,0.00071181,-0.00036797,0.00039734,-0.00272685,-
 0.00742241,-0.00638669,-0.02978775,-0.21768407,-0.13101042,-0.00000724
 ,-0.00003316,-0.00010336,0.00001690,0.00000336,-0.00001508,-0.00007224
 ,0.00005512,-0.00007041,-0.00005588,0.00022888,0.00017092,0.00003228,0
 .00000552,-0.00011309,0.00005847,0.00016855,-0.00009049,0.00002736,-0.
 00002129,0.00012709,-0.00026701,-0.00000930,0.00187818,0.00040002,0.00
 017282,-0.00065519,0.00007667,-0.00005724,-0.00001049,0.00012126,0.000
 10744,0.00013637,0.00002727,-0.00003059,-0.00005154,0.00009685,0.00064
 063,0.00009354,0.03569017,0.23363393,-0.00001298,0.00001288,0.00000061
 ,-0.00041045,0.00004380,-0.00029730,-0.00010482,-0.00069906,-0.0001300
 4,-0.00078391,0.00186040,0.00084333,0.00013630,-0.00030199,-0.00019365
 ,-0.00242579,-0.00033031,-0.00715708,0.00202119,0.01008384,0.01192547,
 0.00023702,0.00271076,0.00018033,0.00037774,-0.00002674,0.00020062,0.0
 0102360,0.00057664,0.00007534,-0.00101639,-0.00026819,-0.00018621,0.00
 073327,0.00127904,0.00052918,0.00171605,-0.00324412,-0.00148620,-0.003
 08601,-0.00487649,-0.00611412,-0.02397060,-0.13073805,-0.14578383,0.00
 002187,0.00003848,0.00006350,-0.00000924,-0.00000028,-0.00002492,0.000
 03700,-0.00003087,0.00004005,0.00009183,-0.00024446,-0.00007106,0.0000
 1363,0.00001682,0.00004095,-0.00002922,-0.00013523,0.00014015,-0.00000
 916,0.00007126,-0.00002962,-0.00042311,0.00086365,-0.00297375,-0.00003
 814,-0.00024700,0.00040829,-0.00008836,-0.00002877,-0.00002450,-0.0001
 1346,0.00000513,-0.00005043,0.00007570,-0.00030987,-0.00008267,-0.0002
 4449,0.00048328,0.00050120,0.02848268,0.14171091,0.16217188,0.00000500
 ,-0.00000572,0.00005312,0.00103334,0.00016874,-0.00097206,-0.00265967,
 0.00157465,0.00089592,0.00006429,-0.00018391,0.00042915,0.00005521,0.0
 0001220,0.00001581,0.00001752,-0.00001671,-0.00046606,0.00498976,-0.00
 312394,0.00853988,0.00160293,-0.00049721,0.00345095,0.00016438,0.00014
 248,-0.00025947,0.00036184,-0.00006124,0.00007578,-0.00027694,0.000074
 75,-0.00011573,0.00066047,0.00022988,0.00026022,0.00246430,-0.00322276
 ,-0.00128883,-0.01145931,0.00437245,-0.02270099,-0.12161893,0.03402389
 ,-0.11392373,0.00001317,0.00001091,-0.00003077,0.00007280,-0.00009112,
 -0.00000628,-0.00015206,0.00041811,-0.00003380,0.00006245,0.00001706,0
 .00004077,0.00001756,-0.00000231,-0.00006088,-0.00000863,0.00001423,0.
 00001330,0.00002706,-0.00001775,-0.00001572,-0.00000814,0.00001988,-0.
 00006133,0.00012388,0.00007661,-0.00025193,-0.00022573,-0.00014226,-0.
 00003160,0.00000252,0.00007092,-0.00003471,0.00011496,-0.00023724,-0.0
 0008563,-0.00086088,0.00123526,0.00030815,-0.00081022,0.00140113,-0.00
 220174,0.12622708,0.00006974,-0.00041212,-0.00007745,0.00090736,0.0002
 5708,0.00100645,0.00154471,-0.00584796,0.00148119,0.00011541,-0.001640
 60,-0.00085916,-0.00006853,0.00019183,0.00006313,-0.00155612,0.0015927
 9,-0.00220596,0.01121335,-0.00919061,0.01501141,0.00175453,0.00180693,
 0.00373621,0.00045060,0.00044808,-0.00103546,0.00033199,-0.00063040,0.
 00018413,-0.00003656,0.00031914,-0.00012872,0.00017148,-0.00074643,-0.
 00021730,-0.00071823,0.00164457,0.00076867,0.00523662,-0.00535109,0.00
 703065,0.03123875,-0.05946626,0.05038284,0.00006926,-0.00003840,-0.000
 15972,0.00003719,0.00006983,0.00003630,-0.00004916,-0.00013741,0.00001
 495,-0.00001456,0.00008689,0.00002489,0.00004291,-0.00002552,-0.000035
 89,0.00002185,0.00008538,-0.00005711,0.00003045,-0.00000005,0.00006415
 ,-0.00012354,-0.00015987,0.00061458,-0.00095772,0.00002116,-0.00023966
 ,-0.00025952,-0.00006396,0.00001672,-0.00012610,0.00001696,-0.00019597
 ,-0.00005196,0.00013002,0.00017039,-0.00010639,0.00000270,0.00009635,-
 0.01290687,0.00821925,-0.01827544,-0.03626097,0.06881805,-0.00008968,0
 .00019555,-0.00002545,-0.00060016,-0.00088152,0.00021860,0.00139594,0.
 00216368,-0.00084613,0.00047729,-0.00137526,-0.00004477,-0.00001892,0.
 00015239,0.00002126,-0.00122535,0.00084454,-0.00169286,-0.00635711,0.0
 0287894,-0.00563016,-0.00049416,-0.00267398,-0.00148032,-0.00025173,0.
 00016832,0.00130212,-0.00040593,0.00045609,-0.00001683,-0.00020292,0.0
 0029943,-0.00004827,0.00028585,0.00009883,0.00026425,0.00022078,0.0000
 8809,0.00137066,0.00604233,-0.00341123,0.00732149,-0.11836595,0.052795
 91,-0.23115961,-0.00004448,0.00000820,0.00009175,-0.00005358,0.0000228
 5,-0.00002806,0.00008174,-0.00013378,0.00002747,-0.00008021,0.00004741
 ,0.00002444,-0.00000777,0.00000860,0.00001344,0.00002559,0.00004603,-0
 .00002231,-0.00002183,-0.00001508,0.00004161,-0.00018786,-0.00003694,0
 .00061019,0.00109257,0.00021709,0.00006209,0.00015503,0.00002107,-0.00
 006942,-0.00011399,-0.00009766,-0.00014893,-0.00004245,-0.00004443,-0.
 00003451,0.00000265,-0.00002793,-0.00023338,-0.00967388,0.00539994,-0.
 01251551,0.12845821,-0.05721518,0.24262715\\-0.00001118,-0.00000065,-0
 .00000017,0.00000972,-0.00001834,-0.00000505,-0.00001120,0.00002619,-0
 .00000292,0.00000822,-0.00002829,-0.00000628,0.00000098,0.00000312,-0.
 00000169,0.00000504,0.00001355,0.00001472,-0.00000402,0.00002336,0.000
 00423,0.00004557,-0.00001831,0.00001016,-0.00004377,0.00000836,0.00000
 371,0.00000738,-0.00000943,-0.00001149,-0.00000868,0.00002947,0.000031
 22,-0.00000042,-0.00000394,-0.00002623,0.00001387,0.00000477,-0.000012
 23,-0.00000086,-0.00001429,0.00001608,-0.00001567,-0.00000875,0.000006
 98,0.00000102,0.00000045,-0.00000022,-0.00000130,-0.00000158,0.0000033
 9,0.00000185,-0.00000254,0.00000200,-0.00000455,0.00000472,-0.00000381
 ,-0.00000250,-0.00000243,0.00000275,-0.00000164,-0.00000129,0.00000103
 ,0.00000076,-0.00000014,0.00000027,-0.00000217,-0.00000431,-0.00000904
 ,0.00000334,-0.00000409,-0.00001501,0.00000213,0.00001113,-0.00000256,
 -0.00000186,-0.00000223,-0.00000438,-0.00000420,0.00000533,0.00000538,
 0.00000320,0.00000027,0.00000175,0.00000818,-0.00000754,0.00000189,0.0
 0000278,-0.00000258,-0.00000447\\\@


 DEMOCRATS BUY MOST OF THE BOOKS THAT HAVE BEEN
 BANNED; REPUBLICANS FORM CENSORSHIP COMMITTEES AND
 READ THEM AS A GROUP.
 Job cpu time:       0 days 11 hours 28 minutes  2.4 seconds.
 Elapsed time:       0 days  2 hours 52 minutes  2.6 seconds.
 File lengths (MBytes):  RWF=    530 Int=      0 D2E=      0 Chk=     21 Scr=      1
 Normal termination of Gaussian 16 at Thu May 18 22:35:48 2023.
### All Done ###
