### Starting Gaussian ###
 Entering Gaussian System, Link 0=g16
 Initial command:
 /cluster/software/gaussian/gaussian-16-A.03/avx2/g16/l1.exe "/local/scratch/linjian/Gau-6391.inp" -scrdir="/local/scratch/linjian/"
 Entering Link 1 = /cluster/software/gaussian/gaussian-16-A.03/avx2/g16/l1.exe PID=      6392.
  
 Copyright (c) 1988,1990,1992,1993,1995,1998,2003,2009,2016,
            Gaussian, Inc.  All Rights Reserved.
  
 This is part of the Gaussian(R) 16 program.  It is based on
 the Gaussian(R) 09 system (copyright 2009, Gaussian, Inc.),
 the Gaussian(R) 03 system (copyright 2003, Gaussian, Inc.),
 the Gaussian(R) 98 system (copyright 1998, Gaussian, Inc.),
 the Gaussian(R) 94 system (copyright 1995, Gaussian, Inc.),
 the Gaussian 92(TM) system (copyright 1992, Gaussian, Inc.),
 the Gaussian 90(TM) system (copyright 1990, Gaussian, Inc.),
 the Gaussian 88(TM) system (copyright 1988, Gaussian, Inc.),
 the Gaussian 86(TM) system (copyright 1986, Carnegie Mellon
 University), and the Gaussian 82(TM) system (copyright 1983,
 Carnegie Mellon University). Gaussian is a federally registered
 trademark of Gaussian, Inc.
  
 This software contains proprietary and confidential information,
 including trade secrets, belonging to Gaussian, Inc.
  
 This software is provided under written license and may be
 used, copied, transmitted, or stored only in accord with that
 written license.
  
 The following legend is applicable only to US Government
 contracts under FAR:
  
                    RESTRICTED RIGHTS LEGEND
  
 Use, reproduction and disclosure by the US Government is
 subject to restrictions as set forth in subparagraphs (a)
 and (c) of the Commercial Computer Software - Restricted
 Rights clause in FAR 52.227-19.
  
 Gaussian, Inc.
 340 Quinnipiac St., Bldg. 40, Wallingford CT 06492
  
  
 ---------------------------------------------------------------
 Warning -- This program may not be used in any manner that
 competes with the business of Gaussian, Inc. or will provide
 assistance to any competitor of Gaussian, Inc.  The licensee
 of this program is prohibited from giving any competitor of
 Gaussian, Inc. access to this program.  By using this program,
 the user acknowledges that Gaussian, Inc. is engaged in the
 business of creating and licensing software in the field of
 computational chemistry and represents and warrants to the
 licensee that it is not a competitor of Gaussian, Inc. and that
 it will not use this program in any manner prohibited above.
 ---------------------------------------------------------------
  

 Cite this work as:
 Gaussian 16, Revision A.03,
 M. J. Frisch, G. W. Trucks, H. B. Schlegel, G. E. Scuseria, 
 M. A. Robb, J. R. Cheeseman, G. Scalmani, V. Barone, 
 G. A. Petersson, H. Nakatsuji, X. Li, M. Caricato, A. V. Marenich, 
 J. Bloino, B. G. Janesko, R. Gomperts, B. Mennucci, H. P. Hratchian, 
 J. V. Ortiz, A. F. Izmaylov, J. L. Sonnenberg, D. Williams-Young, 
 F. Ding, F. Lipparini, F. Egidi, J. Goings, B. Peng, A. Petrone, 
 T. Henderson, D. Ranasinghe, V. G. Zakrzewski, J. Gao, N. Rega, 
 G. Zheng, W. Liang, M. Hada, M. Ehara, K. Toyota, R. Fukuda, 
 J. Hasegawa, M. Ishida, T. Nakajima, Y. Honda, O. Kitao, H. Nakai, 
 T. Vreven, K. Throssell, J. A. Montgomery, Jr., J. E. Peralta, 
 F. Ogliaro, M. J. Bearpark, J. J. Heyd, E. N. Brothers, K. N. Kudin, 
 V. N. Staroverov, T. A. Keith, R. Kobayashi, J. Normand, 
 K. Raghavachari, A. P. Rendell, J. C. Burant, S. S. Iyengar, 
 J. Tomasi, M. Cossi, J. M. Millam, M. Klene, C. Adamo, R. Cammi, 
 J. W. Ochterski, R. L. Martin, K. Morokuma, O. Farkas, 
 J. B. Foresman, and D. J. Fox, Gaussian, Inc., Wallingford CT, 2016.
 
 ******************************************
 Gaussian 16:  ES64L-G16RevA.03 25-Dec-2016
                19-May-2023 
 ******************************************
 %chk=CdCC1dCCdCc2ncnn2CdCCdCCdC1.chk
 %NProcShared=20
 Will use up to   20 processors via shared memory.
 -----------------------------
 # opt freq b3lyp/6-31g(2df,p)
 -----------------------------
 1/18=20,19=15,26=3,38=1/1,3;
 2/9=110,12=2,17=6,18=5,40=1/2;
 3/5=1,6=6,7=104,11=2,25=1,30=1,71=1,74=-5/1,2,3;
 4//1;
 5/5=2,38=5/2;
 6/7=2,8=2,9=2,10=2,28=1/1;
 7//1,2,3,16;
 1/18=20,19=15,26=3/3(2);
 2/9=110/2;
 99//99;
 2/9=110/2;
 3/5=1,6=6,7=104,11=2,25=1,30=1,71=1,74=-5/1,2,3;
 4/5=5,16=3,69=1/1;
 5/5=2,38=5/2;
 7//1,2,3,16;
 1/18=20,19=15,26=3/3(-5);
 2/9=110/2;
 6/7=2,8=2,9=2,10=2,19=2,28=1/1;
 99/9=1/99;
 -------------------
 Title Card Required
 -------------------
 Symbolic Z-matrix:
 Charge =  0 Multiplicity = 1
 C                     1.41945   0.05991  -0.2511 
 C                     2.73648  -0.16805  -0.50218 
 C                     3.90373   0.73583  -0.84822 
 C                     4.51609   1.28944   0.22972 
 C                     5.22987   2.57088   0.11564 
 C                     6.56631   2.68704   0.16722 
 C                     7.22986   3.93303  -0.05943 
 N                     6.95506   5.07049   0.53673 
 C                     7.93528   5.89721   0.11348 
 N                     8.79722   5.39395  -0.76186 
 N                     8.34856   4.11766  -0.94706 
 C                     8.91594   3.2538   -1.90509 
 C                     8.33529   2.06783  -2.16762 
 C                     8.51561   0.91034  -2.93524 
 C                     7.56557  -0.04475  -2.708 
 C                     6.05315  -0.00273  -2.26849 
 C                     4.88164   0.71119  -2.06506 
 H                     0.77416  -0.77826   0.06035 
 H                     0.84651   0.98639  -0.30462 
 H                     3.03326  -1.18303  -0.2508 
 H                     5.18462   0.53103   0.66876 
 H                     4.59903   3.43992  -0.06633 
 H                     7.15847   1.7889    0.3285 
 H                     8.02827   6.91141   0.47159 
 H                     9.78526   3.61863  -2.43081 
 H                     7.52121   1.8376   -1.54016 
 H                     9.5381    0.73286  -3.29557 
 H                     8.01915  -1.02071  -2.50355 
 H                     5.94775   0.0257   -3.39435 
 H                     4.68487   1.6237   -2.64036 
 

 GradGradGradGradGradGradGradGradGradGradGradGradGradGradGradGradGradGrad
 Berny optimization.
 Initialization pass.
                           ----------------------------
                           !    Initial Parameters    !
                           ! (Angstroms and Degrees)  !
 --------------------------                            --------------------------
 ! Name  Definition              Value          Derivative Info.                !
 --------------------------------------------------------------------------------
 ! R1    R(1,2)                  1.36           estimate D2E/DX2                !
 ! R2    R(1,18)                 1.1027         estimate D2E/DX2                !
 ! R3    R(1,19)                 1.0906         estimate D2E/DX2                !
 ! R4    R(2,3)                  1.5163         estimate D2E/DX2                !
 ! R5    R(2,20)                 1.0869         estimate D2E/DX2                !
 ! R6    R(3,4)                  1.3577         estimate D2E/DX2                !
 ! R7    R(3,17)                 1.5613         estimate D2E/DX2                !
 ! R8    R(4,5)                  1.4713         estimate D2E/DX2                !
 ! R9    R(4,21)                 1.1022         estimate D2E/DX2                !
 ! R10   R(5,6)                  1.3425         estimate D2E/DX2                !
 ! R11   R(5,22)                 1.0892         estimate D2E/DX2                !
 ! R12   R(6,7)                  1.4297         estimate D2E/DX2                !
 ! R13   R(6,23)                 1.0878         estimate D2E/DX2                !
 ! R14   R(7,8)                  1.3133         estimate D2E/DX2                !
 ! R15   R(7,11)                 1.44           estimate D2E/DX2                !
 ! R16   R(8,9)                  1.3503         estimate D2E/DX2                !
 ! R17   R(9,10)                 1.3276         estimate D2E/DX2                !
 ! R18   R(9,24)                 1.0796         estimate D2E/DX2                !
 ! R19   R(10,11)                1.3655         estimate D2E/DX2                !
 ! R20   R(11,12)                1.4093         estimate D2E/DX2                !
 ! R21   R(12,13)                1.3463         estimate D2E/DX2                !
 ! R22   R(12,25)                1.0794         estimate D2E/DX2                !
 ! R23   R(13,14)                1.4005         estimate D2E/DX2                !
 ! R24   R(13,26)                1.0533         estimate D2E/DX2                !
 ! R25   R(14,15)                1.3662         estimate D2E/DX2                !
 ! R26   R(14,27)                1.0986         estimate D2E/DX2                !
 ! R27   R(15,16)                1.5755         estimate D2E/DX2                !
 ! R28   R(15,28)                1.0955         estimate D2E/DX2                !
 ! R29   R(16,17)                1.3869         estimate D2E/DX2                !
 ! R30   R(16,29)                1.1311         estimate D2E/DX2                !
 ! R31   R(17,30)                1.0965         estimate D2E/DX2                !
 ! A1    A(2,1,18)             119.4356         estimate D2E/DX2                !
 ! A2    A(2,1,19)             129.9457         estimate D2E/DX2                !
 ! A3    A(18,1,19)            110.6186         estimate D2E/DX2                !
 ! A4    A(1,2,3)              133.4475         estimate D2E/DX2                !
 ! A5    A(1,2,20)             112.2246         estimate D2E/DX2                !
 ! A6    A(3,2,20)             113.53           estimate D2E/DX2                !
 ! A7    A(2,3,4)              114.1462         estimate D2E/DX2                !
 ! A8    A(2,3,17)             130.588          estimate D2E/DX2                !
 ! A9    A(4,3,17)             110.0424         estimate D2E/DX2                !
 ! A10   A(3,4,5)              120.8234         estimate D2E/DX2                !
 ! A11   A(3,4,21)             108.0133         estimate D2E/DX2                !
 ! A12   A(5,4,21)             109.6292         estimate D2E/DX2                !
 ! A13   A(4,5,6)              123.7353         estimate D2E/DX2                !
 ! A14   A(4,5,22)             115.2715         estimate D2E/DX2                !
 ! A15   A(6,5,22)             120.9286         estimate D2E/DX2                !
 ! A16   A(5,6,7)              122.0958         estimate D2E/DX2                !
 ! A17   A(5,6,23)             118.4357         estimate D2E/DX2                !
 ! A18   A(7,6,23)             119.3665         estimate D2E/DX2                !
 ! A19   A(6,7,8)              125.8543         estimate D2E/DX2                !
 ! A20   A(6,7,11)             124.7519         estimate D2E/DX2                !
 ! A21   A(8,7,11)             109.3498         estimate D2E/DX2                !
 ! A22   A(7,8,9)              103.6555         estimate D2E/DX2                !
 ! A23   A(8,9,10)             116.4798         estimate D2E/DX2                !
 ! A24   A(8,9,24)             122.2562         estimate D2E/DX2                !
 ! A25   A(10,9,24)            121.2598         estimate D2E/DX2                !
 ! A26   A(9,10,11)            103.322          estimate D2E/DX2                !
 ! A27   A(7,11,10)            106.9483         estimate D2E/DX2                !
 ! A28   A(7,11,12)            130.7869         estimate D2E/DX2                !
 ! A29   A(10,11,12)           122.1997         estimate D2E/DX2                !
 ! A30   A(11,12,13)           119.9273         estimate D2E/DX2                !
 ! A31   A(11,12,25)           116.625          estimate D2E/DX2                !
 ! A32   A(13,12,25)           123.3728         estimate D2E/DX2                !
 ! A33   A(12,13,14)           141.2024         estimate D2E/DX2                !
 ! A34   A(12,13,26)           114.1871         estimate D2E/DX2                !
 ! A35   A(14,13,26)           104.2032         estimate D2E/DX2                !
 ! A36   A(13,14,15)           113.3956         estimate D2E/DX2                !
 ! A37   A(13,14,27)           115.6663         estimate D2E/DX2                !
 ! A38   A(15,14,27)           126.0767         estimate D2E/DX2                !
 ! A39   A(14,15,16)           134.051          estimate D2E/DX2                !
 ! A40   A(14,15,28)           111.4659         estimate D2E/DX2                !
 ! A41   A(16,15,28)           111.664          estimate D2E/DX2                !
 ! A42   A(15,16,17)           149.9394         estimate D2E/DX2                !
 ! A43   A(15,16,29)            79.1909         estimate D2E/DX2                !
 ! A44   A(17,16,29)            93.1154         estimate D2E/DX2                !
 ! A45   A(3,17,16)            130.6561         estimate D2E/DX2                !
 ! A46   A(3,17,30)            106.462          estimate D2E/DX2                !
 ! A47   A(16,17,30)           120.1985         estimate D2E/DX2                !
 ! D1    D(18,1,2,3)          -175.2148         estimate D2E/DX2                !
 ! D2    D(18,1,2,20)           -6.3837         estimate D2E/DX2                !
 ! D3    D(19,1,2,3)             4.6949         estimate D2E/DX2                !
 ! D4    D(19,1,2,20)          173.5261         estimate D2E/DX2                !
 ! D5    D(1,2,3,4)             84.8505         estimate D2E/DX2                !
 ! D6    D(1,2,3,17)          -123.6715         estimate D2E/DX2                !
 ! D7    D(20,2,3,4)           -83.8713         estimate D2E/DX2                !
 ! D8    D(20,2,3,17)           67.6067         estimate D2E/DX2                !
 ! D9    D(2,3,4,5)           -153.4136         estimate D2E/DX2                !
 ! D10   D(2,3,4,21)            79.3306         estimate D2E/DX2                !
 ! D11   D(17,3,4,5)            49.2916         estimate D2E/DX2                !
 ! D12   D(17,3,4,21)          -77.9641         estimate D2E/DX2                !
 ! D13   D(2,3,17,16)          -85.3184         estimate D2E/DX2                !
 ! D14   D(2,3,17,30)          113.7482         estimate D2E/DX2                !
 ! D15   D(4,3,17,16)           67.0487         estimate D2E/DX2                !
 ! D16   D(4,3,17,30)          -93.8847         estimate D2E/DX2                !
 ! D17   D(3,4,5,6)           -108.8061         estimate D2E/DX2                !
 ! D18   D(3,4,5,22)            68.2885         estimate D2E/DX2                !
 ! D19   D(21,4,5,6)            17.7158         estimate D2E/DX2                !
 ! D20   D(21,4,5,22)         -165.1897         estimate D2E/DX2                !
 ! D21   D(4,5,6,7)            174.6304         estimate D2E/DX2                !
 ! D22   D(4,5,6,23)            -1.6721         estimate D2E/DX2                !
 ! D23   D(22,5,6,7)            -2.3066         estimate D2E/DX2                !
 ! D24   D(22,5,6,23)         -178.609          estimate D2E/DX2                !
 ! D25   D(5,6,7,8)             51.5318         estimate D2E/DX2                !
 ! D26   D(5,6,7,11)          -131.1415         estimate D2E/DX2                !
 ! D27   D(23,6,7,8)          -132.1991         estimate D2E/DX2                !
 ! D28   D(23,6,7,11)           45.1276         estimate D2E/DX2                !
 ! D29   D(6,7,8,9)            173.0712         estimate D2E/DX2                !
 ! D30   D(11,7,8,9)            -4.601          estimate D2E/DX2                !
 ! D31   D(6,7,11,10)         -172.5943         estimate D2E/DX2                !
 ! D32   D(6,7,11,12)           10.357          estimate D2E/DX2                !
 ! D33   D(8,7,11,10)            5.1094         estimate D2E/DX2                !
 ! D34   D(8,7,11,12)         -171.9392         estimate D2E/DX2                !
 ! D35   D(7,8,9,10)             2.7851         estimate D2E/DX2                !
 ! D36   D(7,8,9,24)          -176.4824         estimate D2E/DX2                !
 ! D37   D(8,9,10,11)            0.3788         estimate D2E/DX2                !
 ! D38   D(24,9,10,11)         179.6542         estimate D2E/DX2                !
 ! D39   D(9,10,11,7)           -3.1459         estimate D2E/DX2                !
 ! D40   D(9,10,11,12)         174.2136         estimate D2E/DX2                !
 ! D41   D(7,11,12,13)           4.972          estimate D2E/DX2                !
 ! D42   D(7,11,12,25)        -178.0692         estimate D2E/DX2                !
 ! D43   D(10,11,12,13)       -171.6914         estimate D2E/DX2                !
 ! D44   D(10,11,12,25)          5.2675         estimate D2E/DX2                !
 ! D45   D(11,12,13,14)       -176.8728         estimate D2E/DX2                !
 ! D46   D(11,12,13,26)         -5.7754         estimate D2E/DX2                !
 ! D47   D(25,12,13,14)          6.3829         estimate D2E/DX2                !
 ! D48   D(25,12,13,26)        177.4803         estimate D2E/DX2                !
 ! D49   D(12,13,14,15)        176.2828         estimate D2E/DX2                !
 ! D50   D(12,13,14,27)         19.3915         estimate D2E/DX2                !
 ! D51   D(26,13,14,15)          4.6561         estimate D2E/DX2                !
 ! D52   D(26,13,14,27)       -152.2352         estimate D2E/DX2                !
 ! D53   D(13,14,15,16)         29.4121         estimate D2E/DX2                !
 ! D54   D(13,14,15,28)       -129.3887         estimate D2E/DX2                !
 ! D55   D(27,14,15,16)       -176.5443         estimate D2E/DX2                !
 ! D56   D(27,14,15,28)         24.6549         estimate D2E/DX2                !
 ! D57   D(14,15,16,17)         13.6547         estimate D2E/DX2                !
 ! D58   D(14,15,16,29)         90.9791         estimate D2E/DX2                !
 ! D59   D(28,15,16,17)        172.4251         estimate D2E/DX2                !
 ! D60   D(28,15,16,29)       -110.2504         estimate D2E/DX2                !
 ! D61   D(15,16,17,3)        -132.1881         estimate D2E/DX2                !
 ! D62   D(15,16,17,30)         26.56           estimate D2E/DX2                !
 ! D63   D(29,16,17,3)         154.1259         estimate D2E/DX2                !
 ! D64   D(29,16,17,30)        -47.1259         estimate D2E/DX2                !
 --------------------------------------------------------------------------------
 Trust Radius=3.00D-01 FncErr=1.00D-07 GrdErr=1.00D-06 EigMax=2.50D+02 EigMin=1.00D-04
 Number of steps in this run=    152 maximum allowed number of steps=    180.
 GradGradGradGradGradGradGradGradGradGradGradGradGradGradGradGradGradGrad

                          Input orientation:                          
 ---------------------------------------------------------------------
 Center     Atomic      Atomic             Coordinates (Angstroms)
 Number     Number       Type             X           Y           Z
 ---------------------------------------------------------------------
      1          6           0        1.419450    0.059910   -0.251100
      2          6           0        2.736480   -0.168050   -0.502180
      3          6           0        3.903730    0.735830   -0.848220
      4          6           0        4.516090    1.289440    0.229720
      5          6           0        5.229870    2.570880    0.115640
      6          6           0        6.566310    2.687040    0.167220
      7          6           0        7.229860    3.933030   -0.059430
      8          7           0        6.955060    5.070490    0.536730
      9          6           0        7.935280    5.897210    0.113480
     10          7           0        8.797220    5.393950   -0.761860
     11          7           0        8.348560    4.117660   -0.947060
     12          6           0        8.915940    3.253800   -1.905090
     13          6           0        8.335290    2.067830   -2.167620
     14          6           0        8.515610    0.910340   -2.935240
     15          6           0        7.565570   -0.044750   -2.708000
     16          6           0        6.053150   -0.002730   -2.268490
     17          6           0        4.881640    0.711190   -2.065060
     18          1           0        0.774160   -0.778260    0.060350
     19          1           0        0.846510    0.986390   -0.304620
     20          1           0        3.033260   -1.183030   -0.250800
     21          1           0        5.184620    0.531030    0.668760
     22          1           0        4.599030    3.439920   -0.066330
     23          1           0        7.158470    1.788900    0.328500
     24          1           0        8.028270    6.911410    0.471590
     25          1           0        9.785260    3.618630   -2.430810
     26          1           0        7.521210    1.837600   -1.540160
     27          1           0        9.538100    0.732860   -3.295570
     28          1           0        8.019150   -1.020710   -2.503550
     29          1           0        5.947750    0.025700   -3.394350
     30          1           0        4.684870    1.623700   -2.640360
 ---------------------------------------------------------------------
                    Distance matrix (angstroms):
                    1          2          3          4          5
     1  C    0.000000
     2  C    1.359991   0.000000
     3  C    2.642928   1.516316   0.000000
     4  C    3.366320   2.413911   1.357727   0.000000
     5  C    4.578075   3.755054   2.460708   1.471253   0.000000
     6  C    5.793701   4.823612   3.453646   2.482054   1.342470
     7  C    6.985604   6.099619   4.680536   3.799569   2.426121
     8  N    7.507967   6.805737   5.478867   4.509897   3.066211
     9  C    8.755743   8.012112   6.619525   5.738982   4.287624
    10  N    9.118352   8.230179   6.756610   6.013178   4.633111
    11  N    8.059917   7.075357   5.585970   4.906268   3.639792
    12  C    8.314685   7.201593   5.707836   5.270181   4.258737
    13  C    7.452089   6.254560   4.811836   4.575961   3.887154
    14  C    7.634352   6.362472   5.065130   5.114377   4.781354
    15  C    6.619826   5.310457   4.180569   4.439548   4.502217
    16  C    5.054202   3.761314   2.680046   3.205200   3.603517
    17  C    3.962496   2.795956   1.561286   2.394580   2.887068
    18  H    1.102692   2.130609   3.593352   4.278564   5.574329
    19  H    1.090637   2.223454   3.115265   3.720642   4.679858
    20  H    2.036979   1.086947   2.190126   2.922806   4.364770
    21  H    3.904434   2.802357   1.995959   1.102213   2.113996
    22  H    4.644172   4.083688   2.899465   2.172346   1.089175
    23  H    6.021768   4.906493   3.617590   2.690983   2.091961
    24  H    9.546823   8.892133   7.542647   6.633284   5.176673
    25  H    9.348925   8.230666   6.738510   6.345683   5.322947
    26  H    6.484854   5.290905   3.844326   3.530397   2.920550
    27  H    8.696789   7.407881   6.142935   6.161009   5.794438
    28  H    7.056721   5.713065   4.770978   5.007892   5.247834
    29  H    5.512413   4.326019   3.341419   4.096410   4.394693
    30  H    4.337853   3.402706   2.147151   2.894404   2.964745
                    6          7          8          9         10
     6  C    0.000000
     7  C    1.429741   0.000000
     8  N    2.443051   1.313292   0.000000
     9  C    3.490295   2.094163   1.350347   0.000000
    10  N    3.628706   2.254842   2.276953   1.327566   0.000000
    11  N    2.542579   1.439953   2.247523   2.112426   1.365471
    12  C    3.183779   2.590498   3.620483   3.467555   2.429261
    13  C    2.994026   3.024138   4.270189   4.475218   3.640414
    14  C    4.072062   4.365786   5.638860   5.873700   4.990555
    15  C    4.089998   4.790653   6.088241   6.588196   5.906258
    16  C    3.664816   4.664204   5.866878   6.635170   6.238911
    17  C    3.424204   4.462840   5.483783   6.400434   6.241661
    18  H    6.750461   7.992913   8.522813   9.790116  10.155870
    19  H    5.985896   7.034910   7.396089   8.633749   9.102167
    20  H    5.256865   6.619830   7.423424   8.619298   8.760199
    21  H    2.609404   4.035700   4.874278   6.055605   6.224592
    22  H    2.119331   2.676653   2.928023   4.147429   4.682606
    23  H    1.087805   2.180110   3.294475   4.186631   4.107405
    24  H    4.480543   3.128928   2.131903   1.079579   2.101278
    25  H    4.240196   3.500337   4.350198   3.884297   2.629330
    26  H    2.132728   2.582300   3.884015   4.403000   3.857665
    27  H    4.963997   5.103103   6.338269   6.392274   5.356711
    28  H    4.794910   5.579986   6.890450   7.396857   6.692290
    29  H    4.488889   5.294594   6.474409   7.122484   6.623261
    30  H    3.543023   4.297811   5.208457   6.034210   5.886847
                   11         12         13         14         15
    11  N    0.000000
    12  C    1.409254   0.000000
    13  C    2.385738   1.346329   0.000000
    14  C    3.777257   2.590999   1.400549   0.000000
    15  C    4.586899   3.653573   2.312461   1.366167   0.000000
    16  C    4.898234   4.351162   3.083108   2.709605   1.575547
    17  C    4.987334   4.771376   3.711966   3.742006   2.861520
    18  H    9.075045   9.295646   8.380618   8.470831   7.370553
    19  H    8.154651   8.533367   7.792439   8.108085   7.210080
    20  H    7.538866   7.551693   6.507981   6.453261   5.279711
    21  H    5.048297   5.287809   4.509271   4.922214   4.171685
    22  H    3.910753   4.695891   4.500854   5.474397   5.284099
    23  H    2.909723   3.197430   2.773684   3.642210   3.570481
    24  H    3.149634   4.451368   5.524487   6.917863   7.662379
    25  H    2.124771   1.079444   2.139314   3.033364   4.292343
    26  H    2.496988   2.020908   1.053299   1.948048   2.215640
    27  H    4.288050   2.945447   2.121596   1.098555   2.200180
    28  H    5.379035   4.408381   3.122799   2.040045   1.095460
    29  H    5.338282   4.631272   3.372760   2.754501   1.758801
    30  H    4.744442   4.593452   3.707600   3.907737   3.329675
                   16         17         18         19         20
    16  C    0.000000
    17  C    1.386903   0.000000
    18  H    5.821742   4.858726   0.000000
    19  H    5.651924   4.411027   1.803449   0.000000
    20  H    3.818889   3.208756   2.316071   3.080772   0.000000
    21  H    3.109129   2.756452   4.640750   4.469230   2.900335
    22  H    4.337720   3.394224   5.695500   4.489766   4.884397
    23  H    3.343057   3.474844   6.886336   6.394193   5.117159
    24  H    7.695094   7.401257  10.579331   9.342700   9.538969
    25  H    5.202811   5.712484  10.331430   9.557752   8.567257
    26  H    2.464240   2.917473   7.411278   6.841253   5.561326
    27  H    3.706867   4.816352   9.505384   9.195314   7.433317
    28  H    2.226363   3.610501   7.689099   7.765984   5.473603
    29  H    1.131140   1.836709   6.272746   6.040861   4.453896
    30  H    2.157719   1.096523   5.325120   4.538155   4.039251
                   21         22         23         24         25
    21  H    0.000000
    22  H    3.056945   0.000000
    23  H    2.365184   3.071236   0.000000
    24  H    6.988166   4.909204   5.197801   0.000000
    25  H    6.348740   5.702603   4.226314   4.727932   0.000000
    26  H    3.470750   3.644001   1.904164   5.481587   3.015170
    27  H    5.891471   6.492348   4.462258   7.392264   3.022675
    28  H    4.528356   6.126539   4.081077   8.471722   4.964666
    29  H    4.164924   4.954963   4.293522   8.166214   5.344533
    30  H    3.520505   3.151453   3.867831   6.987305   5.480660
                   26         27         28         29         30
    26  H    0.000000
    27  H    2.893054   0.000000
    28  H    3.057123   2.451431   0.000000
    29  H    3.032619   3.660662   2.485799   0.000000
    30  H    3.049757   4.977624   4.257822   2.171859   0.000000
 Stoichiometry    C14H13N3
 Framework group  C1[X(C14H13N3)]
 Deg. of freedom    84
 Full point group                 C1      NOp   1
 Largest Abelian subgroup         C1      NOp   1
 Largest concise Abelian subgroup C1      NOp   1
                         Standard orientation:                         
 ---------------------------------------------------------------------
 Center     Atomic      Atomic             Coordinates (Angstroms)
 Number     Number       Type             X           Y           Z
 ---------------------------------------------------------------------
      1          6           0        5.158738   -1.601399   -0.399712
      2          6           0        4.297376   -0.650652    0.051630
      3          6           0        2.821472   -0.388004   -0.176270
      4          6           0        1.999074   -1.091448    0.643641
      5          6           0        0.627499   -1.425784    0.229414
      6          6           0       -0.469595   -0.860852    0.758056
      7          6           0       -1.780185   -1.128188    0.253036
      8          7           0       -2.301038   -2.317674    0.056640
      9          6           0       -3.584355   -2.053735   -0.270274
     10          7           0       -3.921773   -0.772662   -0.356485
     11          7           0       -2.757058   -0.120492   -0.069040
     12          6           0       -2.637105    1.280298   -0.165970
     13          6           0       -1.429766    1.861663   -0.035778
     14          6           0       -0.824147    3.124033   -0.001336
     15          6           0        0.518279    3.075072    0.247476
     16          6           0        1.649317    2.018691   -0.047750
     17          6           0        2.086283    0.881493   -0.710580
     18          1           0        6.192929   -1.621002   -0.017620
     19          1           0        5.000275   -2.404516   -1.120394
     20          1           0        4.724578   -0.057359    0.855966
     21          1           0        1.977101   -0.583666    1.621675
     22          1           0        0.550013   -2.142634   -0.586934
     23          1           0       -0.343827   -0.132940    1.556584
     24          1           0       -4.307771   -2.836398   -0.442316
     25          1           0       -3.538372    1.828274   -0.395402
     26          1           0       -0.657196    1.197034    0.230382
     27          1           0       -1.492950    3.966724    0.220916
     28          1           0        0.800283    3.752943    1.060493
     29          1           0        1.708931    2.658968   -0.978324
     30          1           0        1.647780    0.603236   -1.676319
 ---------------------------------------------------------------------
 Rotational constants (GHZ):           0.7357341           0.3057012           0.2232781
 Standard basis: 6-31G(2df,p) (6D, 7F)
 There are   592 symmetry adapted cartesian basis functions of A   symmetry.
 There are   541 symmetry adapted basis functions of A   symmetry.
   541 basis functions,   839 primitive gaussians,   592 cartesian basis functions
    59 alpha electrons       59 beta electrons
       nuclear repulsion energy      1070.7127634719 Hartrees.
 NAtoms=   30 NActive=   30 NUniq=   30 SFac= 1.00D+00 NAtFMM=   60 NAOKFM=F Big=F
 Integral buffers will be    131072 words long.
 Raffenetti 2 integral format.
 Two-electron integral symmetry is turned on.
 One-electron integrals computed using PRISM.
 PrsmSu:  requested number of processors reduced to:  12 ShMem   1 Linda.
 NBasis=   541 RedAO= T EigKep=  1.60D-04  NBF=   541
 NBsUse=   541 1.00D-06 EigRej= -1.00D+00 NBFU=   541
 ExpMin= 1.61D-01 ExpMax= 4.17D+03 ExpMxC= 6.27D+02 IAcc=3 IRadAn=         5 AccDes= 0.00D+00
 Harris functional with IExCor=  402 and IRadAn=       5 diagonalized for initial guess.
 HarFok:  IExCor=  402 AccDes= 0.00D+00 IRadAn=         5 IDoV= 1 UseB2=F ITyADJ=14
 ICtDFT=  3500011 ScaDFX=  1.000000  1.000000  1.000000  1.000000
 FoFCou: FMM=F IPFlag=           0 FMFlag=      100000 FMFlg1=           0
         NFxFlg=           0 DoJE=T BraDBF=F KetDBF=T FulRan=T
         wScrn=  0.000000 ICntrl=       500 IOpCl=  0 I1Cent=   200000004 NGrid=           0
         NMat0=    1 NMatS0=      1 NMatT0=    0 NMatD0=    1 NMtDS0=    0 NMtDT0=    0
 Petite list used in FoFCou.
 Requested convergence on RMS density matrix=1.00D-08 within 128 cycles.
 Requested convergence on MAX density matrix=1.00D-06.
 Requested convergence on             energy=1.00D-06.
 No special actions if energy rises.
 Integral accuracy reduced to 1.0D-05 until final iterations.
 Initial convergence to 1.0D-05 achieved.  Increase integral accuracy.
 SCF Done:  E(RB3LYP) =  -705.158551942     A.U. after   17 cycles
            NFock= 17  Conv=0.99D-08     -V/T= 2.0082

 **********************************************************************

            Population analysis using the SCF density.

 **********************************************************************

 Orbital symmetries:
       Occupied  (A) (A) (A) (A) (A) (A) (A) (A) (A) (A) (A) (A)
                 (A) (A) (A) (A) (A) (A) (A) (A) (A) (A) (A) (A)
                 (A) (A) (A) (A) (A) (A) (A) (A) (A) (A) (A) (A)
                 (A) (A) (A) (A) (A) (A) (A) (A) (A) (A) (A) (A)
                 (A) (A) (A) (A) (A) (A) (A) (A) (A) (A) (A)
       Virtual   (A) (A) (A) (A) (A) (A) (A) (A) (A) (A) (A) (A)
                 (A) (A) (A) (A) (A) (A) (A) (A) (A) (A) (A) (A)
                 (A) (A) (A) (A) (A) (A) (A) (A) (A) (A) (A) (A)
                 (A) (A) (A) (A) (A) (A) (A) (A) (A) (A) (A) (A)
                 (A) (A) (A) (A) (A) (A) (A) (A) (A) (A) (A) (A)
                 (A) (A) (A) (A) (A) (A) (A) (A) (A) (A) (A) (A)
                 (A) (A) (A) (A) (A) (A) (A) (A) (A) (A) (A) (A)
                 (A) (A) (A) (A) (A) (A) (A) (A) (A) (A) (A) (A)
                 (A) (A) (A) (A) (A) (A) (A) (A) (A) (A) (A) (A)
                 (A) (A) (A) (A) (A) (A) (A) (A) (A) (A) (A) (A)
                 (A) (A) (A) (A) (A) (A) (A) (A) (A) (A) (A) (A)
                 (A) (A) (A) (A) (A) (A) (A) (A) (A) (A) (A) (A)
                 (A) (A) (A) (A) (A) (A) (A) (A) (A) (A) (A) (A)
                 (A) (A) (A) (A) (A) (A) (A) (A) (A) (A) (A) (A)
                 (A) (A) (A) (A) (A) (A) (A) (A) (A) (A) (A) (A)
                 (A) (A) (A) (A) (A) (A) (A) (A) (A) (A) (A) (A)
                 (A) (A) (A) (A) (A) (A) (A) (A) (A) (A) (A) (A)
                 (A) (A) (A) (A) (A) (A) (A) (A) (A) (A) (A) (A)
                 (A) (A) (A) (A) (A) (A) (A) (A) (A) (A) (A) (A)
                 (A) (A) (A) (A) (A) (A) (A) (A) (A) (A) (A) (A)
                 (A) (A) (A) (A) (A) (A) (A) (A) (A) (A) (A) (A)
                 (A) (A) (A) (A) (A) (A) (A) (A) (A) (A) (A) (A)
                 (A) (A) (A) (A) (A) (A) (A) (A) (A) (A) (A) (A)
                 (A) (A) (A) (A) (A) (A) (A) (A) (A) (A) (A) (A)
                 (A) (A) (A) (A) (A) (A) (A) (A) (A) (A) (A) (A)
                 (A) (A) (A) (A) (A) (A) (A) (A) (A) (A) (A) (A)
                 (A) (A) (A) (A) (A) (A) (A) (A) (A) (A) (A) (A)
                 (A) (A) (A) (A) (A) (A) (A) (A) (A) (A) (A) (A)
                 (A) (A) (A) (A) (A) (A) (A) (A) (A) (A) (A) (A)
                 (A) (A) (A) (A) (A) (A) (A) (A) (A) (A) (A) (A)
                 (A) (A) (A) (A) (A) (A) (A) (A) (A) (A) (A) (A)
                 (A) (A) (A) (A) (A) (A) (A) (A) (A) (A) (A) (A)
                 (A) (A) (A) (A) (A) (A) (A) (A) (A) (A) (A) (A)
                 (A) (A) (A) (A) (A) (A) (A) (A) (A) (A) (A) (A)
                 (A) (A) (A) (A) (A) (A) (A) (A) (A) (A) (A) (A)
                 (A) (A) (A) (A) (A) (A) (A) (A) (A) (A) (A) (A)
                 (A) (A) (A) (A) (A) (A) (A) (A) (A) (A) (A) (A)
                 (A) (A) (A) (A) (A) (A) (A) (A) (A) (A) (A) (A)
                 (A) (A) (A) (A) (A) (A) (A) (A) (A) (A) (A) (A)
                 (A) (A) (A) (A) (A) (A) (A) (A) (A) (A) (A) (A)
                 (A) (A)
 The electronic state is 1-A.
 Alpha  occ. eigenvalues --  -14.42089 -14.34845 -14.31747 -10.25931 -10.25572
 Alpha  occ. eigenvalues --  -10.24598 -10.23645 -10.22544 -10.22517 -10.22004
 Alpha  occ. eigenvalues --  -10.20857 -10.20818 -10.20162 -10.19945 -10.19849
 Alpha  occ. eigenvalues --  -10.19385 -10.18602  -1.06183  -0.91059  -0.86140
 Alpha  occ. eigenvalues --   -0.84231  -0.83202  -0.78565  -0.77964  -0.75050
 Alpha  occ. eigenvalues --   -0.71827  -0.68054  -0.63550  -0.61993  -0.60755
 Alpha  occ. eigenvalues --   -0.58196  -0.56401  -0.55114  -0.53032  -0.51379
 Alpha  occ. eigenvalues --   -0.48545  -0.47165  -0.47118  -0.46527  -0.45633
 Alpha  occ. eigenvalues --   -0.44613  -0.44239  -0.42850  -0.41664  -0.40888
 Alpha  occ. eigenvalues --   -0.37729  -0.37199  -0.37010  -0.35692  -0.34500
 Alpha  occ. eigenvalues --   -0.32682  -0.30269  -0.28959  -0.27574  -0.27149
 Alpha  occ. eigenvalues --   -0.26030  -0.22966  -0.20936  -0.17981
 Alpha virt. eigenvalues --   -0.10944  -0.07885  -0.05309  -0.00228   0.00813
 Alpha virt. eigenvalues --    0.03061   0.05758   0.06517   0.07986   0.10755
 Alpha virt. eigenvalues --    0.11581   0.12317   0.12851   0.13401   0.13721
 Alpha virt. eigenvalues --    0.14451   0.14605   0.15862   0.16696   0.16940
 Alpha virt. eigenvalues --    0.18604   0.19913   0.21428   0.22789   0.25182
 Alpha virt. eigenvalues --    0.26143   0.28041   0.28501   0.29448   0.30833
 Alpha virt. eigenvalues --    0.31820   0.32075   0.32716   0.33941   0.34467
 Alpha virt. eigenvalues --    0.37619   0.37900   0.38679   0.40170   0.42544
 Alpha virt. eigenvalues --    0.43550   0.44787   0.45459   0.46314   0.46609
 Alpha virt. eigenvalues --    0.47865   0.48286   0.48970   0.49661   0.50286
 Alpha virt. eigenvalues --    0.50753   0.51251   0.51927   0.52336   0.52572
 Alpha virt. eigenvalues --    0.52947   0.53952   0.54832   0.55854   0.55982
 Alpha virt. eigenvalues --    0.57991   0.58274   0.58965   0.59372   0.59844
 Alpha virt. eigenvalues --    0.60751   0.61732   0.62331   0.62913   0.63849
 Alpha virt. eigenvalues --    0.64837   0.66100   0.66746   0.67851   0.69591
 Alpha virt. eigenvalues --    0.69652   0.71583   0.72013   0.72977   0.73378
 Alpha virt. eigenvalues --    0.73922   0.74472   0.74874   0.75598   0.75805
 Alpha virt. eigenvalues --    0.75918   0.76736   0.77491   0.78200   0.78631
 Alpha virt. eigenvalues --    0.79024   0.79768   0.79959   0.80263   0.80996
 Alpha virt. eigenvalues --    0.82145   0.82385   0.83760   0.83998   0.85443
 Alpha virt. eigenvalues --    0.86085   0.87207   0.87985   0.88814   0.90298
 Alpha virt. eigenvalues --    0.90888   0.91333   0.92951   0.93611   0.93811
 Alpha virt. eigenvalues --    0.95311   0.96783   0.97170   0.98928   0.99269
 Alpha virt. eigenvalues --    1.01785   1.02510   1.03447   1.04548   1.05950
 Alpha virt. eigenvalues --    1.07208   1.07865   1.08357   1.10704   1.12442
 Alpha virt. eigenvalues --    1.13071   1.14594   1.15776   1.16219   1.18471
 Alpha virt. eigenvalues --    1.19107   1.22171   1.24086   1.24670   1.26602
 Alpha virt. eigenvalues --    1.28069   1.29369   1.29994   1.30803   1.32785
 Alpha virt. eigenvalues --    1.33677   1.34563   1.35459   1.36647   1.38167
 Alpha virt. eigenvalues --    1.38621   1.39227   1.40688   1.42818   1.43558
 Alpha virt. eigenvalues --    1.45084   1.46406   1.47323   1.48660   1.49404
 Alpha virt. eigenvalues --    1.51317   1.52702   1.52910   1.53721   1.55449
 Alpha virt. eigenvalues --    1.56472   1.57717   1.58389   1.59802   1.60992
 Alpha virt. eigenvalues --    1.62426   1.62652   1.63317   1.63907   1.65071
 Alpha virt. eigenvalues --    1.65870   1.66614   1.68454   1.70461   1.71212
 Alpha virt. eigenvalues --    1.71907   1.72960   1.75796   1.77125   1.79077
 Alpha virt. eigenvalues --    1.80650   1.82005   1.83810   1.84257   1.85269
 Alpha virt. eigenvalues --    1.86142   1.88666   1.90129   1.91006   1.94907
 Alpha virt. eigenvalues --    1.97308   1.98898   1.99793   2.00876   2.02759
 Alpha virt. eigenvalues --    2.04066   2.07363   2.09163   2.09757   2.10978
 Alpha virt. eigenvalues --    2.13596   2.15841   2.17414   2.18760   2.19126
 Alpha virt. eigenvalues --    2.21051   2.22865   2.24901   2.25634   2.26946
 Alpha virt. eigenvalues --    2.28727   2.30122   2.31550   2.33540   2.35503
 Alpha virt. eigenvalues --    2.37222   2.38298   2.39745   2.42742   2.45337
 Alpha virt. eigenvalues --    2.45890   2.48679   2.50283   2.50594   2.54791
 Alpha virt. eigenvalues --    2.55990   2.57779   2.59472   2.62193   2.66735
 Alpha virt. eigenvalues --    2.70212   2.72170   2.73633   2.73766   2.76361
 Alpha virt. eigenvalues --    2.76564   2.77688   2.79104   2.79278   2.80587
 Alpha virt. eigenvalues --    2.81842   2.84116   2.86293   2.86725   2.87898
 Alpha virt. eigenvalues --    2.88326   2.88980   2.90036   2.91122   2.91185
 Alpha virt. eigenvalues --    2.92068   2.93018   2.94760   2.95997   2.97045
 Alpha virt. eigenvalues --    2.97445   2.98641   3.00457   3.01726   3.02028
 Alpha virt. eigenvalues --    3.03305   3.04449   3.05197   3.05542   3.06465
 Alpha virt. eigenvalues --    3.07770   3.08698   3.09701   3.10444   3.11778
 Alpha virt. eigenvalues --    3.12765   3.13450   3.14661   3.15919   3.17032
 Alpha virt. eigenvalues --    3.19288   3.19802   3.20937   3.21622   3.22597
 Alpha virt. eigenvalues --    3.23757   3.25607   3.26540   3.27649   3.28135
 Alpha virt. eigenvalues --    3.29240   3.30193   3.31420   3.33318   3.34338
 Alpha virt. eigenvalues --    3.34486   3.35389   3.37141   3.37756   3.38931
 Alpha virt. eigenvalues --    3.39480   3.39900   3.40541   3.43492   3.44417
 Alpha virt. eigenvalues --    3.45128   3.46924   3.47743   3.49289   3.50655
 Alpha virt. eigenvalues --    3.51354   3.52267   3.53543   3.54030   3.55253
 Alpha virt. eigenvalues --    3.58385   3.59231   3.59266   3.60038   3.60960
 Alpha virt. eigenvalues --    3.62691   3.63538   3.63718   3.66623   3.69356
 Alpha virt. eigenvalues --    3.71088   3.72603   3.73347   3.75531   3.75682
 Alpha virt. eigenvalues --    3.76876   3.78387   3.79495   3.80645   3.82168
 Alpha virt. eigenvalues --    3.84563   3.86585   3.89168   3.90333   3.91589
 Alpha virt. eigenvalues --    3.92559   3.94394   3.96600   3.98946   3.99415
 Alpha virt. eigenvalues --    4.02312   4.03778   4.04229   4.05873   4.07711
 Alpha virt. eigenvalues --    4.07947   4.09283   4.13467   4.15876   4.16423
 Alpha virt. eigenvalues --    4.17422   4.19528   4.21482   4.23092   4.24809
 Alpha virt. eigenvalues --    4.25967   4.26112   4.27028   4.28618   4.29207
 Alpha virt. eigenvalues --    4.32659   4.33327   4.34839   4.35835   4.36906
 Alpha virt. eigenvalues --    4.37946   4.39717   4.40952   4.41421   4.41957
 Alpha virt. eigenvalues --    4.42654   4.44555   4.45800   4.46491   4.47503
 Alpha virt. eigenvalues --    4.48803   4.49357   4.49644   4.51076   4.51465
 Alpha virt. eigenvalues --    4.53126   4.54340   4.55193   4.57176   4.57830
 Alpha virt. eigenvalues --    4.58722   4.59028   4.59589   4.61574   4.61974
 Alpha virt. eigenvalues --    4.62271   4.62714   4.63329   4.65056   4.66922
 Alpha virt. eigenvalues --    4.67684   4.69960   4.71202   4.72030   4.73336
 Alpha virt. eigenvalues --    4.73678   4.74538   4.75224   4.76432   4.78054
 Alpha virt. eigenvalues --    4.78183   4.80477   4.81319   4.83179   4.84729
 Alpha virt. eigenvalues --    4.85235   4.88170   4.89350   4.90087   4.90521
 Alpha virt. eigenvalues --    4.93040   4.93374   4.96284   4.97425   4.97882
 Alpha virt. eigenvalues --    5.00854   5.04222   5.06082   5.08012   5.09726
 Alpha virt. eigenvalues --    5.11730   5.12544   5.14096   5.15525   5.16608
 Alpha virt. eigenvalues --    5.19879   5.21264   5.23327   5.28452   5.32314
 Alpha virt. eigenvalues --    5.33540   5.34779   5.37489   5.39087   5.39707
 Alpha virt. eigenvalues --    5.42198   5.45347   5.46975   5.48110   5.49177
 Alpha virt. eigenvalues --    5.51110   5.56119   5.58258   5.59847   5.64399
 Alpha virt. eigenvalues --    5.65451   5.71244   5.74826   5.77749   5.82827
 Alpha virt. eigenvalues --    5.87844   5.94250   5.96553   6.07720   6.21371
 Alpha virt. eigenvalues --    6.24282   6.68723   9.70415  10.06737  10.20976
 Alpha virt. eigenvalues --   10.44331  10.53885  10.75277  11.00849  11.12189
 Alpha virt. eigenvalues --   11.29018  11.38865  11.43580  11.50282  11.55553
 Alpha virt. eigenvalues --   11.67685  11.85671  11.89872  12.04402  12.23543
 Alpha virt. eigenvalues --   16.91909  23.16416
          Condensed to atoms (all electrons):
               1          2          3          4          5          6
     1  C    4.964894   0.661465  -0.007498  -0.002297  -0.000004  -0.000001
     2  C    0.661465   4.781352   0.391588  -0.048827   0.002839  -0.000172
     3  C   -0.007498   0.391588   4.935187   0.451799  -0.040091  -0.001883
     4  C   -0.002297  -0.048827   0.451799   5.098310   0.463345  -0.018899
     5  C   -0.000004   0.002839  -0.040091   0.463345   4.798574   0.567182
     6  C   -0.000001  -0.000172  -0.001883  -0.018899   0.567182   5.023537
     7  C   -0.000000   0.000004  -0.000268   0.002964  -0.008694   0.373570
     8  N   -0.000000   0.000000   0.000000   0.000182  -0.006489  -0.024299
     9  C   -0.000000  -0.000000   0.000000   0.000002   0.000732   0.000859
    10  N    0.000000   0.000000  -0.000000   0.000002   0.000083   0.007347
    11  N    0.000000  -0.000000   0.000001  -0.000041   0.000817  -0.032204
    12  C   -0.000000   0.000000   0.000002  -0.000013   0.000358  -0.006898
    13  C    0.000000  -0.000001   0.000167   0.000344  -0.001531  -0.009367
    14  C    0.000000   0.000000  -0.000007   0.000022   0.000105   0.000415
    15  C    0.000001   0.000044  -0.000693   0.000587   0.000014  -0.000608
    16  C    0.000218   0.001109  -0.019503  -0.007920  -0.002465   0.001035
    17  C    0.002408  -0.042559   0.382892  -0.065899  -0.012992   0.001414
    18  H    0.360364  -0.005907   0.003104   0.000104   0.000002   0.000000
    19  H    0.368321  -0.025261  -0.007881   0.001724  -0.000010   0.000001
    20  H   -0.043356   0.344285  -0.059817   0.005304   0.000068   0.000020
    21  H    0.000321  -0.005140  -0.045053   0.342811  -0.035208  -0.006301
    22  H    0.000019  -0.000008  -0.001468  -0.047731   0.371363  -0.039291
    23  H    0.000000  -0.000017   0.000779  -0.014005  -0.037223   0.360356
    24  H    0.000000  -0.000000  -0.000000  -0.000000  -0.000010  -0.000307
    25  H    0.000000  -0.000000   0.000000   0.000000   0.000001  -0.000230
    26  H   -0.000000   0.000005  -0.000407  -0.000866   0.002986   0.013938
    27  H   -0.000000  -0.000000   0.000000  -0.000000  -0.000001  -0.000033
    28  H   -0.000000  -0.000002  -0.000003  -0.000023  -0.000004   0.000008
    29  H   -0.000004  -0.000191   0.005148   0.000628   0.000144  -0.000075
    30  H    0.000123   0.004405  -0.072144   0.014277   0.005900  -0.002211
               7          8          9         10         11         12
     1  C   -0.000000  -0.000000  -0.000000   0.000000   0.000000  -0.000000
     2  C    0.000004   0.000000  -0.000000   0.000000  -0.000000   0.000000
     3  C   -0.000268   0.000000   0.000000  -0.000000   0.000001   0.000002
     4  C    0.002964   0.000182   0.000002   0.000002  -0.000041  -0.000013
     5  C   -0.008694  -0.006489   0.000732   0.000083   0.000817   0.000358
     6  C    0.373570  -0.024299   0.000859   0.007347  -0.032204  -0.006898
     7  C    4.522835   0.531512  -0.103900  -0.078864   0.466494  -0.050836
     8  N    0.531512   6.374525   0.556550  -0.067760  -0.039184   0.009641
     9  C   -0.103900   0.556550   4.693983   0.557746  -0.112498   0.006951
    10  N   -0.078864  -0.067760   0.557746   6.510384   0.394354  -0.042420
    11  N    0.466494  -0.039184  -0.112498   0.394354   6.088961   0.386883
    12  C   -0.050836   0.009641   0.006951  -0.042420   0.386883   4.869920
    13  C   -0.004769  -0.000161  -0.000125   0.001622  -0.019017   0.618061
    14  C    0.000008  -0.000016   0.000002  -0.000037   0.003455  -0.011813
    15  C    0.000065  -0.000000   0.000000  -0.000000  -0.000027   0.003359
    16  C    0.000047  -0.000000   0.000000  -0.000000  -0.000002   0.000594
    17  C    0.000384  -0.000001   0.000000  -0.000000   0.000007   0.000021
    18  H    0.000000  -0.000000  -0.000000   0.000000  -0.000000  -0.000000
    19  H   -0.000000  -0.000000  -0.000000   0.000000  -0.000000   0.000000
    20  H   -0.000000   0.000000  -0.000000   0.000000   0.000000  -0.000000
    21  H    0.000124   0.000004  -0.000001   0.000000  -0.000002  -0.000004
    22  H   -0.013984   0.003779  -0.000175   0.000018  -0.000005  -0.000038
    23  H   -0.038875   0.000728  -0.000205   0.000074  -0.002850  -0.000083
    24  H    0.003600  -0.026760   0.372618  -0.035633   0.004684  -0.000078
    25  H    0.003943  -0.000196   0.000392   0.000002  -0.027386   0.350341
    26  H    0.000587   0.000342  -0.000034  -0.000172  -0.020548  -0.046125
    27  H    0.000008  -0.000000   0.000000  -0.000001  -0.000107  -0.007330
    28  H    0.000002  -0.000000   0.000000  -0.000000   0.000001  -0.000289
    29  H   -0.000005   0.000000   0.000000  -0.000000  -0.000001  -0.000011
    30  H    0.000022  -0.000000  -0.000000   0.000000   0.000009  -0.000051
              13         14         15         16         17         18
     1  C    0.000000   0.000000   0.000001   0.000218   0.002408   0.360364
     2  C   -0.000001   0.000000   0.000044   0.001109  -0.042559  -0.005907
     3  C    0.000167  -0.000007  -0.000693  -0.019503   0.382892   0.003104
     4  C    0.000344   0.000022   0.000587  -0.007920  -0.065899   0.000104
     5  C   -0.001531   0.000105   0.000014  -0.002465  -0.012992   0.000002
     6  C   -0.009367   0.000415  -0.000608   0.001035   0.001414   0.000000
     7  C   -0.004769   0.000008   0.000065   0.000047   0.000384   0.000000
     8  N   -0.000161  -0.000016  -0.000000  -0.000000  -0.000001  -0.000000
     9  C   -0.000125   0.000002   0.000000   0.000000   0.000000  -0.000000
    10  N    0.001622  -0.000037  -0.000000  -0.000000  -0.000000   0.000000
    11  N   -0.019017   0.003455  -0.000027  -0.000002   0.000007  -0.000000
    12  C    0.618061  -0.011813   0.003359   0.000594   0.000021  -0.000000
    13  C    4.716060   0.460880  -0.023841  -0.022143   0.001318  -0.000000
    14  C    0.460880   4.887930   0.610136  -0.034559  -0.004911  -0.000000
    15  C   -0.023841   0.610136   5.007814   0.384791  -0.033480  -0.000000
    16  C   -0.022143  -0.034559   0.384791   5.088231   0.557849  -0.000002
    17  C    0.001318  -0.004911  -0.033480   0.557849   5.038106  -0.000064
    18  H   -0.000000  -0.000000  -0.000000  -0.000002  -0.000064   0.578905
    19  H   -0.000000  -0.000000  -0.000000  -0.000001   0.000158  -0.050570
    20  H   -0.000000  -0.000000   0.000000   0.000201   0.004835  -0.011292
    21  H   -0.000247   0.000032   0.000080   0.000179   0.002832   0.000002
    22  H   -0.000078   0.000008  -0.000003   0.000128  -0.000419  -0.000000
    23  H   -0.004881   0.001321   0.000366   0.000864  -0.000619  -0.000000
    24  H    0.000001  -0.000000   0.000000   0.000000  -0.000000   0.000000
    25  H   -0.031576  -0.006728  -0.000245  -0.000017  -0.000000  -0.000000
    26  H    0.345018  -0.060850  -0.038158   0.006189   0.001862   0.000000
    27  H   -0.041594   0.358891  -0.035608   0.003225  -0.000013   0.000000
    28  H    0.001643  -0.045676   0.352029  -0.037589   0.003497   0.000000
    29  H   -0.000050  -0.008355  -0.046074   0.298174  -0.036469  -0.000000
    30  H    0.000197   0.001132   0.003778  -0.062016   0.358709  -0.000001
              19         20         21         22         23         24
     1  C    0.368321  -0.043356   0.000321   0.000019   0.000000   0.000000
     2  C   -0.025261   0.344285  -0.005140  -0.000008  -0.000017  -0.000000
     3  C   -0.007881  -0.059817  -0.045053  -0.001468   0.000779  -0.000000
     4  C    0.001724   0.005304   0.342811  -0.047731  -0.014005  -0.000000
     5  C   -0.000010   0.000068  -0.035208   0.371363  -0.037223  -0.000010
     6  C    0.000001   0.000020  -0.006301  -0.039291   0.360356  -0.000307
     7  C   -0.000000  -0.000000   0.000124  -0.013984  -0.038875   0.003600
     8  N   -0.000000   0.000000   0.000004   0.003779   0.000728  -0.026760
     9  C   -0.000000  -0.000000  -0.000001  -0.000175  -0.000205   0.372618
    10  N    0.000000   0.000000   0.000000   0.000018   0.000074  -0.035633
    11  N   -0.000000   0.000000  -0.000002  -0.000005  -0.002850   0.004684
    12  C    0.000000  -0.000000  -0.000004  -0.000038  -0.000083  -0.000078
    13  C   -0.000000  -0.000000  -0.000247  -0.000078  -0.004881   0.000001
    14  C   -0.000000  -0.000000   0.000032   0.000008   0.001321  -0.000000
    15  C   -0.000000   0.000000   0.000080  -0.000003   0.000366   0.000000
    16  C   -0.000001   0.000201   0.000179   0.000128   0.000864   0.000000
    17  C    0.000158   0.004835   0.002832  -0.000419  -0.000619  -0.000000
    18  H   -0.050570  -0.011292   0.000002  -0.000000  -0.000000   0.000000
    19  H    0.586564   0.006969   0.000035   0.000009   0.000000   0.000000
    20  H    0.006969   0.645186   0.001527   0.000001   0.000002   0.000000
    21  H    0.000035   0.001527   0.599116   0.005130   0.006189   0.000000
    22  H    0.000009   0.000001   0.005130   0.599269   0.006524   0.000001
    23  H    0.000000   0.000002   0.006189   0.006524   0.598239   0.000006
    24  H    0.000000   0.000000   0.000000   0.000001   0.000006   0.555689
    25  H   -0.000000  -0.000000  -0.000000  -0.000000  -0.000062   0.000002
    26  H    0.000000   0.000001   0.000476   0.000180  -0.002302   0.000001
    27  H    0.000000   0.000000   0.000000   0.000000  -0.000026   0.000000
    28  H    0.000000   0.000000   0.000006   0.000000  -0.000061  -0.000000
    29  H   -0.000000  -0.000026  -0.000009   0.000007  -0.000010   0.000000
    30  H   -0.000026  -0.000245  -0.000614   0.000106   0.000005  -0.000000
              25         26         27         28         29         30
     1  C    0.000000  -0.000000  -0.000000  -0.000000  -0.000004   0.000123
     2  C   -0.000000   0.000005  -0.000000  -0.000002  -0.000191   0.004405
     3  C    0.000000  -0.000407   0.000000  -0.000003   0.005148  -0.072144
     4  C    0.000000  -0.000866  -0.000000  -0.000023   0.000628   0.014277
     5  C    0.000001   0.002986  -0.000001  -0.000004   0.000144   0.005900
     6  C   -0.000230   0.013938  -0.000033   0.000008  -0.000075  -0.002211
     7  C    0.003943   0.000587   0.000008   0.000002  -0.000005   0.000022
     8  N   -0.000196   0.000342  -0.000000  -0.000000   0.000000  -0.000000
     9  C    0.000392  -0.000034   0.000000   0.000000   0.000000  -0.000000
    10  N    0.000002  -0.000172  -0.000001  -0.000000  -0.000000   0.000000
    11  N   -0.027386  -0.020548  -0.000107   0.000001  -0.000001   0.000009
    12  C    0.350341  -0.046125  -0.007330  -0.000289  -0.000011  -0.000051
    13  C   -0.031576   0.345018  -0.041594   0.001643  -0.000050   0.000197
    14  C   -0.006728  -0.060850   0.358891  -0.045676  -0.008355   0.001132
    15  C   -0.000245  -0.038158  -0.035608   0.352029  -0.046074   0.003778
    16  C   -0.000017   0.006189   0.003225  -0.037589   0.298174  -0.062016
    17  C   -0.000000   0.001862  -0.000013   0.003497  -0.036469   0.358709
    18  H   -0.000000   0.000000   0.000000   0.000000  -0.000000  -0.000001
    19  H   -0.000000   0.000000   0.000000   0.000000  -0.000000  -0.000026
    20  H   -0.000000   0.000001   0.000000   0.000000  -0.000026  -0.000245
    21  H   -0.000000   0.000476   0.000000   0.000006  -0.000009  -0.000614
    22  H   -0.000000   0.000180   0.000000   0.000000   0.000007   0.000106
    23  H   -0.000062  -0.002302  -0.000026  -0.000061  -0.000010   0.000005
    24  H    0.000002   0.000001   0.000000  -0.000000   0.000000  -0.000000
    25  H    0.566944   0.007207   0.002099   0.000005   0.000000   0.000001
    26  H    0.007207   0.683323   0.008859   0.001373  -0.000689   0.000102
    27  H    0.002099   0.008859   0.598055  -0.004047   0.000111   0.000002
    28  H    0.000005   0.001373  -0.004047   0.588839   0.002510  -0.000150
    29  H    0.000000  -0.000689   0.000111   0.002510   0.597720  -0.017825
    30  H    0.000001   0.000102   0.000002  -0.000150  -0.017825   0.636904
 Mulliken charges:
               1
     1  C   -0.304976
     2  C   -0.059011
     3  C    0.086047
     4  C   -0.175884
     5  C   -0.069792
     6  C   -0.206905
     7  C    0.394027
     8  N   -0.312396
     9  C    0.027102
    10  N   -0.246741
    11  N   -0.091795
    12  C   -0.080140
    13  C    0.014071
    14  C   -0.151385
    15  C   -0.184328
    16  C   -0.156618
    17  C   -0.158866
    18  H    0.125354
    19  H    0.119967
    20  H    0.106336
    21  H    0.133715
    22  H    0.116659
    23  H    0.125769
    24  H    0.126185
    25  H    0.135504
    26  H    0.097702
    27  H    0.117510
    28  H    0.137932
    29  H    0.205353
    30  H    0.129609
 Sum of Mulliken charges =  -0.00000
 Mulliken charges with hydrogens summed into heavy atoms:
               1
     1  C   -0.059656
     2  C    0.047325
     3  C    0.086047
     4  C   -0.042170
     5  C    0.046866
     6  C   -0.081137
     7  C    0.394027
     8  N   -0.312396
     9  C    0.153287
    10  N   -0.246741
    11  N   -0.091795
    12  C    0.055364
    13  C    0.111772
    14  C   -0.033875
    15  C   -0.046395
    16  C    0.048735
    17  C   -0.029257
 Electronic spatial extent (au):  <R**2>=           4695.9239
 Charge=             -0.0000 electrons
 Dipole moment (field-independent basis, Debye):
    X=              2.2484    Y=              2.8257    Z=             -0.0405  Tot=              3.6113
 Quadrupole moment (field-independent basis, Debye-Ang):
   XX=           -100.6727   YY=            -97.0244   ZZ=            -97.7080
   XY=             -4.9197   XZ=             -1.3622   YZ=              3.6424
 Traceless Quadrupole moment (field-independent basis, Debye-Ang):
   XX=             -2.2043   YY=              1.4440   ZZ=              0.7603
   XY=             -4.9197   XZ=             -1.3622   YZ=              3.6424
 Octapole moment (field-independent basis, Debye-Ang**2):
  XXX=             42.9699  YYY=             25.8545  ZZZ=              1.3568  XYY=            -15.9947
  XXY=            -13.6728  XXZ=              4.0677  XZZ=             -1.0659  YZZ=             -0.3653
  YYZ=             -7.1708  XYZ=              2.8531
 Hexadecapole moment (field-independent basis, Debye-Ang**3):
 XXXX=          -4318.4539 YYYY=          -1834.2930 ZZZZ=           -216.8122 XXXY=            -67.8465
 XXXZ=             15.5906 YYYX=            -22.7305 YYYZ=             53.4386 ZZZX=              1.1670
 ZZZY=              7.6298 XXYY=           -936.7767 XXZZ=           -788.1858 YYZZ=           -348.8237
 XXYZ=             30.3396 YYXZ=             -9.5434 ZZXY=              8.3748
 N-N= 1.070712763472D+03 E-N=-3.776924448716D+03  KE= 6.994254954964D+02
 PrsmSu:  requested number of processors reduced to:  13 ShMem   1 Linda.
 Calling FoFJK, ICntrl=      2127 FMM=F ISym2X=0 I1Cent= 0 IOpClX= 0 NMat=1 NMatS=1 NMatT=0.
 ***** Axes restored to original set *****
 -------------------------------------------------------------------
 Center     Atomic                   Forces (Hartrees/Bohr)
 Number     Number              X              Y              Z
 -------------------------------------------------------------------
      1        6           0.013994135   -0.001266012   -0.001570195
      2        6           0.004416125   -0.013066183    0.000743126
      3        6          -0.022812619   -0.033344829   -0.011009882
      4        6           0.052325153    0.030665026    0.013272034
      5        6          -0.006374411   -0.013721862   -0.006854821
      6        6          -0.006469927   -0.004052047    0.004054580
      7        6           0.029250706    0.004057663   -0.021632043
      8        7           0.003735623   -0.001703640    0.004002368
      9        6           0.009241116    0.006302891   -0.009670304
     10        7          -0.004991741   -0.000892884   -0.002497217
     11        7          -0.015535468   -0.000691708    0.029612264
     12        6          -0.003286883   -0.004861467   -0.004929781
     13        6          -0.010910008    0.035796765    0.008109658
     14        6           0.008133692    0.001337982    0.013446627
     15        6           0.001207517   -0.050959495    0.040757084
     16        6           0.009840671    0.023775470   -0.035458686
     17        6          -0.011205815    0.029973757    0.016618214
     18        1           0.011263387    0.004573070   -0.001904571
     19        1           0.011168768    0.003068412   -0.006333647
     20        1           0.001001669   -0.009199874   -0.007494129
     21        1          -0.027701151   -0.003048656    0.037055558
     22        1           0.004100786    0.000544151   -0.003154347
     23        1           0.001731866    0.002626104    0.000497565
     24        1           0.000694974    0.000881162   -0.001292697
     25        1           0.001860363    0.007653780    0.003178254
     26        1          -0.021056102    0.012033874    0.009556641
     27        1          -0.012188437   -0.014661890   -0.003884636
     28        1          -0.010984100   -0.008306536   -0.027545078
     29        1          -0.004034839    0.014386352   -0.005575596
     30        1          -0.006415053   -0.017899374   -0.030096343
 -------------------------------------------------------------------
 Cartesian Forces:  Max     0.052325153 RMS     0.016533428

 GradGradGradGradGradGradGradGradGradGradGradGradGradGradGradGradGradGrad
 Berny optimization.
 FormGI is forming the generalized inverse of G from B-inverse, IUseBI=4.
 Internal  Forces:  Max     0.059220836 RMS     0.016430562
 Search for a local minimum.
 Step number   1 out of a maximum of  152
 All quantities printed in internal units (Hartrees-Bohrs-Radians)
 Mixed Optimization -- RFO/linear search
 Second derivative matrix not updated -- first step.
 ITU=  0
     Eigenvalues ---    0.00384   0.00550   0.01087   0.01357   0.01422
     Eigenvalues ---    0.01543   0.01629   0.01662   0.01687   0.01763
     Eigenvalues ---    0.01858   0.01909   0.02054   0.02174   0.02196
     Eigenvalues ---    0.02293   0.02449   0.02472   0.02501   0.02618
     Eigenvalues ---    0.02618   0.02629   0.02704   0.02740   0.03226
     Eigenvalues ---    0.04019   0.07664   0.09472   0.13338   0.14515
     Eigenvalues ---    0.15209   0.15580   0.15686   0.15900   0.15960
     Eigenvalues ---    0.15973   0.15985   0.15988   0.15999   0.16000
     Eigenvalues ---    0.16000   0.18024   0.21382   0.22037   0.22056
     Eigenvalues ---    0.22153   0.22639   0.22988   0.23304   0.23420
     Eigenvalues ---    0.23599   0.24857   0.24978   0.25522   0.26665
     Eigenvalues ---    0.30460   0.30724   0.33386   0.33439   0.33842
     Eigenvalues ---    0.34070   0.34189   0.34739   0.34908   0.35068
     Eigenvalues ---    0.35168   0.35275   0.36045   0.36062   0.36742
     Eigenvalues ---    0.39423   0.40675   0.43740   0.45233   0.47297
     Eigenvalues ---    0.48731   0.51143   0.52499   0.52856   0.52949
     Eigenvalues ---    0.55341   0.56122   0.56722   0.62057
 RFO step:  Lambda=-1.27436320D-01 EMin= 3.83785993D-03
 Linear search not attempted -- first point.
 Maximum step size (   0.300) exceeded in Quadratic search.
    -- Step size scaled by   0.661
 Iteration  1 RMS(Cart)=  0.12951784 RMS(Int)=  0.00462187
 Iteration  2 RMS(Cart)=  0.00741974 RMS(Int)=  0.00068640
 Iteration  3 RMS(Cart)=  0.00003781 RMS(Int)=  0.00068619
 Iteration  4 RMS(Cart)=  0.00000003 RMS(Int)=  0.00068619
 Variable       Old X    -DE/DX   Delta X   Delta X   Delta X     New X
                                 (Linear)    (Quad)   (Total)
    R1        2.57001  -0.03602   0.00000  -0.03625  -0.03625   2.53376
    R2        2.08379  -0.01061   0.00000  -0.01520  -0.01520   2.06859
    R3        2.06101  -0.00295   0.00000  -0.00411  -0.00411   2.05690
    R4        2.86542  -0.02652   0.00000  -0.04033  -0.04033   2.82509
    R5        2.05403   0.00713   0.00000   0.00984   0.00984   2.06387
    R6        2.56573   0.05922   0.00000   0.05991   0.05962   2.62535
    R7        2.95040  -0.01717   0.00000  -0.02747  -0.02749   2.92291
    R8        2.78026   0.00208   0.00000   0.00269   0.00231   2.78257
    R9        2.08288   0.00006   0.00000   0.00008   0.00008   2.08296
   R10        2.53690   0.00756   0.00000   0.00718   0.00705   2.54395
   R11        2.05824  -0.00141   0.00000  -0.00196  -0.00196   2.05628
   R12        2.70182   0.01760   0.00000   0.02141   0.02104   2.72286
   R13        2.05565  -0.00115   0.00000  -0.00159  -0.00159   2.05406
   R14        2.48176   0.00546   0.00000   0.00513   0.00500   2.48677
   R15        2.72112  -0.03180   0.00000  -0.04190  -0.04208   2.67904
   R16        2.55179   0.00929   0.00000   0.01007   0.01015   2.56193
   R17        2.50874  -0.01018   0.00000  -0.00901  -0.00884   2.49989
   R18        2.04011   0.00046   0.00000   0.00062   0.00062   2.04073
   R19        2.58037  -0.00386   0.00000  -0.00489  -0.00486   2.57550
   R20        2.66310  -0.00902   0.00000  -0.01126  -0.01096   2.65215
   R21        2.54419   0.00070   0.00000   0.00053   0.00094   2.54513
   R22        2.03985   0.00254   0.00000   0.00344   0.00344   2.04329
   R23        2.64665   0.04773   0.00000   0.05356   0.05394   2.70060
   R24        1.99045   0.01934   0.00000   0.02451   0.02451   2.01495
   R25        2.58168  -0.00054   0.00000  -0.00034  -0.00001   2.58167
   R26        2.07597  -0.00770   0.00000  -0.01093  -0.01093   2.06504
   R27        2.97735  -0.04424   0.00000  -0.07574  -0.07574   2.90162
   R28        2.07012  -0.00229   0.00000  -0.00322  -0.00322   2.06690
   R29        2.62087  -0.03006   0.00000  -0.03259  -0.03275   2.58812
   R30        2.13755   0.00629   0.00000   0.00962   0.00962   2.14717
   R31        2.07213   0.00205   0.00000   0.00289   0.00289   2.07502
    A1        2.08454   0.00016   0.00000   0.00037   0.00036   2.08491
    A2        2.26798  -0.01295   0.00000  -0.02979  -0.02979   2.23819
    A3        1.93066   0.01279   0.00000   0.02943   0.02943   1.96008
    A4        2.32910  -0.03072   0.00000  -0.05795  -0.05795   2.27115
    A5        1.95869   0.01603   0.00000   0.03140   0.03141   1.99010
    A6        1.98147   0.01488   0.00000   0.02863   0.02864   2.01011
    A7        1.99223   0.00863   0.00000   0.01743   0.01871   2.01094
    A8        2.27919  -0.03034   0.00000  -0.05697  -0.05607   2.22312
    A9        1.92060   0.02396   0.00000   0.05135   0.04906   1.96966
   A10        2.10877  -0.01486   0.00000  -0.01404  -0.01708   2.09169
   A11        1.88519   0.02210   0.00000   0.05970   0.05975   1.94494
   A12        1.91339   0.00381   0.00000   0.01644   0.01616   1.92955
   A13        2.15959  -0.00417   0.00000  -0.00437  -0.00532   2.15427
   A14        2.01187   0.00586   0.00000   0.01098   0.01143   2.02330
   A15        2.11060  -0.00175   0.00000  -0.00679  -0.00634   2.10427
   A16        2.13097   0.02243   0.00000   0.03820   0.03828   2.16925
   A17        2.06709  -0.00848   0.00000  -0.01319  -0.01327   2.05382
   A18        2.08334  -0.01405   0.00000  -0.02561  -0.02570   2.05764
   A19        2.19657   0.01558   0.00000   0.02614   0.02700   2.22357
   A20        2.17733  -0.01087   0.00000  -0.01688  -0.01800   2.15933
   A21        1.90851  -0.00479   0.00000  -0.00950  -0.00925   1.89926
   A22        1.80913  -0.00016   0.00000   0.00375   0.00341   1.81254
   A23        2.03296  -0.00558   0.00000  -0.00847  -0.00845   2.02451
   A24        2.13377   0.00423   0.00000   0.00754   0.00753   2.14130
   A25        2.11638   0.00134   0.00000   0.00088   0.00087   2.11725
   A26        1.80331  -0.00353   0.00000  -0.00766  -0.00765   1.79566
   A27        1.86660   0.01414   0.00000   0.02214   0.02218   1.88878
   A28        2.28266  -0.00819   0.00000  -0.01347  -0.01419   2.26847
   A29        2.13279  -0.00608   0.00000  -0.00950  -0.00899   2.12380
   A30        2.09313  -0.00086   0.00000  -0.00185  -0.00221   2.09092
   A31        2.03549  -0.00745   0.00000  -0.01766  -0.01754   2.01795
   A32        2.15326   0.00821   0.00000   0.01891   0.01908   2.17234
   A33        2.46445  -0.01846   0.00000  -0.03675  -0.03628   2.42816
   A34        1.99294  -0.00315   0.00000  -0.00990  -0.01024   1.98270
   A35        1.81869   0.02197   0.00000   0.04889   0.04863   1.86732
   A36        1.97913   0.02970   0.00000   0.06423   0.06328   2.04241
   A37        2.01876   0.00776   0.00000   0.03019   0.03020   2.04895
   A38        2.20045  -0.03071   0.00000  -0.06672  -0.06823   2.13222
   A39        2.33963  -0.04811   0.00000  -0.08274  -0.08286   2.25677
   A40        1.94545   0.03065   0.00000   0.06209   0.06230   2.00774
   A41        1.94890   0.01754   0.00000   0.02807   0.02824   1.97715
   A42        2.61694   0.03976   0.00000   0.08044   0.07965   2.69659
   A43        1.38214   0.01938   0.00000   0.04316   0.04356   1.42570
   A44        1.62517  -0.00931   0.00000  -0.02316  -0.02364   1.60153
   A45        2.28038  -0.03899   0.00000  -0.07952  -0.07997   2.20040
   A46        1.85811   0.03132   0.00000   0.07139   0.07153   1.92964
   A47        2.09786   0.00867   0.00000   0.01824   0.01839   2.11625
    D1       -3.05808  -0.00073   0.00000  -0.00418  -0.00418  -3.06225
    D2       -0.11142   0.00341   0.00000   0.01574   0.01573  -0.09568
    D3        0.08194   0.00036   0.00000   0.00050   0.00050   0.08245
    D4        3.02860   0.00450   0.00000   0.02042   0.02041   3.04902
    D5        1.48092  -0.00694   0.00000  -0.02333  -0.02259   1.45833
    D6       -2.15847   0.00739   0.00000   0.02483   0.02410  -2.13438
    D7       -1.46383  -0.01114   0.00000  -0.04351  -0.04278  -1.50661
    D8        1.17996   0.00319   0.00000   0.00464   0.00391   1.18387
    D9       -2.67757  -0.02193   0.00000  -0.07244  -0.07208  -2.74965
   D10        1.38458  -0.03667   0.00000  -0.14367  -0.14287   1.24171
   D11        0.86030  -0.01843   0.00000  -0.08126  -0.08292   0.77738
   D12       -1.36073  -0.03317   0.00000  -0.15249  -0.15371  -1.51444
   D13       -1.48909   0.00425   0.00000   0.02812   0.02772  -1.46137
   D14        1.98528  -0.00427   0.00000  -0.01742  -0.01704   1.96824
   D15        1.17022   0.01550   0.00000   0.06879   0.06771   1.23793
   D16       -1.63860   0.00698   0.00000   0.02325   0.02295  -1.61565
   D17       -1.89902  -0.01276   0.00000  -0.04841  -0.04695  -1.94598
   D18        1.19186  -0.01398   0.00000  -0.05250  -0.05195   1.13991
   D19        0.30920   0.01024   0.00000   0.04305   0.04332   0.35252
   D20       -2.88310   0.00902   0.00000   0.03895   0.03833  -2.84477
   D21        3.04788  -0.00169   0.00000  -0.00303  -0.00437   3.04351
   D22       -0.02918   0.00077   0.00000   0.00897   0.00846  -0.02073
   D23       -0.04026  -0.00061   0.00000   0.00080   0.00036  -0.03990
   D24       -3.11732   0.00185   0.00000   0.01279   0.01318  -3.10413
   D25        0.89940   0.00608   0.00000   0.03170   0.03223   0.93163
   D26       -2.28885   0.00324   0.00000   0.02412   0.02500  -2.26385
   D27       -2.30731   0.00381   0.00000   0.02007   0.01983  -2.28747
   D28        0.78763   0.00097   0.00000   0.01249   0.01261   0.80023
   D29        3.02066  -0.00129   0.00000  -0.00198  -0.00174   3.01892
   D30       -0.08030   0.00142   0.00000   0.00496   0.00498  -0.07532
   D31       -3.01234   0.00180   0.00000   0.00471   0.00417  -3.00817
   D32        0.18076   0.00472   0.00000   0.02370   0.02344   0.20420
   D33        0.08918  -0.00012   0.00000  -0.00091  -0.00097   0.08820
   D34       -3.00091   0.00279   0.00000   0.01809   0.01830  -2.98261
   D35        0.04861  -0.00214   0.00000  -0.00752  -0.00745   0.04116
   D36       -3.08020  -0.00101   0.00000  -0.00370  -0.00375  -3.08395
   D37        0.00661   0.00150   0.00000   0.00627   0.00609   0.01270
   D38        3.13556   0.00041   0.00000   0.00254   0.00249   3.13805
   D39       -0.05491  -0.00126   0.00000  -0.00370  -0.00360  -0.05851
   D40        3.04060  -0.00402   0.00000  -0.02095  -0.02125   3.01935
   D41        0.08678   0.00736   0.00000   0.02540   0.02482   0.11160
   D42       -3.10789   0.00577   0.00000   0.01385   0.01348  -3.09441
   D43       -2.99658   0.01018   0.00000   0.04613   0.04561  -2.95097
   D44        0.09193   0.00860   0.00000   0.03459   0.03428   0.12621
   D45       -3.08701   0.00129   0.00000  -0.00773  -0.00799  -3.09500
   D46       -0.10080   0.00754   0.00000   0.02155   0.02106  -0.07974
   D47        0.11140   0.00351   0.00000   0.00584   0.00565   0.11705
   D48        3.09762   0.00975   0.00000   0.03512   0.03470   3.13231
   D49        3.07672   0.00685   0.00000   0.03054   0.03153   3.10824
   D50        0.33845  -0.00048   0.00000  -0.01441  -0.01620   0.32224
   D51        0.08126   0.00201   0.00000   0.00550   0.00641   0.08767
   D52       -2.65701  -0.00531   0.00000  -0.03944  -0.04132  -2.69833
   D53        0.51334  -0.01549   0.00000  -0.07039  -0.06947   0.44387
   D54       -2.25826  -0.02367   0.00000  -0.11098  -0.10963  -2.36789
   D55       -3.08128   0.00557   0.00000   0.01161   0.00977  -3.07151
   D56        0.43031  -0.00261   0.00000  -0.02898  -0.03040   0.39991
   D57        0.23832   0.00647   0.00000   0.01598   0.01553   0.25385
   D58        1.58789  -0.00099   0.00000  -0.00089   0.00032   1.58820
   D59        3.00939   0.01664   0.00000   0.06178   0.06089   3.07028
   D60       -1.92423   0.00918   0.00000   0.04491   0.04568  -1.87856
   D61       -2.30712   0.01900   0.00000   0.06907   0.06925  -2.23787
   D62        0.46356   0.03023   0.00000   0.12439   0.12382   0.58738
   D63        2.69000   0.01382   0.00000   0.05819   0.05955   2.74956
   D64       -0.82250   0.02505   0.00000   0.11351   0.11412  -0.70838
         Item               Value     Threshold  Converged?
 Maximum Force            0.059221     0.000450     NO 
 RMS     Force            0.016431     0.000300     NO 
 Maximum Displacement     0.415907     0.001800     NO 
 RMS     Displacement     0.132250     0.001200     NO 
 Predicted change in Energy=-7.142088D-02
 GradGradGradGradGradGradGradGradGradGradGradGradGradGradGradGradGradGrad

                          Input orientation:                          
 ---------------------------------------------------------------------
 Center     Atomic      Atomic             Coordinates (Angstroms)
 Number     Number       Type             X           Y           Z
 ---------------------------------------------------------------------
      1          6           0        1.558850   -0.070237   -0.274162
      2          6           0        2.857316   -0.259974   -0.549400
      3          6           0        3.930943    0.732250   -0.862072
      4          6           0        4.533659    1.320172    0.242993
      5          6           0        5.214950    2.617942    0.102212
      6          6           0        6.548369    2.770760    0.206585
      7          6           0        7.245615    4.007062   -0.041455
      8          7           0        7.003157    5.183290    0.496503
      9          6           0        8.025504    5.957913    0.057490
     10          7           0        8.882742    5.375403   -0.764612
     11          7           0        8.375541    4.116690   -0.890620
     12          6           0        8.910408    3.194357   -1.803258
     13          6           0        8.253229    2.046647   -2.057845
     14          6           0        8.418929    0.854711   -2.828653
     15          6           0        7.439752   -0.092362   -2.725394
     16          6           0        5.960502    0.075041   -2.349281
     17          6           0        4.814050    0.791646   -2.130531
     18          1           0        0.937095   -0.926702    0.005380
     19          1           0        0.995929    0.861225   -0.290044
     20          1           0        3.204802   -1.280210   -0.372841
     21          1           0        5.174548    0.603022    0.781443
     22          1           0        4.578989    3.464313   -0.149287
     23          1           0        7.142264    1.886941    0.424853
     24          1           0        8.152617    6.985233    0.365153
     25          1           0        9.816949    3.504498   -2.304383
     26          1           0        7.383544    1.910232   -1.456211
     27          1           0        9.428452    0.612967   -3.170080
     28          1           0        7.799061   -1.119998   -2.619762
     29          1           0        5.857425    0.187118   -3.475264
     30          1           0        4.580578    1.687257   -2.721369
 ---------------------------------------------------------------------
                    Distance matrix (angstroms):
                    1          2          3          4          5
     1  C    0.000000
     2  C    1.340809   0.000000
     3  C    2.572246   1.494974   0.000000
     4  C    3.324181   2.436160   1.389276   0.000000
     5  C    4.553573   3.776961   2.476762   1.472475   0.000000
     6  C    5.761742   4.835363   3.485465   2.482858   1.346199
     7  C    7.001272   6.141887   4.731264   3.828184   2.464528
     8  N    7.604863   6.921780   5.576377   4.591990   3.151851
     9  C    8.846818   8.108058   6.702132   5.808273   4.365389
    10  N    9.139745   8.252851   6.788865   6.031143   4.669869
    11  N    8.023569   7.051413   5.586565   4.885248   3.636110
    12  C    8.187864   7.081277   5.634082   5.182243   4.197557
    13  C    7.244131   6.059025   4.673293   4.433601   3.771387
    14  C    7.378458   6.113024   4.901475   4.974634   4.686623
    15  C    6.371345   5.075605   4.057548   4.387704   4.504536
    16  C    4.868446   3.602995   2.600543   3.210314   3.609988
    17  C    3.845162   2.726662   1.546737   2.447769   2.912252
    18  H    1.094649   2.107026   3.530966   4.247373   5.556430
    19  H    1.088464   2.188405   2.993018   3.606979   4.586944
    20  H    2.045222   1.092155   2.194681   2.984477   4.411571
    21  H    3.826336   2.808108   2.065040   1.102256   2.126708
    22  H    4.650794   4.122447   2.896929   2.180202   1.088137
    23  H    5.957657   4.890725   3.647200   2.675652   2.086384
    24  H    9.678127   9.020513   7.643848   6.723444   5.269940
    25  H    9.224788   8.104795   6.664134   6.258878   5.268403
    26  H    6.264707   5.100867   3.696092   3.370061   2.762668
    27  H    8.413307   7.128101   5.963534   6.009010   5.699247
    28  H    6.748635   5.426498   4.634936   4.981229   5.297072
    29  H    5.365727   4.214406   3.292001   4.106288   4.372643
    30  H    4.267136   3.388037   2.188847   2.987373   3.039936
                    6          7          8          9         10
     6  C    0.000000
     7  C    1.440875   0.000000
     8  N    2.472082   1.315940   0.000000
     9  C    3.515978   2.103291   1.355716   0.000000
    10  N    3.629971   2.252887   2.271598   1.322885   0.000000
    11  N    2.520703   1.417686   2.223777   2.100366   1.362898
    12  C    3.130197   2.556555   3.589201   3.447126   2.415887
    13  C    2.925497   2.987364   4.233899   4.452471   3.626204
    14  C    4.047581   4.368347   5.638943   5.875991   4.991197
    15  C    4.193868   4.903723   6.197075   6.685310   5.985260
    16  C    3.760976   4.736915   5.939682   6.683185   6.256557
    17  C    3.519497   4.540445   5.565971   6.464610   6.279396
[...]
 -0.00000240,-0.00001341,0.00001958,-0.00000591,-0.00000823,-0.00001309
 ,-0.00000094,0.00002630,-0.00000026,-0.00000511,0.00000388,0.00000030,
 0.00000288,-0.00000050,-0.00000026,-0.00000511,0.00000212,-0.00000222,
 -0.00000198,0.00000379,0.00002870,-0.00000720,-0.00000133,-0.00001997,
 -0.00002243,0.00001140,0.12065739,0.29993815,-0.00000452,-0.00000029,0
 .00000461,0.00001814,0.00001041,0.00001767,0.00002333,-0.00002007,-0.0
 0004352,0.00007479,0.00004626,0.00007812,0.00009073,0.00012578,-0.0003
 5761,0.00042233,0.00049606,0.00099077,0.00426400,-0.00099000,0.0027960
 1,0.00378051,0.01405673,0.00281213,-0.01781456,-0.06142668,-0.05611749
 ,-0.01091687,-0.01527221,-0.00593389,0.00560619,-0.00591843,0.00205866
 ,-0.00099637,-0.00054194,0.00132796,0.00003843,-0.00017452,-0.00019952
 ,-0.00000842,0.00017089,-0.00018226,0.00005194,-0.00012845,0.00005992,
 -0.00000236,-0.00002137,0.00001321,0.00001600,-0.00000056,-0.00008473,
 -0.00000425,0.00000077,-0.00000094,-0.00000058,0.00000091,0.00000387,0
 .00000580,0.00001284,-0.00000197,0.00000833,0.00000561,0.00000164,-0.0
 0003720,0.00000250,-0.00000055,0.00001026,-0.00002351,-0.00003012,0.01
 554972,0.06961929,0.05274481,-0.00001349,-0.00002919,0.00000965,-0.000
 02478,0.00004362,-0.00004245,-0.00005092,-0.00009122,0.00011810,0.0001
 1470,-0.00000646,-0.00014039,-0.00011105,0.00020180,0.00026247,-0.0001
 9208,-0.00032978,-0.00008173,0.00206575,0.00021535,-0.00238552,0.00106
 513,0.00068066,-0.00001962,-0.00072386,0.00094036,0.00121105,-0.000463
 15,-0.00200627,-0.00029157,-0.00641674,0.00929916,0.00128556,-0.252455
 62,0.08462802,-0.09970002,-0.00874214,0.01057537,-0.00530396,-0.000495
 86,-0.00017144,0.00245543,0.00007447,-0.00002315,-0.00010930,-0.000012
 18,0.00010894,-0.00009564,0.00011121,-0.00001379,0.00016176,0.00001248
 ,-0.00000427,0.00000914,-0.00000427,0.00000088,-0.00000919,-0.00001758
 ,-0.00002822,-0.00000226,-0.00004627,-0.00000671,0.00000146,0.00016434
 ,0.00006155,-0.00016975,-0.00004137,-0.00015590,0.00004616,-0.00007737
 ,0.00003186,-0.00004956,0.26469552,0.00001227,0.00001424,0.00000933,0.
 00003286,-0.00002833,0.00001961,-0.00008310,0.00002870,-0.00010617,0.0
 0001194,0.00009912,0.00008932,0.00002977,0.00016880,0.00012917,-0.0003
 8839,-0.00034046,-0.00005565,-0.00163961,-0.00104032,0.00509828,-0.001
 78218,-0.00256556,-0.00232392,0.00251063,-0.00054775,-0.00187305,0.000
 64073,0.00451390,0.00090736,0.02904656,-0.01777229,0.00242747,0.085898
 82,-0.08679669,0.03148633,-0.01086317,0.01196930,-0.00570531,-0.002283
 64,0.00043621,0.00168448,0.00039831,0.00011285,0.00006695,0.00004831,-
 0.00006548,0.00007195,0.00002997,0.00001144,0.00002443,-0.00000843,0.0
 0000584,-0.00000888,-0.00000129,-0.00000014,0.00000351,0.00000279,0.00
 001418,-0.00000123,0.00000055,0.00000511,0.00000403,0.00022019,-0.0000
 6500,-0.00023159,0.00017859,-0.00001764,-0.00003847,-0.00005066,-0.000
 00079,-0.00004167,-0.10271155,0.09189333,0.00000586,0.00000575,-0.0000
 1012,0.00003597,-0.00003112,0.00008111,0.00010446,0.00013658,-0.000092
 07,-0.00014804,-0.00008195,0.00028642,-0.00001825,-0.00016715,-0.00066
 775,0.00036245,0.00030735,0.00013404,-0.00161933,-0.00116521,0.0023125
 0,-0.00054083,-0.00061714,-0.00107572,0.00080995,-0.00027498,-0.000581
 40,0.00128171,0.00191676,0.00039472,0.01486943,-0.01432170,0.00350829,
 -0.10011204,0.03709279,-0.08194772,-0.01958857,0.00598055,-0.00573625,
 0.00248456,0.00348341,-0.00260365,0.00007420,-0.00033449,0.00005197,-0
 .00033822,-0.00008927,0.00025020,0.00006713,-0.00019060,-0.00034536,-0
 .00001926,0.00000125,-0.00000828,0.00000654,0.00000080,0.00000559,0.00
 001137,0.00002267,-0.00000628,0.00003221,-0.00004410,0.00002484,-0.000
 03346,-0.00011455,0.00031296,0.00000754,0.00020137,-0.00003745,0.00000
 559,-0.00000557,-0.00002231,0.10754365,-0.02656998,0.08132796,0.000012
 60,-0.00000056,-0.00000178,-0.00006462,0.00000024,-0.00005228,-0.00003
 810,0.00002418,0.00012302,0.00001014,0.00008616,0.00009302,-0.00392259
 ,0.00086181,0.00299854,-0.00020136,-0.00040402,-0.00052608,0.00122080,
 0.00066051,-0.00002870,-0.00029527,-0.00006532,-0.00010709,-0.00004877
 ,0.00012096,-0.00016898,0.00002924,-0.00078491,-0.00001688,-0.00086428
 ,-0.00019298,0.00539582,-0.01488158,0.01186982,-0.01005494,-0.22320997
 ,0.10876733,-0.09867012,-0.00002359,0.00243632,-0.00118587,-0.00050672
 ,-0.00111596,0.00036196,0.00023602,-0.00030851,-0.00037029,-0.00060921
 ,-0.00002955,0.00013338,0.00001148,-0.00000169,0.00000295,-0.00000081,
 -0.00000001,-0.00000339,-0.00001073,-0.00000951,0.00000383,0.00012518,
 -0.00013068,0.00008488,-0.00370281,0.00061719,0.00469798,0.00015792,-0
 .00031538,-0.00002121,-0.00000751,-0.00001223,-0.00005901,0.00146578,0
 .00019452,-0.00565934,0.24424183,0.00001925,0.00004820,-0.00000728,-0.
 00002758,-0.00004615,-0.00015410,0.00000860,-0.00002521,0.00016039,0.0
 0005747,0.00002478,-0.00012880,0.00139300,-0.00015933,-0.00035130,0.00
 009151,-0.00002034,-0.00014581,0.00077267,0.00027229,-0.00049862,0.000
 05448,0.00006199,0.00017371,-0.00038436,0.00022452,0.00011805,-0.00011
 966,-0.00080989,-0.00007394,-0.00196150,0.00094337,0.00274628,-0.01437
 713,0.00851182,-0.00939446,0.11086462,-0.12079851,0.05399504,0.0265751
 4,-0.01327676,0.01055439,0.00048099,0.00107327,0.00042159,0.00004323,-
 0.00020231,-0.00066697,-0.00072790,0.00034078,0.00029274,0.00002498,0.
 00000242,-0.00000289,-0.00000578,-0.00000250,0.00000207,0.00000209,-0.
 00001041,0.00001819,-0.00003934,0.00007932,-0.00007545,0.00100026,0.00
 142676,-0.00133832,-0.00015127,0.00006913,-0.00000628,-0.00000821,-0.0
 0000320,-0.00002531,-0.00035407,-0.00002970,-0.00428812,-0.12247433,0.
 12662777,-0.00003337,-0.00003471,-0.00001079,-0.00002802,0.00003892,-0
 .00008683,0.00010585,0.00011678,0.00017121,0.00010095,0.00006488,0.000
 47477,0.00102824,-0.00021233,-0.00254685,0.00018436,0.00028033,0.00022
 361,-0.00130838,-0.00142563,-0.00058724,0.00049684,0.00000962,-0.00013
 637,0.00019311,0.00008159,0.00017785,0.00005740,0.00054318,0.00034296,
 0.00360557,0.00281912,-0.00401934,-0.01800110,0.00980999,-0.00079430,-
 0.09552580,0.05067726,-0.08941828,0.00542585,-0.00554041,0.00535284,0.
 00094906,0.00052690,-0.00044569,-0.00010813,0.00022439,0.00008346,-0.0
 0035207,-0.00004267,0.00011612,0.00001533,-0.00001487,0.00001109,0.000
 01447,-0.00000411,-0.00001093,-0.00002361,-0.00005613,0.00000571,-0.00
 010355,-0.00017680,0.00004288,0.00362991,-0.00071986,-0.00068487,0.000
 06326,0.00010703,0.00012763,-0.00002156,0.00003931,0.00005269,-0.00435
 772,-0.00513286,0.00403902,0.10418746,-0.04953009,0.08604165,-0.000020
 40,-0.00004670,0.00001866,0.00004033,0.00005860,0.00016409,-0.00001644
 ,-0.00017590,-0.00016024,-0.00004956,0.00000588,0.00008295,0.00002590,
 -0.00007422,-0.00005492,0.00004816,0.00003197,0.00000142,0.00006255,-0
 .00009740,-0.00003376,0.00003768,0.00014007,0.00000949,-0.00004694,0.0
 0000076,0.00005867,-0.00005704,0.00000489,-0.00004908,0.00006163,0.000
 20516,0.00015670,0.00075679,-0.00065569,0.00036149,0.00025787,-0.00094
 284,-0.00162531,-0.25138700,0.11151259,-0.05489276,-0.02036311,0.01264
 794,-0.00599477,0.00133190,-0.00225296,-0.00436908,0.00014817,0.000060
 09,-0.00019420,-0.00002518,-0.00000113,0.00000319,0.00000028,0.0000035
 9,-0.00000418,-0.00000422,0.00001066,-0.00002253,-0.00002058,0.0000183
 3,0.00004209,-0.00000595,-0.00003842,0.00002196,-0.00000529,0.00000585
 ,0.00001485,0.00000308,0.00000270,0.00000885,-0.00003448,0.00050286,0.
 00048693,0.00098062,-0.00029393,-0.00021648,0.26934174,0.00000634,-0.0
 0000104,0.00000147,0.00001751,0.00000695,0.00010148,-0.00002669,-0.000
 03817,-0.00016720,-0.00008210,-0.00006699,-0.00004968,0.00013935,-0.00
 009768,0.00023888,0.00004999,0.00007176,-0.00003333,-0.00020354,0.0001
 5611,0.00013608,0.00002544,-0.00007344,0.00000592,-0.00002700,-0.00004
 132,-0.00000954,0.00009070,-0.00002484,-0.00005853,-0.00067721,0.00000
 490,-0.00009313,0.00074759,0.00136281,0.00185082,0.02665512,-0.0132891
 6,0.00772058,0.11485865,-0.11552022,0.02403755,-0.01823154,0.00878483,
 -0.00510102,-0.00069321,-0.00108217,-0.00262350,-0.00013308,0.00014093
 ,-0.00015571,-0.00001647,0.00000369,-0.00000314,-0.00000167,0.00000164
 ,0.00000453,0.00000726,0.00002518,-0.00000671,0.00003740,0.00006548,-0
 .00000416,-0.00016329,0.00004908,-0.00015428,-0.00001394,0.00000099,-0
 .00003419,0.00000926,-0.00001033,-0.00001460,-0.00068450,0.00007580,-0
 .00092955,0.00026862,-0.00463744,-0.00229414,-0.12036648,0.12285320,-0
 .00000954,-0.00001524,-0.00000829,0.00000968,0.00002133,0.00009653,-0.
 00005164,-0.00017570,-0.00046044,0.00003872,0.00000660,0.00000612,-0.0
 0009059,0.00002916,0.00001651,0.00003369,0.00008128,0.00002748,-0.0001
 7408,-0.00018215,0.00003151,0.00009263,0.00006207,-0.00002531,-0.00001
 331,-0.00002675,0.00004392,0.00002115,0.00005710,-0.00004786,0.0000660
 7,0.00044039,-0.00027232,0.00021194,-0.00030466,-0.00092822,0.00614203
 ,-0.00034383,0.00532532,-0.05616453,0.02026267,-0.05538936,-0.00978130
 ,0.00575366,0.00086965,-0.00461195,-0.00347960,0.01103509,-0.00144835,
 0.00055179,-0.00151281,-0.00001386,-0.00000136,0.00000376,0.00000383,0
 .00000062,0.00000315,0.00000704,0.00001598,-0.00000464,0.00002669,0.00
 000475,-0.00000653,-0.00013130,-0.00000418,0.00017517,0.00003347,-0.00
 000935,-0.00000663,0.00000422,0.00000133,0.00000295,-0.00029243,0.0001
 4316,0.00023094,-0.00132003,-0.00158734,0.00193135,0.06361887,-0.02358
 592,0.04430885,-0.00000451,-0.00016648,-0.00000902,0.00016838,0.000281
 59,0.00042067,0.00032894,0.00088986,-0.00024330,-0.00018130,-0.0001817
 4,0.00035195,-0.00001439,-0.00013262,-0.00002272,0.00006808,0.00005832
 ,0.00004788,-0.00037987,-0.00005035,0.00022822,0.00006084,-0.00007707,
 -0.00009574,0.00002243,-0.00012289,-0.00002631,0.00027580,0.00005320,-
 0.00015285,-0.00047947,-0.00041129,-0.00009035,0.00084651,-0.00082919,
 0.00004189,-0.00256227,-0.00068656,-0.00490663,0.00462925,-0.02681687,
 -0.00628441,-0.05471133,0.04958898,0.00354266,-0.00818586,0.02774794,0
 .00649897,-0.00099667,0.00061494,-0.00319469,-0.00006533,0.00000625,0.
 00000274,0.00001779,-0.00000166,-0.00002196,-0.00009858,-0.00003102,-0
 .00006634,0.00006069,0.00010197,0.00011050,-0.00011552,-0.00009946,-0.
 00004014,0.00002699,0.00002087,-0.00000220,0.00002016,-0.00001355,-0.0
 0002138,-0.00000484,0.00001356,-0.00007110,-0.00007218,-0.00010651,0.0
 0018065,0.00016919,-0.00076757,0.00232864,0.06236058,0.00000635,0.0000
 5409,-0.00000506,-0.00002090,-0.00008216,-0.00020026,-0.00003750,-0.00
 017075,0.00008143,0.00006809,0.00005066,-0.00008149,-0.00001998,-0.000
 00403,0.00004076,0.00001531,0.00001905,-0.00002871,0.00005942,0.000025
 62,0.00004893,-0.00001611,0.00000258,-0.00002310,-0.00004171,-0.000011
 39,0.00003634,-0.00001270,-0.00009658,-0.00012038,-0.00037055,-0.00015
 970,0.00005732,0.00048841,-0.00076831,-0.00004650,-0.00218062,0.001239
 96,-0.00352553,0.00486718,-0.01664805,-0.00416831,0.03976523,-0.303910
 70,-0.05276652,0.00415707,-0.00707860,-0.00321720,-0.00054487,-0.00047
 047,0.00196715,0.00001681,0.00000394,-0.00000877,0.00000209,-0.0000020
 1,0.00001035,-0.00000393,-0.00001129,0.00003477,-0.00001062,-0.0000128
 6,-0.00004157,-0.00000337,0.00005254,-0.00001464,-0.00001532,-0.000000
 89,-0.00000946,0.00000658,-0.00001598,-0.00000039,-0.00004857,-0.00000
 674,-0.00006403,0.00012844,0.00029025,0.00017010,-0.00073511,0.0008900
 6,0.00196307,-0.04654598,0.32624199,0.00002281,0.00003409,-0.00002082,
 0.00005842,-0.00008611,0.00017091,0.00000523,-0.00003222,-0.00041885,-
 0.00019813,-0.00000361,0.00012162,0.00013838,0.00000763,0.00005938,-0.
 00008280,-0.00016077,0.00006387,-0.00064485,0.00019210,0.00022283,-0.0
 0007144,-0.00060652,-0.00012616,0.00043598,-0.00003857,-0.00034233,0.0
 0019966,0.00063224,0.00026630,0.00116447,-0.00011105,-0.00159334,0.000
 13803,0.00093774,0.00145314,-0.00566024,-0.00368102,0.00877194,0.00080
 143,-0.01181047,0.00389591,-0.00096149,-0.05131612,-0.04986701,0.00076
 664,0.00581341,0.00616121,-0.00117895,0.00170869,0.00031748,-0.0000337
 6,0.00000685,-0.00001486,0.00000387,0.00000177,0.00002301,0.00007578,0
 .00007321,0.00002350,0.00001511,0.00002511,0.00001935,-0.00003596,-0.0
 0004782,-0.00003305,0.00004872,0.00001572,-0.00001173,0.00000029,0.000
 00615,0.00001426,-0.00003755,-0.00013027,0.00013832,0.00019905,-0.0001
 3449,-0.00026740,0.00274171,0.00130379,-0.00589869,0.00200720,0.059850
 53,0.03695043,0.00000101,-0.00005853,-0.00000385,0.00037234,0.00015463
 ,0.00002964,-0.00161159,0.00467423,0.00112030,-0.00068560,-0.00070244,
 0.00109170,-0.00012541,-0.00012592,0.00014158,0.00006129,0.00000091,-0
 .00001794,-0.00055488,0.00007358,0.00027661,0.00005204,-0.00032311,-0.
 00015585,0.00016216,-0.00010252,-0.00016837,0.00041448,0.00018999,0.00
 001112,-0.00005482,-0.00018529,-0.00011333,0.00003515,-0.00006584,0.00
 038040,0.00013010,0.00066451,-0.00129373,-0.00130377,0.00297846,0.0005
 1435,-0.00769729,0.00125919,-0.02855835,-0.05004508,0.00864431,-0.0399
 6335,-0.00056876,-0.00084461,0.02960283,-0.00006472,-0.00001149,-0.000
 01410,0.00004027,-0.00000384,0.00000367,-0.00003449,-0.00007082,-0.000
 05658,0.00045223,0.00008438,0.00030868,-0.00002736,0.00001588,-0.00012
 649,0.00003467,0.00000272,-0.00002914,0.00001481,-0.00000367,-0.000036
 01,0.00011144,0.00003162,-0.00002257,0.00004315,-0.00029644,-0.0001308
 6,-0.00121288,-0.00072010,0.00176463,-0.00002175,0.00065976,0.00030243
 ,0.06182379,0.00018238,0.00055856,0.00002418,0.00045173,-0.00026883,-0
 .00262123,0.00392242,0.01234249,0.00231646,-0.00079604,-0.00080049,0.0
 0166658,-0.00010358,0.00020135,0.00024536,-0.00016147,-0.00034467,-0.0
 0005697,0.00073272,0.00027498,-0.00027125,-0.00015290,0.00000733,0.000
 03426,0.00001387,0.00011032,-0.00004503,-0.00026483,-0.00005496,-0.000
 01256,-0.00019513,0.00041108,0.00035244,-0.00007871,-0.00037264,-0.000
 09800,-0.00004357,-0.00023750,0.00011781,0.00074738,-0.00052395,0.0013
 5933,0.00076756,0.00486171,0.00860962,0.01082500,-0.04258574,0.0234716
 1,-0.00133533,0.00553169,-0.00682567,0.00025948,-0.00005603,-0.0000153
 2,-0.00002747,-0.00001899,-0.00005293,-0.00003687,-0.00004233,-0.00003
 573,0.00047977,0.00001927,0.00020492,0.00001875,-0.00002975,-0.0002112
 4,0.00003360,-0.00004719,-0.00001104,0.00000543,-0.00000450,0.00003623
 ,-0.00008915,-0.00004833,0.00011050,0.00001219,-0.00000244,-0.00024843
 ,0.00032095,0.00028121,-0.00031415,-0.00012936,0.00023058,-0.00206048,
 -0.01334220,0.02838186,0.00005948,0.00022178,0.00002092,0.00005777,-0.
 00028991,-0.00053468,0.00234090,-0.00089443,0.00131457,0.00026686,0.00
 040493,-0.00019642,0.00013306,-0.00004956,-0.00008213,-0.00000242,0.00
 001481,0.00011688,-0.00015823,0.00005623,0.00004973,0.00002754,-0.0000
 6304,0.00000946,-0.00004415,0.00001781,0.00003294,0.00000627,-0.000100
 65,0.00005471,0.00009390,-0.00017090,-0.00020549,0.00025327,0.00015912
 ,0.00022271,-0.00016866,-0.00038350,-0.00051793,0.00072063,0.00254836,
 0.00076247,-0.00557369,0.00033713,-0.00692070,-0.02860510,0.02085582,-
 0.30788419,-0.00213654,0.00216897,-0.02005619,0.00006407,0.00001582,-0
 .00002549,-0.00004411,0.00000148,0.00000132,0.00002289,0.00009613,0.00
 000168,-0.00024905,0.00004867,-0.00010020,-0.00003338,-0.00004543,-0.0
 0003524,0.00000479,0.00001659,0.00001354,-0.00001127,-0.00000223,-0.00
 001595,0.00003065,0.00003233,-0.00000053,0.00002731,-0.00009250,-0.000
 12593,-0.00032544,-0.00023710,0.00019696,-0.00071397,0.00026732,-0.000
 28612,0.03402825,-0.02473928,0.33276201,0.00028217,0.00027244,-0.00052
 996,-0.00059110,-0.00040632,0.00010494,0.00578695,-0.00080213,0.000373
 28,0.00061844,0.00084076,0.00097259,0.00000461,-0.00054518,-0.00013882
 ,0.00016624,0.00018888,0.00011994,-0.00046567,-0.00006423,0.00017473,0
 .00007973,-0.00008471,-0.00004866,0.00004344,-0.00007031,-0.00004018,0
 .00020698,0.00009002,-0.00000163,0.00006773,-0.00017726,-0.00020063,0.
 00004362,0.00013798,0.00015870,-0.00008000,0.00002056,0.00009147,-0.00
 006829,0.00044229,0.00007125,0.00047574,0.00256602,0.00370053,-0.02403
 430,0.00867034,-0.01399143,-0.23094326,0.05587239,-0.10660100,0.000040
 31,-0.00001808,0.00001594,0.00004894,0.00001589,0.00006002,0.00000586,
 0.00004528,0.00000381,-0.00047291,0.00037137,-0.00001228,-0.00014323,0
 .00007563,0.00000205,0.00002693,-0.00000619,-0.00000211,0.00000513,0.0
 0000296,-0.00001826,0.00004729,0.00000717,-0.00001855,-0.00007466,-0.0
 0006026,-0.00002763,-0.00001682,-0.00010485,-0.00030041,-0.00116174,0.
 00036710,-0.00022003,0.00025951,-0.00201662,-0.00007161,0.24984236,0.0
 0004676,-0.00007258,-0.00024186,-0.00140635,0.00062533,-0.00016525,0.0
 0256905,0.00422738,-0.00114810,0.00071847,-0.00050925,0.00058878,-0.00
 007756,0.00017318,-0.00012077,-0.00001178,-0.00030095,-0.00005975,0.00
 022514,0.00010901,-0.00008209,-0.00005253,-0.00008386,-0.00005492,0.00
 007748,0.00002249,-0.00009815,0.00001305,0.00007095,-0.00007102,-0.000
 18007,0.00033864,0.00031203,-0.00014720,-0.00026715,-0.00000433,0.0003
 3152,-0.00006625,-0.00009420,0.00173104,-0.00167243,0.00003157,0.00472
 299,0.01327562,0.00053074,0.00786241,0.00199795,0.00130817,0.05385039,
 -0.05338895,0.03754888,0.00002064,-0.00004670,0.00005430,0.00009058,-0
 .00001917,0.00001485,0.00009622,-0.00028706,0.00020651,0.00019858,0.00
 010158,0.00005418,-0.00026607,0.00003802,0.00001251,0.00007590,-0.0000
 6922,0.00000624,0.00001512,-0.00000431,0.00001572,-0.00003334,-0.00002
 357,0.00002973,-0.00020268,0.00002750,-0.00007635,0.00014787,0.0001081
 8,0.00063526,-0.00220732,0.00034921,-0.00038951,-0.00257736,-0.0077741
 0,-0.00019476,-0.06563095,0.04312050,0.00097231,0.00017443,-0.00024721
 ,-0.00083283,-0.00152265,0.00061271,-0.02357359,0.00607557,-0.01947103
 ,0.00172949,0.00224059,-0.00209643,-0.00076710,0.00104033,-0.00048103,
 -0.00014374,-0.00042042,0.00025099,0.00058934,0.00022362,-0.00026182,-
 0.00009235,-0.00002677,0.00013338,-0.00013588,0.00017461,0.00006911,-0
 .00037468,-0.00033955,0.00008649,0.00002302,0.00018833,0.00003536,0.00
 007184,-0.00025568,-0.00014112,0.00003923,-0.00009075,0.00005828,0.000
 60211,-0.00058055,-0.00005215,0.00181157,0.00076664,-0.00100672,0.0185
 4033,-0.00554942,0.00700070,-0.11728172,0.03870196,-0.11893255,-0.0000
 3195,0.00005757,-0.00011540,-0.00007492,-0.00000451,0.00001973,-0.0000
 1858,0.00032681,-0.00000669,0.00145016,-0.00152636,-0.00051250,-0.0002
 0615,-0.00019294,0.00009970,0.00000451,0.00003259,0.00006352,-0.000031
 05,-0.00000419,0.00001155,-0.00004642,0.00002132,0.00003598,-0.0000632
 0,0.00001962,-0.00006000,0.00015084,0.00015431,0.00025582,0.00020115,-
 0.00020616,0.00020687,0.00111432,-0.00092996,0.00142727,0.11637395,-0.
 03854840,0.13301716\\-0.00001307,-0.00000206,0.00000750,0.00001607,0.0
 0000419,0.00000857,-0.00003504,-0.00000779,-0.00007157,0.00003000,0.00
 003233,0.00001645,-0.00002764,-0.00002158,-0.00003199,-0.00000877,0.00
 001194,0.00006679,-0.00001607,0.00003751,-0.00007800,0.00005759,-0.000
 03630,0.00005370,-0.00002727,0.00003939,-0.00005081,-0.00004530,-0.000
 03119,0.00002240,0.00004908,-0.00000541,0.00003187,0.00000565,0.000038
 84,-0.00001968,0.00001837,-0.00001556,0.00002977,-0.00002378,-0.000049
 35,-0.00004799,0.00007322,0.00012982,0.00005255,-0.00001032,-0.0000752
 9,-0.00003069,-0.00004711,0.00002862,0.00005628,-0.00000149,0.00000088
 ,0.00000602,0.00000202,0.00000266,-0.00000103,0.00000087,-0.00001129,-
 0.00000354,0.00000273,-0.00001242,-0.00000465,-0.00001943,-0.00001360,
 0.00003966,-0.00000827,-0.00000779,-0.00002786,0.00000813,-0.00000327,
 0.00000257,-0.00000219,-0.00000128,0.00000603,0.00001915,-0.00001107,-
 0.00001499,0.00000531,-0.00000761,0.00000634,-0.00003102,-0.00001094,-
 0.00002104,0.00001848,0.00000798,-0.00000135,0.00001009,-0.00001036,-0
 .00000130\\\@


0EVERYBODY IS IGNORANT, ONLY ON DIFFERENT SUBJECTS.
0          WILL ROGERS
 Job cpu time:       0 days 11 hours  5 minutes 28.4 seconds.
 Elapsed time:       0 days  2 hours 46 minutes 22.6 seconds.
 File lengths (MBytes):  RWF=    625 Int=      0 D2E=      0 Chk=     24 Scr=      1
 Normal termination of Gaussian 16 at Fri May 19 19:11:58 2023.
### All Done ###
