### Starting Gaussian ###
 Entering Gaussian System, Link 0=g16
 Initial command:
 /cluster/software/gaussian/gaussian-16-A.03/avx2/g16/l1.exe "/local/scratch/cz9n3/Gau-3685.inp" -scrdir="/local/scratch/cz9n3/"
 Entering Link 1 = /cluster/software/gaussian/gaussian-16-A.03/avx2/g16/l1.exe PID=      3686.
  
 Copyright (c) 1988,1990,1992,1993,1995,1998,2003,2009,2016,
            Gaussian, Inc.  All Rights Reserved.
  
 This is part of the Gaussian(R) 16 program.  It is based on
 the Gaussian(R) 09 system (copyright 2009, Gaussian, Inc.),
 the Gaussian(R) 03 system (copyright 2003, Gaussian, Inc.),
 the Gaussian(R) 98 system (copyright 1998, Gaussian, Inc.),
 the Gaussian(R) 94 system (copyright 1995, Gaussian, Inc.),
 the Gaussian 92(TM) system (copyright 1992, Gaussian, Inc.),
 the Gaussian 90(TM) system (copyright 1990, Gaussian, Inc.),
 the Gaussian 88(TM) system (copyright 1988, Gaussian, Inc.),
 the Gaussian 86(TM) system (copyright 1986, Carnegie Mellon
 University), and the Gaussian 82(TM) system (copyright 1983,
 Carnegie Mellon University). Gaussian is a federally registered
 trademark of Gaussian, Inc.
  
 This software contains proprietary and confidential information,
 including trade secrets, belonging to Gaussian, Inc.
  
 This software is provided under written license and may be
 used, copied, transmitted, or stored only in accord with that
 written license.
  
 The following legend is applicable only to US Government
 contracts under FAR:
  
                    RESTRICTED RIGHTS LEGEND
  
 Use, reproduction and disclosure by the US Government is
 subject to restrictions as set forth in subparagraphs (a)
 and (c) of the Commercial Computer Software - Restricted
 Rights clause in FAR 52.227-19.
  
 Gaussian, Inc.
 340 Quinnipiac St., Bldg. 40, Wallingford CT 06492
  
  
 ---------------------------------------------------------------
 Warning -- This program may not be used in any manner that
 competes with the business of Gaussian, Inc. or will provide
 assistance to any competitor of Gaussian, Inc.  The licensee
 of this program is prohibited from giving any competitor of
 Gaussian, Inc. access to this program.  By using this program,
 the user acknowledges that Gaussian, Inc. is engaged in the
 business of creating and licensing software in the field of
 computational chemistry and represents and warrants to the
 licensee that it is not a competitor of Gaussian, Inc. and that
 it will not use this program in any manner prohibited above.
 ---------------------------------------------------------------
  

 Cite this work as:
 Gaussian 16, Revision A.03,
 M. J. Frisch, G. W. Trucks, H. B. Schlegel, G. E. Scuseria, 
 M. A. Robb, J. R. Cheeseman, G. Scalmani, V. Barone, 
 G. A. Petersson, H. Nakatsuji, X. Li, M. Caricato, A. V. Marenich, 
 J. Bloino, B. G. Janesko, R. Gomperts, B. Mennucci, H. P. Hratchian, 
 J. V. Ortiz, A. F. Izmaylov, J. L. Sonnenberg, D. Williams-Young, 
 F. Ding, F. Lipparini, F. Egidi, J. Goings, B. Peng, A. Petrone, 
 T. Henderson, D. Ranasinghe, V. G. Zakrzewski, J. Gao, N. Rega, 
 G. Zheng, W. Liang, M. Hada, M. Ehara, K. Toyota, R. Fukuda, 
 J. Hasegawa, M. Ishida, T. Nakajima, Y. Honda, O. Kitao, H. Nakai, 
 T. Vreven, K. Throssell, J. A. Montgomery, Jr., J. E. Peralta, 
 F. Ogliaro, M. J. Bearpark, J. J. Heyd, E. N. Brothers, K. N. Kudin, 
 V. N. Staroverov, T. A. Keith, R. Kobayashi, J. Normand, 
 K. Raghavachari, A. P. Rendell, J. C. Burant, S. S. Iyengar, 
 J. Tomasi, M. Cossi, J. M. Millam, M. Klene, C. Adamo, R. Cammi, 
 J. W. Ochterski, R. L. Martin, K. Morokuma, O. Farkas, 
 J. B. Foresman, and D. J. Fox, Gaussian, Inc., Wallingford CT, 2016.
 
 ******************************************
 Gaussian 16:  ES64L-G16RevA.03 25-Dec-2016
                18-May-2023 
 ******************************************
 %chk=CdCC1dCdC2CdCqNrCCNSC2dCCdNS1.chk
 %NProcShared=20
 Will use up to   20 processors via shared memory.
 -----------------------------
 # opt freq b3lyp/6-31g(2df,p)
 -----------------------------
 1/18=20,19=15,26=3,38=1/1,3;
 2/9=110,12=2,17=6,18=5,40=1/2;
 3/5=1,6=6,7=104,11=2,25=1,30=1,71=1,74=-5/1,2,3;
 4//1;
 5/5=2,38=5/2;
 6/7=2,8=2,9=2,10=2,28=1/1;
 7//1,2,3,16;
 1/18=20,19=15,26=3/3(2);
 2/9=110/2;
 99//99;
 2/9=110/2;
 3/5=1,6=6,7=104,11=2,25=1,30=1,71=1,74=-5/1,2,3;
 4/5=5,16=3,69=1/1;
 5/5=2,38=5/2;
 7//1,2,3,16;
 1/18=20,19=15,26=3/3(-5);
 2/9=110/2;
 6/7=2,8=2,9=2,10=2,19=2,28=1/1;
 99/9=1/99;
 -------------------
 Title Card Required
 -------------------
 Symbolic Z-matrix:
 Charge =  0 Multiplicity = 1
 C                     1.21957  -0.34901  -0.26995 
 C                     2.55129  -0.48384  -0.43692 
 C                     3.57626  -1.43311  -1.07335 
 C                     4.78028  -1.09889  -0.68954 
 C                     6.04655  -0.93101  -0.62434 
 C                     6.64096   0.21776  -0.02213 
 C                     7.96302   0.3586    0.17703 
 N                     8.40321   1.44827   0.87218 
 C                     9.01485  -0.68707  -0.21756 
 C                     9.04869  -1.88379   0.76731 
 N                     7.77954  -2.5946    0.99297 
 S                     7.07889  -3.41201  -0.27034 
 C                     6.75234  -1.99565  -1.2729 
 C                     6.9174   -1.89501  -2.60101 
 C                     6.40811  -3.16146  -3.06854 
 N                     5.12486  -3.44524  -3.01801 
 S                     3.73813  -2.23286  -2.76863 
 H                     0.81823   0.44969   0.38818 
 H                     0.44322  -0.98153  -0.66938 
 H                     3.04529   0.27956   0.19823 
 H                     5.93847   0.94474   0.37544 
 H                     7.73566   2.19774   1.0241 
 H                     9.38595   1.68404   0.83334 
 H                     10.00798  -0.2307   -0.27165 
 H                     8.89056  -1.03759  -1.24894 
 H                     9.38735  -1.51362   1.73766 
 H                     9.78295  -2.62002   0.4233 
 H                     7.10177  -1.92669   1.37159 
 H                     6.68506  -1.028    -3.20525 
 H                     7.26129  -3.89248  -3.25371 
 

 GradGradGradGradGradGradGradGradGradGradGradGradGradGradGradGradGradGrad
 Berny optimization.
 Initialization pass.
                           ----------------------------
                           !    Initial Parameters    !
                           ! (Angstroms and Degrees)  !
 --------------------------                            --------------------------
 ! Name  Definition              Value          Derivative Info.                !
 --------------------------------------------------------------------------------
 ! R1    R(1,2)                  1.3489         estimate D2E/DX2                !
 ! R2    R(1,18)                 1.11           estimate D2E/DX2                !
 ! R3    R(1,19)                 1.0781         estimate D2E/DX2                !
 ! R4    R(2,3)                  1.5352         estimate D2E/DX2                !
 ! R5    R(2,20)                 1.1092         estimate D2E/DX2                !
 ! R6    R(3,4)                  1.3072         estimate D2E/DX2                !
 ! R7    R(3,17)                 1.8814         estimate D2E/DX2                !
 ! R8    R(4,5)                  1.279          estimate D2E/DX2                !
 ! R9    R(5,6)                  1.4268         estimate D2E/DX2                !
 ! R10   R(5,13)                 1.4326         estimate D2E/DX2                !
 ! R11   R(6,7)                  1.3444         estimate D2E/DX2                !
 ! R12   R(6,21)                 1.0863         estimate D2E/DX2                !
 ! R13   R(7,8)                  1.3654         estimate D2E/DX2                !
 ! R14   R(7,9)                  1.5348         estimate D2E/DX2                !
 ! R15   R(8,22)                 1.0151         estimate D2E/DX2                !
 ! R16   R(8,23)                 1.0114         estimate D2E/DX2                !
 ! R17   R(9,10)                 1.5502         estimate D2E/DX2                !
 ! R18   R(9,24)                 1.0943         estimate D2E/DX2                !
 ! R19   R(9,25)                 1.0964         estimate D2E/DX2                !
 ! R20   R(10,11)                1.472          estimate D2E/DX2                !
 ! R21   R(10,26)                1.0924         estimate D2E/DX2                !
 ! R22   R(10,27)                1.0952         estimate D2E/DX2                !
 ! R23   R(11,12)                1.6598         estimate D2E/DX2                !
 ! R24   R(11,28)                1.0241         estimate D2E/DX2                !
 ! R25   R(12,13)                1.7657         estimate D2E/DX2                !
 ! R26   R(13,14)                1.3421         estimate D2E/DX2                !
 ! R27   R(14,15)                1.4429         estimate D2E/DX2                !
 ! R28   R(14,29)                1.082          estimate D2E/DX2                !
 ! R29   R(15,16)                1.3152         estimate D2E/DX2                !
 ! R30   R(15,30)                1.1387         estimate D2E/DX2                !
 ! R31   R(16,17)                1.8588         estimate D2E/DX2                !
 ! A1    A(2,1,18)             120.1503         estimate D2E/DX2                !
 ! A2    A(2,1,19)             127.3311         estimate D2E/DX2                !
 ! A3    A(18,1,19)            112.4234         estimate D2E/DX2                !
 ! A4    A(1,2,3)              140.5593         estimate D2E/DX2                !
 ! A5    A(1,2,20)             107.4594         estimate D2E/DX2                !
 ! A6    A(3,2,20)             111.4462         estimate D2E/DX2                !
 ! A7    A(2,3,4)              109.5818         estimate D2E/DX2                !
 ! A8    A(2,3,17)             133.9349         estimate D2E/DX2                !
 ! A9    A(4,3,17)             107.098          estimate D2E/DX2                !
 ! A10   A(3,4,5)              163.831          estimate D2E/DX2                !
 ! A11   A(4,5,6)              122.6607         estimate D2E/DX2                !
 ! A12   A(4,5,13)             111.5395         estimate D2E/DX2                !
 ! A13   A(6,5,13)             125.7467         estimate D2E/DX2                !
 ! A14   A(5,6,7)              123.8195         estimate D2E/DX2                !
 ! A15   A(5,6,21)             115.0804         estimate D2E/DX2                !
 ! A16   A(7,6,21)             120.7717         estimate D2E/DX2                !
 ! A17   A(6,7,8)              118.4283         estimate D2E/DX2                !
 ! A18   A(6,7,9)              124.3675         estimate D2E/DX2                !
 ! A19   A(8,7,9)              116.9801         estimate D2E/DX2                !
 ! A20   A(7,8,22)             116.9624         estimate D2E/DX2                !
 ! A21   A(7,8,23)             118.6687         estimate D2E/DX2                !
 ! A22   A(22,8,23)            118.2057         estimate D2E/DX2                !
 ! A23   A(7,9,10)             112.1837         estimate D2E/DX2                !
 ! A24   A(7,9,24)             110.5206         estimate D2E/DX2                !
 ! A25   A(7,9,25)             112.4571         estimate D2E/DX2                !
 ! A26   A(10,9,24)            109.4831         estimate D2E/DX2                !
 ! A27   A(10,9,25)            110.6899         estimate D2E/DX2                !
 ! A28   A(24,9,25)            100.9361         estimate D2E/DX2                !
 ! A29   A(9,10,11)            116.8288         estimate D2E/DX2                !
 ! A30   A(9,10,26)            108.0296         estimate D2E/DX2                !
 ! A31   A(9,10,27)            109.5124         estimate D2E/DX2                !
 ! A32   A(11,10,26)           107.1423         estimate D2E/DX2                !
 ! A33   A(11,10,27)           107.5519         estimate D2E/DX2                !
 ! A34   A(26,10,27)           107.3951         estimate D2E/DX2                !
 ! A35   A(10,11,12)           119.0167         estimate D2E/DX2                !
 ! A36   A(10,11,28)           108.2005         estimate D2E/DX2                !
 ! A37   A(12,11,28)           108.8564         estimate D2E/DX2                !
 ! A38   A(11,12,13)            96.6145         estimate D2E/DX2                !
 ! A39   A(5,13,12)            115.4794         estimate D2E/DX2                !
 ! A40   A(5,13,14)            116.928          estimate D2E/DX2                !
 ! A41   A(12,13,14)           126.8175         estimate D2E/DX2                !
 ! A42   A(13,14,15)           102.2057         estimate D2E/DX2                !
 ! A43   A(13,14,29)           125.8937         estimate D2E/DX2                !
 ! A44   A(15,14,29)           116.5238         estimate D2E/DX2                !
 ! A45   A(14,15,16)           121.4213         estimate D2E/DX2                !
 ! A46   A(14,15,30)           110.5923         estimate D2E/DX2                !
 ! A47   A(16,15,30)           126.7828         estimate D2E/DX2                !
 ! A48   A(15,16,17)           126.3224         estimate D2E/DX2                !
 ! A49   A(3,17,16)            117.5374         estimate D2E/DX2                !
 ! D1    D(18,1,2,3)           172.1888         estimate D2E/DX2                !
 ! D2    D(18,1,2,20)            1.8961         estimate D2E/DX2                !
 ! D3    D(19,1,2,3)            -3.9831         estimate D2E/DX2                !
 ! D4    D(19,1,2,20)         -174.2758         estimate D2E/DX2                !
 ! D5    D(1,2,3,4)           -169.559          estimate D2E/DX2                !
 ! D6    D(1,2,3,17)            49.5386         estimate D2E/DX2                !
 ! D7    D(20,2,3,4)             0.4896         estimate D2E/DX2                !
 ! D8    D(20,2,3,17)         -140.4128         estimate D2E/DX2                !
 ! D9    D(2,3,4,5)           -154.5061         estimate D2E/DX2                !
 ! D10   D(17,3,4,5)            -2.8749         estimate D2E/DX2                !
 ! D11   D(2,3,17,16)         -175.1501         estimate D2E/DX2                !
 ! D12   D(4,3,17,16)           43.2862         estimate D2E/DX2                !
 ! D13   D(3,4,5,6)            146.3787         estimate D2E/DX2                !
 ! D14   D(3,4,5,13)           -31.112          estimate D2E/DX2                !
 ! D15   D(4,5,6,7)            173.2215         estimate D2E/DX2                !
 ! D16   D(4,5,6,21)            -0.2253         estimate D2E/DX2                !
 ! D17   D(13,5,6,7)            -9.6547         estimate D2E/DX2                !
 ! D18   D(13,5,6,21)          176.8986         estimate D2E/DX2                !
 ! D19   D(4,5,13,12)          -86.5051         estimate D2E/DX2                !
 ! D20   D(4,5,13,14)           84.1095         estimate D2E/DX2                !
 ! D21   D(6,5,13,12)           96.0979         estimate D2E/DX2                !
 ! D22   D(6,5,13,14)          -93.2876         estimate D2E/DX2                !
 ! D23   D(5,6,7,8)           -174.1319         estimate D2E/DX2                !
 ! D24   D(5,6,7,9)              0.2541         estimate D2E/DX2                !
 ! D25   D(21,6,7,8)            -1.0415         estimate D2E/DX2                !
 ! D26   D(21,6,7,9)           173.3445         estimate D2E/DX2                !
 ! D27   D(6,7,8,22)           -13.2247         estimate D2E/DX2                !
 ! D28   D(6,7,8,23)          -165.1715         estimate D2E/DX2                !
 ! D29   D(9,7,8,22)           171.9739         estimate D2E/DX2                !
 ! D30   D(9,7,8,23)            20.0271         estimate D2E/DX2                !
 ! D31   D(6,7,9,10)           -76.4998         estimate D2E/DX2                !
 ! D32   D(6,7,9,24)           161.0058         estimate D2E/DX2                !
 ! D33   D(6,7,9,25)            49.0495         estimate D2E/DX2                !
 ! D34   D(8,7,9,10)            97.9605         estimate D2E/DX2                !
 ! D35   D(8,7,9,24)           -24.5339         estimate D2E/DX2                !
 ! D36   D(8,7,9,25)          -136.4901         estimate D2E/DX2                !
 ! D37   D(7,9,10,11)           55.1894         estimate D2E/DX2                !
 ! D38   D(7,9,10,26)          -65.6063         estimate D2E/DX2                !
 ! D39   D(7,9,10,27)          177.7208         estimate D2E/DX2                !
 ! D40   D(24,9,10,11)         178.2701         estimate D2E/DX2                !
 ! D41   D(24,9,10,26)          57.4743         estimate D2E/DX2                !
 ! D42   D(24,9,10,27)         -59.1985         estimate D2E/DX2                !
 ! D43   D(25,9,10,11)         -71.3206         estimate D2E/DX2                !
 ! D44   D(25,9,10,26)         167.8836         estimate D2E/DX2                !
 ! D45   D(25,9,10,27)          51.2108         estimate D2E/DX2                !
 ! D46   D(9,10,11,12)          64.8608         estimate D2E/DX2                !
 ! D47   D(9,10,11,28)         -59.9892         estimate D2E/DX2                !
 ! D48   D(26,10,11,12)       -173.8759         estimate D2E/DX2                !
 ! D49   D(26,10,11,28)         61.2741         estimate D2E/DX2                !
 ! D50   D(27,10,11,12)        -58.6812         estimate D2E/DX2                !
 ! D51   D(27,10,11,28)        176.4688         estimate D2E/DX2                !
 ! D52   D(10,11,12,13)        -64.7316         estimate D2E/DX2                !
 ! D53   D(28,11,12,13)         59.8009         estimate D2E/DX2                !
 ! D54   D(11,12,13,5)         -51.9949         estimate D2E/DX2                !
 ! D55   D(11,12,13,14)        138.4692         estimate D2E/DX2                !
 ! D56   D(5,13,14,15)        -127.4063         estimate D2E/DX2                !
 ! D57   D(5,13,14,29)           8.6931         estimate D2E/DX2                !
 ! D58   D(12,13,14,15)         41.9971         estimate D2E/DX2                !
 ! D59   D(12,13,14,29)        178.0966         estimate D2E/DX2                !
 ! D60   D(13,14,15,16)         70.0624         estimate D2E/DX2                !
 ! D61   D(13,14,15,30)        -98.2046         estimate D2E/DX2                !
 ! D62   D(29,14,15,16)        -71.0487         estimate D2E/DX2                !
 ! D63   D(29,14,15,30)        120.6842         estimate D2E/DX2                !
 ! D64   D(14,15,16,17)         15.8421         estimate D2E/DX2                !
 ! D65   D(30,15,16,17)       -177.9074         estimate D2E/DX2                !
 ! D66   D(15,16,17,3)         -69.7729         estimate D2E/DX2                !
 --------------------------------------------------------------------------------
 Trust Radius=3.00D-01 FncErr=1.00D-07 GrdErr=1.00D-06 EigMax=2.50D+02 EigMin=1.00D-04
 Number of steps in this run=    156 maximum allowed number of steps=    180.
 GradGradGradGradGradGradGradGradGradGradGradGradGradGradGradGradGradGrad

                          Input orientation:                          
 ---------------------------------------------------------------------
 Center     Atomic      Atomic             Coordinates (Angstroms)
 Number     Number       Type             X           Y           Z
 ---------------------------------------------------------------------
      1          6           0        1.219570   -0.349010   -0.269950
      2          6           0        2.551290   -0.483840   -0.436920
      3          6           0        3.576260   -1.433110   -1.073350
      4          6           0        4.780280   -1.098890   -0.689540
      5          6           0        6.046550   -0.931010   -0.624340
      6          6           0        6.640960    0.217760   -0.022130
      7          6           0        7.963020    0.358600    0.177030
      8          7           0        8.403210    1.448270    0.872180
      9          6           0        9.014850   -0.687070   -0.217560
     10          6           0        9.048690   -1.883790    0.767310
     11          7           0        7.779540   -2.594600    0.992970
     12         16           0        7.078890   -3.412010   -0.270340
     13          6           0        6.752340   -1.995650   -1.272900
     14          6           0        6.917400   -1.895010   -2.601010
     15          6           0        6.408110   -3.161460   -3.068540
     16          7           0        5.124860   -3.445240   -3.018010
     17         16           0        3.738130   -2.232860   -2.768630
     18          1           0        0.818230    0.449690    0.388180
     19          1           0        0.443220   -0.981530   -0.669380
     20          1           0        3.045290    0.279560    0.198230
     21          1           0        5.938470    0.944740    0.375440
     22          1           0        7.735660    2.197740    1.024100
     23          1           0        9.385950    1.684040    0.833340
     24          1           0       10.007980   -0.230700   -0.271650
     25          1           0        8.890560   -1.037590   -1.248940
     26          1           0        9.387350   -1.513620    1.737660
     27          1           0        9.782950   -2.620020    0.423300
     28          1           0        7.101770   -1.926690    1.371590
     29          1           0        6.685060   -1.028000   -3.205250
     30          1           0        7.261290   -3.892480   -3.253710
 ---------------------------------------------------------------------
                    Distance matrix (angstroms):
                    1          2          3          4          5
     1  C    0.000000
     2  C    1.348902   0.000000
     3  C    2.715642   1.535161   0.000000
     4  C    3.662927   2.326048   1.307164   0.000000
     5  C    4.874839   3.528729   2.560478   1.279013   0.000000
     6  C    5.456566   4.170095   3.636320   2.375107   1.426763
     7  C    6.795191   5.511212   4.900749   3.606252   2.445025
     8  N    7.492620   6.300140   5.948688   4.696021   3.668023
     9  C    7.802783   6.470474   5.555827   4.280648   3.005958
    10  C    8.045283   6.754720   5.791255   4.577969   3.443447
    11  N    7.047755   5.816742   4.825588   3.750140   2.895942
    12  S    6.611626   5.394543   4.102351   3.287835   2.710425
    13  C    5.859085   4.542384   3.231680   2.243548   1.432560
    14  C    6.347379   5.073224   3.702744   2.975703   2.365354
    15  C    6.531686   5.382391   3.871350   3.544526   3.328625
    16  N    5.691201   4.696294   3.198208   3.323532   3.591730
    17  S    4.016894   3.147147   1.881429   2.587389   3.409046
    18  H    1.110014   2.134424   3.645235   4.388328   5.501532
    19  H    1.078121   2.178461   3.191090   4.338694   5.603739
    20  H    1.986843   1.109158   2.198200   2.387143   3.339111
    21  H    4.935416   3.764805   3.651465   2.579149   2.128304
    22  H    7.114768   6.016905   5.906181   4.747484   3.919123
    23  H    8.487656   7.281884   6.863278   5.592500   4.484965
    24  H    8.789206   7.462816   6.592081   5.315753   4.038286
    25  H    7.763804   6.415010   5.331890   4.148625   2.913739
    26  H    8.491139   7.247135   6.455775   5.223830   4.132726
    27  H    8.886482   7.589476   6.493975   5.345929   4.232138
    28  H    6.307456   5.104840   4.318631   3.212915   2.467510
    29  H    6.240881   5.004779   3.791273   3.156265   2.660488
    30  H    7.613237   6.460436   4.937805   4.531503   4.142401
                    6          7          8          9         10
     6  C    0.000000
     7  C    1.344375   0.000000
     8  N    2.327976   1.365424   0.000000
     9  C    2.547992   1.534755   2.474129   0.000000
    10  C    3.291943   2.560356   3.395625   1.550243   0.000000
    11  N    3.199400   3.069334   4.092475   2.574887   1.472045
    12  S    3.664508   3.898631   5.165414   3.343056   2.700423
    13  C    2.544802   3.018366   4.380334   2.818701   3.073791
    14  C    3.345271   3.726873   5.044621   3.396947   3.985988
    15  C    4.555652   5.034113   6.384302   4.587569   4.828959
    16  N    4.969047   5.721244   7.058867   5.530103   5.671262
    17  S    4.687774   5.765611   6.969160   6.061452   6.389583
    18  H    5.841775   7.148490   7.665725   8.297212   8.563255
    19  H    6.345803   7.685034   8.464147   8.588579   8.771104
    20  H    3.602946   4.918411   5.525160   6.061592   6.406617
    21  H    1.086303   2.117010   2.564222   3.532501   4.222276
    22  H    2.492646   2.037561   1.015090   3.391191   4.295215
    23  H    3.227503   2.052380   1.011372   2.619975   3.584343
    24  H    3.405907   2.174960   2.588933   1.094306   2.175404
    25  H    2.853361   2.200697   3.303961   1.096384   2.192333
    26  H    3.692857   2.823028   3.238886   2.155186   1.092381
    27  H    4.257171   3.499282   4.319278   2.176459   1.095224
    28  H    2.598743   2.718690   3.651508   2.778836   2.038993
    29  H    3.418496   3.872423   5.070443   3.804004   4.701102
    30  H    5.265168   5.507639   6.844747   4.750561   4.837172
                   11         12         13         14         15
    11  N    0.000000
    12  S    1.659826   0.000000
    13  C    2.558915   1.765740   0.000000
    14  C    3.761569   2.785568   1.342106   0.000000
    15  C    4.324120   2.888364   2.168393   1.442864   0.000000
    16  N    4.884555   3.371799   2.792026   2.406305   1.315224
    17  S    5.532945   4.335035   3.373268   3.201562   2.842717
    18  H    7.621897   7.385272   6.629671   7.185593   7.499072
    19  H    7.693308   7.078035   6.418541   6.817672   6.788813
    20  H    5.595135   5.487912   4.591625   5.249546   5.815579
    21  H    4.037055   4.549600   3.467752   4.228680   5.379818
    22  H    4.792642   5.794499   4.881357   5.528252   6.872635
    23  H    4.573051   5.701786   4.991219   5.540586   6.897178
    24  H    3.486149   4.324385   3.836241   4.212782   5.419503
    25  H    2.946999   3.142877   2.343168   2.540989   3.739562
    26  H    2.075604   3.600686   4.029777   5.007012   5.889890
    27  H    2.082984   2.901780   3.528672   4.228885   4.886271
    28  H    1.024124   2.214189   2.668367   3.977002   4.660534
    29  H    4.612719   3.801618   2.162140   1.082032   2.155700
    30  H    4.470723   3.027312   2.789373   2.129358   1.138681
                   16         17         18         19         20
    16  N    0.000000
    17  S    1.858783   0.000000
    18  H    6.731989   5.068268   0.000000
    19  H    5.788237   4.102330   1.818641   0.000000
    20  H    5.342560   3.948992   2.241611   3.018918   0.000000
    21  H    5.607975   4.982350   5.144132   5.916075   2.973947
    22  H    7.416074   7.070733   7.163163   8.133592   5.134301
    23  H    7.700604   7.759779   8.667619   9.451764   6.525327
    24  H    6.459150   7.039501   9.238496   9.602425   6.997157
    25  H    4.806962   5.503241   8.369867   8.467384   6.164119
    26  H    6.672059   7.262069   8.894127   9.277630   6.768092
    27  H    5.849906   6.846763   9.475788   9.545112   7.338548
    28  H    5.048045   5.343148   6.789488   7.028170   4.764383
    29  H    2.883112   3.213522   7.036761   6.737460   5.151826
    30  H    2.195430   3.924576   8.580841   7.851017   6.862686
                   21         22         23         24         25
    21  H    0.000000
    22  H    2.284877   0.000000
    23  H    3.555468   1.738889   0.000000
    24  H    4.285008   3.569275   2.296553   0.000000
    25  H    3.909358   4.119207   3.462452   1.689614   0.000000
    26  H    4.449039   4.124493   3.323075   2.463411   3.064830
    27  H    5.243075   5.269077   4.341736   2.498488   2.469176
    28  H    3.254334   4.187301   4.306340   3.744686   3.295064
    29  H    4.155772   5.421859   5.564187   4.503720   2.948130
    30  H    6.190257   7.457578   7.232962   5.463115   3.850197
                   26         27         28         29         30
    26  H    0.000000
    27  H    1.762998   0.000000
    28  H    2.351278   2.927232   0.000000
    29  H    5.654251   5.029694   4.682815   0.000000
    30  H    5.923924   4.636629   5.028238   2.922265   0.000000
 Stoichiometry    C12H13N3S2
 Framework group  C1[X(C12H13N3S2)]
 Deg. of freedom    84
 Full point group                 C1      NOp   1
 Largest Abelian subgroup         C1      NOp   1
 Largest concise Abelian subgroup C1      NOp   1
                         Standard orientation:                         
 ---------------------------------------------------------------------
 Center     Atomic      Atomic             Coordinates (Angstroms)
 Number     Number       Type             X           Y           Z
 ---------------------------------------------------------------------
      1          6           0       -4.166239    2.635939    0.822118
      2          6           0       -2.998866    2.055158    0.476474
      3          6           0       -2.372336    0.664522    0.302369
      4          6           0       -1.080104    0.782814    0.144824
      5          6           0        0.141056    0.584770   -0.179865
      6          6           0        1.033852    1.649302   -0.504426
      7          6           0        2.350174    1.482278   -0.720622
      8          7           0        3.124688    2.591715   -0.904091
      9          6           0        3.074279    0.130671   -0.655025
     10          6           0        3.309528   -0.337134    0.804108
     11          7           0        2.124231   -0.426374    1.672453
     12         16           0        0.941877   -1.533362    1.309633
     13          6           0        0.452929   -0.812656   -0.226384
     14          6           0        0.159304   -1.463437   -1.362834
     15          6           0       -0.621101   -2.578192   -0.883099
     16          7           0       -1.831316   -2.409101   -0.396681
     17         16           0       -2.898515   -0.900743   -0.599216
     18          1           0       -4.221565    3.735532    0.963421
     19          1           0       -5.099544    2.145019    1.046357
     20          1           0       -2.232186    2.854913    0.423326
     21          1           0        0.599812    2.644119   -0.459688
     22          1           0        2.640889    3.468011   -1.072770
     23          1           0        4.053551    2.477026   -1.287409
     24          1           0        4.032720    0.183057   -1.180527
     25          1           0        2.562181   -0.647309   -1.233437
     26          1           0        4.002460    0.363121    1.276108
     27          1           0        3.790609   -1.321033    0.799760
     28          1           0        1.699931    0.503869    1.731148
     29          1           0       -0.166952   -1.007983   -2.288530
     30          1           0        0.026222   -3.510540   -0.792024
 ---------------------------------------------------------------------
 Rotational constants (GHZ):           0.5765077           0.3142490           0.2436509
 Standard basis: 6-31G(2df,p) (6D, 7F)
 There are   600 symmetry adapted cartesian basis functions of A   symmetry.
 There are   549 symmetry adapted basis functions of A   symmetry.
   549 basis functions,   887 primitive gaussians,   600 cartesian basis functions
    69 alpha electrons       69 beta electrons
       nuclear repulsion energy      1443.8639743775 Hartrees.
 NAtoms=   30 NActive=   30 NUniq=   30 SFac= 1.00D+00 NAtFMM=   60 NAOKFM=F Big=F
 Integral buffers will be    131072 words long.
 Raffenetti 2 integral format.
 Two-electron integral symmetry is turned on.
 One-electron integrals computed using PRISM.
 PrsmSu:  requested number of processors reduced to:  12 ShMem   1 Linda.
 NBasis=   549 RedAO= T EigKep=  1.58D-04  NBF=   549
 NBsUse=   549 1.00D-06 EigRej= -1.00D+00 NBFU=   549
 ExpMin= 1.17D-01 ExpMax= 2.19D+04 ExpMxC= 3.30D+03 IAcc=3 IRadAn=         5 AccDes= 0.00D+00
 Harris functional with IExCor=  402 and IRadAn=       5 diagonalized for initial guess.
 HarFok:  IExCor=  402 AccDes= 0.00D+00 IRadAn=         5 IDoV= 1 UseB2=F ITyADJ=14
 ICtDFT=  3500011 ScaDFX=  1.000000  1.000000  1.000000  1.000000
 FoFCou: FMM=F IPFlag=           0 FMFlag=      100000 FMFlg1=           0
         NFxFlg=           0 DoJE=T BraDBF=F KetDBF=T FulRan=T
         wScrn=  0.000000 ICntrl=       500 IOpCl=  0 I1Cent=   200000004 NGrid=           0
         NMat0=    1 NMatS0=      1 NMatT0=    0 NMatD0=    1 NMtDS0=    0 NMtDT0=    0
 Petite list used in FoFCou.
 Requested convergence on RMS density matrix=1.00D-08 within 128 cycles.
 Requested convergence on MAX density matrix=1.00D-06.
 Requested convergence on             energy=1.00D-06.
 No special actions if energy rises.
 Integral accuracy reduced to 1.0D-05 until final iterations.
 EnCoef did     1 forward-backward iterations
 EnCoef did     4 forward-backward iterations
 Problem detected with inexpensive integrals.
 Switching to full accuracy and repeating last cycle.
 EnCoef did     2 forward-backward iterations
 EnCoef did     2 forward-backward iterations
 EnCoef did     3 forward-backward iterations
 SCF Done:  E(RB3LYP) =  -1425.43519366     A.U. after   24 cycles
            NFock= 24  Conv=0.76D-08     -V/T= 2.0049

 **********************************************************************

            Population analysis using the SCF density.

 **********************************************************************

 Orbital symmetries:
       Occupied  (A) (A) (A) (A) (A) (A) (A) (A) (A) (A) (A) (A)
                 (A) (A) (A) (A) (A) (A) (A) (A) (A) (A) (A) (A)
                 (A) (A) (A) (A) (A) (A) (A) (A) (A) (A) (A) (A)
                 (A) (A) (A) (A) (A) (A) (A) (A) (A) (A) (A) (A)
                 (A) (A) (A) (A) (A) (A) (A) (A) (A) (A) (A) (A)
                 (A) (A) (A) (A) (A) (A) (A) (A) (A)
       Virtual   (A) (A) (A) (A) (A) (A) (A) (A) (A) (A) (A) (A)
                 (A) (A) (A) (A) (A) (A) (A) (A) (A) (A) (A) (A)
                 (A) (A) (A) (A) (A) (A) (A) (A) (A) (A) (A) (A)
                 (A) (A) (A) (A) (A) (A) (A) (A) (A) (A) (A) (A)
                 (A) (A) (A) (A) (A) (A) (A) (A) (A) (A) (A) (A)
                 (A) (A) (A) (A) (A) (A) (A) (A) (A) (A) (A) (A)
                 (A) (A) (A) (A) (A) (A) (A) (A) (A) (A) (A) (A)
                 (A) (A) (A) (A) (A) (A) (A) (A) (A) (A) (A) (A)
                 (A) (A) (A) (A) (A) (A) (A) (A) (A) (A) (A) (A)
                 (A) (A) (A) (A) (A) (A) (A) (A) (A) (A) (A) (A)
                 (A) (A) (A) (A) (A) (A) (A) (A) (A) (A) (A) (A)
                 (A) (A) (A) (A) (A) (A) (A) (A) (A) (A) (A) (A)
                 (A) (A) (A) (A) (A) (A) (A) (A) (A) (A) (A) (A)
                 (A) (A) (A) (A) (A) (A) (A) (A) (A) (A) (A) (A)
                 (A) (A) (A) (A) (A) (A) (A) (A) (A) (A) (A) (A)
                 (A) (A) (A) (A) (A) (A) (A) (A) (A) (A) (A) (A)
                 (A) (A) (A) (A) (A) (A) (A) (A) (A) (A) (A) (A)
                 (A) (A) (A) (A) (A) (A) (A) (A) (A) (A) (A) (A)
                 (A) (A) (A) (A) (A) (A) (A) (A) (A) (A) (A) (A)
                 (A) (A) (A) (A) (A) (A) (A) (A) (A) (A) (A) (A)
                 (A) (A) (A) (A) (A) (A) (A) (A) (A) (A) (A) (A)
                 (A) (A) (A) (A) (A) (A) (A) (A) (A) (A) (A) (A)
                 (A) (A) (A) (A) (A) (A) (A) (A) (A) (A) (A) (A)
                 (A) (A) (A) (A) (A) (A) (A) (A) (A) (A) (A) (A)
                 (A) (A) (A) (A) (A) (A) (A) (A) (A) (A) (A) (A)
                 (A) (A) (A) (A) (A) (A) (A) (A) (A) (A) (A) (A)
                 (A) (A) (A) (A) (A) (A) (A) (A) (A) (A) (A) (A)
                 (A) (A) (A) (A) (A) (A) (A) (A) (A) (A) (A) (A)
                 (A) (A) (A) (A) (A) (A) (A) (A) (A) (A) (A) (A)
                 (A) (A) (A) (A) (A) (A) (A) (A) (A) (A) (A) (A)
                 (A) (A) (A) (A) (A) (A) (A) (A) (A) (A) (A) (A)
                 (A) (A) (A) (A) (A) (A) (A) (A) (A) (A) (A) (A)
                 (A) (A) (A) (A) (A) (A) (A) (A) (A) (A) (A) (A)
                 (A) (A) (A) (A) (A) (A) (A) (A) (A) (A) (A) (A)
                 (A) (A) (A) (A) (A) (A) (A) (A) (A) (A) (A) (A)
                 (A) (A) (A) (A) (A) (A) (A) (A) (A) (A) (A) (A)
                 (A) (A) (A) (A) (A) (A) (A) (A) (A) (A) (A) (A)
                 (A) (A) (A) (A) (A) (A) (A) (A) (A) (A) (A) (A)
                 (A) (A) (A) (A) (A) (A) (A) (A) (A) (A) (A) (A)
                 (A) (A) (A) (A) (A) (A) (A) (A) (A) (A) (A) (A)
 The electronic state is 1-A.
 Alpha  occ. eigenvalues --  -88.90432 -88.90020 -14.36240 -14.35528 -14.34687
 Alpha  occ. eigenvalues --  -10.25484 -10.23569 -10.23114 -10.22608 -10.22117
 Alpha  occ. eigenvalues --  -10.21404 -10.20203 -10.19368 -10.18743 -10.17700
 Alpha  occ. eigenvalues --  -10.17616 -10.17438  -7.96128  -7.95924  -5.92681
 Alpha  occ. eigenvalues --   -5.92504  -5.92272  -5.92060  -5.91668  -5.91442
 Alpha  occ. eigenvalues --   -0.94400  -0.93140  -0.91156  -0.85526  -0.81491
 Alpha  occ. eigenvalues --   -0.79125  -0.76405  -0.74317  -0.71394  -0.69539
 Alpha  occ. eigenvalues --   -0.67957  -0.62687  -0.59957  -0.58629  -0.55370
 Alpha  occ. eigenvalues --   -0.55267  -0.53480  -0.51579  -0.49275  -0.49045
 Alpha  occ. eigenvalues --   -0.46725  -0.46210  -0.44943  -0.44589  -0.43335
 Alpha  occ. eigenvalues --   -0.42934  -0.41691  -0.41381  -0.37684  -0.37344
 Alpha  occ. eigenvalues --   -0.37020  -0.36161  -0.36066  -0.34473  -0.33910
 Alpha  occ. eigenvalues --   -0.30499  -0.29009  -0.27873  -0.26177  -0.25419
 Alpha  occ. eigenvalues --   -0.24317  -0.22015  -0.20437  -0.15796
 Alpha virt. eigenvalues --   -0.08448  -0.04292  -0.02603  -0.01610   0.00891
 Alpha virt. eigenvalues --    0.03040   0.04268   0.06133   0.07503   0.08711
 Alpha virt. eigenvalues --    0.08843   0.10318   0.11430   0.11689   0.12625
 Alpha virt. eigenvalues --    0.13538   0.14044   0.15136   0.15844   0.16540
 Alpha virt. eigenvalues --    0.17702   0.18378   0.19663   0.21176   0.21735
 Alpha virt. eigenvalues --    0.22669   0.24756   0.25880   0.26293   0.27659
 Alpha virt. eigenvalues --    0.28992   0.29769   0.30324   0.31604   0.32333
 Alpha virt. eigenvalues --    0.33172   0.33543   0.34317   0.34959   0.36151
 Alpha virt. eigenvalues --    0.36661   0.37426   0.38475   0.39374   0.39920
 Alpha virt. eigenvalues --    0.41070   0.42591   0.43262   0.43550   0.45460
 Alpha virt. eigenvalues --    0.46349   0.47481   0.48260   0.48618   0.49585
 Alpha virt. eigenvalues --    0.50526   0.51150   0.51674   0.52437   0.52822
 Alpha virt. eigenvalues --    0.53820   0.54295   0.55237   0.56045   0.57039
 Alpha virt. eigenvalues --    0.57206   0.57819   0.58114   0.60130   0.60672
 Alpha virt. eigenvalues --    0.60857   0.62271   0.63835   0.64368   0.65475
 Alpha virt. eigenvalues --    0.66494   0.67169   0.68031   0.68836   0.69035
 Alpha virt. eigenvalues --    0.70070   0.70530   0.71211   0.71590   0.72733
 Alpha virt. eigenvalues --    0.73478   0.73663   0.74845   0.75753   0.76564
 Alpha virt. eigenvalues --    0.77302   0.77823   0.78361   0.78862   0.79108
 Alpha virt. eigenvalues --    0.79677   0.80317   0.81575   0.81923   0.82060
 Alpha virt. eigenvalues --    0.82448   0.84665   0.84898   0.85341   0.86440
 Alpha virt. eigenvalues --    0.88361   0.88534   0.89195   0.89957   0.90573
 Alpha virt. eigenvalues --    0.91187   0.92496   0.93297   0.94458   0.94750
 Alpha virt. eigenvalues --    0.96162   0.96583   0.97486   0.99625   1.00308
 Alpha virt. eigenvalues --    1.01706   1.02657   1.03271   1.04071   1.05538
 Alpha virt. eigenvalues --    1.08545   1.09540   1.10748   1.12050   1.12804
 Alpha virt. eigenvalues --    1.13153   1.15347   1.15972   1.16480   1.17474
 Alpha virt. eigenvalues --    1.18868   1.19639   1.22644   1.23920   1.24747
 Alpha virt. eigenvalues --    1.25593   1.28665   1.28980   1.30781   1.31806
 Alpha virt. eigenvalues --    1.33006   1.33751   1.34309   1.35396   1.35628
 Alpha virt. eigenvalues --    1.36838   1.40882   1.42606   1.43532   1.44500
 Alpha virt. eigenvalues --    1.45337   1.46645   1.47570   1.49352   1.49875
 Alpha virt. eigenvalues --    1.50507   1.51426   1.52459   1.54082   1.54997
 Alpha virt. eigenvalues --    1.56663   1.57340   1.58083   1.58869   1.60258
 Alpha virt. eigenvalues --    1.61015   1.62383   1.63569   1.64405   1.65737
 Alpha virt. eigenvalues --    1.66199   1.67287   1.68398   1.68810   1.70477
 Alpha virt. eigenvalues --    1.71493   1.72387   1.73719   1.75464   1.76471
 Alpha virt. eigenvalues --    1.77564   1.78193   1.80520   1.81783   1.81863
 Alpha virt. eigenvalues --    1.82687   1.83482   1.85312   1.86079   1.88589
 Alpha virt. eigenvalues --    1.89474   1.90008   1.91974   1.92800   1.93697
 Alpha virt. eigenvalues --    1.95550   1.96413   1.98177   1.99996   2.00661
 Alpha virt. eigenvalues --    2.01878   2.02955   2.05191   2.06555   2.06784
 Alpha virt. eigenvalues --    2.07790   2.09974   2.10903   2.13130   2.14218
 Alpha virt. eigenvalues --    2.16175   2.16908   2.18607   2.22993   2.24455
 Alpha virt. eigenvalues --    2.25455   2.26064   2.26439   2.29936   2.30506
 Alpha virt. eigenvalues --    2.32086   2.33585   2.34607   2.35772   2.36505
 Alpha virt. eigenvalues --    2.37202   2.37676   2.39929   2.40911   2.42149
 Alpha virt. eigenvalues --    2.43845   2.44968   2.45826   2.47045   2.47686
 Alpha virt. eigenvalues --    2.48923   2.50978   2.53013   2.54474   2.60972
 Alpha virt. eigenvalues --    2.62797   2.64206   2.64644   2.66497   2.69476
 Alpha virt. eigenvalues --    2.71969   2.73753   2.74612   2.76134   2.77344
 Alpha virt. eigenvalues --    2.78150   2.79192   2.80612   2.81762   2.84137
 Alpha virt. eigenvalues --    2.84794   2.85547   2.85955   2.86622   2.87757
 Alpha virt. eigenvalues --    2.88803   2.89239   2.90973   2.93725   2.94184
 Alpha virt. eigenvalues --    2.95608   2.96242   2.97534   2.98314   2.99715
 Alpha virt. eigenvalues --    3.00766   3.01455   3.02316   3.04200   3.06251
 Alpha virt. eigenvalues --    3.07136   3.08366   3.09443   3.10559   3.11720
 Alpha virt. eigenvalues --    3.12684   3.13935   3.15447   3.17791   3.18358
 Alpha virt. eigenvalues --    3.19632   3.21604   3.23543   3.24077   3.25092
 Alpha virt. eigenvalues --    3.25282   3.26527   3.28777   3.30173   3.30582
 Alpha virt. eigenvalues --    3.31584   3.32514   3.33977   3.34333   3.36566
 Alpha virt. eigenvalues --    3.36770   3.38211   3.41389   3.41673   3.43885
 Alpha virt. eigenvalues --    3.45444   3.45998   3.46795   3.46932   3.49670
 Alpha virt. eigenvalues --    3.50040   3.51721   3.53029   3.54345   3.55664
 Alpha virt. eigenvalues --    3.58663   3.59898   3.61493   3.62846   3.63905
 Alpha virt. eigenvalues --    3.65316   3.67475   3.69133   3.70145   3.70712
 Alpha virt. eigenvalues --    3.72349   3.73421   3.75147   3.76976   3.78241
 Alpha virt. eigenvalues --    3.79966   3.80275   3.80819   3.81513   3.83999
 Alpha virt. eigenvalues --    3.85282   3.87536   3.90696   3.92317   3.93438
 Alpha virt. eigenvalues --    3.94801   3.96321   3.98070   3.99904   4.02458
 Alpha virt. eigenvalues --    4.05378   4.06730   4.08378   4.09258   4.11181
 Alpha virt. eigenvalues --    4.12882   4.13584   4.15233   4.16604   4.17391
 Alpha virt. eigenvalues --    4.18971   4.20907   4.22349   4.23173   4.23894
 Alpha virt. eigenvalues --    4.24448   4.26137   4.27879   4.30763   4.31877
 Alpha virt. eigenvalues --    4.32872   4.33200   4.34638   4.36821   4.37824
 Alpha virt. eigenvalues --    4.38402   4.38872   4.40846   4.41924   4.43164
 Alpha virt. eigenvalues --    4.44133   4.45543   4.46415   4.47273   4.49115
 Alpha virt. eigenvalues --    4.50448   4.51181   4.52269   4.53441   4.54509
 Alpha virt. eigenvalues --    4.55043   4.57123   4.57639   4.59586   4.60246
 Alpha virt. eigenvalues --    4.61001   4.62802   4.64146   4.64807   4.66118
 Alpha virt. eigenvalues --    4.67346   4.68328   4.69292   4.70623   4.71470
 Alpha virt. eigenvalues --    4.72370   4.73497   4.74201   4.75887   4.76821
 Alpha virt. eigenvalues --    4.78012   4.79698   4.81979   4.82824   4.83906
 Alpha virt. eigenvalues --    4.85310   4.85616   4.87488   4.89111   4.90069
 Alpha virt. eigenvalues --    4.92282   4.92921   4.94205   4.96572   4.98725
 Alpha virt. eigenvalues --    4.99163   5.00544   5.03114   5.05550   5.07129
 Alpha virt. eigenvalues --    5.09717   5.10548   5.12334   5.14695   5.17438
 Alpha virt. eigenvalues --    5.20967   5.23096   5.23893   5.27449   5.29522
 Alpha virt. eigenvalues --    5.32715   5.36641   5.36994   5.38849   5.41565
 Alpha virt. eigenvalues --    5.43518   5.46968   5.52739   5.55502   5.58781
 Alpha virt. eigenvalues --    5.60508   5.66375   5.69538   5.74135   5.79831
 Alpha virt. eigenvalues --    5.80586   5.90059   5.99430   6.16550   6.37583
 Alpha virt. eigenvalues --    6.55941   6.86040  10.01316  10.10613  10.32961
 Alpha virt. eigenvalues --   10.53116  10.89261  11.19896  11.29805  11.33284
 Alpha virt. eigenvalues --   11.45779  11.68310  11.72005  11.89590  12.16954
 Alpha virt. eigenvalues --   12.41296  12.64461  12.86742  13.47801  14.52115
          Condensed to atoms (all electrons):
               1          2          3          4          5          6
     1  C    5.130530   0.584687  -0.012478  -0.000850  -0.000719  -0.000006
     2  C    0.584687   4.678558   0.381566  -0.009742   0.001318  -0.000034
     3  C   -0.012478   0.381566   5.156450   0.542577  -0.068286   0.000524
     4  C   -0.000850  -0.009742   0.542577   4.780495   0.495286  -0.013862
     5  C   -0.000719   0.001318  -0.068286   0.495286   4.942878   0.455608
     6  C   -0.000006  -0.000034   0.000524  -0.013862   0.455608   5.007317
     7  C    0.000000  -0.000003  -0.000153   0.006596  -0.004732   0.535874
     8  N   -0.000000   0.000000  -0.000000  -0.000446   0.002240  -0.022499
     9  C    0.000000   0.000000   0.000009   0.000798  -0.027202  -0.037777
    10  C    0.000000   0.000000  -0.000000  -0.000174  -0.000864  -0.005899
    11  N   -0.000000  -0.000001   0.000036  -0.000455   0.000273  -0.000384
    12  S   -0.000006   0.000037   0.002315   0.001713  -0.036490   0.000270
    13  C    0.000001   0.000325  -0.010204  -0.011282   0.353828  -0.042323
    14  C    0.000003   0.000045   0.001480  -0.021732  -0.049607   0.000859
    15  C    0.000000   0.000007   0.000787  -0.003567  -0.000472   0.000247
    16  N    0.000001   0.000233  -0.005246  -0.002944   0.000936  -0.000018
    17  S    0.002287  -0.024872   0.256417  -0.061457  -0.017675   0.001131
    18  H    0.355415   0.000701   0.003834  -0.000145   0.000006  -0.000000
    19  H    0.361007  -0.011118  -0.008913   0.000321   0.000009   0.000000
    20  H   -0.064824   0.388025  -0.049403  -0.009098   0.000931   0.000394
    21  H    0.000017   0.000146   0.000266  -0.010537  -0.024577   0.347229
    22  H   -0.000000   0.000000   0.000000  -0.000009  -0.000316  -0.005800
    23  H   -0.000000   0.000000  -0.000000   0.000001  -0.000043   0.005212
    24  H   -0.000000  -0.000000   0.000000  -0.000011   0.000775   0.004239
    25  H   -0.000000   0.000000  -0.000010   0.000110   0.000189  -0.006512
    26  H   -0.000000  -0.000000  -0.000000   0.000015   0.000099  -0.000484
    27  H   -0.000000  -0.000000   0.000000   0.000003  -0.000076   0.000427
    28  H    0.000000  -0.000005  -0.000047   0.001644   0.008952   0.010791
    29  H   -0.000000   0.000015  -0.000638   0.000153  -0.011050   0.001163
    30  H    0.000000   0.000000  -0.000019  -0.000153  -0.000356   0.000008
               7          8          9         10         11         12
     1  C    0.000000  -0.000000   0.000000   0.000000  -0.000000  -0.000006
     2  C   -0.000003   0.000000   0.000000   0.000000  -0.000001   0.000037
     3  C   -0.000153  -0.000000   0.000009  -0.000000   0.000036   0.002315
     4  C    0.006596  -0.000446   0.000798  -0.000174  -0.000455   0.001713
     5  C   -0.004732   0.002240  -0.027202  -0.000864   0.000273  -0.036490
     6  C    0.535874  -0.022499  -0.037777  -0.005899  -0.000384   0.000270
     7  C    4.576167   0.408793   0.386550  -0.019706  -0.008093   0.000532
     8  N    0.408793   6.539939  -0.046226  -0.001192  -0.000012  -0.000003
     9  C    0.386550  -0.046226   5.170792   0.348677  -0.047997   0.003024
    10  C   -0.019706  -0.001192   0.348677   4.879550   0.399632  -0.079413
    11  N   -0.008093  -0.000012  -0.047997   0.399632   6.343009   0.347951
    12  S    0.000532  -0.000003   0.003024  -0.079413   0.347951  15.701122
    13  C   -0.029339   0.000358   0.006940  -0.005176  -0.053428   0.260162
    14  C    0.000787  -0.000013  -0.010318   0.000049   0.002836  -0.054619
    15  C   -0.000046   0.000000  -0.000083  -0.000001  -0.000001   0.001231
    16  N   -0.000005   0.000000  -0.000007  -0.000002   0.000022   0.002281
    17  S    0.000023  -0.000001   0.000002   0.000000  -0.000020  -0.000517
    18  H   -0.000000   0.000000  -0.000000  -0.000000   0.000000   0.000000
    19  H   -0.000000   0.000000   0.000000  -0.000000   0.000000   0.000000
    20  H    0.000006  -0.000000   0.000000  -0.000000  -0.000000   0.000001
    21  H   -0.056182  -0.011097   0.006467  -0.000008   0.000052  -0.000465
    22  H   -0.036120   0.348565   0.005968  -0.000077  -0.000001  -0.000001
    23  H   -0.035577   0.351205  -0.006849   0.000041   0.000011  -0.000004
    24  H   -0.026744  -0.006732   0.330242  -0.025642   0.003235  -0.000468
    25  H   -0.016613   0.001680   0.346587  -0.028435  -0.003021  -0.001462
    26  H   -0.004673   0.001676  -0.046092   0.369120  -0.026017   0.004302
    27  H    0.002498  -0.000029  -0.038358   0.363996  -0.025392   0.003568
    28  H    0.002626  -0.000319  -0.005382  -0.052697   0.339371  -0.059913
    29  H    0.000195  -0.000000   0.000174  -0.000016  -0.000073   0.005959
    30  H    0.000001  -0.000000   0.000038  -0.000005   0.000014   0.001793
              13         14         15         16         17         18
     1  C    0.000001   0.000003   0.000000   0.000001   0.002287   0.355415
     2  C    0.000325   0.000045   0.000007   0.000233  -0.024872   0.000701
     3  C   -0.010204   0.001480   0.000787  -0.005246   0.256417   0.003834
     4  C   -0.011282  -0.021732  -0.003567  -0.002944  -0.061457  -0.000145
     5  C    0.353828  -0.049607  -0.000472   0.000936  -0.017675   0.000006
     6  C   -0.042323   0.000859   0.000247  -0.000018   0.001131  -0.000000
     7  C   -0.029339   0.000787  -0.000046  -0.000005   0.000023  -0.000000
     8  N    0.000358  -0.000013   0.000000   0.000000  -0.000001   0.000000
     9  C    0.006940  -0.010318  -0.000083  -0.000007   0.000002  -0.000000
    10  C   -0.005176   0.000049  -0.000001  -0.000002   0.000000  -0.000000
    11  N   -0.053428   0.002836  -0.000001   0.000022  -0.000020   0.000000
    12  S    0.260162  -0.054619   0.001231   0.002281  -0.000517   0.000000
    13  C    4.851628   0.594715  -0.020522  -0.028962   0.000268   0.000000
    14  C    0.594715   5.228886   0.358083  -0.057540  -0.009257  -0.000000
    15  C   -0.020522   0.358083   4.812688   0.588989  -0.067078  -0.000000
    16  N   -0.028962  -0.057540   0.588989   6.537212   0.233650   0.000000
    17  S    0.000268  -0.009257  -0.067078   0.233650  15.675418  -0.000095
    18  H    0.000000  -0.000000  -0.000000   0.000000  -0.000095   0.583682
    19  H   -0.000000  -0.000000   0.000000  -0.000000   0.000363  -0.049295
    20  H    0.000001  -0.000005  -0.000001  -0.000006   0.002251  -0.013982
    21  H    0.007713  -0.000087   0.000011   0.000002   0.000028  -0.000003
    22  H    0.000008   0.000000   0.000000   0.000000  -0.000000   0.000000
    23  H   -0.000019   0.000002  -0.000000   0.000000  -0.000000   0.000000
    24  H   -0.000126   0.000569   0.000002   0.000000  -0.000000   0.000000
    25  H    0.011005   0.011866   0.000664   0.000048   0.000010   0.000000
    26  H   -0.000084  -0.000016   0.000000  -0.000000   0.000000   0.000000
    27  H   -0.001149   0.000096  -0.000003   0.000000  -0.000000   0.000000
    28  H   -0.002733   0.000392  -0.000025  -0.000010   0.000008  -0.000000
    29  H   -0.020652   0.358484  -0.040175  -0.006954   0.006878   0.000000
    30  H   -0.003140  -0.063936   0.358075  -0.033847   0.004180   0.000000
              19         20         21         22         23         24
     1  C    0.361007  -0.064824   0.000017  -0.000000  -0.000000  -0.000000
     2  C   -0.011118   0.388025   0.000146   0.000000   0.000000  -0.000000
     3  C   -0.008913  -0.049403   0.000266   0.000000  -0.000000   0.000000
     4  C    0.000321  -0.009098  -0.010537  -0.000009   0.000001  -0.000011
     5  C    0.000009   0.000931  -0.024577  -0.000316  -0.000043   0.000775
     6  C    0.000000   0.000394   0.347229  -0.005800   0.005212   0.004239
     7  C   -0.000000   0.000006  -0.056182  -0.036120  -0.035577  -0.026744
     8  N    0.000000  -0.000000  -0.011097   0.348565   0.351205  -0.006732
     9  C    0.000000   0.000000   0.006467   0.005968  -0.006849   0.330242
    10  C   -0.000000  -0.000000  -0.000008  -0.000077   0.000041  -0.025642
    11  N    0.000000  -0.000000   0.000052  -0.000001   0.000011   0.003235
    12  S    0.000000   0.000001  -0.000465  -0.000001  -0.000004  -0.000468
    13  C   -0.000000   0.000001   0.007713   0.000008  -0.000019  -0.000126
    14  C   -0.000000  -0.000005  -0.000087   0.000000   0.000002   0.000569
    15  C    0.000000  -0.000001   0.000011   0.000000  -0.000000   0.000002
    16  N   -0.000000  -0.000006   0.000002   0.000000   0.000000   0.000000
    17  S    0.000363   0.002251   0.000028  -0.000000  -0.000000  -0.000000
    18  H   -0.049295  -0.013982  -0.000003   0.000000   0.000000   0.000000
    19  H    0.579328   0.006863   0.000000  -0.000000  -0.000000   0.000000
    20  H    0.006863   0.625945   0.001355  -0.000001  -0.000000  -0.000000
    21  H    0.000000   0.001355   0.664783   0.007200  -0.000098  -0.000139
    22  H   -0.000000  -0.000001   0.007200   0.451008  -0.027099   0.000095
    23  H   -0.000000  -0.000000  -0.000098  -0.027099   0.451333   0.007585
    24  H    0.000000  -0.000000  -0.000139   0.000095   0.007585   0.657359
    25  H    0.000000  -0.000000  -0.000114  -0.000190   0.000025  -0.030079
    26  H    0.000000   0.000000  -0.000007  -0.000073  -0.000060  -0.003498
    27  H    0.000000  -0.000000   0.000007   0.000005  -0.000016   0.000370
    28  H   -0.000000   0.000001   0.000641   0.000019   0.000003  -0.000059
    29  H   -0.000000  -0.000002  -0.000102  -0.000001  -0.000001  -0.000043
    30  H   -0.000000  -0.000000  -0.000000  -0.000000  -0.000000  -0.000002
              25         26         27         28         29         30
     1  C   -0.000000  -0.000000  -0.000000   0.000000  -0.000000   0.000000
     2  C    0.000000  -0.000000  -0.000000  -0.000005   0.000015   0.000000
     3  C   -0.000010  -0.000000   0.000000  -0.000047  -0.000638  -0.000019
     4  C    0.000110   0.000015   0.000003   0.001644   0.000153  -0.000153
     5  C    0.000189   0.000099  -0.000076   0.008952  -0.011050  -0.000356
     6  C   -0.006512  -0.000484   0.000427   0.010791   0.001163   0.000008
     7  C   -0.016613  -0.004673   0.002498   0.002626   0.000195   0.000001
     8  N    0.001680   0.001676  -0.000029  -0.000319  -0.000000  -0.000000
     9  C    0.346587  -0.046092  -0.038358  -0.005382   0.000174   0.000038
    10  C   -0.028435   0.369120   0.363996  -0.052697  -0.000016  -0.000005
    11  N   -0.003021  -0.026017  -0.025392   0.339371  -0.000073   0.000014
    12  S   -0.001462   0.004302   0.003568  -0.059913   0.005959   0.001793
    13  C    0.011005  -0.000084  -0.001149  -0.002733  -0.020652  -0.003140
    14  C    0.011866  -0.000016   0.000096   0.000392   0.358484  -0.063936
    15  C    0.000664   0.000000  -0.000003  -0.000025  -0.040175   0.358075
    16  N    0.000048  -0.000000   0.000000  -0.000010  -0.006954  -0.033847
    17  S    0.000010   0.000000  -0.000000   0.000008   0.006878   0.004180
    18  H    0.000000   0.000000   0.000000  -0.000000   0.000000   0.000000
    19  H    0.000000   0.000000   0.000000  -0.000000  -0.000000  -0.000000
    20  H   -0.000000   0.000000  -0.000000   0.000001  -0.000002  -0.000000
    21  H   -0.000114  -0.000007   0.000007   0.000641  -0.000102  -0.000000
    22  H   -0.000190  -0.000073   0.000005   0.000019  -0.000001  -0.000000
    23  H    0.000025  -0.000060  -0.000016   0.000003  -0.000001  -0.000000
    24  H   -0.030079  -0.003498   0.000370  -0.000059  -0.000043  -0.000002
    25  H    0.558201   0.004625  -0.003069  -0.000206  -0.000485  -0.000146
    26  H    0.004625   0.619043  -0.032450  -0.000847   0.000000   0.000000
    27  H   -0.003069  -0.032450   0.599446   0.006213  -0.000001  -0.000004
    28  H   -0.000206  -0.000847   0.006213   0.500137   0.000006   0.000006
    29  H   -0.000485   0.000000  -0.000001   0.000006   0.575845   0.004493
    30  H   -0.000146   0.000000  -0.000004   0.000006   0.004493   0.577736
 Mulliken charges:
               1
     1  C   -0.355067
     2  C    0.010111
     3  C   -0.190862
     4  C    0.316750
     5  C   -0.020863
     6  C   -0.235698
     7  C    0.317337
     8  N   -0.565887
     9  C   -0.339978
    10  C   -0.141758
    11  N   -0.271548
    12  S   -0.102903
    13  C    0.142185
    14  C   -0.292022
    15  C    0.011188
    16  N   -0.227833
    17  S   -0.001941
    18  H    0.119882
    19  H    0.121435
    20  H    0.111548
    21  H    0.067495
    22  H    0.256818
    23  H    0.254346
    24  H    0.089071
    25  H    0.155334
    26  H    0.115420
    27  H    0.123917
    28  H    0.251434
    29  H    0.126828
    30  H    0.155263
 Sum of Mulliken charges =  -0.00000
 Mulliken charges with hydrogens summed into heavy atoms:
               1
     1  C   -0.113750
     2  C    0.121658
     3  C   -0.190862
     4  C    0.316750
     5  C   -0.020863
     6  C   -0.168203
     7  C    0.317337
     8  N   -0.054723
     9  C   -0.095574
    10  C    0.097578
    11  N   -0.020114
    12  S   -0.102903
    13  C    0.142185
    14  C   -0.165194
    15  C    0.166452
    16  N   -0.227833
    17  S   -0.001941
 Electronic spatial extent (au):  <R**2>=           4696.7847
 Charge=             -0.0000 electrons
 Dipole moment (field-independent basis, Debye):
    X=              5.0992    Y=              4.0767    Z=             -2.3538  Tot=              6.9399
 Quadrupole moment (field-independent basis, Debye-Ang):
   XX=           -104.9922   YY=           -104.2896   ZZ=           -116.2272
   XY=             -0.9217   XZ=             -7.4870   YZ=              1.1462
 Traceless Quadrupole moment (field-independent basis, Debye-Ang):
   XX=              3.5108   YY=              4.2134   ZZ=             -7.7242
   XY=             -0.9217   XZ=             -7.4870   YZ=              1.1462
 Octapole moment (field-independent basis, Debye-Ang**2):
  XXX=             78.4532  YYY=             46.1334  ZZZ=            -10.3473  XYY=             29.3751
  XXY=             51.2312  XXZ=            -10.7215  XZZ=              9.7724  YZZ=              4.1712
  YYZ=            -15.2588  XYZ=            -13.8474
 Hexadecapole moment (field-independent basis, Debye-Ang**3):
 XXXX=          -3514.8676 YYYY=          -1706.8205 ZZZZ=           -675.7241 XXXY=             20.1011
 XXXZ=           -132.8995 YYYX=             20.1563 YYYZ=            -23.7853 ZZZX=             -8.4773
 ZZZY=             -4.7267 XXYY=           -891.0871 XXZZ=           -751.7495 YYZZ=           -417.1373
 XXYZ=            -29.0562 YYXZ=            -59.8881 ZZXY=             37.8289
 N-N= 1.443863974377D+03 E-N=-6.241143471357D+03  KE= 1.418481173313D+03
 PrsmSu:  requested number of processors reduced to:  13 ShMem   1 Linda.
 Calling FoFJK, ICntrl=      2127 FMM=F ISym2X=0 I1Cent= 0 IOpClX= 0 NMat=1 NMatS=1 NMatT=0.
 ***** Axes restored to original set *****
 -------------------------------------------------------------------
 Center     Atomic                   Forces (Hartrees/Bohr)
 Number     Number              X              Y              Z
 -------------------------------------------------------------------
      1        6          -0.001061237   -0.004995367   -0.001739921
      2        6          -0.015031673   -0.013190330    0.025858011
      3        6          -0.008977203    0.029722128   -0.015911944
      4        6          -0.027057286   -0.002316694    0.010394365
      5        6           0.034146720    0.039865687    0.034754704
      6        6          -0.005658258   -0.000453504   -0.013172975
      7        6           0.015618730   -0.002408371   -0.007426981
      8        7           0.012234047    0.008446205    0.009040416
      9        6          -0.001883370    0.008294491   -0.004130691
     10        6           0.002781290   -0.003480766   -0.003037939
     11        7           0.007136181    0.019069929    0.023694601
     12       16          -0.004170746   -0.018926748   -0.012312527
     13        6           0.019682072   -0.005908898   -0.007955440
     14        6          -0.007423079    0.000594367    0.002123605
     15        6          -0.013384513   -0.025974740   -0.006602351
     16        7           0.019721758    0.000371933   -0.010241899
     17       16          -0.006030823   -0.006030857   -0.009395465
     18        1           0.010528284   -0.007827030   -0.010954375
     19        1          -0.000184029   -0.005139759   -0.008041104
     20        1           0.005664237   -0.012653819   -0.014101479
     21        1           0.002669081    0.003200157   -0.000875091
     22        1           0.009270194   -0.002474753   -0.001109394
     23        1          -0.006670641    0.002620031    0.000764936
     24        1           0.002436588    0.003516707    0.009357177
     25        1          -0.006595696    0.000885574    0.006075485
     26        1          -0.000506070   -0.001031204    0.003552434
     27        1          -0.000051393    0.001015293   -0.000611288
     28        1           0.003179910   -0.007991447    0.004034900
     29        1          -0.002924995    0.007149481    0.005673897
     30        1          -0.037458081   -0.003947697   -0.007703667
 -------------------------------------------------------------------
 Cartesian Forces:  Max     0.039865687 RMS     0.012674047

 GradGradGradGradGradGradGradGradGradGradGradGradGradGradGradGradGradGrad
 Berny optimization.
 FormGI is forming the generalized inverse of G from B-inverse, IUseBI=4.
 Internal  Forces:  Max     0.067612548 RMS     0.015916463
 Search for a local minimum.
 Step number   1 out of a maximum of  156
 All quantities printed in internal units (Hartrees-Bohrs-Radians)
 Mixed Optimization -- RFO/linear search
 Second derivative matrix not updated -- first step.
 ITU=  0
     Eigenvalues ---    0.00301   0.00514   0.00944   0.01531   0.01535
     Eigenvalues ---    0.01664   0.01679   0.01766   0.01960   0.02000
     Eigenvalues ---    0.02087   0.02149   0.02251   0.02366   0.02765
     Eigenvalues ---    0.02776   0.02930   0.03033   0.03224   0.03351
     Eigenvalues ---    0.03495   0.03539   0.04062   0.05206   0.05446
     Eigenvalues ---    0.07193   0.07580   0.09357   0.09964   0.10189
     Eigenvalues ---    0.12119   0.12214   0.13597   0.15478   0.15787
     Eigenvalues ---    0.15946   0.16000   0.16000   0.16000   0.16000
     Eigenvalues ---    0.16294   0.17242   0.18479   0.19510   0.20209
     Eigenvalues ---    0.20689   0.21794   0.22047   0.22284   0.23277
     Eigenvalues ---    0.23534   0.23763   0.24306   0.24902   0.24922
     Eigenvalues ---    0.27074   0.28459   0.28802   0.28952   0.29743
     Eigenvalues ---    0.32599   0.32689   0.34085   0.34216   0.34320
     Eigenvalues ---    0.34368   0.34539   0.35243   0.35750   0.36222
     Eigenvalues ---    0.37690   0.38681   0.40032   0.41232   0.43687
     Eigenvalues ---    0.45131   0.45744   0.51866   0.54749   0.55239
     Eigenvalues ---    0.55256   0.61336   0.64449   0.72276
 RFO step:  Lambda=-1.07169650D-01 EMin= 3.00831101D-03
 Linear search not attempted -- first point.
 Maximum step size (   0.300) exceeded in Quadratic search.
    -- Step size scaled by   0.648
 Iteration  1 RMS(Cart)=  0.16729791 RMS(Int)=  0.00586799
 Iteration  2 RMS(Cart)=  0.01091062 RMS(Int)=  0.00099358
 Iteration  3 RMS(Cart)=  0.00006427 RMS(Int)=  0.00099301
 Iteration  4 RMS(Cart)=  0.00000010 RMS(Int)=  0.00099301
 Variable       Old X    -DE/DX   Delta X   Delta X   Delta X     New X
                                 (Linear)    (Quad)   (Total)
    R1        2.54906  -0.01353   0.00000  -0.01328  -0.01328   2.53578
    R2        2.09762  -0.01593   0.00000  -0.02382  -0.02382   2.07380
    R3        2.03735   0.00613   0.00000   0.00845   0.00845   2.04581
    R4        2.90103  -0.03075   0.00000  -0.05020  -0.05020   2.85084
    R5        2.09600  -0.01426   0.00000  -0.02128  -0.02128   2.07473
    R6        2.47018   0.04741   0.00000   0.04140   0.04145   2.51163
    R7        3.55539   0.00162   0.00000   0.00048   0.00030   3.55569
    R8        2.41698   0.06761   0.00000   0.05333   0.05349   2.47047
    R9        2.69619   0.02044   0.00000   0.02717   0.02740   2.72359
   R10        2.70715   0.03575   0.00000   0.05102   0.05215   2.75930
   R11        2.54050   0.02805   0.00000   0.02704   0.02713   2.56763
   R12        2.05281   0.00010   0.00000   0.00013   0.00013   2.05295
   R13        2.58028   0.01607   0.00000   0.01662   0.01662   2.59690
   R14        2.90027  -0.01025   0.00000  -0.01924  -0.01935   2.88092
   R15        1.91824  -0.00809   0.00000  -0.00938  -0.00938   1.90886
   R16        1.91122  -0.00590   0.00000  -0.00677  -0.00677   1.90445
   R17        2.92953   0.00657   0.00000   0.00891   0.00866   2.93820
   R18        2.06794   0.00322   0.00000   0.00462   0.00462   2.07256
   R19        2.07186  -0.00525   0.00000  -0.00759  -0.00759   2.06428
   R20        2.78176   0.00334   0.00000   0.00387   0.00366   2.78542
   R21        2.06430   0.00265   0.00000   0.00379   0.00379   2.06809
   R22        2.06967  -0.00052   0.00000  -0.00076  -0.00076   2.06892
   R23        3.13662   0.03258   0.00000   0.03945   0.03934   3.17596
   R24        1.93531  -0.00583   0.00000  -0.00693  -0.00693   1.92838
   R25        3.33676   0.01249   0.00000   0.02266   0.02290   3.35966
   R26        2.53621   0.02015   0.00000   0.01943   0.01903   2.55525
   R27        2.72662   0.03962   0.00000   0.05362   0.05445   2.78107
   R28        2.04474   0.00319   0.00000   0.00444   0.00444   2.04919
   R29        2.48541  -0.04178   0.00000  -0.03786  -0.03795   2.44746
   R30        2.15180  -0.02428   0.00000  -0.03886  -0.03886   2.11293
   R31        3.51259  -0.01783   0.00000  -0.04185  -0.04291   3.46968
    A1        2.09702  -0.00294   0.00000  -0.00690  -0.00698   2.09004
    A2        2.22235  -0.00487   0.00000  -0.01158  -0.01166   2.21068
    A3        1.96216   0.00807   0.00000   0.01977   0.01969   1.98185
    A4        2.45322  -0.03312   0.00000  -0.06503  -0.06503   2.38819
    A5        1.87552   0.03074   0.00000   0.06790   0.06790   1.94343
    A6        1.94510   0.00251   0.00000  -0.00079  -0.00079   1.94431
    A7        1.91256   0.02259   0.00000   0.05951   0.06080   1.97336
    A8        2.33760  -0.04882   0.00000  -0.08612  -0.08789   2.24971
    A9        1.86921   0.02900   0.00000   0.06868   0.06809   1.93731
   A10        2.85939  -0.02086   0.00000  -0.03033  -0.03160   2.82779
   A11        2.14083   0.03459   0.00000   0.05410   0.05289   2.19372
   A12        1.94673  -0.03543   0.00000  -0.06183  -0.06000   1.88673
   A13        2.19469   0.00076   0.00000   0.00747   0.00684   2.20154
   A14        2.16106   0.00544   0.00000   0.01858   0.01878   2.17984
   A15        2.00853   0.00089   0.00000  -0.00102  -0.00122   2.00732
   A16        2.10786  -0.00681   0.00000  -0.01931  -0.01941   2.08845
   A17        2.06696   0.01519   0.00000   0.02673   0.02677   2.09374
   A18        2.17062  -0.00211   0.00000  -0.00225  -0.00238   2.16824
   A19        2.04169  -0.01325   0.00000  -0.02503  -0.02495   2.01674
   A20        2.04138   0.00384   0.00000   0.00880   0.00881   2.05018
   A21        2.07116   0.00188   0.00000   0.00407   0.00407   2.07523
   A22        2.06308  -0.00568   0.00000  -0.01434  -0.01434   2.04874
   A23        1.95797   0.01480   0.00000   0.02940   0.02968   1.98765
   A24        1.92895  -0.00547   0.00000  -0.01070  -0.01062   1.91833
   A25        1.96275  -0.00693   0.00000  -0.01830  -0.01841   1.94434
   A26        1.91084  -0.00489   0.00000  -0.01112  -0.01113   1.89971
   A27        1.93190  -0.00582   0.00000  -0.01149  -0.01144   1.92046
   A28        1.76167   0.00700   0.00000   0.02021   0.02016   1.78182
   A29        2.03905   0.00395   0.00000   0.01229   0.01201   2.05106
   A30        1.88547   0.00203   0.00000   0.00777   0.00800   1.89347
   A31        1.91135  -0.00309   0.00000  -0.01063  -0.01067   1.90068
   A32        1.86999  -0.00362   0.00000  -0.01083  -0.01091   1.85907
   A33        1.87713   0.00005   0.00000   0.00022   0.00043   1.87757
   A34        1.87440   0.00048   0.00000   0.00045   0.00042   1.87482
   A35        2.07723   0.00397   0.00000   0.00989   0.00996   2.08719
   A36        1.88845   0.00015   0.00000   0.00828   0.00826   1.89672
   A37        1.89990  -0.00026   0.00000   0.00053   0.00022   1.90012
   A38        1.68624   0.00781   0.00000   0.02224   0.02242   1.70866
   A39        2.01550   0.00124   0.00000   0.00337   0.00323   2.01872
   A40        2.04078  -0.00932   0.00000  -0.01857  -0.01775   2.02303
   A41        2.21338   0.00809   0.00000   0.01477   0.01409   2.22747
   A42        1.78383   0.04653   0.00000   0.10515   0.10441   1.88824
   A43        2.19726  -0.02200   0.00000  -0.05371  -0.05432   2.14295
   A44        2.03372  -0.01853   0.00000  -0.03771  -0.03550   1.99823
   A45        2.11920   0.00547   0.00000   0.00908   0.00975   2.12895
   A46        1.93020   0.02822   0.00000   0.07578   0.07496   2.00516
   A47        2.21278  -0.03196   0.00000  -0.07380  -0.07530   2.13748
   A48        2.20474   0.00524   0.00000  -0.01076  -0.01083   2.19391
   A49        2.05142   0.00824   0.00000  -0.00625  -0.00873   2.04269
    D1        3.00526   0.00472   0.00000   0.02518   0.02523   3.03050
    D2        0.03309   0.00084   0.00000   0.00149   0.00145   0.03454
    D3       -0.06952  -0.00082   0.00000  -0.00140  -0.00135  -0.07087
    D4       -3.04169  -0.00470   0.00000  -0.02509  -0.02514  -3.06682
    D5       -2.95936   0.00660   0.00000   0.03099   0.02938  -2.92998
    D6        0.86461  -0.01715   0.00000  -0.08871  -0.08701   0.77761
    D7        0.00854   0.01211   0.00000   0.05908   0.05738   0.06592
    D8       -2.45067  -0.01164   0.00000  -0.06061  -0.05901  -2.50967
    D9       -2.69664  -0.00384   0.00000  -0.06860  -0.07480  -2.77144
   D10       -0.05018  -0.01828   0.00000  -0.04528  -0.04311  -0.09329
   D11       -3.05695   0.04011   0.00000   0.18894   0.18698  -2.86996
   D12        0.75549   0.01762   0.00000   0.07200   0.07296   0.82845
   D13        2.55479  -0.01022   0.00000  -0.04574  -0.04842   2.50637
   D14       -0.54301  -0.00833   0.00000  -0.03978  -0.04220  -0.58520
   D15        3.02329  -0.00703   0.00000  -0.02878  -0.02825   2.99504
   D16       -0.00393  -0.00189   0.00000  -0.01002  -0.00954  -0.01347
   D17       -0.16851  -0.00993   0.00000  -0.03711  -0.03693  -0.20544
   D18        3.08746  -0.00478   0.00000  -0.01836  -0.01822   3.06924
   D19       -1.50980  -0.00813   0.00000  -0.02259  -0.02389  -1.53368
   D20        1.46799  -0.00716   0.00000  -0.02361  -0.02501   1.44298
   D21        1.67722  -0.00716   0.00000  -0.01773  -0.01901   1.65821
   D22       -1.62818  -0.00619   0.00000  -0.01876  -0.02013  -1.64831
   D23       -3.03918   0.00538   0.00000   0.02140   0.02147  -3.01771
   D24        0.00444   0.00266   0.00000   0.01322   0.01332   0.01776
   D25       -0.01818   0.00049   0.00000   0.00295   0.00324  -0.01494
   D26        3.02543  -0.00223   0.00000  -0.00523  -0.00491   3.02053
   D27       -0.23081  -0.00201   0.00000  -0.00804  -0.00801  -0.23883
   D28       -2.88279  -0.00050   0.00000  -0.00089  -0.00086  -2.88365
   D29        3.00151   0.00002   0.00000  -0.00149  -0.00152   2.99999
   D30        0.34954   0.00154   0.00000   0.00566   0.00563   0.35517
   D31       -1.33517   0.00336   0.00000   0.01359   0.01354  -1.32164
   D32        2.81008   0.00320   0.00000   0.01496   0.01483   2.82491
   D33        0.85608   0.00185   0.00000   0.00707   0.00688   0.86295
   D34        1.70973   0.00213   0.00000   0.00815   0.00833   1.71806
   D35       -0.42820   0.00197   0.00000   0.00953   0.00962  -0.41858
   D36       -2.38220   0.00062   0.00000   0.00164   0.00167  -2.38053
   D37        0.96324  -0.00122   0.00000  -0.00651  -0.00668   0.95656
   D38       -1.14505  -0.00074   0.00000  -0.00676  -0.00693  -1.15197
   D39        3.10181  -0.00077   0.00000  -0.00587  -0.00606   3.09575
   D40        3.11140  -0.00155   0.00000  -0.00797  -0.00800   3.10340
   D41        1.00312  -0.00107   0.00000  -0.00821  -0.00825   0.99487
   D42       -1.03321  -0.00110   0.00000  -0.00733  -0.00739  -1.04060
   D43       -1.24478   0.00114   0.00000   0.00414   0.00411  -1.24067
   D44        2.93012   0.00162   0.00000   0.00389   0.00385   2.93398
   D45        0.89380   0.00159   0.00000   0.00478   0.00472   0.89851
   D46        1.13204  -0.00050   0.00000  -0.00513  -0.00534   1.12669
   D47       -1.04701  -0.00340   0.00000  -0.02116  -0.02131  -1.06832
   D48       -3.03471   0.00196   0.00000   0.00477   0.00457  -3.03013
   D49        1.06943  -0.00094   0.00000  -0.01125  -0.01140   1.05804
   D50       -1.02418   0.00075   0.00000   0.00004  -0.00009  -1.02427
   D51        3.07996  -0.00215   0.00000  -0.01598  -0.01606   3.06390
   D52       -1.12978   0.00550   0.00000   0.00566   0.00543  -1.12435
   D53        1.04372   0.00864   0.00000   0.02557   0.02533   1.06906
   D54       -0.90748   0.00698   0.00000   0.03267   0.03302  -0.87447
   D55        2.41674   0.00789   0.00000   0.03760   0.03794   2.45468
   D56       -2.22366   0.00370   0.00000   0.02245   0.02114  -2.20252
   D57        0.15172   0.00911   0.00000   0.03724   0.03572   0.18744
   D58        0.73299   0.00377   0.00000   0.01952   0.01814   0.75113
   D59        3.10837   0.00918   0.00000   0.03431   0.03272   3.14109
   D60        1.22282   0.00643   0.00000   0.03853   0.03758   1.26040
   D61       -1.71399   0.00197   0.00000  -0.00581  -0.00784  -1.72183
   D62       -1.24003   0.00727   0.00000   0.04231   0.04147  -1.19856
   D63        2.10634   0.00282   0.00000  -0.00204  -0.00395   2.10239
   D64        0.27650   0.00219   0.00000  -0.02431  -0.02361   0.25289
   D65       -3.10507   0.01588   0.00000   0.04840   0.04490  -3.06017
   D66       -1.21777   0.01745   0.00000   0.04497   0.04565  -1.17212
         Item               Value     Threshold  Converged?
 Maximum Force            0.067613     0.000450     NO 
 RMS     Force            0.015916     0.000300     NO 
 Maximum Displacement     0.651422     0.001800     NO 
 RMS     Displacement     0.168152     0.001200     NO 
 Predicted change in Energy=-5.636978D-02
 GradGradGradGradGradGradGradGradGradGradGradGradGradGradGradGradGradGrad

                          Input orientation:                          
 ---------------------------------------------------------------------
 Center     Atomic      Atomic             Coordinates (Angstroms)
 Number     Number       Type             X           Y           Z
 ---------------------------------------------------------------------
      1          6           0        1.135269   -0.596160   -0.363145
      2          6           0        2.473108   -0.529924   -0.443323
      3          6           0        3.578136   -1.332953   -1.083578
      4          6           0        4.788041   -0.987794   -0.655211
      5          6           0        6.083416   -0.825367   -0.586671
      6          6           0        6.758952    0.322282   -0.035504
      7          6           0        8.098288    0.408271    0.176495
      8          7           0        8.619739    1.492049    0.841322
      9          6           0        9.092643   -0.697023   -0.160748
     10          6           0        9.075675   -1.886177    0.840805
     11          7           0        7.783872   -2.552839    1.084580
     12         16           0        7.022969   -3.371986   -0.170246
     13          6           0        6.719123   -1.974038   -1.225802
     14          6           0        6.820138   -1.919572   -2.573101
     15          6           0        6.218747   -3.142487   -3.128655
     16          7           0        4.938590   -3.338922   -3.127515
     17         16           0        3.658561   -2.059676   -2.817296
     18          1           0        0.593139    0.104972    0.284015
     19          1           0        0.492777   -1.313556   -0.857670
     20          1           0        2.875199    0.247965    0.218941
     21          1           0        6.104585    1.106293    0.335086
     22          1           0        8.018830    2.293997    0.968377
     23          1           0        9.612588    1.659163    0.796970
     24          1           0       10.108207   -0.285227   -0.204580
     25          1           0        8.950338   -1.063941   -1.179761
     26          1           0        9.428499   -1.526665    1.812375
     27          1           0        9.781861   -2.649114    0.497486
     28          1           0        7.133203   -1.871224    1.476189
     29          1           0        6.614338   -1.019249   -3.141390
     30          1           0        6.948901   -3.944878   -3.399265
 ---------------------------------------------------------------------
                    Distance matrix (angstroms):
                    1          2          3          4          5
     1  C    0.000000
     2  C    1.341876   0.000000
     3  C    2.651318   1.508597   0.000000
     4  C    3.685299   2.369273   1.329099   0.000000
     5  C    4.958494   3.625211   2.604033   1.307316   0.000000
     6  C    5.707600   4.388739   3.735753   2.446390   1.441260
     7  C    7.055758   5.736465   5.005139   3.687609   2.482739
     8  N    7.863119   6.596950   6.091276   4.803243   3.720553
     9  C    7.960587   6.627670   5.627238   4.342653   3.041929
    10  C    8.134107   6.861654   5.850833   4.629142   3.480894
    11  N    7.080144   5.884802   4.886436   3.801479   2.944282
    12  S    6.512098   5.371509   4.105935   3.303704   2.746168
    13  C    5.815682   4.552623   3.208897   2.242170   1.460156
    14  C    6.241239   5.036243   3.615713   2.945494   2.384523
    15  C    6.322466   5.297764   3.798629   3.578763   3.442244
    16  N    5.443321   4.601517   3.170557   3.415078   3.752929
    17  S    3.812052   3.062872   1.881588   2.664446   3.518399
    18  H    1.097409   2.113386   3.584431   4.435481   5.636201
    19  H    1.082594   2.169672   3.093679   4.312355   5.618453
    20  H    2.019587   1.097899   2.165635   2.439304   3.477600
    21  H    5.299054   4.058417   3.787542   2.664428   2.140420
    22  H    7.583494   6.381415   6.089750   4.883051   3.986782
    23  H    8.848576   7.569848   6.993128   5.691350   4.532373
    24  H    8.979724   7.642748   6.671746   5.385242   4.078809
    25  H    7.871530   6.540796   5.379793   4.195910   2.937331
[...]
 0.00038974,0.00015224,-0.00049499,-0.00087206,-0.00023889,0.05923264,0
 .06922497,-0.00000393,-0.00000381,-0.00000357,0.00005542,0.00001084,0.
 00001475,-0.00012712,-0.00001539,-0.00010242,0.00015981,0.00004559,0.0
 0016164,-0.00020107,-0.00031878,-0.00031652,0.00058415,-0.00081335,0.0
 0035987,0.00394685,0.00184855,-0.00133563,0.00035179,0.00029106,-0.000
 39614,0.01065915,-0.00037712,-0.04566143,0.02492041,0.00615155,-0.0014
 5534,0.00170132,0.00461843,-0.00354753,-0.00070198,-0.00032404,-0.0012
 5530,-0.00069234,0.00000675,-0.00022897,0.00005303,-0.00031990,0.00027
 854,0.00006495,0.00019780,0.00017054,-0.00009269,-0.00005255,-0.000146
 49,0.00004727,-0.00001068,0.00008013,0.00000048,0.00000278,0.00000190,
 0.00000510,0.00000047,0.00000011,-0.00000857,0.00000187,0.00001245,-0.
 00006268,-0.00009260,0.00056310,-0.00009937,0.00011865,-0.00005090,0.0
 0016390,-0.00086570,0.00061371,-0.01327547,-0.00310291,0.04766270,0.00
 002991,-0.00000570,0.00000027,-0.00012963,-0.00005735,-0.00000469,0.00
 036987,0.00001201,0.00044543,-0.00071223,-0.00025694,-0.00069965,-0.00
 031601,0.00054494,0.00062895,-0.00103394,-0.00017179,-0.00040754,0.007
 02140,0.00571200,0.01647326,-0.00191006,0.00193961,0.00000112,-0.06666
 309,-0.02744328,-0.05851447,0.00089477,0.00131472,0.00411216,0.0004799
 1,0.00077456,-0.00018496,-0.00046967,-0.00118376,0.00103561,-0.0016334
 4,0.00040023,0.00029685,-0.00112182,0.00001989,-0.00094900,0.00005726,
 -0.00029774,-0.00009159,-0.00001175,0.00038974,0.00025457,-0.00018252,
 -0.00010826,-0.00034791,-0.00000325,0.00000802,-0.00000510,-0.00000717
 ,-0.00000197,-0.00000061,-0.00000279,0.00000432,-0.00001930,0.00026102
 ,-0.00002305,-0.00039250,0.00072735,0.00079060,-0.00008529,0.00017443,
 0.00050788,-0.00010620,-0.00753086,-0.01284018,-0.02689801,0.07066313,
 0.00002378,0.00000164,-0.00002112,-0.00000986,0.00008229,0.00005267,0.
 00005080,-0.00005977,0.00009319,-0.00019157,0.00002418,-0.00007301,0.0
 0066636,0.00009564,-0.00005800,-0.00096105,0.00006621,0.00084424,-0.00
 835211,-0.01430821,-0.02348052,0.00407183,-0.00385992,-0.00049975,-0.0
 2773929,-0.09393365,-0.10046516,0.00642761,0.00902913,0.02139659,0.001
 13095,0.00100963,-0.00129667,-0.00089874,-0.00082142,0.00023586,-0.001
 15558,0.00044992,-0.00080633,-0.00037235,-0.00014894,-0.00012823,0.000
 05143,0.00016611,0.00022085,-0.00016205,0.00007145,-0.00008323,0.00010
 780,-0.00014129,-0.00001745,0.00000790,-0.00000302,0.00000287,0.000003
 12,-0.00000048,-0.00000035,-0.00001432,-0.00000271,0.00000670,-0.00031
 963,-0.00012040,0.00032581,-0.00053873,-0.00116308,-0.00044007,0.00038
 419,0.00040572,-0.00021745,-0.00164211,-0.00332022,-0.00576283,0.03022
 582,0.10818103,0.00000690,0.00000205,-0.00001091,-0.00000688,0.0000864
 3,0.00002610,0.00005699,-0.00003370,0.00014356,-0.00028593,-0.00006489
 ,-0.00024287,0.00057401,-0.00008836,0.00019523,-0.00045304,-0.00027689
 ,0.00054919,-0.00182727,-0.00126733,-0.00265159,0.00101946,0.00033632,
 0.00046780,-0.05665981,-0.10204762,-0.24401282,-0.00701040,-0.00875550
 ,-0.02476295,-0.00105831,-0.00088835,0.00135780,0.00018203,0.00004652,
 0.00050626,0.00008064,0.00040644,0.00041233,-0.00065111,-0.00036548,-0
 .00073030,0.00020998,0.00033586,0.00033549,-0.00030114,0.00007428,-0.0
 0018569,0.00001974,-0.00019069,-0.00007608,0.00000299,-0.00000381,0.00
 000939,0.00001301,-0.00000200,-0.00000066,-0.00001568,-0.00000716,0.00
 000940,0.00004751,-0.00000239,0.00000145,-0.00024268,0.00022108,0.0000
 4313,0.00002846,0.00002599,-0.00011602,0.00056081,0.00154640,0.0027991
 5,0.06505722,0.10712658,0.26719485,-0.00001206,0.00001162,0.00000195,0
 .00006005,0.00002934,-0.00000212,-0.00012629,-0.00002846,-0.00008746,0
 .00019809,0.00014719,0.00007104,-0.00022199,-0.00026394,-0.00019836,0.
 00026879,0.00000935,0.00013569,-0.00070088,-0.00035051,-0.00113398,0.0
 0028054,0.00007742,0.00065419,0.00177972,0.00186453,0.00266866,-0.0695
 4094,-0.02529473,-0.06019755,-0.01762074,-0.01994922,-0.02608091,-0.00
 488178,-0.00151038,-0.00169261,-0.00031155,-0.00080839,0.00047764,0.00
 000099,0.00014199,-0.00050740,0.00015420,0.00033174,0.00024460,-0.0001
 5615,-0.00008786,-0.00016827,0.00009678,-0.00002889,0.00011394,-0.0000
 0046,-0.00000209,0.00000568,0.00001305,-0.00000273,0.00000249,-0.00000
 863,-0.00000812,0.00001518,0.00004292,0.00005649,0.00002028,-0.0000312
 9,-0.00001213,-0.00006882,0.00003346,0.00001112,0.00000615,0.00032985,
 0.00031920,-0.00001470,0.00077001,-0.00120315,0.00069079,0.08207466,-0
 .00002185,0.00000628,0.00001073,0.00002949,-0.00000239,-0.00002340,-0.
 00006807,-0.00000227,-0.00008389,0.00022860,0.00008493,0.00012973,-0.0
 0025643,0.00008839,-0.00020541,0.00026917,-0.00009544,-0.00024547,-0.0
 0005829,0.00227564,0.00078302,-0.00033717,0.00030368,-0.00032605,0.006
 32066,0.00676951,0.02142450,-0.02950762,-0.09120122,-0.09189657,-0.005
 23061,-0.00607234,-0.00924002,-0.00192730,0.00072878,0.00008344,-0.000
 43471,-0.00066647,0.00043319,0.00015177,0.00005519,-0.00031384,0.00003
 621,0.00019852,0.00014534,-0.00005791,-0.00013359,-0.00012858,0.000035
 40,0.00002042,0.00008857,-0.00000462,-0.00000177,0.00000440,0.00000682
 ,-0.00000111,0.00000039,0.00000506,-0.00000354,0.00000397,0.00004897,-
 0.00002667,0.00011181,0.00002219,-0.00000102,-0.00026612,-0.00005074,-
 0.00004376,0.00021262,0.00016334,0.00088559,-0.00107992,-0.00048473,-0
 .00271312,0.00387957,0.03913060,0.09813948,-0.00001230,-0.00000071,0.0
 0000963,0.00000998,0.00000776,-0.00001925,-0.00002148,0.00002397,0.000
 02637,-0.00005410,-0.00011565,-0.00007107,0.00029397,0.00000099,0.0001
 0355,-0.00037924,0.00016885,0.00024206,0.00028159,-0.00251245,-0.00015
 043,0.00036895,0.00040451,0.00112193,-0.00622362,-0.00732197,-0.022786
 64,-0.06606951,-0.09357219,-0.24023703,0.00129866,0.00202417,0.0046914
 4,0.00110567,0.00112950,0.00199394,0.00025798,0.00024582,0.00018388,-0
 .00011497,-0.00006192,-0.00001425,0.00010292,0.00009218,0.00006162,-0.
 00010013,0.00002355,-0.00002631,-0.00000326,-0.00003591,-0.00003363,-0
 .00000218,-0.00000194,0.00000325,0.00000508,0.00000038,0.,-0.00000251,
 -0.00000214,0.00000417,-0.00005812,0.00007463,-0.00009996,0.00005024,0
 .00015082,0.00010963,-0.00000096,0.00014058,-0.00038538,0.00041927,-0.
 00006353,0.00062577,0.00102762,0.00381370,-0.00236768,0.06983602,0.097
 22373,0.26085857,0.00000065,-0.00000115,-0.00000647,-0.00000120,0.0000
 0715,0.00001044,-0.00000965,0.00000798,0.00002046,0.00011614,-0.000042
 74,-0.00008136,-0.00000264,-0.00017139,0.00003572,0.00012771,-0.000388
 89,-0.00000628,0.00065259,-0.00055893,0.00075481,0.00012486,0.00009721
 ,0.00024120,0.00257281,-0.00130531,-0.00061531,-0.12552775,0.11352078,
 0.02389880,-0.03086848,0.02055290,0.01365799,0.00217265,0.00189456,0.0
 0160941,-0.00044237,-0.00022410,-0.00061376,-0.00003788,0.00024770,-0.
 00005225,0.00002060,0.00000657,0.00000263,-0.00001144,0.00002613,0.000
 01888,-0.00000901,-0.00001696,-0.00002218,0.00000068,0.00000018,0.0000
 0128,-0.00000188,-0.00000164,-0.00000141,0.00000826,-0.00000582,-0.000
 00721,0.00013492,0.00002393,-0.00010192,-0.00000683,0.00000509,0.00002
 819,-0.00001715,0.00003509,-0.00007584,0.00045326,0.00020868,-0.000453
 43,-0.00007086,0.00018101,0.00007417,0.00676443,-0.00783952,-0.0013721
 0,0.14960864,0.00003885,0.00000492,-0.00005069,0.00004802,0.00005673,0
 .00011626,-0.00012212,-0.00008713,-0.00002638,0.00002336,0.00029276,-0
 .00001685,-0.00029395,-0.00046293,0.00013506,0.00019165,-0.00059023,-0
 .00029446,-0.00174940,-0.00076396,0.00374552,0.00052176,0.00004388,0.0
 0033923,0.01097925,-0.01849159,-0.00272885,0.12141626,-0.21843991,-0.0
 4361037,-0.00989563,0.01070921,0.00344614,0.00002375,0.00157168,0.0010
 7663,0.00040384,-0.00055250,-0.00020278,-0.00005304,0.00018343,-0.0001
 3536,0.00008559,0.00001253,0.00001730,-0.00003384,0.00007495,0.0000269
 1,0.00008756,-0.00000200,0.00007045,0.00001510,0.00000427,-0.00000283,
 -0.00000271,-0.00000485,0.00000072,-0.00001297,-0.00000933,0.00000186,
 0.00021852,0.00013167,-0.00042474,0.00001538,-0.00000542,-0.00013878,0
 .00009647,-0.00000998,0.00000110,-0.00043635,0.00013918,-0.00034319,0.
 00007606,0.00106186,-0.00005151,0.00658185,-0.00917445,-0.00167081,-0.
 12507113,0.23401991,-0.00002151,-0.00000590,0.00003318,-0.00004730,-0.
 00006539,-0.00008150,0.00015313,0.00006091,0.00003580,-0.00006649,-0.0
 0014443,0.00007457,-0.00004872,0.00029361,-0.00008239,-0.00043110,0.00
 052725,0.00053612,0.00212679,0.00187475,-0.00408890,-0.00049866,0.0002
 3806,0.00021537,-0.01346606,0.02412924,0.00183329,0.02655158,-0.042061
 74,-0.05786404,0.00601448,-0.00412015,-0.00175406,-0.00076645,0.000402
 83,0.00039805,-0.00001851,0.00036443,-0.00074134,0.00013943,-0.0001409
 8,0.00027452,-0.00016675,-0.00010912,-0.00009930,0.00011365,-0.0000603
 1,0.00002698,-0.00007756,0.00002242,-0.00007403,-0.00001151,-0.0000003
 5,-0.00000300,-0.00000311,0.00000319,-0.00000020,0.00001041,0.00001075
 ,-0.00000477,-0.00024531,-0.00010034,0.00033121,0.00000830,0.00014596,
 0.00024794,-0.00005434,-0.00000151,-0.00006856,0.00011962,-0.00083221,
 0.00103221,-0.00052883,-0.00073904,0.00119574,0.01576062,-0.02096451,-
 0.00432346,-0.03533406,0.04044162,0.06153058,-0.00004848,-0.00000322,0
 .00009548,0.00002532,-0.00001143,-0.00017826,-0.00012041,0.00000381,-0
 .00011181,-0.00037637,-0.00016618,0.00010294,0.00048435,0.00016079,0.0
 0060592,0.00053693,0.00033685,-0.00040042,-0.00010935,-0.00011588,0.00
 020217,0.00001182,-0.00010608,-0.00000424,0.00017650,0.00036900,-0.000
 29580,-0.01921656,0.02584984,0.01194265,-0.18755915,0.14449353,0.10398
 885,0.00643151,-0.01521200,-0.01578738,0.00039704,-0.00119735,0.000660
 63,-0.00029636,0.00055548,-0.00056651,0.00038260,0.00009750,0.00008274
 ,-0.00013360,-0.00001884,-0.00003872,-0.00001190,0.00001272,0.00005664
 ,-0.00000938,-0.00001364,0.00000645,0.00002847,0.00002338,0.00000743,-
 0.00005811,0.00003877,0.00007405,0.00011464,0.00012654,-0.00009680,0.0
 0001622,-0.00004450,-0.00000943,-0.00002679,0.00008159,0.00000011,0.00
 019335,-0.00006908,-0.00003192,-0.00001294,-0.00000999,0.00007518,0.00
 080464,-0.00009311,-0.00060247,-0.00578230,-0.00312096,0.00077335,0.20
 438298,-0.00007122,-0.00001939,0.00008919,0.00001479,-0.00014394,-0.00
 015582,-0.00010592,0.00007136,-0.00003615,0.00041543,-0.00009735,0.000
 03184,0.00072067,0.00147624,-0.00013399,0.00017001,-0.00090756,-0.0006
 2957,-0.00125930,-0.00038963,-0.00013684,0.00037813,0.00002599,0.00028
 075,-0.00192301,0.00050982,0.00051987,-0.01076360,0.00624211,0.0110724
 1,0.16141496,-0.21753525,-0.15022002,0.00448154,-0.01077269,-0.0033026
 9,-0.00161689,0.00224974,0.00267618,0.00033652,-0.00056994,0.00036388,
 -0.00002618,-0.00000780,0.00001431,-0.00001609,-0.00010397,-0.00004704
 ,-0.00005155,0.00010959,0.00001545,-0.00003240,0.00000878,0.00000105,0
 .00000947,0.00000531,0.00000239,0.00000360,0.00004053,0.00001679,-0.00
 001182,-0.00014339,0.00029851,-0.00001443,-0.00007598,-0.00002093,-0.0
 0002573,0.00014143,-0.00008771,0.00005824,-0.00056247,0.00023641,0.000
 03373,-0.00002368,-0.00000372,0.00087804,0.00060541,-0.00012176,-0.001
 17647,0.00029188,0.00084471,-0.15198483,0.21953849,0.00009743,0.000024
 40,-0.00011617,0.00000397,0.00013063,0.00025566,-0.00003051,-0.0001703
 4,0.00010246,-0.00059212,0.00025972,-0.00018035,-0.00059097,-0.0001262
 7,-0.00093501,-0.00065413,0.00046137,0.00024038,0.00112900,0.00059715,
 0.00107023,-0.00034058,-0.00034769,-0.00088394,0.00073155,-0.00119162,
 -0.00053420,0.00487135,-0.00059511,-0.00275096,0.09608447,-0.11451136,
 -0.08687197,-0.00149332,-0.02249772,-0.02173318,0.00431507,-0.00116018
 ,0.00062780,-0.00066465,0.00046330,-0.00018809,0.00014039,-0.00038094,
 -0.00024590,0.00015980,0.00023226,0.00018432,0.00004770,0.00002327,-0.
 00000054,0.00004457,-0.00000147,-0.00000489,-0.00001261,-0.00000738,-0
 .00000485,-0.00003069,-0.00002476,-0.00000908,0.00003023,-0.00011013,0
 .00009254,-0.00003450,-0.00000168,0.00013474,0.00003988,-0.00012129,0.
 00015233,-0.00022254,0.00015795,0.00004835,-0.00001051,0.00005251,-0.0
 0019513,-0.00050862,0.00021928,0.00043202,-0.00150512,0.00030510,0.001
 40718,-0.10057984,0.13826865,0.10965209,0.00016206,0.00012188,-0.00005
 732,-0.00016841,-0.00007719,0.00020963,0.00045259,0.00104097,0.0015684
 5,-0.00146717,0.00179470,0.00574872,-0.00628273,0.00047080,0.00105601,
 0.00048737,-0.00073109,-0.00050815,-0.00000852,0.00022956,-0.00000892,
 -0.00000968,-0.00010663,0.00002597,-0.00036593,-0.00019403,-0.00005498
 ,0.00065037,-0.00012051,0.00053488,0.00032132,-0.00109416,-0.00063857,
 0.00443566,0.00381366,-0.00334137,0.00001732,0.00887876,-0.00945600,-0
 .04421425,0.03567098,-0.03116219,0.00559145,-0.01148787,0.00353150,-0.
 00524793,-0.00222432,-0.00038534,0.00206548,-0.00262656,-0.00115426,-0
 .00002518,-0.00001457,-0.00004832,-0.00008087,-0.00007285,-0.00000437,
 -0.00004696,-0.00008343,-0.00008409,-0.00014164,-0.00028579,-0.0000925
 4,0.00001744,0.00000085,-0.00001743,-0.00002184,0.00003083,0.00000123,
 -0.00013234,-0.00020102,-0.00001758,0.00029450,0.00026701,-0.00013279,
 0.00000172,-0.00005155,-0.00003568,0.00003266,-0.00002734,0.00000407,-
 0.00022816,0.00012139,-0.00045328,0.04452792,0.00007085,0.00001089,0.0
 0010160,0.00003064,0.00000870,0.00013906,-0.00128034,-0.00085049,-0.00
 097651,0.00185697,-0.00121092,-0.00355028,0.00014480,-0.00055715,-0.00
 589075,0.00032205,0.00054611,-0.00011394,-0.00042884,-0.00002909,-0.00
 011078,0.00016813,0.00006171,0.00016528,-0.00005902,0.00016832,0.00000
 360,-0.00001465,-0.00007889,0.00001012,-0.00024717,0.00017247,-0.00016
 925,0.00015278,0.00079053,-0.00153453,-0.00053581,0.00125890,-0.001460
 01,0.03374658,-0.24340981,0.12200648,-0.00336125,-0.02902554,0.0056430
 6,0.00661819,-0.00188876,-0.00025676,-0.00121571,0.00390940,0.00108036
 ,-0.00002213,0.00002837,0.00000049,0.00005537,-0.00001479,-0.00003538,
 -0.00001381,0.00003126,0.00012130,0.00005561,0.00002770,0.00001998,0.0
 0001291,-0.00002314,-0.00002620,-0.00003420,0.00004151,-0.00002055,-0.
 00002067,-0.00004406,-0.00001291,0.00004754,-0.00001734,-0.00000494,-0
 .00002974,-0.00000594,-0.00002349,-0.00000802,-0.00001560,-0.00000341,
 0.00000828,0.00001827,0.00000128,-0.03311535,0.27206677,-0.00017935,-0
 .00005741,0.00000976,0.00013199,0.00000017,-0.00053116,0.00050604,0.00
 097558,0.00020325,0.00152055,-0.00117850,-0.00279764,0.00099213,0.0009
 0503,-0.00327990,-0.00012453,0.00004573,-0.00016304,-0.00036695,-0.000
 15741,-0.00015701,0.00026508,0.00017853,0.00030851,-0.00005400,0.00014
 992,0.00004753,0.00044626,0.00020642,-0.00015961,-0.00057684,0.0004987
 1,-0.00207358,-0.00229618,-0.00440182,0.00123600,-0.00912684,0.0236823
 1,-0.02202325,-0.02580395,0.10964689,-0.09936908,-0.00119730,-0.013794
 08,0.00758674,0.00030983,0.00108938,-0.00085594,0.00012556,-0.00175523
 ,0.00088344,-0.00000462,-0.00005618,-0.00002222,-0.00008283,0.00004402
 ,0.00003986,0.00008364,-0.00001173,-0.00004891,0.00009164,0.00014936,-
 0.00003901,0.00001151,-0.00002342,-0.00004331,-0.00000935,0.00005536,-
 0.00006230,0.00004930,0.00001807,0.00007805,-0.00009176,-0.00007233,0.
 00009188,-0.00006460,0.00000980,0.00004456,-0.00010245,-0.00003677,0.0
 0004022,-0.00006777,0.00012173,0.00016020,0.03663537,-0.11467088,0.122
 68817,-0.00002279,-0.00005986,-0.00008731,0.00028104,0.00010148,0.0001
 0515,0.00071234,-0.00117244,-0.00060859,-0.00053065,0.00044058,0.00031
 169,-0.00064923,-0.00069775,-0.00045144,0.00049118,-0.00007161,-0.0000
 9419,-0.00020896,0.00007168,-0.00009726,0.00011584,0.00006019,0.000169
 48,-0.00011417,0.00000052,0.00011278,0.00019054,-0.00005092,-0.0001369
 2,-0.00057488,-0.00002945,0.00009516,0.00098582,0.00052963,-0.00060577
 ,-0.00037876,-0.00082165,0.00120164,0.00760510,-0.01525750,-0.00438140
 ,-0.06085890,0.05978797,0.00917614,-0.02146047,0.03143173,0.00360295,-
 0.00279485,0.00571443,-0.00347133,-0.00000607,0.00003446,0.00004709,0.
 00008726,0.00002698,-0.00002331,-0.00002733,0.00005466,0.00005745,-0.0
 0007063,-0.00009251,-0.00002283,0.00001479,-0.00000799,-0.00001540,-0.
 00001513,0.00003267,-0.00002820,-0.00002810,-0.00005582,-0.00003277,0.
 00006847,-0.00002908,-0.00005486,-0.00006117,-0.00002407,-0.00000533,-
 0.00000142,-0.00000384,0.00001084,0.00000348,0.00004293,0.00002857,-0.
 00061627,-0.00290397,-0.00101957,0.07786389,0.00009493,0.00003776,-0.0
 0002479,-0.00006774,-0.00007964,0.00020074,-0.00052581,-0.00111190,-0.
 00094594,0.00024727,-0.00019535,-0.00031260,-0.00006193,-0.00047759,-0
 .00062951,0.00018723,-0.00005330,-0.00004473,0.00008801,0.00010719,0.0
 0008952,-0.00007901,-0.00008433,-0.00011111,-0.00002979,0.00000723,0.0
 0004067,0.00010658,0.00000239,0.00002987,-0.00019449,0.00016342,-0.000
 18404,0.00028503,0.00013367,-0.00060777,0.00005793,-0.00144702,0.00223
 782,0.00266019,-0.01043579,-0.00448996,0.06495246,-0.28968944,-0.05068
 833,0.01019617,-0.00843186,0.00268129,-0.00092824,0.00508911,-0.001604
 34,0.00001208,0.00001375,0.00000609,0.00003132,-0.00002161,-0.00000282
 ,-0.00002002,0.00004488,0.00002818,-0.00006931,-0.00007687,-0.00001920
 ,0.00000577,0.00000680,0.00001933,0.00000213,-0.00000549,0.00002173,-0
 .00004124,-0.00003561,-0.00003507,0.00007306,-0.00000754,-0.00003315,-
 0.00001011,-0.00001672,-0.00002069,-0.00000289,0.00001103,-0.00001032,
 0.00000899,0.00001808,0.00005105,0.00007287,-0.00196940,-0.00156124,-0
 .07705143,0.30850414,0.00002095,-0.00004847,-0.00001906,0.00028272,0.0
 0046203,0.00022259,-0.00091435,0.00250651,0.00155366,-0.00110850,0.000
 29485,-0.00031370,0.00030955,-0.00007309,-0.00036620,-0.00009856,0.000
 10363,0.00002995,0.00005182,-0.00002760,0.00002591,-0.00002862,0.00000
 285,-0.00004602,-0.00000484,0.00000021,-0.00004692,-0.00010493,-0.0000
 7108,0.00009910,-0.00027706,0.00023566,0.00000048,0.00022463,-0.000324
 06,-0.00048730,-0.00158614,0.00054551,-0.00176936,0.00522102,-0.010106
 09,0.01085735,0.00355605,-0.05700719,-0.05425569,0.00096922,0.01377634
 ,0.00106604,-0.00107488,-0.00565767,0.00788029,-0.00000577,-0.00002384
 ,-0.00001366,-0.00004256,0.00006404,-0.00002505,-0.00007587,-0.0001950
 7,0.00004282,0.00002145,0.00000843,0.00002308,-0.00000326,-0.00000104,
 0.00000880,-0.00000334,-0.00001105,0.00001052,-0.00000282,0.00000664,-
 0.00000269,0.00000483,-0.00001002,0.00001397,0.00002047,0.00000968,0.0
 0000269,-0.00000285,0.00001048,-0.00002737,0.00009676,0.00004211,0.000
 09396,-0.00166266,-0.00043203,-0.00179223,-0.00378246,0.05591934,0.037
 23402\\0.00001224,0.00000054,0.00000804,-0.00000577,0.00000987,0.00001
 182,-0.00002620,-0.00002147,-0.00001823,0.00000755,0.00000468,0.000010
 75,-0.00000308,0.00001578,0.00001172,0.00001160,0.00000042,-0.00000844
 ,-0.00001578,-0.00000643,-0.00001175,0.00001109,0.00000193,0.00003106,
 -0.00000007,0.00000185,0.00000349,0.00001348,0.00000461,-0.00001406,0.
 00000265,0.00000571,0.00003116,-0.00001486,-0.00001142,-0.00002564,0.0
 0000276,-0.00001467,-0.00001606,-0.00000613,-0.00001261,-0.00000286,0.
 00001657,0.00001016,0.00002806,-0.00000189,-0.00001398,-0.00001842,-0.
 00000386,0.00001273,0.00001466,-0.00000051,-0.00000528,-0.00000290,-0.
 00000305,-0.00000093,-0.00000072,0.00000250,-0.00000407,-0.00000339,-0
 .00000442,-0.00000015,-0.00000210,-0.00000164,0.00000361,-0.00000508,0
 .00000133,0.00000722,-0.00001061,0.00000153,0.00000061,-0.00000463,0.0
 0000443,0.00000276,0.00000111,-0.00000082,0.00000351,-0.00000204,0.000
 00261,-0.00000014,0.00000292,-0.00000036,0.00000198,-0.00000222,0.0000
 0047,0.00000212,-0.00000005,-0.00000236,0.00000106,-0.00000558\\\@


 TIME IS IN FACT THE HERO OF THE PLOT. THE TIME
 WITH WHICH WE HAVE TO DEAL IS OF THE ORDER OF TWO
 BILLION YEARS...GIVEN SO MUCH TIME, THE "IMPOSSIBLE"
 BECOMES POSSIBLE, THE POSSIBLE PROBABLE, THE PROBABLE
 VIRTUALLY CERTAIN.  ONE HAS ONLY TO WAIT, TIME
 ITSELF PERFORMS THE MIRACLES.
 "ORIGIN OF LIFE" LECTURES, GEORGE WALD, 1954
 Job cpu time:       0 days 12 hours 57 minutes 52.4 seconds.
 Elapsed time:       0 days  3 hours 14 minutes 29.7 seconds.
 File lengths (MBytes):  RWF=    706 Int=      0 D2E=      0 Chk=     25 Scr=      1
 Normal termination of Gaussian 16 at Fri May 19 06:52:04 2023.
### All Done ###
