### Starting Gaussian ###
 Entering Gaussian System, Link 0=g16
 Initial command:
 /cluster/software/gaussian/gaussian-16-A.03/avx2/g16/l1.exe "/local/scratch/linjian/Gau-11823.inp" -scrdir="/local/scratch/linjian/"
 Entering Link 1 = /cluster/software/gaussian/gaussian-16-A.03/avx2/g16/l1.exe PID=     11824.
  
 Copyright (c) 1988,1990,1992,1993,1995,1998,2003,2009,2016,
            Gaussian, Inc.  All Rights Reserved.
  
 This is part of the Gaussian(R) 16 program.  It is based on
 the Gaussian(R) 09 system (copyright 2009, Gaussian, Inc.),
 the Gaussian(R) 03 system (copyright 2003, Gaussian, Inc.),
 the Gaussian(R) 98 system (copyright 1998, Gaussian, Inc.),
 the Gaussian(R) 94 system (copyright 1995, Gaussian, Inc.),
 the Gaussian 92(TM) system (copyright 1992, Gaussian, Inc.),
 the Gaussian 90(TM) system (copyright 1990, Gaussian, Inc.),
 the Gaussian 88(TM) system (copyright 1988, Gaussian, Inc.),
 the Gaussian 86(TM) system (copyright 1986, Carnegie Mellon
 University), and the Gaussian 82(TM) system (copyright 1983,
 Carnegie Mellon University). Gaussian is a federally registered
 trademark of Gaussian, Inc.
  
 This software contains proprietary and confidential information,
 including trade secrets, belonging to Gaussian, Inc.
  
 This software is provided under written license and may be
 used, copied, transmitted, or stored only in accord with that
 written license.
  
 The following legend is applicable only to US Government
 contracts under FAR:
  
                    RESTRICTED RIGHTS LEGEND
  
 Use, reproduction and disclosure by the US Government is
 subject to restrictions as set forth in subparagraphs (a)
 and (c) of the Commercial Computer Software - Restricted
 Rights clause in FAR 52.227-19.
  
 Gaussian, Inc.
 340 Quinnipiac St., Bldg. 40, Wallingford CT 06492
  
  
 ---------------------------------------------------------------
 Warning -- This program may not be used in any manner that
 competes with the business of Gaussian, Inc. or will provide
 assistance to any competitor of Gaussian, Inc.  The licensee
 of this program is prohibited from giving any competitor of
 Gaussian, Inc. access to this program.  By using this program,
 the user acknowledges that Gaussian, Inc. is engaged in the
 business of creating and licensing software in the field of
 computational chemistry and represents and warrants to the
 licensee that it is not a competitor of Gaussian, Inc. and that
 it will not use this program in any manner prohibited above.
 ---------------------------------------------------------------
  

 Cite this work as:
 Gaussian 16, Revision A.03,
 M. J. Frisch, G. W. Trucks, H. B. Schlegel, G. E. Scuseria, 
 M. A. Robb, J. R. Cheeseman, G. Scalmani, V. Barone, 
 G. A. Petersson, H. Nakatsuji, X. Li, M. Caricato, A. V. Marenich, 
 J. Bloino, B. G. Janesko, R. Gomperts, B. Mennucci, H. P. Hratchian, 
 J. V. Ortiz, A. F. Izmaylov, J. L. Sonnenberg, D. Williams-Young, 
 F. Ding, F. Lipparini, F. Egidi, J. Goings, B. Peng, A. Petrone, 
 T. Henderson, D. Ranasinghe, V. G. Zakrzewski, J. Gao, N. Rega, 
 G. Zheng, W. Liang, M. Hada, M. Ehara, K. Toyota, R. Fukuda, 
 J. Hasegawa, M. Ishida, T. Nakajima, Y. Honda, O. Kitao, H. Nakai, 
 T. Vreven, K. Throssell, J. A. Montgomery, Jr., J. E. Peralta, 
 F. Ogliaro, M. J. Bearpark, J. J. Heyd, E. N. Brothers, K. N. Kudin, 
 V. N. Staroverov, T. A. Keith, R. Kobayashi, J. Normand, 
 K. Raghavachari, A. P. Rendell, J. C. Burant, S. S. Iyengar, 
 J. Tomasi, M. Cossi, J. M. Millam, M. Klene, C. Adamo, R. Cammi, 
 J. W. Ochterski, R. L. Martin, K. Morokuma, O. Farkas, 
 J. B. Foresman, and D. J. Fox, Gaussian, Inc., Wallingford CT, 2016.
 
 ******************************************
 Gaussian 16:  ES64L-G16RevA.03 25-Dec-2016
                17-May-2023 
 ******************************************
 %chk=CdCCqdCrC1CCdCCdCOCdCCdC2NdC21.chk
 %NProcShared=20
 Will use up to   20 processors via shared memory.
 -----------------------------
 # opt freq b3lyp/6-31g(2df,p)
 -----------------------------
 1/18=20,19=15,26=3,38=1/1,3;
 2/9=110,12=2,17=6,18=5,40=1/2;
 3/5=1,6=6,7=104,11=2,25=1,30=1,71=1,74=-5/1,2,3;
 4//1;
 5/5=2,38=5/2;
 6/7=2,8=2,9=2,10=2,28=1/1;
 7//1,2,3,16;
 1/18=20,19=15,26=3/3(2);
 2/9=110/2;
 99//99;
 2/9=110/2;
 3/5=1,6=6,7=104,11=2,25=1,30=1,71=1,74=-5/1,2,3;
 4/5=5,16=3,69=1/1;
 5/5=2,38=5/2;
 7//1,2,3,16;
 1/18=20,19=15,26=3/3(-5);
 2/9=110/2;
 6/7=2,8=2,9=2,10=2,19=2,28=1/1;
 99/9=1/99;
 -------------------
 Title Card Required
 -------------------
 Symbolic Z-matrix:
 Charge =  0 Multiplicity = 1
 C                     1.68032   0.19383   0.13775 
 C                     3.33517   0.4303    0.25514 
 C                     4.80306   1.36816   1.26592 
 C                     3.32534   1.38696   2.02027 
 C                     6.80362   2.06677   1.80067 
 C                     5.65203   1.70225   2.79752 
 C                     7.00581   1.08791   2.81828 
 C                     7.43914   1.60151   3.946 
 C                     8.77765   1.18305   3.997 
 C                     9.42455   1.83863   4.97656 
 O                     10.79925   1.56226   5.10471 
 C                     11.71411   2.26622   6.04697 
 C                     12.97423   2.54721   5.55342 
 C                     12.09558   3.67176   4.87647 
 C                     10.74929   3.22488   3.67484 
 N                     9.67817   3.81072   3.2514 
 C                     8.8829    2.89663   2.63596 
 H                     0.85918  -0.37764  -0.74457 
 H                     0.69355   0.47403   0.71866 
 H                     3.29477  -0.27713  -0.68811 
 H                     1.9907    1.15193   1.98439 
 H                     3.10054   1.73682   3.01192 
 H                     6.40049   0.78514   1.22479 
 H                     5.03088   0.81815   3.29656 
 H                     4.99153   2.62135   2.59189 
 H                     7.68033   0.46372   1.73924 
 H                     6.81791   2.42043   4.38182 
 H                     9.31382   0.97928   2.85296 
 H                     9.05653   2.86517   5.32911 
 H                     11.07641   3.2904    6.39869 
 H                     13.69858   2.39099   4.72051 
 H                     12.75839   4.07261   6.25025 
 
 Add virtual bond connecting atoms H18        and C1         Dist= 2.52D+00.
 Add virtual bond connecting atoms H21        and C4         Dist= 2.56D+00.
 Add virtual bond connecting atoms H26        and H23        Dist= 2.68D+00.
 Add virtual bond connecting atoms H23        and C5         Dist= 2.76D+00.
 Add virtual bond connecting atoms H26        and C7         Dist= 2.68D+00.
 Add virtual bond connecting atoms H32        and C13        Dist= 3.20D+00.
 Add virtual bond connecting atoms H32        and C14        Dist= 2.98D+00.
 Add virtual bond connecting atoms C15        and C14        Dist= 3.51D+00.
 Add virtual bond connecting atoms C17        and H28        Dist= 3.74D+00.
 Add virtual bond connecting atoms C3         and C2         Dist= 3.81D+00.
 Add virtual bond connecting atoms C4         and C2         Dist= 3.79D+00.
 Add virtual bond connecting atoms H21        and H19        Dist= 3.66D+00.

 GradGradGradGradGradGradGradGradGradGradGradGradGradGradGradGradGradGrad
 Berny optimization.
 Initialization pass.
                           ----------------------------
                           !    Initial Parameters    !
                           ! (Angstroms and Degrees)  !
 --------------------------                            --------------------------
 ! Name  Definition              Value          Derivative Info.                !
 --------------------------------------------------------------------------------
 ! R1    R(1,2)                  1.6758         estimate D2E/DX2                !
 ! R2    R(1,18)                 1.3339         estimate D2E/DX2                !
 ! R3    R(1,19)                 1.1788         estimate D2E/DX2                !
 ! R4    R(2,3)                  2.0139         estimate D2E/DX2                !
 ! R5    R(2,4)                  2.0077         estimate D2E/DX2                !
 ! R6    R(2,20)                 1.1797         estimate D2E/DX2                !
 ! R7    R(3,4)                  1.6592         estimate D2E/DX2                !
 ! R8    R(3,6)                  1.7827         estimate D2E/DX2                !
 ! R9    R(4,21)                 1.3557         estimate D2E/DX2                !
 ! R10   R(4,22)                 1.0753         estimate D2E/DX2                !
 ! R11   R(5,6)                  1.5661         estimate D2E/DX2                !
 ! R12   R(5,7)                  1.4264         estimate D2E/DX2                !
 ! R13   R(5,23)                 1.4618         estimate D2E/DX2                !
 ! R14   R(6,7)                  1.4868         estimate D2E/DX2                !
 ! R15   R(6,24)                 1.1902         estimate D2E/DX2                !
 ! R16   R(6,25)                 1.1503         estimate D2E/DX2                !
 ! R17   R(7,8)                  1.3127         estimate D2E/DX2                !
 ! R18   R(7,26)                 1.4174         estimate D2E/DX2                !
 ! R19   R(8,9)                  1.4033         estimate D2E/DX2                !
 ! R20   R(8,27)                 1.1165         estimate D2E/DX2                !
 ! R21   R(9,10)                 1.3445         estimate D2E/DX2                !
 ! R22   R(9,28)                 1.2798         estimate D2E/DX2                !
 ! R23   R(10,11)                1.408          estimate D2E/DX2                !
 ! R24   R(10,29)                1.1461         estimate D2E/DX2                !
 ! R25   R(11,12)                1.4901         estimate D2E/DX2                !
 ! R26   R(12,13)                1.3822         estimate D2E/DX2                !
 ! R27   R(12,30)                1.2567         estimate D2E/DX2                !
 ! R28   R(13,14)                1.5795         estimate D2E/DX2                !
 ! R29   R(13,31)                1.1148         estimate D2E/DX2                !
 ! R30   R(13,32)                1.6909         estimate D2E/DX2                !
 ! R31   R(14,15)                1.8591         estimate D2E/DX2                !
 ! R32   R(14,32)                1.5771         estimate D2E/DX2                !
 ! R33   R(15,16)                1.2922         estimate D2E/DX2                !
 ! R34   R(16,17)                1.359          estimate D2E/DX2                !
 ! R35   R(17,28)                1.9771         estimate D2E/DX2                !
 ! R36   R(19,21)                1.935          estimate D2E/DX2                !
 ! R37   R(23,26)                1.4163         estimate D2E/DX2                !
 ! A1    A(2,1,18)             135.6176         estimate D2E/DX2                !
 ! A2    A(2,1,19)             139.3365         estimate D2E/DX2                !
 ! A3    A(18,1,19)             84.9799         estimate D2E/DX2                !
 ! A4    A(1,2,3)              145.1483         estimate D2E/DX2                !
 ! A5    A(1,2,4)               97.1224         estimate D2E/DX2                !
 ! A6    A(1,2,20)              79.9539         estimate D2E/DX2                !
 ! A7    A(3,2,20)             134.8686         estimate D2E/DX2                !
 ! A8    A(2,3,6)              149.9462         estimate D2E/DX2                !
 ! A9    A(4,3,6)               91.7997         estimate D2E/DX2                !
 ! A10   A(2,4,21)              84.1999         estimate D2E/DX2                !
 ! A11   A(3,4,21)             149.6328         estimate D2E/DX2                !
 ! A12   A(3,4,22)             127.527          estimate D2E/DX2                !
 ! A13   A(21,4,22)             82.8193         estimate D2E/DX2                !
 ! A14   A(6,5,23)              81.0195         estimate D2E/DX2                !
 ! A15   A(7,5,23)              73.6482         estimate D2E/DX2                !
 ! A16   A(3,6,5)               81.196          estimate D2E/DX2                !
 ! A17   A(3,6,7)              111.603          estimate D2E/DX2                !
 ! A18   A(3,6,24)              88.4234         estimate D2E/DX2                !
 ! A19   A(3,6,25)              73.9024         estimate D2E/DX2                !
 ! A20   A(5,6,24)             145.4414         estimate D2E/DX2                !
 ! A21   A(5,6,25)              97.0338         estimate D2E/DX2                !
 ! A22   A(7,6,24)              99.3472         estimate D2E/DX2                !
 ! A23   A(7,6,25)             148.8083         estimate D2E/DX2                !
 ! A24   A(24,6,25)            111.6416         estimate D2E/DX2                !
 ! A25   A(5,7,8)              113.027          estimate D2E/DX2                !
 ! A26   A(5,7,26)              80.0115         estimate D2E/DX2                !
 ! A27   A(6,7,8)               98.6789         estimate D2E/DX2                !
 ! A28   A(6,7,26)             127.2043         estimate D2E/DX2                !
 ! A29   A(8,7,26)             132.0056         estimate D2E/DX2                !
 ! A30   A(7,8,9)              103.2619         estimate D2E/DX2                !
 ! A31   A(7,8,27)             116.0169         estimate D2E/DX2                !
 ! A32   A(9,8,27)             137.3293         estimate D2E/DX2                !
 ! A33   A(8,9,10)             109.8763         estimate D2E/DX2                !
 ! A34   A(8,9,28)             114.494          estimate D2E/DX2                !
 ! A35   A(10,9,28)            121.8256         estimate D2E/DX2                !
 ! A36   A(9,10,11)            116.1254         estimate D2E/DX2                !
 ! A37   A(9,10,29)            120.4203         estimate D2E/DX2                !
 ! A38   A(11,10,29)           117.4719         estimate D2E/DX2                !
 ! A39   A(10,11,12)           124.3498         estimate D2E/DX2                !
 ! A40   A(11,12,13)           115.4664         estimate D2E/DX2                !
 ! A41   A(11,12,30)           104.5039         estimate D2E/DX2                !
 ! A42   A(13,12,30)           113.3833         estimate D2E/DX2                !
 ! A43   A(12,13,14)            77.9143         estimate D2E/DX2                !
 ! A44   A(12,13,31)           146.1662         estimate D2E/DX2                !
 ! A45   A(12,13,32)            85.4037         estimate D2E/DX2                !
 ! A46   A(14,13,31)            98.1058         estimate D2E/DX2                !
 ! A47   A(31,13,32)           121.1486         estimate D2E/DX2                !
 ! A48   A(13,14,15)           120.5786         estimate D2E/DX2                !
 ! A49   A(15,14,32)           158.1987         estimate D2E/DX2                !
 ! A50   A(14,15,16)           134.6762         estimate D2E/DX2                !
 ! A51   A(15,16,17)           109.1796         estimate D2E/DX2                !
 ! A52   A(16,17,28)           118.3626         estimate D2E/DX2                !
 ! A53   A(1,19,21)             81.0527         estimate D2E/DX2                !
 ! A54   A(4,21,19)            137.5633         estimate D2E/DX2                !
 ! A55   A(5,23,26)             78.8526         estimate D2E/DX2                !
 ! A56   A(7,26,23)             75.318          estimate D2E/DX2                !
 ! A57   A(9,28,17)             81.5117         estimate D2E/DX2                !
 ! A58   L(4,2,20,1,-1)        177.0762         estimate D2E/DX2                !
 ! A59   L(2,4,22,21,-1)       167.0192         estimate D2E/DX2                !
 ! A60   L(4,2,20,1,-2)        188.2938         estimate D2E/DX2                !
 ! A61   L(2,4,22,21,-2)       172.8705         estimate D2E/DX2                !
 ! D1    D(18,1,2,3)           170.0292         estimate D2E/DX2                !
 ! D2    D(18,1,2,4)          -179.6223         estimate D2E/DX2                !
 ! D3    D(18,1,2,20)           -7.9161         estimate D2E/DX2                !
 ! D4    D(19,1,2,3)            -5.9013         estimate D2E/DX2                !
 ! D5    D(19,1,2,4)             4.4471         estimate D2E/DX2                !
 ! D6    D(19,1,2,20)          176.1534         estimate D2E/DX2                !
 ! D7    D(2,1,19,21)           -6.7116         estimate D2E/DX2                !
 ! D8    D(18,1,19,21)         176.1445         estimate D2E/DX2                !
 ! D9    D(1,2,3,6)             57.5862         estimate D2E/DX2                !
 ! D10   D(20,2,3,6)          -125.2691         estimate D2E/DX2                !
 ! D11   D(1,2,4,21)             2.8352         estimate D2E/DX2                !
 ! D12   D(6,3,4,21)          -169.5864         estimate D2E/DX2                !
 ! D13   D(6,3,4,22)            12.8484         estimate D2E/DX2                !
 ! D14   D(2,3,6,5)            157.5341         estimate D2E/DX2                !
 ! D15   D(2,3,6,7)            110.0412         estimate D2E/DX2                !
 ! D16   D(2,3,6,24)            10.6105         estimate D2E/DX2                !
 ! D17   D(2,3,6,25)          -102.4647         estimate D2E/DX2                !
 ! D18   D(4,3,6,5)           -163.3712         estimate D2E/DX2                !
 ! D19   D(4,3,6,7)            149.1359         estimate D2E/DX2                !
 ! D20   D(4,3,6,24)            49.7052         estimate D2E/DX2                !
 ! D21   D(4,3,6,25)           -63.37           estimate D2E/DX2                !
 ! D22   D(2,4,21,19)           -8.3816         estimate D2E/DX2                !
 ! D23   D(3,4,21,19)            0.6939         estimate D2E/DX2                !
 ! D24   D(22,4,21,19)         178.7479         estimate D2E/DX2                !
 ! D25   D(23,5,6,3)           -47.615          estimate D2E/DX2                !
 ! D26   D(23,5,6,24)           26.4862         estimate D2E/DX2                !
 ! D27   D(23,5,6,25)         -120.0482         estimate D2E/DX2                !
 ! D28   D(23,5,7,8)          -178.134          estimate D2E/DX2                !
 ! D29   D(23,5,7,26)           50.3005         estimate D2E/DX2                !
 ! D30   D(6,5,23,26)         -111.1876         estimate D2E/DX2                !
 ! D31   D(7,5,23,26)          -50.6135         estimate D2E/DX2                !
 ! D32   D(3,6,7,8)            173.3854         estimate D2E/DX2                !
 ! D33   D(3,6,7,26)             8.4109         estimate D2E/DX2                !
 ! D34   D(24,6,7,8)           -94.5979         estimate D2E/DX2                !
 ! D35   D(24,6,7,26)          100.4276         estimate D2E/DX2                !
 ! D36   D(25,6,7,8)            78.898          estimate D2E/DX2                !
 ! D37   D(25,6,7,26)          -86.0765         estimate D2E/DX2                !
 ! D38   D(5,7,8,9)           -107.9476         estimate D2E/DX2                !
 ! D39   D(5,7,8,27)            54.9202         estimate D2E/DX2                !
 ! D40   D(6,7,8,9)           -174.3936         estimate D2E/DX2                !
 ! D41   D(6,7,8,27)           -11.5258         estimate D2E/DX2                !
 ! D42   D(26,7,8,9)           -10.5274         estimate D2E/DX2                !
 ! D43   D(26,7,8,27)          152.3404         estimate D2E/DX2                !
 ! D44   D(5,7,26,23)          -51.9699         estimate D2E/DX2                !
 ! D45   D(6,7,26,23)           -4.2251         estimate D2E/DX2                !
 ! D46   D(8,7,26,23)         -164.05           estimate D2E/DX2                !
 ! D47   D(7,8,9,10)           168.6481         estimate D2E/DX2                !
 ! D48   D(7,8,9,28)            27.3046         estimate D2E/DX2                !
 ! D49   D(27,8,9,10)           11.6386         estimate D2E/DX2                !
 ! D50   D(27,8,9,28)         -129.7049         estimate D2E/DX2                !
 ! D51   D(8,9,10,11)         -177.213          estimate D2E/DX2                !
 ! D52   D(8,9,10,29)          -25.1076         estimate D2E/DX2                !
 ! D53   D(28,9,10,11)         -39.2041         estimate D2E/DX2                !
 ! D54   D(28,9,10,29)         112.9012         estimate D2E/DX2                !
 ! D55   D(8,9,28,17)           60.7443         estimate D2E/DX2                !
 ! D56   D(10,9,28,17)         -75.516          estimate D2E/DX2                !
 ! D57   D(9,10,11,12)         174.6086         estimate D2E/DX2                !
 ! D58   D(29,10,11,12)         21.6553         estimate D2E/DX2                !
 ! D59   D(10,11,12,13)       -140.4896         estimate D2E/DX2                !
 ! D60   D(10,11,12,30)        -15.2312         estimate D2E/DX2                !
 ! D61   D(11,12,13,14)         77.8262         estimate D2E/DX2                !
 ! D62   D(11,12,13,31)         -8.7076         estimate D2E/DX2                !
 ! D63   D(11,12,13,32)        135.5912         estimate D2E/DX2                !
 ! D64   D(30,12,13,14)        -42.7144         estimate D2E/DX2                !
 ! D65   D(30,12,13,31)       -129.2482         estimate D2E/DX2                !
 ! D66   D(30,12,13,32)         15.0506         estimate D2E/DX2                !
 ! D67   D(12,13,14,15)        -63.7931         estimate D2E/DX2                !
 ! D68   D(31,13,14,15)         82.0559         estimate D2E/DX2                !
 ! D69   D(13,14,15,16)        157.7535         estimate D2E/DX2                !
 ! D70   D(32,14,15,16)         59.449          estimate D2E/DX2                !
 ! D71   D(14,15,16,17)       -164.5052         estimate D2E/DX2                !
 ! D72   D(15,16,17,28)         12.1975         estimate D2E/DX2                !
 ! D73   D(16,17,28,9)          76.9415         estimate D2E/DX2                !
 ! D74   D(1,19,21,4)           10.6622         estimate D2E/DX2                !
 ! D75   D(5,23,26,7)           50.4919         estimate D2E/DX2                !
 --------------------------------------------------------------------------------
 Trust Radius=3.00D-01 FncErr=1.00D-07 GrdErr=1.00D-06 EigMax=2.50D+02 EigMin=1.00D-04
 Number of steps in this run=    183 maximum allowed number of steps=    192.
 GradGradGradGradGradGradGradGradGradGradGradGradGradGradGradGradGradGrad

                          Input orientation:                          
 ---------------------------------------------------------------------
 Center     Atomic      Atomic             Coordinates (Angstroms)
 Number     Number       Type             X           Y           Z
 ---------------------------------------------------------------------
      1          6           0        1.680320    0.193830    0.137750
      2          6           0        3.335170    0.430300    0.255140
      3          6           0        4.803060    1.368160    1.265920
      4          6           0        3.325340    1.386960    2.020270
      5          6           0        6.803620    2.066770    1.800670
      6          6           0        5.652030    1.702250    2.797520
      7          6           0        7.005810    1.087910    2.818280
      8          6           0        7.439140    1.601510    3.946000
      9          6           0        8.777650    1.183050    3.997000
     10          6           0        9.424550    1.838630    4.976560
     11          8           0       10.799250    1.562260    5.104710
     12          6           0       11.714110    2.266220    6.046970
     13          6           0       12.974230    2.547210    5.553420
     14          6           0       12.095580    3.671760    4.876470
     15          6           0       10.749290    3.224880    3.674840
     16          7           0        9.678170    3.810720    3.251400
     17          6           0        8.882900    2.896630    2.635960
     18          1           0        0.859180   -0.377640   -0.744570
     19          1           0        0.693550    0.474030    0.718660
     20          1           0        3.294770   -0.277130   -0.688110
     21          1           0        1.990700    1.151930    1.984390
     22          1           0        3.100540    1.736820    3.011920
     23          1           0        6.400490    0.785140    1.224790
     24          1           0        5.030880    0.818150    3.296560
     25          1           0        4.991530    2.621350    2.591890
     26          1           0        7.680330    0.463720    1.739240
     27          1           0        6.817910    2.420430    4.381820
     28          1           0        9.313820    0.979280    2.852960
     29          1           0        9.056530    2.865170    5.329110
     30          1           0       11.076410    3.290400    6.398690
     31          1           0       13.698580    2.390990    4.720510
     32          1           0       12.758390    4.072610    6.250250
 ---------------------------------------------------------------------
                    Distance matrix (angstroms):
                    1          2          3          4          5
     1  C    0.000000
     2  C    1.675777   0.000000
     3  C    3.521835   2.013941   0.000000
     4  C    2.770114   2.007730   1.659233   0.000000
     5  C    5.702755   4.134833   2.185464   3.550887   0.000000
     6  C    5.012403   3.667341   1.782741   2.473259   1.566124
     7  C    6.028720   4.525012   2.709330   3.777845   1.426386
     8  C    7.046158   5.642406   3.766457   4.547287   2.285343
     9  C    8.139070   6.647461   4.826016   5.803165   3.082470
    10  C    9.278607   7.832991   5.945449   6.792939   4.124027
    11  O   10.473690   8.972856   7.122379   8.087263   5.209248
    12  C   11.827537  10.350002   8.451483   9.346597   6.494902
    13  C   12.744422  11.201096   9.302733  10.340716   7.238120
    14  C   11.959478  10.421542   8.457156   9.502384   6.327826
    15  C   10.195317   8.629786   6.678919   7.824997   4.519076
    16  N    9.313555   7.787070   5.803010   6.910046   3.661832
    17  C    8.088470   6.521380   4.567091   5.791774   2.389515
    18  H    1.333918   2.789752   4.758579   4.103669   6.913013
    19  H    1.178848   2.682335   4.241112   3.074727   6.406288
    20  H    1.873579   1.179750   2.966505   3.178907   4.898971
    21  H    2.103419   2.306221   2.910726   1.355651   4.902539
    22  H    3.557906   3.059719   2.466374   1.075317   3.910089
    23  H    4.879683   3.234551   1.700996   3.232882   1.461755
    24  H    4.646946   3.503726   2.116108   2.204842   2.634264
    25  H    4.783280   3.606193   1.834176   2.150967   2.053596
    26  H    6.215926   4.591741   3.052986   4.460638   1.828158
    27  H    7.026002   5.754962   3.856906   4.340855   2.605305
    28  H    8.140001   6.541736   4.797591   6.059824   2.931050
    29  H    9.407165   8.025442   6.069807   6.780860   4.261799
    30  H   11.707887  10.288351   8.330381   9.103446   6.394982
    31  H   13.048669  11.453563   9.597429  10.765848   7.494735
    32  H   13.233715  11.747546   9.769589  10.681193   7.699444
                    6          7          8          9         10
     6  C    0.000000
     7  C    1.486797   0.000000
     8  C    2.126715   1.312750   0.000000
     9  C    3.387893   2.130223   1.403324   0.000000
    10  C    4.358752   3.327470   2.249474   1.344545   0.000000
    11  O    5.642393   4.454543   3.554503   2.336170   1.408049
    12  C    6.901145   5.829317   4.809499   3.741448   2.563337
    13  C    7.869152   6.725517   5.840836   4.679173   3.665390
    14  C    7.051265   6.067799   5.180168   4.239788   3.241109
    15  C    5.391674   4.394767   3.696749   2.856610   2.317563
    16  N    4.567434   3.839635   3.221232   2.876022   2.632421
    17  C    3.448357   2.613078   2.340509   2.190859   2.625101
    18  H    6.312191   7.254157   8.319517   9.360577  10.536069
    19  H    5.515134   6.680560   7.562402   8.752308   9.809292
    20  H    4.650187   5.284877   6.494618   7.358285   8.610408
    21  H    3.790695   5.084368   5.808230   7.079142   8.042808
    22  H    2.560715   3.963548   4.440075   5.788490   6.622936
    23  H    1.968442   1.731269   3.024936   3.673468   4.932602
    24  H    1.190168   2.049847   2.614410   3.829106   4.813327
    25  H    1.150343   2.541656   2.977328   4.286927   5.094209
    26  H    2.601521   1.417363   2.494500   2.611327   3.925929
    27  H    2.094055   2.062904   1.116466   2.349420   2.736198
    28  H    3.732890   2.310825   2.257506   1.279777   2.293561
    29  H    4.399085   3.697076   2.475031   2.163751   1.146087
    30  H    6.701831   5.851503   4.700827   3.936158   2.618918
    31  H    8.301760   7.078818   6.356393   5.118412   4.317174
    32  H    8.248655   7.333419   6.301613   5.410451   4.210397
                   11         12         13         14         15
    11  O    0.000000
    12  C    1.490095   0.000000
    13  C    2.429404   1.382190   0.000000
    14  C    2.486474   1.868457   1.579525   0.000000
    15  C    2.193474   2.734393   2.989759   1.859062   0.000000
    16  N    3.122043   3.787578   4.214234   2.916168   1.292211
    17  C    3.398186   4.477517   5.037127   3.992746   2.161118
    18  H   11.695396  13.074575  13.964020  13.200395  11.415937
    19  H   11.070088  12.371563  13.359943  12.550663  10.836239
    20  H    9.656984  11.077690  11.858564  11.136092   9.320369
    21  H    9.353893  10.596740  11.632829  10.808435   9.157928
    22  H    7.979999   9.147971  10.227693   9.387826   7.820304
    23  H    5.916653   7.326771   8.065729   7.355365   5.555820
    24  H    6.090747   7.370700   8.436817   7.781336   6.215759
    25  H    6.416038   7.566821   8.514673   7.535927   5.889722
    26  H    4.718140   6.170650   6.849400   6.295091   4.559503
    27  H    4.136435   5.173904   6.268093   5.446495   4.074642
    28  H    2.759845   4.197536   4.811392   4.368321   2.789046
    29  H    2.187465   2.817232   3.936977   3.176680   2.394042
    30  H    2.176619   1.256707   2.206475   1.871175   2.744205
    31  H    3.039822   2.390227   1.114821   2.057743   3.238381
    32  H    3.384132   2.096399   1.690859   1.577108   3.374591
                   16         17         18         19         20
    16  N    0.000000
    17  C    1.358963   0.000000
    18  H   10.549157   9.302092   0.000000
    19  H    9.913207   8.752741   1.701122   0.000000
    20  H    8.542719   7.235288   2.438317   3.051162   0.000000
    21  H    8.232355   7.139394   3.326732   1.934998   3.299253
    22  H    6.900987   5.909500   4.858585   3.556302   4.217101
    23  H    4.899436   3.551359   5.994710   5.737780   3.799092
    24  H    5.527641   4.426571   5.929901   5.057313   4.482333
    25  H    4.879974   3.901344   6.099362   5.156802   4.694527
    26  H    4.180957   2.858204   7.307892   7.060934   5.066954
    27  H    3.375180   2.745720   8.343592   7.396959   6.737472
    28  H    2.882457   1.977122   9.287863   8.894918   7.095541
    29  H    2.365878   2.698925  10.705230   9.844452   8.903868
    30  H    3.482993   4.373177  12.995094  12.165462  11.113232
    31  H    4.509724   5.271792  14.226124  13.741192  12.025444
    32  H    4.306906   5.428208  14.502532  13.751677  12.514838
                   21         22         23         24         25
    21  H    0.000000
    22  H    1.621622   0.000000
    23  H    4.489741   3.871589   0.000000
    24  H    3.328047   2.156661   2.483778   0.000000
    25  H    3.396061   2.129475   2.688084   1.936398   0.000000
    26  H    5.736342   4.920871   1.416319   3.093615   3.551341
    27  H    5.537032   4.020297   3.579840   2.634116   2.565128
    28  H    7.376470   6.261308   3.343070   4.308865   4.631063
    29  H    8.003018   6.489712   5.312863   4.952515   4.906735
    30  H   10.325174   8.803313   7.410114   7.230744   7.208684
    31  H   12.087021  10.754798   8.249905   8.923591   8.966427
    32  H   11.944500  10.450682   8.745605   8.889893   8.707116
                   26         27         28         29         30
    26  H    0.000000
    27  H    3.399369   0.000000
    28  H    2.043150   3.262498   0.000000
    29  H    4.532996   2.471148   3.123155   0.000000
    30  H    6.421367   4.791600   4.584779   2.324809   0.000000
    31  H    6.987251   6.889064   4.970592   4.705727   3.240525
    32  H    7.691553   6.442828   5.742415   4.001272   1.860899
                   31         32
    31  H    0.000000
    32  H    2.460063   0.000000
 Stoichiometry    C15H15NO
 Framework group  C1[X(C15H15NO)]
 Deg. of freedom    90
 Full point group                 C1      NOp   1
 Largest Abelian subgroup         C1      NOp   1
 Largest concise Abelian subgroup C1      NOp   1
                         Standard orientation:                         
 ---------------------------------------------------------------------
 Center     Atomic      Atomic             Coordinates (Angstroms)
 Number     Number       Type             X           Y           Z
 ---------------------------------------------------------------------
      1          6           0       -7.079418   -0.118247   -0.249623
      2          6           0       -5.525559    0.296806   -0.720240
      3          6           0       -3.608766    0.467134   -0.126226
      4          6           0       -4.579642   -0.387215    0.913264
      5          6           0       -1.477184    0.945815   -0.185181
      6          6           0       -2.134897   -0.264920    0.559319
      7          6           0       -1.060540   -0.390234   -0.460788
      8          6           0       -0.089496   -0.797362    0.323197
      9          6           0        1.024318   -0.821990   -0.530110
     10          6           0        2.148281   -0.983679    0.189866
     11          8           0        3.356048   -0.965901   -0.533726
     12          6           0        4.709431   -1.012478    0.088018
     13          6           0        5.662244   -0.202754   -0.501003
     14          6           0        4.827052    0.833905    0.349110
     15          6           0        3.034955    1.145761   -0.034618
     16          7           0        2.030008    1.608469    0.633058
     17          6           0        0.879711    1.304617   -0.023656
     18          1           0       -8.297621   -0.010656   -0.782298
     19          1           0       -7.640039   -0.573147    0.682286
     20          1           0       -6.111116    0.526345   -1.718361
     21          1           0       -5.816542   -0.793732    1.290907
     22          1           0       -4.279227   -0.938562    1.786233
     23          1           0       -2.340423    0.458901   -1.259639
     24          1           0       -2.646211   -1.332286    0.433670
     25          1           0       -2.617175    0.338855    1.411465
     26          1           0       -1.058944    0.143581   -1.773783
     27          1           0       -0.281496   -0.721524    1.420411
     28          1           0        0.961838    0.001186   -1.508019
     29          1           0        2.185350   -0.659485    1.288520
     30          1           0        4.508519   -0.746083    1.299621
     31          1           0        5.908855    0.461944   -1.361344
     32          1           0        6.082868    0.221630    1.080761
 ---------------------------------------------------------------------
 Rotational constants (GHZ):           2.1861546           0.1563760           0.1520511
 Standard basis: 6-31G(2df,p) (6D, 7F)
 There are   602 symmetry adapted cartesian basis functions of A   symmetry.
 There are   551 symmetry adapted basis functions of A   symmetry.
   551 basis functions,   853 primitive gaussians,   602 cartesian basis functions
    60 alpha electrons       60 beta electrons
       nuclear repulsion energy      1043.5324160618 Hartrees.
 NAtoms=   32 NActive=   32 NUniq=   32 SFac= 1.00D+00 NAtFMM=   60 NAOKFM=F Big=F
 Integral buffers will be    131072 words long.
 Raffenetti 2 integral format.
 Two-electron integral symmetry is turned on.
 One-electron integrals computed using PRISM.
 PrsmSu:  requested number of processors reduced to:  12 ShMem   1 Linda.
 NBasis=   551 RedAO= T EigKep=  2.73D-04  NBF=   551
 NBsUse=   551 1.00D-06 EigRej= -1.00D+00 NBFU=   551
 ExpMin= 1.61D-01 ExpMax= 5.48D+03 ExpMxC= 8.25D+02 IAcc=3 IRadAn=         5 AccDes= 0.00D+00
 Harris functional with IExCor=  402 and IRadAn=       5 diagonalized for initial guess.
 HarFok:  IExCor=  402 AccDes= 0.00D+00 IRadAn=         5 IDoV= 1 UseB2=F ITyADJ=14
 ICtDFT=  3500011 ScaDFX=  1.000000  1.000000  1.000000  1.000000
 FoFCou: FMM=F IPFlag=           0 FMFlag=      100000 FMFlg1=           0
         NFxFlg=           0 DoJE=T BraDBF=F KetDBF=T FulRan=T
         wScrn=  0.000000 ICntrl=       500 IOpCl=  0 I1Cent=   200000004 NGrid=           0
         NMat0=    1 NMatS0=      1 NMatT0=    0 NMatD0=    1 NMtDS0=    0 NMtDT0=    0
 Petite list used in FoFCou.
 Requested convergence on RMS density matrix=1.00D-08 within 128 cycles.
 Requested convergence on MAX density matrix=1.00D-06.
 Requested convergence on             energy=1.00D-06.
 No special actions if energy rises.
 Integral accuracy reduced to 1.0D-05 until final iterations.
 EnCoef did     6 forward-backward iterations
 EnCoef did   100 forward-backward iterations
 EnCoef did   100 forward-backward iterations
 Initial convergence to 1.0D-05 achieved.  Increase integral accuracy.
 SCF Done:  E(RB3LYP) =  -708.759289259     A.U. after   28 cycles
            NFock= 28  Conv=0.70D-08     -V/T= 2.0088

 **********************************************************************

            Population analysis using the SCF density.

 **********************************************************************

 Orbital symmetries:
       Occupied  (A) (A) (A) (A) (A) (A) (A) (A) (A) (A) (A) (A)
                 (A) (A) (A) (A) (A) (A) (A) (A) (A) (A) (A) (A)
                 (A) (A) (A) (A) (A) (A) (A) (A) (A) (A) (A) (A)
                 (A) (A) (A) (A) (A) (A) (A) (A) (A) (A) (A) (A)
                 (A) (A) (A) (A) (A) (A) (A) (A) (A) (A) (A) (A)
       Virtual   (A) (A) (A) (A) (A) (A) (A) (A) (A) (A) (A) (A)
                 (A) (A) (A) (A) (A) (A) (A) (A) (A) (A) (A) (A)
                 (A) (A) (A) (A) (A) (A) (A) (A) (A) (A) (A) (A)
                 (A) (A) (A) (A) (A) (A) (A) (A) (A) (A) (A) (A)
                 (A) (A) (A) (A) (A) (A) (A) (A) (A) (A) (A) (A)
                 (A) (A) (A) (A) (A) (A) (A) (A) (A) (A) (A) (A)
                 (A) (A) (A) (A) (A) (A) (A) (A) (A) (A) (A) (A)
                 (A) (A) (A) (A) (A) (A) (A) (A) (A) (A) (A) (A)
                 (A) (A) (A) (A) (A) (A) (A) (A) (A) (A) (A) (A)
                 (A) (A) (A) (A) (A) (A) (A) (A) (A) (A) (A) (A)
                 (A) (A) (A) (A) (A) (A) (A) (A) (A) (A) (A) (A)
                 (A) (A) (A) (A) (A) (A) (A) (A) (A) (A) (A) (A)
                 (A) (A) (A) (A) (A) (A) (A) (A) (A) (A) (A) (A)
                 (A) (A) (A) (A) (A) (A) (A) (A) (A) (A) (A) (A)
                 (A) (A) (A) (A) (A) (A) (A) (A) (A) (A) (A) (A)
                 (A) (A) (A) (A) (A) (A) (A) (A) (A) (A) (A) (A)
                 (A) (A) (A) (A) (A) (A) (A) (A) (A) (A) (A) (A)
                 (A) (A) (A) (A) (A) (A) (A) (A) (A) (A) (A) (A)
                 (A) (A) (A) (A) (A) (A) (A) (A) (A) (A) (A) (A)
                 (A) (A) (A) (A) (A) (A) (A) (A) (A) (A) (A) (A)
                 (A) (A) (A) (A) (A) (A) (A) (A) (A) (A) (A) (A)
                 (A) (A) (A) (A) (A) (A) (A) (A) (A) (A) (A) (A)
                 (A) (A) (A) (A) (A) (A) (A) (A) (A) (A) (A) (A)
                 (A) (A) (A) (A) (A) (A) (A) (A) (A) (A) (A) (A)
                 (A) (A) (A) (A) (A) (A) (A) (A) (A) (A) (A) (A)
                 (A) (A) (A) (A) (A) (A) (A) (A) (A) (A) (A) (A)
                 (A) (A) (A) (A) (A) (A) (A) (A) (A) (A) (A) (A)
                 (A) (A) (A) (A) (A) (A) (A) (A) (A) (A) (A) (A)
                 (A) (A) (A) (A) (A) (A) (A) (A) (A) (A) (A) (A)
                 (A) (A) (A) (A) (A) (A) (A) (A) (A) (A) (A) (A)
                 (A) (A) (A) (A) (A) (A) (A) (A) (A) (A) (A) (A)
                 (A) (A) (A) (A) (A) (A) (A) (A) (A) (A) (A) (A)
                 (A) (A) (A) (A) (A) (A) (A) (A) (A) (A) (A) (A)
                 (A) (A) (A) (A) (A) (A) (A) (A) (A) (A) (A) (A)
                 (A) (A) (A) (A) (A) (A) (A) (A) (A) (A) (A) (A)
                 (A) (A) (A) (A) (A) (A) (A) (A) (A) (A) (A) (A)
                 (A) (A) (A) (A) (A) (A) (A) (A) (A) (A) (A) (A)
                 (A) (A) (A) (A) (A) (A) (A) (A) (A) (A) (A) (A)
                 (A) (A) (A) (A) (A) (A) (A) (A) (A) (A) (A) (A)
                 (A) (A) (A) (A) (A) (A) (A) (A) (A) (A) (A) (A)
                 (A) (A) (A) (A) (A) (A) (A) (A) (A) (A) (A)
 The electronic state is 1-A.
 Alpha  occ. eigenvalues --  -19.18719 -14.39268 -10.28793 -10.28090 -10.27684
 Alpha  occ. eigenvalues --  -10.27504 -10.26973 -10.26741 -10.26723 -10.26650
 Alpha  occ. eigenvalues --  -10.25687 -10.24457 -10.23531 -10.23055 -10.22880
 Alpha  occ. eigenvalues --  -10.22761 -10.22447  -1.05741  -0.98252  -0.96548
 Alpha  occ. eigenvalues --   -0.86969  -0.83863  -0.76123  -0.71974  -0.68054
 Alpha  occ. eigenvalues --   -0.67911  -0.63957  -0.62199  -0.59622  -0.57845
 Alpha  occ. eigenvalues --   -0.57070  -0.55698  -0.54082  -0.52983  -0.51420
 Alpha  occ. eigenvalues --   -0.50504  -0.47926  -0.46349  -0.43912  -0.42884
 Alpha  occ. eigenvalues --   -0.42192  -0.40981  -0.40635  -0.40009  -0.37786
 Alpha  occ. eigenvalues --   -0.36173  -0.36044  -0.33836  -0.32257  -0.31644
 Alpha  occ. eigenvalues --   -0.30001  -0.29107  -0.27287  -0.25281  -0.24866
 Alpha  occ. eigenvalues --   -0.24115  -0.20820  -0.20267  -0.18814  -0.16790
 Alpha virt. eigenvalues --   -0.12395  -0.11607  -0.09796  -0.08974  -0.06417
 Alpha virt. eigenvalues --   -0.04120  -0.03896  -0.03304  -0.02000  -0.01026
 Alpha virt. eigenvalues --    0.00874   0.02867   0.03959   0.04234   0.04994
 Alpha virt. eigenvalues --    0.05563   0.07824   0.09481   0.11119   0.11683
 Alpha virt. eigenvalues --    0.11771   0.12521   0.12870   0.13919   0.14543
 Alpha virt. eigenvalues --    0.15647   0.17136   0.18064   0.19298   0.22656
 Alpha virt. eigenvalues --    0.24100   0.25813   0.26435   0.27708   0.28905
 Alpha virt. eigenvalues --    0.29100   0.30837   0.33987   0.35573   0.38503
 Alpha virt. eigenvalues --    0.40939   0.41558   0.42292   0.43445   0.44492
 Alpha virt. eigenvalues --    0.45502   0.45868   0.46320   0.47893   0.48394
 Alpha virt. eigenvalues --    0.48879   0.50535   0.51161   0.51379   0.52307
 Alpha virt. eigenvalues --    0.53256   0.53834   0.54198   0.55072   0.55856
 Alpha virt. eigenvalues --    0.57210   0.57684   0.58015   0.58502   0.58700
 Alpha virt. eigenvalues --    0.59667   0.60615   0.60819   0.60911   0.62250
 Alpha virt. eigenvalues --    0.62715   0.63302   0.64215   0.64323   0.64797
 Alpha virt. eigenvalues --    0.65592   0.66186   0.67102   0.67214   0.67423
 Alpha virt. eigenvalues --    0.68273   0.69122   0.70058   0.70774   0.71306
 Alpha virt. eigenvalues --    0.71651   0.72143   0.72630   0.73519   0.74080
 Alpha virt. eigenvalues --    0.74517   0.75001   0.75265   0.76484   0.76756
 Alpha virt. eigenvalues --    0.76804   0.77975   0.78770   0.79503   0.80229
 Alpha virt. eigenvalues --    0.80928   0.81855   0.82789   0.83375   0.83627
 Alpha virt. eigenvalues --    0.84378   0.85202   0.86064   0.86783   0.86859
 Alpha virt. eigenvalues --    0.87672   0.87934   0.89486   0.90383   0.91418
 Alpha virt. eigenvalues --    0.92689   0.95895   0.96924   0.97538   0.98100
 Alpha virt. eigenvalues --    1.00286   1.01206   1.02033   1.02935   1.03398
 Alpha virt. eigenvalues --    1.05040   1.06927   1.08324   1.09891   1.10779
 Alpha virt. eigenvalues --    1.13141   1.13303   1.13986   1.14645   1.16325
 Alpha virt. eigenvalues --    1.17651   1.20466   1.21103   1.21813   1.23255
 Alpha virt. eigenvalues --    1.23956   1.25052   1.25597   1.25764   1.26467
 Alpha virt. eigenvalues --    1.28404   1.30459   1.30896   1.32268   1.32868
 Alpha virt. eigenvalues --    1.34072   1.34562   1.36817   1.37086   1.38662
 Alpha virt. eigenvalues --    1.39285   1.42163   1.43179   1.44194   1.44667
 Alpha virt. eigenvalues --    1.45664   1.46948   1.47434   1.49699   1.50596
 Alpha virt. eigenvalues --    1.51311   1.52430   1.52873   1.53243   1.55129
 Alpha virt. eigenvalues --    1.55306   1.56285   1.56926   1.60682   1.62645
 Alpha virt. eigenvalues --    1.63021   1.63539   1.64557   1.66276   1.67209
 Alpha virt. eigenvalues --    1.67936   1.68762   1.69824   1.71374   1.72155
 Alpha virt. eigenvalues --    1.73525   1.75205   1.76548   1.77755   1.80369
 Alpha virt. eigenvalues --    1.81767   1.86116   1.87105   1.87873   1.89188
 Alpha virt. eigenvalues --    1.90597   1.92560   1.94369   1.96295   1.97967
 Alpha virt. eigenvalues --    1.99925   2.01011   2.02979   2.04253   2.04450
 Alpha virt. eigenvalues --    2.07518   2.08428   2.09575   2.10717   2.13258
 Alpha virt. eigenvalues --    2.14446   2.16856   2.17195   2.18492   2.18753
 Alpha virt. eigenvalues --    2.20354   2.22808   2.24843   2.25343   2.26180
 Alpha virt. eigenvalues --    2.26588   2.27515   2.28462   2.29684   2.31133
 Alpha virt. eigenvalues --    2.33573   2.35653   2.36456   2.38392   2.39592
 Alpha virt. eigenvalues --    2.40675   2.42281   2.43645   2.46096   2.46706
 Alpha virt. eigenvalues --    2.47830   2.49364   2.52321   2.54832   2.56199
 Alpha virt. eigenvalues --    2.58252   2.59556   2.59663   2.61193   2.61389
 Alpha virt. eigenvalues --    2.62922   2.65230   2.66005   2.67262   2.68073
 Alpha virt. eigenvalues --    2.69028   2.70255   2.70866   2.72140   2.72545
 Alpha virt. eigenvalues --    2.73260   2.74548   2.76600   2.77528   2.78753
 Alpha virt. eigenvalues --    2.79468   2.81413   2.82707   2.83407   2.84178
 Alpha virt. eigenvalues --    2.85402   2.85651   2.86337   2.87744   2.89175
 Alpha virt. eigenvalues --    2.90283   2.91491   2.92592   2.93776   2.95180
 Alpha virt. eigenvalues --    2.96545   2.97042   2.98356   2.99689   3.00043
 Alpha virt. eigenvalues --    3.02067   3.02932   3.04304   3.05239   3.05957
 Alpha virt. eigenvalues --    3.06536   3.07572   3.08753   3.09110   3.11159
 Alpha virt. eigenvalues --    3.11484   3.11964   3.13259   3.14727   3.16948
 Alpha virt. eigenvalues --    3.17378   3.19458   3.20642   3.22280   3.22938
 Alpha virt. eigenvalues --    3.23873   3.24463   3.25451   3.26696   3.27841
 Alpha virt. eigenvalues --    3.28713   3.29176   3.31587   3.32741   3.34483
 Alpha virt. eigenvalues --    3.36564   3.37165   3.38133   3.39604   3.40915
 Alpha virt. eigenvalues --    3.41957   3.43051   3.43440   3.45138   3.46383
 Alpha virt. eigenvalues --    3.48161   3.49050   3.49797   3.51153   3.52106
 Alpha virt. eigenvalues --    3.52977   3.55589   3.55884   3.58890   3.60364
 Alpha virt. eigenvalues --    3.62202   3.63779   3.64336   3.66126   3.67174
 Alpha virt. eigenvalues --    3.67509   3.69930   3.71022   3.73407   3.74402
 Alpha virt. eigenvalues --    3.76057   3.77844   3.79026   3.79323   3.81129
 Alpha virt. eigenvalues --    3.81775   3.82765   3.84702   3.85043   3.87516
 Alpha virt. eigenvalues --    3.89732   3.94278   3.94733   3.96942   3.99551
 Alpha virt. eigenvalues --    4.00724   4.02324   4.03659   4.06939   4.09313
 Alpha virt. eigenvalues --    4.12212   4.12683   4.14382   4.16986   4.18543
 Alpha virt. eigenvalues --    4.20840   4.22167   4.23701   4.25432   4.27328
 Alpha virt. eigenvalues --    4.28165   4.28724   4.29330   4.31324   4.32261
 Alpha virt. eigenvalues --    4.34004   4.35547   4.36067   4.37283   4.38074
 Alpha virt. eigenvalues --    4.39239   4.40011   4.41165   4.42293   4.42717
 Alpha virt. eigenvalues --    4.43355   4.44689   4.47060   4.47520   4.47868
 Alpha virt. eigenvalues --    4.48674   4.50273   4.51818   4.52269   4.53026
 Alpha virt. eigenvalues --    4.54294   4.55787   4.56241   4.56820   4.58489
 Alpha virt. eigenvalues --    4.59661   4.60230   4.61016   4.62733   4.63776
 Alpha virt. eigenvalues --    4.65183   4.66651   4.67340   4.67700   4.68286
 Alpha virt. eigenvalues --    4.70060   4.70835   4.71438   4.71665   4.74621
 Alpha virt. eigenvalues --    4.75866   4.77183   4.78089   4.78350   4.79177
 Alpha virt. eigenvalues --    4.80397   4.81727   4.82621   4.84478   4.85339
 Alpha virt. eigenvalues --    4.87382   4.88051   4.89055   4.90347   4.91337
 Alpha virt. eigenvalues --    4.92293   4.92857   4.96991   4.99429   5.01021
 Alpha virt. eigenvalues --    5.03658   5.05126   5.05982   5.07380   5.08760
 Alpha virt. eigenvalues --    5.11374   5.13320   5.13794   5.16417   5.18307
 Alpha virt. eigenvalues --    5.20211   5.20750   5.24028   5.27711   5.29498
 Alpha virt. eigenvalues --    5.30494   5.33722   5.36288   5.39978   5.42413
 Alpha virt. eigenvalues --    5.44566   5.48824   5.54595   5.58916   5.63259
 Alpha virt. eigenvalues --    5.66702   5.70458   5.73305   5.80015   5.82632
 Alpha virt. eigenvalues --    5.90116   5.93531   5.99347   6.12483   6.29945
 Alpha virt. eigenvalues --    6.36391   6.70056   7.24663   9.91013  10.20150
 Alpha virt. eigenvalues --   10.44084  10.53920  10.69683  10.82098  10.99461
 Alpha virt. eigenvalues --   11.14673  11.16276  11.24952  11.35528  11.55388
 Alpha virt. eigenvalues --   11.70289  12.23528  12.31192  12.46294  13.80420
 Alpha virt. eigenvalues --   14.23366
          Condensed to atoms (all electrons):
               1          2          3          4          5          6
     1  C    5.345983   0.487094  -0.004761  -0.039853   0.000001  -0.000048
     2  C    0.487094   5.190947   0.162541   0.067033  -0.001347  -0.005231
     3  C   -0.004761   0.162541   5.637881   0.333259  -0.067650   0.161000
     4  C   -0.039853   0.067033   0.333259   5.374843   0.002478  -0.053920
     5  C    0.000001  -0.001347  -0.067650   0.002478   5.842871   0.098005
     6  C   -0.000048  -0.005231   0.161000  -0.053920   0.098005   5.467899
     7  C    0.000001   0.000286  -0.038026   0.006964   0.242777   0.199288
     8  C   -0.000000  -0.000014   0.002559   0.000527  -0.079054  -0.069575
     9  C   -0.000000   0.000000  -0.000341   0.000000  -0.007862  -0.008189
    10  C   -0.000000   0.000000   0.000005   0.000000   0.000177   0.000581
    11  O    0.000000  -0.000000  -0.000000  -0.000000   0.000002   0.000001
    12  C   -0.000000  -0.000000   0.000000   0.000000  -0.000000   0.000000
    13  C    0.000000  -0.000000  -0.000000   0.000000   0.000000   0.000000
    14  C   -0.000000   0.000000  -0.000000  -0.000000  -0.000002  -0.000000
    15  C   -0.000000   0.000000   0.000000  -0.000000   0.000319  -0.000096
    16  N   -0.000000   0.000000   0.000000  -0.000000  -0.001245  -0.000297
    17  C    0.000000  -0.000000   0.000210  -0.000001   0.019506   0.013125
    18  H    0.312428  -0.017332   0.000129   0.001682  -0.000000   0.000000
    19  H    0.316665  -0.019879  -0.000259  -0.007324   0.000000   0.000001
    20  H   -0.077219   0.276543  -0.018661   0.002124   0.000086   0.000097
    21  H   -0.025832  -0.031704  -0.001324   0.306081  -0.000080   0.001651
    22  H    0.003438   0.006756  -0.039603   0.257645   0.000617  -0.006060
    23  H    0.000039  -0.002563  -0.022060   0.008058   0.241135  -0.147691
    24  H   -0.000044   0.002193  -0.009286  -0.014628   0.003420   0.327941
    25  H    0.000024   0.000115  -0.024080   0.013996  -0.040016   0.338451
    26  H   -0.000000   0.000138  -0.005242  -0.000012  -0.086636   0.007037
    27  H   -0.000000   0.000000   0.000589  -0.000138   0.008420  -0.005200
    28  H    0.000000   0.000000   0.000045  -0.000000   0.001448   0.000860
    29  H   -0.000000  -0.000000   0.000001   0.000000   0.000099   0.000072
    30  H    0.000000  -0.000000   0.000000   0.000000  -0.000000   0.000000
    31  H    0.000000  -0.000000  -0.000000   0.000000  -0.000000   0.000000
    32  H    0.000000  -0.000000   0.000000   0.000000  -0.000000   0.000000
               7          8          9         10         11         12
     1  C    0.000001  -0.000000  -0.000000  -0.000000   0.000000  -0.000000
     2  C    0.000286  -0.000014   0.000000   0.000000  -0.000000  -0.000000
     3  C   -0.038026   0.002559  -0.000341   0.000005  -0.000000   0.000000
     4  C    0.006964   0.000527   0.000000   0.000000  -0.000000   0.000000
     5  C    0.242777  -0.079054  -0.007862   0.000177   0.000002  -0.000000
     6  C    0.199288  -0.069575  -0.008189   0.000581   0.000001   0.000000
     7  C    5.176907   0.405863   0.003414  -0.004708  -0.000129  -0.000001
     8  C    0.405863   5.018533   0.342863  -0.023883   0.001237  -0.000191
     9  C    0.003414   0.342863   5.229534   0.476189  -0.019662   0.003239
    10  C   -0.004708  -0.023883   0.476189   4.954354   0.345271  -0.056478
    11  O   -0.000129   0.001237  -0.019662   0.345271   7.758400   0.320806
    12  C   -0.000001  -0.000191   0.003239  -0.056478   0.320806   5.066768
    13  C   -0.000000   0.000017  -0.000240   0.002242  -0.014244   0.441951
    14  C    0.000006  -0.000082   0.000711   0.004577  -0.064798  -0.007021
    15  C    0.001410  -0.009700   0.009137   0.010853  -0.022682  -0.023615
    16  N    0.002007  -0.001099  -0.026809  -0.025795   0.002441  -0.000482
    17  C   -0.083024   0.080833  -0.043275  -0.021657   0.000184  -0.000059
    18  H   -0.000000  -0.000000   0.000000   0.000000   0.000000   0.000000
    19  H    0.000000   0.000000  -0.000000  -0.000000   0.000000  -0.000000
    20  H   -0.000020   0.000000  -0.000000  -0.000000   0.000000  -0.000000
    21  H   -0.000145  -0.000002  -0.000000  -0.000000  -0.000000  -0.000000
    22  H    0.000367  -0.000102   0.000005   0.000000  -0.000000   0.000000
    23  H   -0.077723   0.023774   0.000295  -0.000151   0.000000  -0.000000
    24  H   -0.044055  -0.016665   0.000387   0.000031  -0.000000   0.000000
    25  H    0.006734  -0.002317   0.000186  -0.000004   0.000000  -0.000000
    26  H    0.324167  -0.004370  -0.007029   0.001974   0.000001   0.000001
    27  H   -0.051852   0.380792  -0.044064   0.004920  -0.000007   0.000006
    28  H    0.004931  -0.044304   0.338228  -0.025583  -0.003144   0.000052
    29  H    0.001031   0.004431  -0.055911   0.362135  -0.031529  -0.004877
    30  H   -0.000002   0.000149  -0.000282  -0.002701  -0.030270   0.325225
    31  H   -0.000000   0.000000   0.000012  -0.000097   0.000083  -0.015291
    32  H   -0.000000   0.000000  -0.000002  -0.000504   0.003494  -0.014882
              13         14         15         16         17         18
     1  C    0.000000  -0.000000  -0.000000  -0.000000   0.000000   0.312428
     2  C   -0.000000   0.000000   0.000000   0.000000  -0.000000  -0.017332
     3  C   -0.000000  -0.000000   0.000000   0.000000   0.000210   0.000129
     4  C    0.000000  -0.000000  -0.000000  -0.000000  -0.000001   0.001682
     5  C    0.000000  -0.000002   0.000319  -0.001245   0.019506  -0.000000
     6  C    0.000000  -0.000000  -0.000096  -0.000297   0.013125   0.000000
     7  C   -0.000000   0.000006   0.001410   0.002007  -0.083024  -0.000000
     8  C    0.000017  -0.000082  -0.009700  -0.001099   0.080833  -0.000000
     9  C   -0.000240   0.000711   0.009137  -0.026809  -0.043275   0.000000
    10  C    0.002242   0.004577   0.010853  -0.025795  -0.021657   0.000000
    11  O   -0.014244  -0.064798  -0.022682   0.002441   0.000184   0.000000
    12  C    0.441951  -0.007021  -0.023615  -0.000482  -0.000059   0.000000
    13  C    5.153063   0.179971  -0.025162   0.001102  -0.000013   0.000000
    14  C    0.179971   5.797394   0.241816  -0.020856   0.000704   0.000000
    15  C   -0.025162   0.241816   5.383053   0.524095  -0.101074   0.000000
    16  N    0.001102  -0.020856   0.524095   6.152679   0.450590   0.000000
    17  C   -0.000013   0.000704  -0.101074   0.450590   5.760403  -0.000000
    18  H    0.000000   0.000000   0.000000   0.000000  -0.000000   0.677906
    19  H    0.000000  -0.000000  -0.000000  -0.000000  -0.000000  -0.070744
    20  H    0.000000  -0.000000  -0.000000  -0.000000   0.000000   0.004357
    21  H   -0.000000  -0.000000   0.000000   0.000000   0.000000   0.000576
    22  H   -0.000000   0.000000   0.000000   0.000000  -0.000001  -0.000045
    23  H    0.000000  -0.000000  -0.000014  -0.000029   0.003204  -0.000000
    24  H   -0.000000   0.000000   0.000000   0.000001  -0.000422   0.000000
    25  H    0.000000  -0.000000  -0.000000  -0.000001   0.000639  -0.000000
    26  H    0.000000  -0.000000  -0.000152  -0.000062  -0.005167   0.000000
    27  H    0.000000  -0.000008  -0.000438   0.000015   0.003425   0.000000
    28  H   -0.000025   0.000069   0.004594  -0.005046   0.006747  -0.000000
    29  H    0.000690  -0.000557  -0.007111   0.007408  -0.002054  -0.000000
    30  H   -0.050937   0.030972  -0.009808   0.000690   0.000194   0.000000
    31  H    0.358951  -0.017411  -0.001132   0.000054   0.000001   0.000000
    32  H    0.136717   0.080883   0.001665  -0.000070   0.000007   0.000000
              19         20         21         22         23         24
     1  C    0.316665  -0.077219  -0.025832   0.003438   0.000039  -0.000044
     2  C   -0.019879   0.276543  -0.031704   0.006756  -0.002563   0.002193
     3  C   -0.000259  -0.018661  -0.001324  -0.039603  -0.022060  -0.009286
     4  C   -0.007324   0.002124   0.306081   0.257645   0.008058  -0.014628
     5  C    0.000000   0.000086  -0.000080   0.000617   0.241135   0.003420
     6  C    0.000001   0.000097   0.001651  -0.006060  -0.147691   0.327941
     7  C    0.000000  -0.000020  -0.000145   0.000367  -0.077723  -0.044055
     8  C    0.000000   0.000000  -0.000002  -0.000102   0.023774  -0.016665
     9  C   -0.000000  -0.000000  -0.000000   0.000005   0.000295   0.000387
    10  C   -0.000000  -0.000000  -0.000000   0.000000  -0.000151   0.000031
    11  O    0.000000   0.000000  -0.000000  -0.000000   0.000000  -0.000000
    12  C   -0.000000  -0.000000  -0.000000   0.000000  -0.000000   0.000000
    13  C    0.000000   0.000000  -0.000000  -0.000000   0.000000  -0.000000
    14  C   -0.000000  -0.000000  -0.000000   0.000000  -0.000000   0.000000
    15  C   -0.000000  -0.000000   0.000000   0.000000  -0.000014   0.000000
    16  N   -0.000000  -0.000000   0.000000   0.000000  -0.000029   0.000001
    17  C   -0.000000   0.000000   0.000000  -0.000001   0.003204  -0.000422
    18  H   -0.070744   0.004357   0.000576  -0.000045  -0.000000   0.000000
    19  H    0.636142   0.005366   0.017785  -0.000558   0.000001  -0.000008
    20  H    0.005366   0.663726   0.004042  -0.000739   0.000635  -0.000111
    21  H    0.017785   0.004042   0.692590  -0.083901  -0.000167   0.000549
    22  H   -0.000558  -0.000739  -0.083901   0.736916  -0.000479   0.010298
    23  H    0.000001   0.000635  -0.000167  -0.000479   0.966919  -0.022905
    24  H   -0.000008  -0.000111   0.000549   0.010298  -0.022905   0.608062
    25  H    0.000001   0.000004  -0.000186   0.001408   0.009998  -0.037278
    26  H   -0.000000  -0.000010  -0.000001   0.000011  -0.014859   0.001011
    27  H   -0.000000  -0.000000   0.000001   0.000074  -0.000870   0.002722
    28  H   -0.000000  -0.000000   0.000000   0.000000  -0.001609   0.000011
    29  H    0.000000   0.000000   0.000000  -0.000000  -0.000002   0.000001
    30  H    0.000000   0.000000  -0.000000  -0.000000   0.000000  -0.000000
    31  H    0.000000   0.000000  -0.000000  -0.000000   0.000000   0.000000
    32  H    0.000000   0.000000  -0.000000  -0.000000   0.000000  -0.000000
              25         26         27         28         29         30
     1  C    0.000024  -0.000000  -0.000000   0.000000  -0.000000   0.000000
     2  C    0.000115   0.000138   0.000000   0.000000  -0.000000  -0.000000
     3  C   -0.024080  -0.005242   0.000589   0.000045   0.000001   0.000000
     4  C    0.013996  -0.000012  -0.000138  -0.000000   0.000000   0.000000
     5  C   -0.040016  -0.086636   0.008420   0.001448   0.000099  -0.000000
     6  C    0.338451   0.007037  -0.005200   0.000860   0.000072   0.000000
     7  C    0.006734   0.324167  -0.051852   0.004931   0.001031  -0.000002
     8  C   -0.002317  -0.004370   0.380792  -0.044304   0.004431   0.000149
     9  C    0.000186  -0.007029  -0.044064   0.338228  -0.055911  -0.000282
    10  C   -0.000004   0.001974   0.004920  -0.025583   0.362135  -0.002701
    11  O    0.000000   0.000001  -0.000007  -0.003144  -0.031529  -0.030270
    12  C   -0.000000   0.000001   0.000006   0.000052  -0.004877   0.325225
    13  C    0.000000   0.000000   0.000000  -0.000025   0.000690  -0.050937
    14  C   -0.000000  -0.000000  -0.000008   0.000069  -0.000557   0.030972
    15  C   -0.000000  -0.000152  -0.000438   0.004594  -0.007111  -0.009808
    16  N   -0.000001  -0.000062   0.000015  -0.005046   0.007408   0.000690
    17  C    0.000639  -0.005167   0.003425   0.006747  -0.002054   0.000194
    18  H   -0.000000   0.000000   0.000000  -0.000000  -0.000000   0.000000
    19  H    0.000001  -0.000000  -0.000000  -0.000000   0.000000   0.000000
    20  H    0.000004  -0.000010  -0.000000  -0.000000   0.000000   0.000000
    21  H   -0.000186  -0.000001   0.000001   0.000000   0.000000  -0.000000
    22  H    0.001408   0.000011   0.000074   0.000000  -0.000000  -0.000000
    23  H    0.009998  -0.014859  -0.000870  -0.001609  -0.000002   0.000000
    24  H   -0.037278   0.001011   0.002722   0.000011   0.000001  -0.000000
    25  H    0.473416   0.001309  -0.002169  -0.000026  -0.000006   0.000000
    26  H    0.001309   0.542624   0.002746   0.001197  -0.000016   0.000000
    27  H   -0.002169   0.002746   0.528387   0.002579   0.003146   0.000009
    28  H   -0.000026   0.001197   0.002579   0.540332   0.004524  -0.000002
    29  H   -0.000006  -0.000016   0.003146   0.004524   0.554695   0.010288
    30  H    0.000000   0.000000   0.000009  -0.000002   0.010288   0.582335
    31  H   -0.000000   0.000000   0.000000  -0.000004   0.000012   0.004200
    32  H   -0.000000   0.000000   0.000000   0.000000  -0.000077  -0.016540
              31         32
     1  C    0.000000   0.000000
     2  C   -0.000000  -0.000000
     3  C   -0.000000   0.000000
     4  C    0.000000   0.000000
     5  C   -0.000000  -0.000000
     6  C    0.000000   0.000000
     7  C   -0.000000  -0.000000
     8  C    0.000000   0.000000
     9  C    0.000012  -0.000002
    10  C   -0.000097  -0.000504
    11  O    0.000083   0.003494
    12  C   -0.015291  -0.014882
    13  C    0.358951   0.136717
    14  C   -0.017411   0.080883
    15  C   -0.001132   0.001665
    16  N    0.000054  -0.000070
    17  C    0.000001   0.000007
    18  H    0.000000   0.000000
    19  H    0.000000   0.000000
    20  H    0.000000   0.000000
    21  H   -0.000000  -0.000000
    22  H   -0.000000  -0.000000
    23  H    0.000000   0.000000
    24  H    0.000000  -0.000000
    25  H   -0.000000  -0.000000
    26  H    0.000000   0.000000
    27  H    0.000000   0.000000
    28  H   -0.000004   0.000000
    29  H    0.000012  -0.000077
    30  H    0.004200  -0.016540
    31  H    0.453392  -0.006950
    32  H   -0.006950   0.661506
 Mulliken charges:
               1
     1  C   -0.317914
     2  C   -0.115576
     3  C   -0.066926
     4  C   -0.258813
     5  C   -0.177470
     6  C   -0.319702
     7  C   -0.076467
     8  C   -0.010220
     9  C   -0.190534
    10  C   -0.001746
    11  O   -0.245458
    12  C   -0.035149
    13  C   -0.184082
    14  C   -0.226369
    15  C    0.024041
    16  N   -0.059293
    17  C   -0.083026
    18  H    0.091043
    19  H    0.122811
    20  H    0.139780
    21  H    0.120067
    22  H    0.113955
    23  H    0.037063
    24  H    0.188775
    25  H    0.259805
    26  H    0.241342
    27  H    0.166916
    28  H    0.174126
    29  H    0.153608
    30  H    0.156481
    31  H    0.224179
    32  H    0.154754
 Sum of Mulliken charges =  -0.00000
 Mulliken charges with hydrogens summed into heavy atoms:
               1
     1  C   -0.104060
     2  C    0.024204
     3  C   -0.066926
     4  C   -0.024791
     5  C   -0.140406
     6  C    0.128877
     7  C    0.164874
     8  C    0.156696
     9  C   -0.016409
    10  C    0.151862
    11  O   -0.245458
    12  C    0.121332
    13  C    0.040097
    14  C   -0.071616
    15  C    0.024041
    16  N   -0.059293
    17  C   -0.083026
 Electronic spatial extent (au):  <R**2>=           6946.8045
 Charge=             -0.0000 electrons
 Dipole moment (field-independent basis, Debye):
    X=              1.6467    Y=             -3.0193    Z=              1.6479  Tot=              3.8136
 Quadrupole moment (field-independent basis, Debye-Ang):
   XX=            -99.8072   YY=           -115.8805   ZZ=            -97.3014
   XY=              8.8366   XZ=             -6.1858   YZ=             -4.6425
 Traceless Quadrupole moment (field-independent basis, Debye-Ang):
   XX=              4.5225   YY=            -11.5508   ZZ=              7.0283
   XY=              8.8366   XZ=             -6.1858   YZ=             -4.6425
 Octapole moment (field-independent basis, Debye-Ang**2):
  XXX=             59.1192  YYY=            -15.2868  ZZZ=              0.5107  XYY=              1.5357
  XXY=            -36.6630  XXZ=             22.3432  XZZ=             15.0173  YZZ=             -2.2555
  YYZ=              2.7426  XYZ=             -3.4061
 Hexadecapole moment (field-independent basis, Debye-Ang**3):
 XXXX=          -8371.7793 YYYY=           -567.9422 ZZZZ=           -321.8507 XXXY=            235.0038
 XXXZ=           -213.9305 YYYX=              9.9191 YYYZ=              3.3004 ZZZX=            -34.7668
 ZZZY=             -8.5246 XXYY=          -1825.9046 XXZZ=          -1512.1455 YYZZ=           -154.2451
 XXYZ=            -99.4913 YYXZ=            -29.8887 ZZXY=              0.7186
 N-N= 1.043532416062D+03 E-N=-3.731230528604D+03  KE= 7.025487157264D+02
 PrsmSu:  requested number of processors reduced to:  13 ShMem   1 Linda.
 Calling FoFJK, ICntrl=      2127 FMM=F ISym2X=0 I1Cent= 0 IOpClX= 0 NMat=1 NMatS=1 NMatT=0.
 ***** Axes restored to original set *****
 -------------------------------------------------------------------
 Center     Atomic                   Forces (Hartrees/Bohr)
 Number     Number              X              Y              Z
 -------------------------------------------------------------------
      1        6           0.005204360   -0.005728630    0.001400045
      2        6          -0.134845451   -0.060446009   -0.065854632
      3        6          -0.165616887   -0.000112632    0.015334227
      4        6          -0.029460356    0.004421118   -0.019352908
      5        6           0.021870238   -0.023507455   -0.103066655
      6        6          -0.175041260   -0.053264619   -0.020149945
      7        6           0.025194999   -0.063454663   -0.100478809
      8        6           0.053457406    0.039960116    0.054161977
      9        6           0.033758363    0.020050320   -0.013954148
     10        6           0.093658941    0.024095153    0.028732023
     11        8          -0.002866971   -0.043018727    0.051718708
     12        6          -0.139274809    0.025577747   -0.008707667
     13        6           0.011741535    0.103700302   -0.062917494
     14        6           0.000550707   -0.005293747    0.006096345
     15        6           0.017673087    0.072407369    0.030475842
     16        7           0.019701404   -0.059756036   -0.032083935
     17        6           0.001972902    0.056825861    0.003272508
     18        1           0.075731669    0.025322673    0.023541358
     19        1           0.051094348    0.011566225    0.005493110
     20        1           0.050621271    0.015618348    0.028616667
     21        1           0.072236009    0.018113626   -0.025995872
     22        1           0.032412396   -0.000065734    0.034293635
     23        1           0.011982557    0.054178644   -0.053358132
     24        1           0.023641021    0.036592984   -0.009716450
     25        1           0.030457872   -0.007246915    0.046730319
     26        1          -0.042555289   -0.000241854    0.089208538
     27        1           0.028806163   -0.019582837    0.017616975
     28        1          -0.025068372   -0.011227600    0.072725249
     29        1           0.006521469   -0.041107431    0.013908777
     30        1           0.029658690   -0.057445740   -0.001205418
     31        1          -0.000735478   -0.018497123    0.033806835
     32        1           0.017517464   -0.038432735   -0.040291073
 -------------------------------------------------------------------
 Cartesian Forces:  Max     0.175041260 RMS     0.051056369

 GradGradGradGradGradGradGradGradGradGradGradGradGradGradGradGradGradGrad
 Berny optimization.
 FormGI is forming the generalized inverse of G from B-inverse, IUseBI=4.
 Internal  Forces:  Max     0.199169022 RMS     0.035855220
 Search for a local minimum.
 Step number   1 out of a maximum of  183
 All quantities printed in internal units (Hartrees-Bohrs-Radians)
 Mixed Optimization -- RFO/linear search
 Second derivative matrix not updated -- first step.
 ITU=  0
     Eigenvalues ---    0.00230   0.00231   0.00232   0.00236   0.00242
     Eigenvalues ---    0.00285   0.00333   0.00543   0.00603   0.01087
     Eigenvalues ---    0.01484   0.01561   0.02032   0.02045   0.02188
     Eigenvalues ---    0.02216   0.02748   0.02838   0.02929   0.02959
     Eigenvalues ---    0.03215   0.03243   0.03882   0.03928   0.04211
     Eigenvalues ---    0.04356   0.04578   0.06071   0.06930   0.07144
     Eigenvalues ---    0.08232   0.08366   0.08412   0.09711   0.09726
     Eigenvalues ---    0.10132   0.10493   0.10581   0.10601   0.11194
     Eigenvalues ---    0.11346   0.11887   0.12212   0.12582   0.12696
     Eigenvalues ---    0.13803   0.14555   0.14579   0.14799   0.15226
     Eigenvalues ---    0.15918   0.15920   0.15989   0.16013   0.16369
     Eigenvalues ---    0.16999   0.17618   0.18005   0.18831   0.18845
     Eigenvalues ---    0.19429   0.19504   0.19626   0.20562   0.20949
     Eigenvalues ---    0.21028   0.21097   0.21967   0.22004   0.23118
     Eigenvalues ---    0.23647   0.24973   0.25397   0.25596   0.26204
     Eigenvalues ---    0.26245   0.28676   0.29060   0.31925   0.32095
     Eigenvalues ---    0.32277   0.32704   0.36566   0.42959   0.45074
     Eigenvalues ---    0.47942   0.51722   0.55277   0.63773   0.67695
 RFO step:  Lambda=-3.67309372D-01 EMin= 2.30000000D-03
 Linear search not attempted -- first point.
 Maximum step size (   0.300) exceeded in Quadratic search.
    -- Step size scaled by   0.411
 Iteration  1 RMS(Cart)=  0.08560864 RMS(Int)=  0.00146049
 Iteration  2 RMS(Cart)=  0.00240223 RMS(Int)=  0.00024374
 Iteration  3 RMS(Cart)=  0.00000235 RMS(Int)=  0.00024374
 Iteration  4 RMS(Cart)=  0.00000000 RMS(Int)=  0.00024374
 Variable       Old X    -DE/DX   Delta X   Delta X   Delta X     New X
                                 (Linear)    (Quad)   (Total)
    R1        3.16676  -0.12756   0.00000  -0.09436  -0.09438   3.07238
    R2        2.52074  -0.07304   0.00000  -0.05582  -0.05582   2.46492
    R3        2.22770  -0.02963   0.00000  -0.01923  -0.01923   2.20847
    R4        3.80580  -0.04442   0.00000  -0.03937  -0.03921   3.76659
    R5        3.79406   0.02625   0.00000   0.02269   0.02242   3.81648
    R6        2.22940  -0.03398   0.00000  -0.02217  -0.02217   2.20723
    R7        3.13550  -0.07946   0.00000  -0.05850  -0.05841   3.07709
    R8        3.36889   0.02084   0.00000   0.01669   0.01669   3.38558
    R9        2.56181  -0.08279   0.00000  -0.06363  -0.06360   2.49821
   R10        2.03205   0.02483   0.00000   0.01391   0.01391   2.04596
   R11        2.95955   0.07553   0.00000   0.04962   0.04961   3.00915
   R12        2.69548   0.04457   0.00000   0.02613   0.02624   2.72172
   R13        2.76232  -0.03289   0.00000  -0.02946  -0.02968   2.73263
   R14        2.80964   0.09318   0.00000   0.05469   0.05461   2.86425
   R15        2.24909  -0.04359   0.00000  -0.02882  -0.02882   2.22028
   R16        2.17383  -0.03163   0.00000  -0.01986  -0.01986   2.15397
   R17        2.48074   0.19917   0.00000   0.08138   0.08138   2.56212
   R18        2.67843  -0.05539   0.00000  -0.04677  -0.04703   2.63139
   R19        2.65190   0.05647   0.00000   0.02835   0.02835   2.68024
   R20        2.10981  -0.02352   0.00000  -0.01407  -0.01407   2.09575
   R21        2.54082   0.04486   0.00000   0.01991   0.02003   2.56086
   R22        2.41843  -0.05791   0.00000  -0.04253  -0.04264   2.37579
   R23        2.66083  -0.04823   0.00000  -0.02379  -0.02352   2.63731
   R24        2.16579  -0.03464   0.00000  -0.02162  -0.02162   2.14417
   R25        2.81587  -0.04361   0.00000  -0.02532  -0.02518   2.79070
   R26        2.61196   0.08411   0.00000   0.04081   0.04103   2.65299
   R27        2.37483  -0.06220   0.00000  -0.04429  -0.04429   2.33055
   R28        2.98487  -0.00829   0.00000  -0.00689  -0.00706   2.97781
   R29        2.10671  -0.02314   0.00000  -0.01381  -0.01381   2.09290
   R30        3.19526  -0.03400   0.00000  -0.03068  -0.03045   3.16481
   R31        3.51312  -0.04530   0.00000  -0.03866  -0.03884   3.47428
   R32        2.98030  -0.02850   0.00000  -0.02546  -0.02571   2.95459
   R33        2.44192  -0.03075   0.00000  -0.01243  -0.01267   2.42926
   R34        2.56807  -0.01811   0.00000  -0.00832  -0.00846   2.55961
   R35        3.73622   0.04234   0.00000   0.04332   0.04341   3.77963
   R36        3.65662  -0.00679   0.00000  -0.00538  -0.00534   3.65128
   R37        2.67646   0.02257   0.00000   0.01913   0.01958   2.69604
    A1        2.36697  -0.04822   0.00000  -0.03690  -0.03688   2.33010
    A2        2.43188  -0.00390   0.00000  -0.00443  -0.00448   2.42740
    A3        1.48318   0.05192   0.00000   0.04111   0.04113   1.52431
    A4        2.53332  -0.01084   0.00000  -0.00844  -0.00855   2.52476
    A5        1.69511   0.01021   0.00000   0.00678   0.00678   1.70188
    A6        1.39546   0.03649   0.00000   0.03275   0.03278   1.42824
    A7        2.35390  -0.02561   0.00000  -0.02428  -0.02421   2.32969
    A8        2.61706   0.02351   0.00000   0.01878   0.01889   2.63594
    A9        1.60221  -0.00875   0.00000  -0.00670  -0.00706   1.59515
   A10        1.46957  -0.01263   0.00000  -0.00844  -0.00838   1.46119
   A11        2.61159  -0.02289   0.00000  -0.01925  -0.01940   2.59218
   A12        2.22577  -0.01321   0.00000  -0.01102  -0.01091   2.21486
   A13        1.44547   0.03621   0.00000   0.03041   0.03044   1.47591
   A14        1.41406   0.02100   0.00000   0.02025   0.02031   1.43437
   A15        1.28540   0.02897   0.00000   0.02627   0.02620   1.31160
   A16        1.41714   0.01270   0.00000   0.00974   0.00985   1.42699
   A17        1.94784   0.02184   0.00000   0.01780   0.01787   1.96571
   A18        1.54328  -0.00569   0.00000  -0.00292  -0.00292   1.54036
   A19        1.28984   0.00077   0.00000   0.00290   0.00307   1.29291
   A20        2.53843  -0.00668   0.00000  -0.00351  -0.00345   2.53498
   A21        1.69356   0.00984   0.00000   0.00727   0.00733   1.70089
   A22        1.73394   0.01154   0.00000   0.00854   0.00836   1.74230
   A23        2.59720  -0.01453   0.00000  -0.01167  -0.01177   2.58543
   A24        1.94851   0.00085   0.00000   0.00100   0.00094   1.94945
   A25        1.97269   0.03603   0.00000   0.02712   0.02703   1.99972
   A26        1.39646  -0.01579   0.00000  -0.00938  -0.00937   1.38709
   A27        1.72227   0.03184   0.00000   0.02246   0.02232   1.74460
   A28        2.22013  -0.00947   0.00000  -0.00263  -0.00286   2.21727
   A29        2.30393  -0.01898   0.00000  -0.01634  -0.01603   2.28790
   A30        1.80226   0.10581   0.00000   0.07469   0.07470   1.87696
   A31        2.02488  -0.02038   0.00000  -0.01010  -0.00987   2.01501
   A32        2.39685  -0.07629   0.00000  -0.05576  -0.05622   2.34063
   A33        1.91770   0.03880   0.00000   0.02872   0.02899   1.94670
   A34        1.99830  -0.00931   0.00000  -0.00620  -0.00617   1.99213
   A35        2.12626  -0.01768   0.00000  -0.01008  -0.01054   2.11572
   A36        2.02677   0.02129   0.00000   0.01655   0.01645   2.04323
   A37        2.10173  -0.00664   0.00000  -0.00479  -0.00476   2.09697
   A38        2.05027  -0.01543   0.00000  -0.01201  -0.01189   2.03838
   A39        2.17031  -0.06641   0.00000  -0.04690  -0.04667   2.12364
   A40        2.01527  -0.01646   0.00000  -0.00563  -0.00535   2.00992
   A41        1.82394   0.01314   0.00000   0.00936   0.00915   1.83308
   A42        1.97891   0.01389   0.00000   0.01104   0.01108   1.98999
   A43        1.35986   0.05242   0.00000   0.03921   0.03930   1.39916
   A44        2.55108  -0.00823   0.00000  -0.00486  -0.00514   2.54594
   A45        1.49058   0.04712   0.00000   0.03670   0.03668   1.52726
   A46        1.71227  -0.01636   0.00000  -0.00669  -0.00660   1.70567
   A47        2.11444  -0.02177   0.00000  -0.01516  -0.01533   2.09911
   A48        2.10449   0.00492   0.00000   0.00199   0.00164   2.10613
   A49        2.76109   0.00935   0.00000   0.00937   0.00943   2.77052
   A50        2.35054   0.04994   0.00000   0.03454   0.03465   2.38520
   A51        1.90554   0.03655   0.00000   0.02352   0.02307   1.92862
   A52        2.06582   0.01559   0.00000   0.01487   0.01477   2.08059
   A53        1.41464   0.01466   0.00000   0.01226   0.01229   1.42693
   A54        2.40093  -0.00865   0.00000  -0.00654  -0.00657   2.39436
   A55        1.37624  -0.01514   0.00000  -0.01195  -0.01190   1.36434
   A56        1.31455   0.04215   0.00000   0.03376   0.03380   1.34834
   A57        1.42265   0.09061   0.00000   0.06291   0.06275   1.48539
   A58        3.09056   0.04670   0.00000   0.03953   0.03956   3.13013
   A59        2.91503   0.02358   0.00000   0.02197   0.02206   2.93709
   A60        3.28635   0.00075   0.00000   0.00115   0.00110   3.28744
   A61        3.01716  -0.00472   0.00000  -0.00734  -0.00726   3.00990
    D1        2.96757  -0.00146   0.00000  -0.00254  -0.00245   2.96512
    D2       -3.13500  -0.00210   0.00000  -0.00209  -0.00211  -3.13711
    D3       -0.13816  -0.00285   0.00000  -0.00324  -0.00320  -0.14137
    D4       -0.10300   0.00301   0.00000   0.00276   0.00283  -0.10017
    D5        0.07762   0.00238   0.00000   0.00322   0.00317   0.08078
    D6        3.07446   0.00162   0.00000   0.00207   0.00207   3.07652
    D7       -0.11714  -0.00227   0.00000  -0.00298  -0.00294  -0.12008
    D8        3.07430   0.00310   0.00000   0.00244   0.00258   3.07688
    D9        1.00507   0.00922   0.00000   0.01160   0.01161   1.01667
   D10       -2.18636   0.01210   0.00000   0.01348   0.01354  -2.17281
   D11        0.04948   0.00099   0.00000   0.00032   0.00034   0.04982
   D12       -2.95984  -0.01216   0.00000  -0.01007  -0.01020  -2.97004
   D13        0.22425  -0.01975   0.00000  -0.01901  -0.01912   0.20513
   D14        2.74949  -0.01858   0.00000  -0.01590  -0.01586   2.73363
   D15        1.92058   0.00125   0.00000  -0.00165  -0.00184   1.91874
   D16        0.18519  -0.00974   0.00000  -0.01035  -0.01040   0.17479
   D17       -1.78835  -0.01236   0.00000  -0.01191  -0.01186  -1.80020
   D18       -2.85137  -0.00235   0.00000   0.00013   0.00024  -2.85112
   D19        2.60291   0.01748   0.00000   0.01438   0.01427   2.61718
   D20        0.86752   0.00649   0.00000   0.00568   0.00571   0.87323
   D21       -1.10602   0.00386   0.00000   0.00412   0.00425  -1.10177
   D22       -0.14629   0.00109   0.00000   0.00066   0.00067  -0.14562
[...]
    30  H   10.485685  10.133560   8.473809   6.831508   8.097194
    31  H   10.886450  10.975062   9.715074   7.735587   9.275104
    32  H   11.524063  11.526847   9.864000   8.427957   9.787428
                   26         27         28         29         30
    26  H    0.000000
    27  H    3.081060   0.000000
    28  H    2.425094   3.086631   0.000000
    29  H    4.753552   2.682951   3.115490   0.000000
    30  H    6.690347   5.179969   4.477508   2.523497   0.000000
    31  H    7.563487   6.955449   5.147154   4.646717   2.701295
    32  H    7.772103   7.147716   5.389834   4.750286   2.586159
                   31         32
    31  H    0.000000
    32  H    1.743661   0.000000
 Stoichiometry    C15H15NO
 Framework group  C1[X(C15H15NO)]
 Deg. of freedom    90
 Full point group                 C1      NOp   1
 Largest Abelian subgroup         C1      NOp   1
 Largest concise Abelian subgroup C1      NOp   1
                         Standard orientation:                         
 ---------------------------------------------------------------------
 Center     Atomic      Atomic             Coordinates (Angstroms)
 Number     Number       Type             X           Y           Z
 ---------------------------------------------------------------------
      1          6           0       -2.804438    2.834433   -0.325973
      2          6           0       -2.820247    1.588570   -0.804931
      3          6           0       -3.851031    0.564160   -0.543817
      4          6           0       -5.155776    0.846163   -0.436515
      5          6           0       -3.445398   -1.788698    1.444790
      6          6           0       -3.361311   -0.858790   -0.475010
      7          6           0       -2.327387   -1.102953    0.794260
      8          6           0       -1.136676   -1.924690    0.436685
      9          6           0        0.102401   -1.412645    0.260778
     10          6           0        1.266001   -2.145519   -0.065127
     11          8           0        2.386898   -1.478367   -0.194536
     12          6           0        3.601087   -1.885508   -0.428414
     13          6           0        4.659138   -0.838457   -0.628004
     14          6           0        4.240190    0.483621   -0.189195
     15          6           0        3.835931    1.556242    0.169232
     16          7           0        3.385933    2.717892    0.561504
     17          6           0        2.979170    3.767930    0.916086
     18          1           0       -2.007222    3.521217   -0.569454
     19          1           0       -3.560340    3.186538    0.366454
     20          1           0       -1.994193    1.260118   -1.436732
     21          1           0       -5.545211    1.845538   -0.553340
     22          1           0       -5.886122    0.067239   -0.240690
     23          1           0       -4.097610   -0.964001    1.817073
     24          1           0       -2.759147   -1.131762   -1.343263
     25          1           0       -4.195104   -1.575135   -0.440213
     26          1           0       -2.028207   -0.102203    1.123637
     27          1           0       -1.312369   -2.993349    0.335106
     28          1           0        0.267657   -0.342168    0.380329
     29          1           0        1.309187   -3.223013   -0.187314
     30          1           0        3.785040   -2.939338   -0.584452
     31          1           0        4.960327   -0.772926   -1.690054
     32          1           0        5.576660   -1.138227   -0.100387
 ---------------------------------------------------------------------
 Rotational constants (GHZ):           0.5827901           0.1999641           0.1571339
 Standard basis: 6-31G(2df,p) (6D, 7F)
 There are   602 symmetry adapted cartesian basis functions of A   symmetry.
 There are   551 symmetry adapted basis functions of A   symmetry.
   551 basis functions,   853 primitive gaussians,   602 cartesian basis functions
    60 alpha electrons       60 beta electrons
       nuclear repulsion energy       991.1111191894 Hartrees.
 NAtoms=   32 NActive=   32 NUniq=   32 SFac= 1.00D+00 NAtFMM=   60 NAOKFM=F Big=F
 Integral buffers will be    131072 words long.
 Raffenetti 2 integral format.
 Two-electron integral symmetry is turned on.
 One-electron integrals computed using PRISM.
 PrsmSu:  requested number of processors reduced to:  12 ShMem   1 Linda.
 NBasis=   551 RedAO= T EigKep=  4.92D-05  NBF=   551
 NBsUse=   551 1.00D-06 EigRej= -1.00D+00 NBFU=   551
 Initial guess from the checkpoint file:  "CdCCqdCrC1CCdCCdCOCdCCdC2NdC21.chk"
 B after Tr=    -0.000000   -0.000000   -0.000000
         Rot=    1.000000    0.000014   -0.000052    0.000846 Ang=   0.10 deg.
 ExpMin= 1.61D-01 ExpMax= 5.48D+03 ExpMxC= 8.25D+02 IAcc=2 IRadAn=         4 AccDes= 0.00D+00
 Harris functional with IExCor=  402 and IRadAn=       4 diagonalized for initial guess.
 HarFok:  IExCor=  402 AccDes= 0.00D+00 IRadAn=         4 IDoV= 1 UseB2=F ITyADJ=14
 ICtDFT=  3500011 ScaDFX=  1.000000  1.000000  1.000000  1.000000
 FoFCou: FMM=F IPFlag=           0 FMFlag=      100000 FMFlg1=           0
         NFxFlg=           0 DoJE=T BraDBF=F KetDBF=T FulRan=T
         wScrn=  0.000000 ICntrl=       500 IOpCl=  0 I1Cent=   200000004 NGrid=           0
         NMat0=    1 NMatS0=      1 NMatT0=    0 NMatD0=    1 NMtDS0=    0 NMtDT0=    0
 Petite list used in FoFCou.
 Requested convergence on RMS density matrix=1.00D-08 within 128 cycles.
 Requested convergence on MAX density matrix=1.00D-06.
 Requested convergence on             energy=1.00D-06.
 No special actions if energy rises.
 Integral accuracy reduced to 1.0D-05 until final iterations.
 Initial convergence to 1.0D-05 achieved.  Increase integral accuracy.
 SCF Done:  E(RB3LYP) =  -710.221465721     A.U. after   10 cycles
            NFock= 10  Conv=0.89D-08     -V/T= 2.0078
 PrsmSu:  requested number of processors reduced to:  13 ShMem   1 Linda.
 Calling FoFJK, ICntrl=      2127 FMM=F ISym2X=0 I1Cent= 0 IOpClX= 0 NMat=1 NMatS=1 NMatT=0.
 ***** Axes restored to original set *****
 -------------------------------------------------------------------
 Center     Atomic                   Forces (Hartrees/Bohr)
 Number     Number              X              Y              Z
 -------------------------------------------------------------------
      1        6          -0.001453024    0.003567364    0.003485118
      2        6          -0.000199305   -0.000734438   -0.000111332
      3        6          -0.001675419   -0.002224262    0.000218248
      4        6           0.000662625    0.002256542    0.003306533
      5        6           0.000993514   -0.005086244   -0.003297999
      6        6           0.002391570    0.004365644   -0.004091843
      7        6          -0.000077573    0.000387327    0.004072457
      8        6          -0.000402257   -0.000034335   -0.000678120
      9        6           0.000693141   -0.000031209    0.000091533
     10        6          -0.000593304    0.000528842    0.000529335
     11        8           0.000247819   -0.000082772   -0.000495719
     12        6           0.001794099   -0.000635017   -0.002395585
     13        6          -0.001207332   -0.001075205    0.003192874
     14        6           0.001419291    0.001156964    0.004867150
     15        6          -0.001426614   -0.000449289   -0.006530171
     16        7           0.001679188    0.000127239    0.003083503
     17        6          -0.000888199   -0.000304440   -0.003353760
     18        1           0.002006458   -0.001809000   -0.001358885
     19        1          -0.001293989   -0.000776721   -0.000830220
     20        1          -0.000146047   -0.000085233   -0.000434609
     21        1           0.000865647   -0.001749262   -0.003634809
     22        1           0.000426774    0.000307502    0.000027676
     23        1           0.000007687    0.001067135    0.002621115
     24        1          -0.000320878    0.000916961    0.001736849
     25        1          -0.000943839    0.000328217    0.000148996
     26        1          -0.001086808   -0.000511851   -0.001242458
     27        1          -0.000206680   -0.000262759    0.000173639
     28        1          -0.001100561   -0.000090048   -0.000287657
     29        1          -0.000346105    0.000009112    0.000426174
     30        1          -0.000116336    0.000367640    0.001875412
     31        1           0.000094694   -0.000160909   -0.000217804
     32        1           0.000201764    0.000716503   -0.000895641
 -------------------------------------------------------------------
 Cartesian Forces:  Max     0.006530171 RMS     0.001829149

 GradGradGradGradGradGradGradGradGradGradGradGradGradGradGradGradGradGrad
 Berny optimization.
 Using GEDIIS/GDIIS optimizer.
 FormGI is forming the generalized inverse of G from B-inverse, IUseBI=4.
 Internal  Forces:  Max     0.006338253 RMS     0.000874711
 Search for a local minimum.
 Step number  37 out of a maximum of  183
 All quantities printed in internal units (Hartrees-Bohrs-Radians)
 Mixed Optimization -- En-DIIS/RFO-DIIS
 Swapping is turned off.
 Update second derivatives using D2CorX and points   36   37
 DE= -1.22D-04 DEPred=-2.26D-01 R= 5.40D-04
 Trust test= 5.40D-04 RLast= 4.16D+00 DXMaxT set to 1.50D+00
 ITU= -1  1  1  1  1  1  1  1  1  1  1  1  1  1  0  0  0  1  1  1
 ITU=  1  1  1  0  0  1  1  1  1  1  1  0  1  0  0  1  0
     Eigenvalues ---    0.00000   0.00001   0.00115   0.00200   0.00457
     Eigenvalues ---    0.00581   0.00809   0.01156   0.01265   0.01389
     Eigenvalues ---    0.01689   0.01861   0.01961   0.01998   0.02114
     Eigenvalues ---    0.02134   0.02172   0.02264   0.02332   0.02497
     Eigenvalues ---    0.02709   0.02838   0.02927   0.03720   0.04235
     Eigenvalues ---    0.04429   0.04895   0.05601   0.06086   0.06425
     Eigenvalues ---    0.07586   0.08561   0.09720   0.09788   0.09953
     Eigenvalues ---    0.10186   0.10379   0.11105   0.12074   0.12347
     Eigenvalues ---    0.13291   0.13855   0.14537   0.14887   0.15600
     Eigenvalues ---    0.15823   0.15954   0.15972   0.16079   0.16567
     Eigenvalues ---    0.17227   0.17417   0.17737   0.18132   0.18945
     Eigenvalues ---    0.19884   0.20038   0.20861   0.21021   0.21589
     Eigenvalues ---    0.21973   0.22845   0.23454   0.24843   0.25046
     Eigenvalues ---    0.25682   0.25984   0.26642   0.27566   0.28606
     Eigenvalues ---    0.29055   0.30263   0.30444   0.31287   0.32107
     Eigenvalues ---    0.32351   0.34666   0.36076   0.39823   0.44127
     Eigenvalues ---    0.45660   0.46706   0.49462   0.52897   0.55051
     Eigenvalues ---    0.59423   0.67347   0.72543   0.75641   1.21537
 Eigenvalue     1 is   3.62D-08 Eigenvector:
                          D72       D71       D70       D69       R35
   1                    0.72162  -0.69087  -0.03054  -0.02992   0.00518
                          D73       D56       D55       D37       D35
   1                   -0.00391   0.00375   0.00351   0.00242   0.00241
 Eigenvalue     2 is   6.30D-06 Eigenvector:
                          D70       D69       D71       D72       R35
   1                   -0.63521  -0.62542   0.35153   0.28337   0.01503
                          D14       D67       D16       D15       D60
   1                    0.01027  -0.01018   0.00983   0.00931   0.00858
 En-DIIS/RFO-DIIS/Sim-DIIS IScMMF=       -3 using points:    37   36
 RFO step:  Lambda=-1.44429624D-03.
 DidBck=F Rises=F En-DIIS coefs:    1.00000    0.00000
 SLEqS3 Cycle:   103 Max:0.309520E-01 RMS: 3860.83     Conv:0.300444E-01
 Iteration  1 RMS(Cart)=  0.12165304 RMS(Int)=  0.00785146
 SLEqS3 Cycle:    27 Max:0.332811E-01 RMS: 2698.31     Conv:0.210643E-01
 Iteration  2 RMS(Cart)=  0.00675172 RMS(Int)=  0.00552093
 New curvilinear step failed, DQL= 5.43D+00 SP=-6.27D-02.
 ITry= 1 IFail=1 DXMaxC= 5.30D-01 DCOld= 1.00D+10 DXMaxT= 1.50D+00 DXLimC= 3.00D+00 Rises=F
 Iteration  1 RMS(Cart)=  0.11094187 RMS(Int)=  0.00682541
 SLEqS3 Cycle:    45 Max:0.281447E-01 RMS: 1465.92     Conv:0.114417E-01
 Iteration  2 RMS(Cart)=  0.00573569 RMS(Int)=  0.00498092
 SLEqS3 Cycle:   113 Max:0.522670E-02 RMS: 283.486     Conv:0.221292E-02
 New curvilinear step failed, DQL= 5.41D+00 SP=-2.17D-02.
 ITry= 2 IFail=1 DXMaxC= 4.79D-01 DCOld= 1.00D+10 DXMaxT= 1.50D+00 DXLimC= 3.00D+00 Rises=F
 Iteration  1 RMS(Cart)=  0.09874185 RMS(Int)=  0.00583118
 SLEqS3 Cycle:    45 Max:0.251424E-01 RMS: 1215.36     Conv:0.948315E-02
 Iteration  2 RMS(Cart)=  0.00470596 RMS(Int)=  0.00442814
 New curvilinear step failed, DQL= 5.42D+00 SP=-8.46D-02.
 ITry= 3 IFail=1 DXMaxC= 4.27D-01 DCOld= 1.00D+10 DXMaxT= 1.50D+00 DXLimC= 3.00D+00 Rises=F
 Iteration  1 RMS(Cart)=  0.08648867 RMS(Int)=  0.00491198
 SLEqS3 Cycle:    45 Max:0.220751E-01 RMS: 979.031     Conv:0.763670E-02
 Iteration  2 RMS(Cart)=  0.00382280 RMS(Int)=  0.00387356
 New curvilinear step failed, DQL= 5.42D+00 SP=-7.92D-02.
 ITry= 4 IFail=1 DXMaxC= 3.75D-01 DCOld= 1.00D+10 DXMaxT= 1.50D+00 DXLimC= 3.00D+00 Rises=F
 Iteration  1 RMS(Cart)=  0.07415320 RMS(Int)=  0.00406270
 SLEqS3 Cycle:    45 Max:0.190543E-01 RMS: 752.811     Conv:0.587025E-02
 Iteration  2 RMS(Cart)=  0.00296549 RMS(Int)=  0.00332545
 New curvilinear step failed, DQL= 5.42D+00 SP=-7.92D-02.
 ITry= 5 IFail=1 DXMaxC= 3.22D-01 DCOld= 1.00D+10 DXMaxT= 1.50D+00 DXLimC= 3.00D+00 Rises=F
 Iteration  1 RMS(Cart)=  0.06179433 RMS(Int)=  0.00327815
 SLEqS3 Cycle:    45 Max:0.155859E-01 RMS: 548.415     Conv:0.427502E-02
 Iteration  2 RMS(Cart)=  0.00217479 RMS(Int)=  0.00278280
 New curvilinear step failed, DQL= 5.42D+00 SP=-7.42D-02.
 ITry= 6 IFail=1 DXMaxC= 2.70D-01 DCOld= 1.00D+10 DXMaxT= 1.50D+00 DXLimC= 3.00D+00 Rises=F
 Iteration  1 RMS(Cart)=  0.04943547 RMS(Int)=  0.00255064
 SLEqS3 Cycle:    45 Max:0.133961E-01 RMS: 369.544     Conv:0.287973E-02
 Iteration  2 RMS(Cart)=  0.00150961 RMS(Int)=  0.00225287
 SLEqS3 Cycle:   961 Max:0.410718E-03 RMS:0.679947E-04 Conv:0.249683E-03
 SLEqS3 Cycle:    85 Max:0.124521E-01 RMS: 32.0411     Conv:0.249683E-03
 Iteration  3 RMS(Cart)=  0.00093387 RMS(Int)=  0.00215177
 SLEqS3 Cycle:   961 Max:0.132956E-01 RMS:0.203881E-02 Conv:0.261148E-05
 SLEqS3 Cycle:   961 Max:0.132766E-01 RMS:0.203705E-02 Conv:0.261148E-05
 Iteration  4 RMS(Cart)=  0.00172256 RMS(Int)=  0.00206069
 SLEqS3 Cycle:    29 Max:0.132318E-01 RMS:0.201288E-02 Conv:0.149100E-03
 Iteration  5 RMS(Cart)=  0.00095673 RMS(Int)=  0.00199441
 SLEqS3 Cycle:    29 Max:0.131935E-01 RMS:0.198835E-02 Conv:0.899770E-05
 Iteration  6 RMS(Cart)=  0.00088570 RMS(Int)=  0.00193252
 SLEqS3 Cycle:   961 Max:0.131610E-01 RMS:0.196582E-02 Conv:0.130120E-05
 SLEqS3 Cycle:   961 Max:0.131608E-01 RMS:0.196567E-02 Conv:0.130120E-05
 Iteration  7 RMS(Cart)=  0.00083610 RMS(Int)=  0.00187458
 SLEqS3 Cycle:   961 Max:0.131152E-01 RMS:0.194177E-02 Conv:0.571548E-06
 SLEqS3 Cycle:   961 Max:0.131149E-01 RMS:0.194160E-02 Conv:0.571548E-06
 Iteration  8 RMS(Cart)=  0.00084127 RMS(Int)=  0.00181646
 SLEqS3 Cycle:   961 Max:0.130823E-01 RMS:0.192061E-02 Conv:0.107207E-05
 SLEqS3 Cycle:   961 Max:0.130822E-01 RMS:0.192055E-02 Conv:0.107207E-05
 Iteration  9 RMS(Cart)=  0.00077563 RMS(Int)=  0.00176288
 SLEqS3 Cycle:   961 Max:0.130512E-01 RMS:0.190076E-02 Conv:0.853819E-06
 SLEqS3 Cycle:   961 Max:0.130511E-01 RMS:0.190070E-02 Conv:0.853819E-06
 Iteration 10 RMS(Cart)=  0.00073676 RMS(Int)=  0.00171197
 SLEqS3 Cycle:   961 Max:0.130134E-01 RMS:0.188106E-02 Conv:0.654764E-06
 SLEqS3 Cycle:   961 Max:0.130132E-01 RMS:0.188098E-02 Conv:0.654764E-06
 Iteration 11 RMS(Cart)=  0.00070201 RMS(Int)=  0.00166346
 SLEqS3 Cycle:   961 Max:0.129807E-01 RMS:0.186293E-02 Conv:0.693206E-06
 SLEqS3 Cycle:   961 Max:0.129806E-01 RMS:0.186288E-02 Conv:0.693206E-06
 Iteration 12 RMS(Cart)=  0.00066036 RMS(Int)=  0.00161785
 SLEqS3 Cycle:   961 Max:0.129452E-01 RMS:0.184537E-02 Conv:0.608653E-06
 SLEqS3 Cycle:   961 Max:0.129451E-01 RMS:0.184533E-02 Conv:0.608653E-06
 Iteration 13 RMS(Cart)=  0.00062623 RMS(Int)=  0.00157462
 SLEqS3 Cycle:   961 Max:0.129189E-01 RMS:0.182976E-02 Conv:0.649016E-06
 SLEqS3 Cycle:   961 Max:0.129189E-01 RMS:0.182974E-02 Conv:0.649016E-06
 Iteration 14 RMS(Cart)=  0.00058880 RMS(Int)=  0.00153402
 SLEqS3 Cycle:   961 Max:0.128934E-01 RMS:0.181488E-02 Conv:0.463453E-06
 SLEqS3 Cycle:   961 Max:0.128934E-01 RMS:0.181492E-02 Conv:0.463453E-06
 Iteration 15 RMS(Cart)=  0.00056447 RMS(Int)=  0.00149518
 SLEqS3 Cycle:   961 Max:0.128591E-01 RMS:0.179798E-02 Conv:0.311424E-06
 SLEqS3 Cycle:   961 Max:0.128642E-01 RMS:0.180004E-02 Conv:0.311424E-06
 Iteration 16 RMS(Cart)=  0.00055102 RMS(Int)=  0.00145737
 SLEqS3 Cycle:   961 Max:0.128370E-01 RMS:0.178542E-02 Conv:0.241583E-06
 SLEqS3 Cycle:   961 Max:0.128390E-01 RMS:0.178608E-02 Conv:0.241583E-06
 Iteration 17 RMS(Cart)=  0.00053621 RMS(Int)=  0.00142069
 SLEqS3 Cycle:   961 Max:0.127908E-01 RMS:0.176399E-02 Conv:0.879927E-07
 SLEqS3 Cycle:   961 Max:0.127928E-01 RMS:0.176446E-02 Conv:0.879927E-07
 Iteration 18 RMS(Cart)=  0.00088379 RMS(Int)=  0.00136096
 SLEqS3 Cycle:   961 Max:0.127823E-01 RMS:0.175769E-02 Conv:0.121509E-07
 SLEqS3 Cycle:   961 Max:0.127770E-01 RMS:0.175553E-02 Conv:0.121509E-07
 Iteration 19 RMS(Cart)=  0.00025381 RMS(Int)=  0.00134371
 SLEqS3 Cycle:   961 Max:0.127729E-01 RMS:0.175146E-02 Conv:0.145787E-07
 SLEqS3 Cycle:   961 Max:0.127698E-01 RMS:0.175024E-02 Conv:0.145787E-07
 Iteration 20 RMS(Cart)=  0.00022383 RMS(Int)=  0.00132854
 SLEqS3 Cycle:   961 Max:0.127583E-01 RMS:0.174344E-02 Conv:0.686861E-07
 SLEqS3 Cycle:   961 Max:0.127568E-01 RMS:0.174287E-02 Conv:0.686861E-07
 Iteration 21 RMS(Cart)=  0.00030820 RMS(Int)=  0.00130776
 SLEqS3 Cycle:   961 Max:0.127305E-01 RMS:0.173365E-02 Conv:0.224017E-06
 SLEqS3 Cycle:   961 Max:0.127257E-01 RMS:0.173253E-02 Conv:0.224017E-06
 Iteration 22 RMS(Cart)=  0.00037052 RMS(Int)=  0.00128259
 SLEqS3 Cycle:   961 Max:0.127077E-01 RMS:0.172352E-02 Conv:0.705328E-06
 SLEqS3 Cycle:   961 Max:0.127078E-01 RMS:0.172351E-02 Conv:0.705328E-06
 Iteration 23 RMS(Cart)=  0.00032744 RMS(Int)=  0.00126100
 SLEqS3 Cycle:   961 Max:0.126843E-01 RMS:0.171395E-02 Conv:0.200199E-06
 SLEqS3 Cycle:   961 Max:0.126845E-01 RMS:0.171400E-02 Conv:0.200199E-06
 Iteration 24 RMS(Cart)=  0.00036652 RMS(Int)=  0.00123690
 SLEqS3 Cycle:   961 Max:0.126686E-01 RMS:0.170694E-02 Conv:0.116929E-06
 SLEqS3 Cycle:   961 Max:0.126686E-01 RMS:0.170694E-02 Conv:0.116929E-06
 Iteration 25 RMS(Cart)=  0.00025798 RMS(Int)=  0.00121998
 SLEqS3 Cycle:   961 Max:0.126583E-01 RMS:0.170136E-02 Conv:0.744916E-07
 SLEqS3 Cycle:   961 Max:0.126590E-01 RMS:0.170166E-02 Conv:0.744916E-07
 Iteration 26 RMS(Cart)=  0.00022210 RMS(Int)=  0.00120548
 SLEqS3 Cycle:   961 Max:0.126474E-01 RMS:0.169672E-02 Conv:0.119298E-06
 SLEqS3 Cycle:   961 Max:0.126416E-01 RMS:0.169518E-02 Conv:0.119298E-06
 Iteration 27 RMS(Cart)=  0.00025350 RMS(Int)=  0.00118903
 SLEqS3 Cycle:   961 Max:0.126305E-01 RMS:0.169025E-02 Conv:0.274322E-06
 SLEqS3 Cycle:   961 Max:0.126271E-01 RMS:0.168899E-02 Conv:0.274322E-06
 Iteration 28 RMS(Cart)=  0.00024023 RMS(Int)=  0.00117366
 SLEqS3 Cycle:   961 Max:0.126132E-01 RMS:0.168333E-02 Conv:0.152893E-06
 SLEqS3 Cycle:   961 Max:0.126130E-01 RMS:0.168332E-02 Conv:0.152893E-06
 Iteration 29 RMS(Cart)=  0.00021739 RMS(Int)=  0.00115985
 SLEqS3 Cycle:   961 Max:0.125991E-01 RMS:0.167794E-02 Conv:0.166023E-06
 SLEqS3 Cycle:   961 Max:0.125971E-01 RMS:0.167752E-02 Conv:0.166023E-06
 Iteration 30 RMS(Cart)=  0.00021875 RMS(Int)=  0.00114602
 SLEqS3 Cycle:   961 Max:0.125936E-01 RMS:0.167375E-02 Conv:0.272535E-06
 SLEqS3 Cycle:   961 Max:0.125921E-01 RMS:0.167335E-02 Conv:0.272535E-06
 Iteration 31 RMS(Cart)=  0.00020618 RMS(Int)=  0.00113319
 SLEqS3 Cycle:   961 Max:0.125784E-01 RMS:0.166837E-02 Conv:0.258250E-06
slurmstepd: error: *** JOB 27449168 ON lewis4-r630-hpc4-node226 CANCELLED AT 2023-05-18T17:10:29 DUE TO TIME LIMIT ***
