### Starting Gaussian ###
 Entering Gaussian System, Link 0=g16
 Initial command:
 /cluster/software/gaussian/gaussian-16-A.03/avx2/g16/l1.exe "/local/scratch/yxie/Gau-22218.inp" -scrdir="/local/scratch/yxie/"
 Entering Link 1 = /cluster/software/gaussian/gaussian-16-A.03/avx2/g16/l1.exe PID=     22219.
  
 Copyright (c) 1988,1990,1992,1993,1995,1998,2003,2009,2016,
            Gaussian, Inc.  All Rights Reserved.
  
 This is part of the Gaussian(R) 16 program.  It is based on
 the Gaussian(R) 09 system (copyright 2009, Gaussian, Inc.),
 the Gaussian(R) 03 system (copyright 2003, Gaussian, Inc.),
 the Gaussian(R) 98 system (copyright 1998, Gaussian, Inc.),
 the Gaussian(R) 94 system (copyright 1995, Gaussian, Inc.),
 the Gaussian 92(TM) system (copyright 1992, Gaussian, Inc.),
 the Gaussian 90(TM) system (copyright 1990, Gaussian, Inc.),
 the Gaussian 88(TM) system (copyright 1988, Gaussian, Inc.),
 the Gaussian 86(TM) system (copyright 1986, Carnegie Mellon
 University), and the Gaussian 82(TM) system (copyright 1983,
 Carnegie Mellon University). Gaussian is a federally registered
 trademark of Gaussian, Inc.
  
 This software contains proprietary and confidential information,
 including trade secrets, belonging to Gaussian, Inc.
  
 This software is provided under written license and may be
 used, copied, transmitted, or stored only in accord with that
 written license.
  
 The following legend is applicable only to US Government
 contracts under FAR:
  
                    RESTRICTED RIGHTS LEGEND
  
 Use, reproduction and disclosure by the US Government is
 subject to restrictions as set forth in subparagraphs (a)
 and (c) of the Commercial Computer Software - Restricted
 Rights clause in FAR 52.227-19.
  
 Gaussian, Inc.
 340 Quinnipiac St., Bldg. 40, Wallingford CT 06492
  
  
 ---------------------------------------------------------------
 Warning -- This program may not be used in any manner that
 competes with the business of Gaussian, Inc. or will provide
 assistance to any competitor of Gaussian, Inc.  The licensee
 of this program is prohibited from giving any competitor of
 Gaussian, Inc. access to this program.  By using this program,
 the user acknowledges that Gaussian, Inc. is engaged in the
 business of creating and licensing software in the field of
 computational chemistry and represents and warrants to the
 licensee that it is not a competitor of Gaussian, Inc. and that
 it will not use this program in any manner prohibited above.
 ---------------------------------------------------------------
  

 Cite this work as:
 Gaussian 16, Revision A.03,
 M. J. Frisch, G. W. Trucks, H. B. Schlegel, G. E. Scuseria, 
 M. A. Robb, J. R. Cheeseman, G. Scalmani, V. Barone, 
 G. A. Petersson, H. Nakatsuji, X. Li, M. Caricato, A. V. Marenich, 
 J. Bloino, B. G. Janesko, R. Gomperts, B. Mennucci, H. P. Hratchian, 
 J. V. Ortiz, A. F. Izmaylov, J. L. Sonnenberg, D. Williams-Young, 
 F. Ding, F. Lipparini, F. Egidi, J. Goings, B. Peng, A. Petrone, 
 T. Henderson, D. Ranasinghe, V. G. Zakrzewski, J. Gao, N. Rega, 
 G. Zheng, W. Liang, M. Hada, M. Ehara, K. Toyota, R. Fukuda, 
 J. Hasegawa, M. Ishida, T. Nakajima, Y. Honda, O. Kitao, H. Nakai, 
 T. Vreven, K. Throssell, J. A. Montgomery, Jr., J. E. Peralta, 
 F. Ogliaro, M. J. Bearpark, J. J. Heyd, E. N. Brothers, K. N. Kudin, 
 V. N. Staroverov, T. A. Keith, R. Kobayashi, J. Normand, 
 K. Raghavachari, A. P. Rendell, J. C. Burant, S. S. Iyengar, 
 J. Tomasi, M. Cossi, J. M. Millam, M. Klene, C. Adamo, R. Cammi, 
 J. W. Ochterski, R. L. Martin, K. Morokuma, O. Farkas, 
 J. B. Foresman, and D. J. Fox, Gaussian, Inc., Wallingford CT, 2016.
 
 ******************************************
 Gaussian 16:  ES64L-G16RevA.03 25-Dec-2016
                16-May-2023 
 ******************************************
 %chk=CdCc1ccccc2ccc3c-2c2cc-3c1-2.chk
 %NProcShared=20
 Will use up to   20 processors via shared memory.
 -----------------------------
 # opt freq b3lyp/6-31g(2df,p)
 -----------------------------
 1/18=20,19=15,26=3,38=1/1,3;
 2/9=110,12=2,17=6,18=5,40=1/2;
 3/5=1,6=6,7=104,11=2,25=1,30=1,71=1,74=-5/1,2,3;
 4//1;
 5/5=2,38=5/2;
 6/7=2,8=2,9=2,10=2,28=1/1;
 7//1,2,3,16;
 1/18=20,19=15,26=3/3(2);
 2/9=110/2;
 99//99;
 2/9=110/2;
 3/5=1,6=6,7=104,11=2,25=1,30=1,71=1,74=-5/1,2,3;
 4/5=5,16=3,69=1/1;
 5/5=2,38=5/2;
 7//1,2,3,16;
 1/18=20,19=15,26=3/3(-5);
 2/9=110/2;
 6/7=2,8=2,9=2,10=2,19=2,28=1/1;
 99/9=1/99;
 -------------------
 Title Card Required
 -------------------
 Symbolic Z-matrix:
 Charge =  0 Multiplicity = 1
 C                     2.29183   0.41943   0.43559 
 C                     3.79407   0.82197   0.35521 
 C                     5.43457   0.94045   1.2262 
 C                     5.03486  -0.48118   1.35004 
 C                     5.25344  -1.08298   2.50443 
 C                     6.64758  -1.26389   2.64552 
 C                     7.20311  -1.21955   3.84602 
 C                     8.5472   -0.87891   3.9714 
 C                     9.49134  -1.79719   4.18759 
 C                     10.62174  -1.22804   3.49282 
 C                     10.24237  -0.15322   2.5946 
 C                     9.09208   0.3664    3.44909 
 C                     8.35714   1.3804    2.69985 
 C                     9.24233   1.85907   1.49388 
 C                     9.00144   0.49771   1.26263 
 C                     7.26778   1.03939   1.43697 
 H                     1.55331   0.35492  -0.49754 
 H                     1.40781   0.06972   1.09795 
 H                     3.80839   0.66171  -0.74661 
 H                     5.3448   -0.77413   0.33928 
 H                     4.63043  -0.88185   3.37594 
 H                     7.2047   -1.12814   1.7029 
 H                     6.66949  -1.21045   4.76044 
 H                     9.34616  -2.79926   4.59535 
 H                     11.57286  -1.6714    3.96039 
 H                     10.22227   2.47434   1.60931 
 
 Add virtual bond connecting atoms C3         and C2         Dist= 3.52D+00.

 GradGradGradGradGradGradGradGradGradGradGradGradGradGradGradGradGradGrad
 Berny optimization.
 Initialization pass.
                           ----------------------------
                           !    Initial Parameters    !
                           ! (Angstroms and Degrees)  !
 --------------------------                            --------------------------
 ! Name  Definition              Value          Derivative Info.                !
 --------------------------------------------------------------------------------
 ! R1    R(1,2)                  1.5573         estimate D2E/DX2                !
 ! R2    R(1,17)                 1.1918         estimate D2E/DX2                !
 ! R3    R(1,18)                 1.1587         estimate D2E/DX2                !
 ! R4    R(2,3)                  1.8612         estimate D2E/DX2                !
 ! R5    R(2,19)                 1.1135         estimate D2E/DX2                !
 ! R6    R(3,4)                  1.4819         estimate D2E/DX2                !
 ! R7    R(4,5)                  1.3201         estimate D2E/DX2                !
 ! R8    R(4,20)                 1.097          estimate D2E/DX2                !
 ! R9    R(5,6)                  1.4129         estimate D2E/DX2                !
 ! R10   R(5,21)                 1.09           estimate D2E/DX2                !
 ! R11   R(6,7)                  1.3235         estimate D2E/DX2                !
 ! R12   R(6,22)                 1.1033         estimate D2E/DX2                !
 ! R13   R(7,8)                  1.3922         estimate D2E/DX2                !
 ! R14   R(7,23)                 1.0588         estimate D2E/DX2                !
 ! R15   R(8,9)                  1.3347         estimate D2E/DX2                !
 ! R16   R(8,12)                 1.4562         estimate D2E/DX2                !
 ! R17   R(9,10)                 1.4438         estimate D2E/DX2                !
 ! R18   R(9,24)                 1.0916         estimate D2E/DX2                !
 ! R19   R(10,11)                1.4512         estimate D2E/DX2                !
 ! R20   R(10,25)                1.1488         estimate D2E/DX2                !
 ! R21   R(11,12)                1.5242         estimate D2E/DX2                !
 ! R22   R(12,13)                1.4593         estimate D2E/DX2                !
 ! R23   R(13,14)                1.5707         estimate D2E/DX2                !
 ! R24   R(13,15)                1.8055         estimate D2E/DX2                !
 ! R25   R(13,16)                1.7023         estimate D2E/DX2                !
 ! R26   R(14,15)                1.4017         estimate D2E/DX2                !
 ! R27   R(14,26)                1.1628         estimate D2E/DX2                !
 ! R28   R(15,16)                1.8247         estimate D2E/DX2                !
 ! A1    A(2,1,17)             124.8444         estimate D2E/DX2                !
 ! A2    A(2,1,18)             147.5119         estimate D2E/DX2                !
 ! A3    A(17,1,18)             87.6194         estimate D2E/DX2                !
 ! A4    A(1,2,3)              147.4125         estimate D2E/DX2                !
 ! A5    A(1,2,19)              91.5057         estimate D2E/DX2                !
 ! A6    A(3,2,19)             117.4451         estimate D2E/DX2                !
 ! A7    A(2,3,4)               74.9475         estimate D2E/DX2                !
 ! A8    A(3,4,5)              117.759          estimate D2E/DX2                !
 ! A9    A(3,4,20)              95.9103         estimate D2E/DX2                !
 ! A10   A(5,4,20)             129.583          estimate D2E/DX2                !
 ! A11   A(4,5,6)              108.0041         estimate D2E/DX2                !
 ! A12   A(4,5,21)             121.3615         estimate D2E/DX2                !
 ! A13   A(6,5,21)             120.5149         estimate D2E/DX2                !
 ! A14   A(5,6,7)              120.0293         estimate D2E/DX2                !
 ! A15   A(5,6,22)             113.4016         estimate D2E/DX2                !
 ! A16   A(7,6,22)             123.9764         estimate D2E/DX2                !
 ! A17   A(6,7,8)              119.6758         estimate D2E/DX2                !
 ! A18   A(6,7,23)             124.8977         estimate D2E/DX2                !
 ! A19   A(8,7,23)             113.9969         estimate D2E/DX2                !
 ! A20   A(7,8,9)              121.9497         estimate D2E/DX2                !
 ! A21   A(7,8,12)             122.5596         estimate D2E/DX2                !
 ! A22   A(9,8,12)             112.4442         estimate D2E/DX2                !
 ! A23   A(8,9,10)             101.8109         estimate D2E/DX2                !
 ! A24   A(8,9,24)             126.7293         estimate D2E/DX2                !
 ! A25   A(10,9,24)            130.2255         estimate D2E/DX2                !
 ! A26   A(9,10,11)            112.6529         estimate D2E/DX2                !
 ! A27   A(9,10,25)            107.4707         estimate D2E/DX2                !
 ! A28   A(11,10,25)           138.9531         estimate D2E/DX2                !
 ! A29   A(10,11,12)            95.8997         estimate D2E/DX2                !
 ! A30   A(8,12,11)            101.065          estimate D2E/DX2                !
 ! A31   A(8,12,13)            126.1511         estimate D2E/DX2                !
 ! A32   A(11,12,13)           109.2147         estimate D2E/DX2                !
 ! A33   A(12,13,14)           108.7916         estimate D2E/DX2                !
 ! A34   A(12,13,15)            83.6429         estimate D2E/DX2                !
 ! A35   A(12,13,16)           124.3303         estimate D2E/DX2                !
 ! A36   A(14,13,16)            81.4943         estimate D2E/DX2                !
 ! A37   A(13,14,26)           124.0534         estimate D2E/DX2                !
 ! A38   A(15,14,26)           132.4607         estimate D2E/DX2                !
 ! A39   A(14,15,16)            81.9059         estimate D2E/DX2                !
 ! D1    D(17,1,2,3)          -169.5447         estimate D2E/DX2                !
 ! D2    D(17,1,2,19)          -15.7558         estimate D2E/DX2                !
 ! D3    D(18,1,2,3)             7.9392         estimate D2E/DX2                !
 ! D4    D(18,1,2,19)          161.728          estimate D2E/DX2                !
 ! D5    D(1,2,3,4)             55.6269         estimate D2E/DX2                !
 ! D6    D(19,2,3,4)           -94.5368         estimate D2E/DX2                !
 ! D7    D(2,3,4,5)           -139.2255         estimate D2E/DX2                !
 ! D8    D(2,3,4,20)            79.6603         estimate D2E/DX2                !
 ! D9    D(3,4,5,6)            -70.6446         estimate D2E/DX2                !
 ! D10   D(3,4,5,21)            74.7755         estimate D2E/DX2                !
 ! D11   D(20,4,5,6)            55.2386         estimate D2E/DX2                !
 ! D12   D(20,4,5,21)         -159.3412         estimate D2E/DX2                !
 ! D13   D(4,5,6,7)            147.2827         estimate D2E/DX2                !
 ! D14   D(4,5,6,22)           -15.1779         estimate D2E/DX2                !
 ! D15   D(21,5,6,7)             1.515          estimate D2E/DX2                !
 ! D16   D(21,5,6,22)         -160.9456         estimate D2E/DX2                !
 ! D17   D(5,6,7,8)           -155.1379         estimate D2E/DX2                !
 ! D18   D(5,6,7,23)            10.3729         estimate D2E/DX2                !
 ! D19   D(22,6,7,8)             5.3799         estimate D2E/DX2                !
 ! D20   D(22,6,7,23)          170.8906         estimate D2E/DX2                !
 ! D21   D(6,7,8,9)           -102.4385         estimate D2E/DX2                !
 ! D22   D(6,7,8,12)            56.3213         estimate D2E/DX2                !
 ! D23   D(23,7,8,9)            90.5421         estimate D2E/DX2                !
 ! D24   D(23,7,8,12)         -110.6982         estimate D2E/DX2                !
 ! D25   D(7,8,9,10)           147.526          estimate D2E/DX2                !
 ! D26   D(7,8,9,24)           -20.7751         estimate D2E/DX2                !
 ! D27   D(12,8,9,10)          -13.183          estimate D2E/DX2                !
 ! D28   D(12,8,9,24)          178.5158         estimate D2E/DX2                !
 ! D29   D(7,8,12,11)         -126.4452         estimate D2E/DX2                !
 ! D30   D(7,8,12,13)           -2.5155         estimate D2E/DX2                !
 ! D31   D(9,8,12,11)           34.1287         estimate D2E/DX2                !
 ! D32   D(9,8,12,13)          158.0583         estimate D2E/DX2                !
 ! D33   D(8,9,10,11)          -14.7397         estimate D2E/DX2                !
 ! D34   D(8,9,10,25)          156.4088         estimate D2E/DX2                !
 ! D35   D(24,9,10,11)         152.971          estimate D2E/DX2                !
 ! D36   D(24,9,10,25)         -35.8806         estimate D2E/DX2                !
 ! D37   D(9,10,11,12)          33.4593         estimate D2E/DX2                !
 ! D38   D(25,10,11,12)       -133.6251         estimate D2E/DX2                !
 ! D39   D(10,11,12,8)         -37.227          estimate D2E/DX2                !
 ! D40   D(10,11,12,13)       -172.033          estimate D2E/DX2                !
 ! D41   D(8,12,13,14)        -136.7587         estimate D2E/DX2                !
 ! D42   D(8,12,13,15)         -94.7373         estimate D2E/DX2                !
 ! D43   D(8,12,13,16)         -44.2837         estimate D2E/DX2                !
 ! D44   D(11,12,13,14)        -16.3389         estimate D2E/DX2                !
 ! D45   D(11,12,13,15)         25.6825         estimate D2E/DX2                !
 ! D46   D(11,12,13,16)         76.1361         estimate D2E/DX2                !
 ! D47   D(12,13,14,26)        -68.4502         estimate D2E/DX2                !
 ! D48   D(16,13,14,26)        168.083          estimate D2E/DX2                !
 ! D49   D(16,14,15,13)        -54.3784         estimate D2E/DX2                !
 ! D50   D(26,14,15,16)        176.7061         estimate D2E/DX2                !
 --------------------------------------------------------------------------------
 Trust Radius=3.00D-01 FncErr=1.00D-07 GrdErr=1.00D-06 EigMax=2.50D+02 EigMin=1.00D-04
 Number of steps in this run=    127 maximum allowed number of steps=    156.
 GradGradGradGradGradGradGradGradGradGradGradGradGradGradGradGradGradGrad

                          Input orientation:                          
 ---------------------------------------------------------------------
 Center     Atomic      Atomic             Coordinates (Angstroms)
 Number     Number       Type             X           Y           Z
 ---------------------------------------------------------------------
      1          6           0        2.291830    0.419430    0.435590
      2          6           0        3.794070    0.821970    0.355210
      3          6           0        5.434570    0.940450    1.226200
      4          6           0        5.034860   -0.481180    1.350040
      5          6           0        5.253440   -1.082980    2.504430
      6          6           0        6.647580   -1.263890    2.645520
      7          6           0        7.203110   -1.219550    3.846020
      8          6           0        8.547200   -0.878910    3.971400
      9          6           0        9.491340   -1.797190    4.187590
     10          6           0       10.621740   -1.228040    3.492820
     11          6           0       10.242370   -0.153220    2.594600
     12          6           0        9.092080    0.366400    3.449090
     13          6           0        8.357140    1.380400    2.699850
     14          6           0        9.242330    1.859070    1.493880
     15          6           0        9.001440    0.497710    1.262630
     16          6           0        7.267780    1.039390    1.436970
     17          1           0        1.553310    0.354920   -0.497540
     18          1           0        1.407810    0.069720    1.097950
     19          1           0        3.808390    0.661710   -0.746610
     20          1           0        5.344800   -0.774130    0.339280
     21          1           0        4.630430   -0.881850    3.375940
     22          1           0        7.204700   -1.128140    1.702900
     23          1           0        6.669490   -1.210450    4.760440
     24          1           0        9.346160   -2.799260    4.595350
     25          1           0       11.572860   -1.671400    3.960390
     26          1           0       10.222270    2.474340    1.609310
 ---------------------------------------------------------------------
                    Distance matrix (angstroms):
                    1          2          3          4          5
     1  C    0.000000
     2  C    1.557313   0.000000
     3  C    3.282277   1.861156   0.000000
     4  C    3.028454   2.056076   1.481937   0.000000
     5  C    3.912604   3.221450   2.400198   1.320059   0.000000
     6  C    5.166228   4.211752   2.888767   2.211734   1.412891
     7  C    6.199835   5.289150   3.828419   3.387686   2.370597
     8  C    7.301869   6.209836   4.531518   4.400710   3.611440
     9  C    8.415691   7.348879   5.720305   5.444611   4.615509
    10  C    9.024866   7.788724   6.061901   6.030135   5.460458
    11  C    8.258350   6.895392   5.116989   5.364201   5.075629
    12  C    7.438239   6.152117   4.318351   4.646013   4.210492
    13  C    6.545099   5.160503   3.302517   4.040422   3.967289
    14  C    7.176489   5.661774   3.926137   4.816665   5.058469
    15  C    6.760842   5.295777   3.594427   4.086517   4.253017
    16  C    5.113432   3.644741   1.847937   2.702891   3.114722
    17  H    1.191765   2.442606   4.286992   4.029120   4.976981
    18  H    1.158667   2.609939   4.121822   3.677300   4.253913
    19  H    1.938105   1.113506   2.571796   2.684468   3.962496
    20  H    3.279403   2.225433   1.932478   1.097050   2.188975
    21  H    3.975932   3.567536   2.930666   2.104369   1.090011
    22  H    5.304464   4.153504   2.763995   2.291566   2.109954
    23  H    6.365905   5.639576   4.317667   3.851581   2.666651
    24  H    8.799269   7.868786   6.374727   5.873060   4.905907
    25  H   10.145605   8.928818   7.209449   7.139748   6.511615
    26  H    8.275999   6.754617   5.041990   5.975913   6.176167
                    6          7          8          9         10
     6  C    0.000000
     7  C    1.323548   0.000000
     8  C    2.348345   1.392241   0.000000
     9  C    3.278622   2.384604   1.334682   0.000000
    10  C    4.063638   3.436838   2.157463   1.443759   0.000000
    11  C    3.762804   3.455461   2.301262   2.409212   1.451192
    12  C    3.046170   2.498199   1.456193   2.320757   2.209980
    13  C    3.149257   3.066795   2.599508   3.687392   3.544175
    14  C    4.220412   4.378228   3.757372   4.548221   3.927949
    15  C    3.249042   3.585649   3.072271   3.749928   3.252281
    16  C    2.674012   3.303107   3.426387   4.533907   4.540573
    17  H    6.200884   7.298336   8.390963   9.465429  10.033203
    18  H    5.623938   6.542141   7.754193   8.852948   9.608126
    19  H    4.824467   6.012945   6.862175   7.917603   8.244129
    20  H    2.693667   3.993612   4.843412   5.748907   6.164166
    21  H    2.179074   2.636987   3.961776   5.012491   6.002442
    22  H    1.103333   2.145069   2.647738   3.442388   3.858751
    23  H    2.115709   1.058771   2.063564   2.938581   4.150596
    24  H    3.666270   2.765799   2.171496   1.091554   2.304649
    25  H    5.114033   4.394538   3.127744   2.097658   1.148834
    26  H    5.275083   5.269063   4.430532   5.042594   4.173105
                   11         12         13         14         15
    11  C    0.000000
    12  C    1.524246   0.000000
    13  C    2.432521   1.459347   0.000000
    14  C    2.502194   2.464444   1.570685   0.000000
    15  C    1.933329   2.192274   1.805510   1.401715   0.000000
    16  C    3.407435   2.798145   1.702310   2.138682   1.824661
    17  H    9.236845   8.509352   7.587293   8.083888   7.654621
    18  H    8.963209   8.041386   7.251010   8.046008   7.607464
    19  H    7.295471   6.753406   5.752020   5.998431   5.570611
    20  H    5.427540   5.001383   4.391865   4.843303   3.980097
    21  H    5.712728   4.633552   4.411716   5.685456   5.047276
    22  H    3.312557   2.974060   2.935098   3.622023   2.462824
    23  H    4.309764   3.174120   3.715736   5.168353   4.537673
    24  H    3.436236   3.376370   4.694746   5.597315   4.700624
    25  H    2.437305   3.250896   4.609045   4.896862   4.312209
    26  H    2.806291   3.017537   2.421713   1.162826   2.348974
                   16         17         18         19         20
    16  C    0.000000
    17  H    6.071737   0.000000
    18  H    5.949323   1.627298   0.000000
    19  H    4.108290   2.289441   3.084743   0.000000
    20  H    2.862102   4.043565   4.097262   2.366717   0.000000
    21  H    3.795574   5.099227   4.059557   4.478141   3.121415
    22  H    2.184693   6.243365   5.950190   4.553964   2.333240
    23  H    4.057731   7.501469   6.537426   6.482166   4.635929
    24  H    5.387974   9.829287   9.136753   8.436928   6.182731
    25  H    5.678886  11.152152  10.702958   9.374766   7.259908
    26  H    3.289041   9.169603   9.150868   7.069218   5.996269
                   21         22         23         24         25
    21  H    0.000000
    22  H    3.080030   0.000000
    23  H    2.486480   3.105121   0.000000
    24  H    5.234647   3.967967   3.117071   0.000000
    25  H    7.011584   4.946940   4.989548   2.575546   0.000000
    26  H    6.756750   4.700250   6.010786   6.123305   4.953668
                   26
    26  H    0.000000
 Stoichiometry    C16H10
 Framework group  C1[X(C16H10)]
 Deg. of freedom    72
 Full point group                 C1      NOp   1
 Largest Abelian subgroup         C1      NOp   1
 Largest concise Abelian subgroup C1      NOp   1
                         Standard orientation:                         
 ---------------------------------------------------------------------
 Center     Atomic      Atomic             Coordinates (Angstroms)
 Number     Number       Type             X           Y           Z
 ---------------------------------------------------------------------
      1          6           0       -5.296328   -0.219174    0.066272
      2          6           0       -3.997964    0.628211   -0.080064
      3          6           0       -2.176510    0.779923    0.270921
      4          6           0       -2.325007   -0.511201   -0.441176
      5          6           0       -1.612804   -1.536041   -0.011029
      6          6           0       -0.259126   -1.293961   -0.335396
      7          6           0        0.701923   -1.737196    0.459405
      8          6           0        1.941058   -1.102480    0.462884
      9          6           0        2.999349   -1.615875   -0.167848
     10          6           0        3.702868   -0.425091   -0.582016
     11          6           0        2.883927    0.769225   -0.487655
     12          6           0        2.092144    0.320078    0.734913
     13          6           0        1.011222    1.268836    0.982218
     14          6           0        1.306175    2.590538    0.186507
     15          6           0        1.160866    1.593149   -0.787611
     16          6           0       -0.427370    1.342989    0.075127
     17          1           0       -6.320939    0.001393   -0.501027
     18          1           0       -5.812660   -1.142609    0.538689
     19          1           0       -4.385044    1.115621   -1.003371
     20          1           0       -2.390435   -0.078503   -1.447163
     21          1           0       -1.876395   -2.065660    0.904475
     22          1           0       -0.123499   -0.488253   -1.076871
     23          1           0        0.559700   -2.408450    1.265747
     24          1           0        3.141892   -2.657222   -0.462412
     25          1           0        4.806191   -0.709734   -0.728563
     26          1           0        2.174649    3.321819    0.437797
 ---------------------------------------------------------------------
 Rotational constants (GHZ):           1.2907029           0.3606650           0.2989755
 Standard basis: 6-31G(2df,p) (6D, 7F)
 There are   546 symmetry adapted cartesian basis functions of A   symmetry.
 There are   498 symmetry adapted basis functions of A   symmetry.
   498 basis functions,   774 primitive gaussians,   546 cartesian basis functions
    53 alpha electrons       53 beta electrons
       nuclear repulsion energy       916.3017571524 Hartrees.
 NAtoms=   26 NActive=   26 NUniq=   26 SFac= 1.00D+00 NAtFMM=   60 NAOKFM=F Big=F
 Integral buffers will be    131072 words long.
 Raffenetti 2 integral format.
 Two-electron integral symmetry is turned on.
 One-electron integrals computed using PRISM.
 PrsmSu:  requested number of processors reduced to:  12 ShMem   1 Linda.
 NBasis=   498 RedAO= T EigKep=  3.13D-04  NBF=   498
 NBsUse=   498 1.00D-06 EigRej= -1.00D+00 NBFU=   498
 ExpMin= 1.61D-01 ExpMax= 3.05D+03 ExpMxC= 4.57D+02 IAcc=3 IRadAn=         5 AccDes= 0.00D+00
 Harris functional with IExCor=  402 and IRadAn=       5 diagonalized for initial guess.
 HarFok:  IExCor=  402 AccDes= 0.00D+00 IRadAn=         5 IDoV= 1 UseB2=F ITyADJ=14
 ICtDFT=  3500011 ScaDFX=  1.000000  1.000000  1.000000  1.000000
 FoFCou: FMM=F IPFlag=           0 FMFlag=      100000 FMFlg1=           0
         NFxFlg=           0 DoJE=T BraDBF=F KetDBF=T FulRan=T
         wScrn=  0.000000 ICntrl=       500 IOpCl=  0 I1Cent=   200000004 NGrid=           0
         NMat0=    1 NMatS0=      1 NMatT0=    0 NMatD0=    1 NMtDS0=    0 NMtDT0=    0
 Petite list used in FoFCou.
 Requested convergence on RMS density matrix=1.00D-08 within 128 cycles.
 Requested convergence on MAX density matrix=1.00D-06.
 Requested convergence on             energy=1.00D-06.
 No special actions if energy rises.
 Integral accuracy reduced to 1.0D-05 until final iterations.
 EnCoef did     3 forward-backward iterations
 EnCoef did     2 forward-backward iterations
 EnCoef did     2 forward-backward iterations
 EnCoef did     7 forward-backward iterations
 EnCoef did     3 forward-backward iterations
 EnCoef did     3 forward-backward iterations
 Initial convergence to 1.0D-05 achieved.  Increase integral accuracy.
 SCF Done:  E(RB3LYP) =  -614.648800399     A.U. after   33 cycles
            NFock= 33  Conv=0.71D-08     -V/T= 2.0096

 **********************************************************************

            Population analysis using the SCF density.

 **********************************************************************

 Orbital symmetries:
       Occupied  (A) (A) (A) (A) (A) (A) (A) (A) (A) (A) (A) (A)
                 (A) (A) (A) (A) (A) (A) (A) (A) (A) (A) (A) (A)
                 (A) (A) (A) (A) (A) (A) (A) (A) (A) (A) (A) (A)
                 (A) (A) (A) (A) (A) (A) (A) (A) (A) (A) (A) (A)
                 (A) (A) (A) (A) (A)
       Virtual   (A) (A) (A) (A) (A) (A) (A) (A) (A) (A) (A) (A)
                 (A) (A) (A) (A) (A) (A) (A) (A) (A) (A) (A) (A)
                 (A) (A) (A) (A) (A) (A) (A) (A) (A) (A) (A) (A)
                 (A) (A) (A) (A) (A) (A) (A) (A) (A) (A) (A) (A)
                 (A) (A) (A) (A) (A) (A) (A) (A) (A) (A) (A) (A)
                 (A) (A) (A) (A) (A) (A) (A) (A) (A) (A) (A) (A)
                 (A) (A) (A) (A) (A) (A) (A) (A) (A) (A) (A) (A)
                 (A) (A) (A) (A) (A) (A) (A) (A) (A) (A) (A) (A)
                 (A) (A) (A) (A) (A) (A) (A) (A) (A) (A) (A) (A)
                 (A) (A) (A) (A) (A) (A) (A) (A) (A) (A) (A) (A)
                 (A) (A) (A) (A) (A) (A) (A) (A) (A) (A) (A) (A)
                 (A) (A) (A) (A) (A) (A) (A) (A) (A) (A) (A) (A)
                 (A) (A) (A) (A) (A) (A) (A) (A) (A) (A) (A) (A)
                 (A) (A) (A) (A) (A) (A) (A) (A) (A) (A) (A) (A)
                 (A) (A) (A) (A) (A) (A) (A) (A) (A) (A) (A) (A)
                 (A) (A) (A) (A) (A) (A) (A) (A) (A) (A) (A) (A)
                 (A) (A) (A) (A) (A) (A) (A) (A) (A) (A) (A) (A)
                 (A) (A) (A) (A) (A) (A) (A) (A) (A) (A) (A) (A)
                 (A) (A) (A) (A) (A) (A) (A) (A) (A) (A) (A) (A)
                 (A) (A) (A) (A) (A) (A) (A) (A) (A) (A) (A) (A)
                 (A) (A) (A) (A) (A) (A) (A) (A) (A) (A) (A) (A)
                 (A) (A) (A) (A) (A) (A) (A) (A) (A) (A) (A) (A)
                 (A) (A) (A) (A) (A) (A) (A) (A) (A) (A) (A) (A)
                 (A) (A) (A) (A) (A) (A) (A) (A) (A) (A) (A) (A)
                 (A) (A) (A) (A) (A) (A) (A) (A) (A) (A) (A) (A)
                 (A) (A) (A) (A) (A) (A) (A) (A) (A) (A) (A) (A)
                 (A) (A) (A) (A) (A) (A) (A) (A) (A) (A) (A) (A)
                 (A) (A) (A) (A) (A) (A) (A) (A) (A) (A) (A) (A)
                 (A) (A) (A) (A) (A) (A) (A) (A) (A) (A) (A) (A)
                 (A) (A) (A) (A) (A) (A) (A) (A) (A) (A) (A) (A)
                 (A) (A) (A) (A) (A) (A) (A) (A) (A) (A) (A) (A)
                 (A) (A) (A) (A) (A) (A) (A) (A) (A) (A) (A) (A)
                 (A) (A) (A) (A) (A) (A) (A) (A) (A) (A) (A) (A)
                 (A) (A) (A) (A) (A) (A) (A) (A) (A) (A) (A) (A)
                 (A) (A) (A) (A) (A) (A) (A) (A) (A) (A) (A) (A)
                 (A) (A) (A) (A) (A) (A) (A) (A) (A) (A) (A) (A)
                 (A) (A) (A) (A) (A) (A) (A) (A) (A) (A) (A) (A)
                 (A)
 The electronic state is 1-A.
 Alpha  occ. eigenvalues --  -10.29681 -10.27471 -10.26653 -10.25714 -10.24384
 Alpha  occ. eigenvalues --  -10.24047 -10.23871 -10.23537 -10.22673 -10.22261
 Alpha  occ. eigenvalues --  -10.21630 -10.21206 -10.21116 -10.20959 -10.20175
 Alpha  occ. eigenvalues --  -10.19450  -0.91955  -0.87998  -0.86670  -0.80587
 Alpha  occ. eigenvalues --   -0.74811  -0.71489  -0.70357  -0.66829  -0.63486
 Alpha  occ. eigenvalues --   -0.59422  -0.59081  -0.57349  -0.55168  -0.54140
 Alpha  occ. eigenvalues --   -0.51362  -0.50575  -0.49552  -0.46112  -0.45295
 Alpha  occ. eigenvalues --   -0.42715  -0.41774  -0.40449  -0.40104  -0.38729
 Alpha  occ. eigenvalues --   -0.38506  -0.37330  -0.34229  -0.33866  -0.32047
 Alpha  occ. eigenvalues --   -0.30218  -0.29400  -0.27608  -0.27038  -0.22071
 Alpha  occ. eigenvalues --   -0.20864  -0.17537  -0.16838
 Alpha virt. eigenvalues --   -0.13446  -0.12496  -0.08594  -0.06803  -0.04834
 Alpha virt. eigenvalues --   -0.01557  -0.00288   0.01013   0.04059   0.04610
 Alpha virt. eigenvalues --    0.07695   0.08439   0.09560   0.10552   0.12621
 Alpha virt. eigenvalues --    0.13178   0.13576   0.13963   0.15013   0.15478
 Alpha virt. eigenvalues --    0.16151   0.17045   0.18577   0.21532   0.24233
 Alpha virt. eigenvalues --    0.25319   0.27730   0.28239   0.28589   0.29136
 Alpha virt. eigenvalues --    0.30094   0.32762   0.33011   0.34666   0.36213
 Alpha virt. eigenvalues --    0.37311   0.39120   0.40636   0.42026   0.42666
 Alpha virt. eigenvalues --    0.43798   0.44998   0.45593   0.46809   0.47711
 Alpha virt. eigenvalues --    0.48315   0.49541   0.49980   0.50301   0.51333
 Alpha virt. eigenvalues --    0.52453   0.52600   0.53269   0.54275   0.55346
 Alpha virt. eigenvalues --    0.55797   0.56274   0.57288   0.57797   0.58058
 Alpha virt. eigenvalues --    0.59172   0.59620   0.60545   0.60955   0.61675
 Alpha virt. eigenvalues --    0.63216   0.63392   0.64288   0.65503   0.66106
 Alpha virt. eigenvalues --    0.66356   0.67702   0.68054   0.68667   0.69637
 Alpha virt. eigenvalues --    0.70391   0.71145   0.72130   0.72632   0.73177
 Alpha virt. eigenvalues --    0.74228   0.74367   0.75829   0.75990   0.76515
 Alpha virt. eigenvalues --    0.77549   0.78310   0.79145   0.79600   0.80096
 Alpha virt. eigenvalues --    0.80801   0.82346   0.83482   0.84506   0.85319
 Alpha virt. eigenvalues --    0.86705   0.87354   0.89338   0.90051   0.90772
 Alpha virt. eigenvalues --    0.91735   0.92358   0.93249   0.94937   0.95964
 Alpha virt. eigenvalues --    0.97081   0.98401   0.99959   1.02874   1.03452
 Alpha virt. eigenvalues --    1.03998   1.04555   1.06908   1.07607   1.08408
 Alpha virt. eigenvalues --    1.08908   1.10016   1.12289   1.13099   1.14353
 Alpha virt. eigenvalues --    1.16127   1.17991   1.20654   1.21864   1.23314
 Alpha virt. eigenvalues --    1.23798   1.25805   1.26786   1.27808   1.28847
 Alpha virt. eigenvalues --    1.30782   1.31447   1.33448   1.34286   1.35231
 Alpha virt. eigenvalues --    1.36818   1.37964   1.38705   1.40519   1.41476
 Alpha virt. eigenvalues --    1.42923   1.43416   1.44415   1.45134   1.46679
 Alpha virt. eigenvalues --    1.47780   1.49168   1.49905   1.51085   1.53568
 Alpha virt. eigenvalues --    1.53795   1.54714   1.55839   1.57008   1.57915
 Alpha virt. eigenvalues --    1.58684   1.59544   1.60994   1.62546   1.64077
 Alpha virt. eigenvalues --    1.65160   1.66273   1.68801   1.69290   1.70211
 Alpha virt. eigenvalues --    1.71689   1.72882   1.73288   1.76494   1.77739
 Alpha virt. eigenvalues --    1.78002   1.79896   1.81869   1.82849   1.84115
 Alpha virt. eigenvalues --    1.86521   1.87990   1.90356   1.91594   1.92568
 Alpha virt. eigenvalues --    1.95845   1.98676   1.99866   2.02221   2.02754
 Alpha virt. eigenvalues --    2.04295   2.08107   2.10801   2.11882   2.13267
 Alpha virt. eigenvalues --    2.15396   2.18880   2.20532   2.23053   2.24998
 Alpha virt. eigenvalues --    2.27201   2.27698   2.29726   2.32058   2.33458
 Alpha virt. eigenvalues --    2.35510   2.37489   2.39793   2.40728   2.42163
 Alpha virt. eigenvalues --    2.44416   2.46539   2.48291   2.53276   2.54052
 Alpha virt. eigenvalues --    2.54733   2.58201   2.58601   2.60513   2.63487
 Alpha virt. eigenvalues --    2.63729   2.65785   2.67670   2.68130   2.69631
 Alpha virt. eigenvalues --    2.70601   2.71800   2.72687   2.73151   2.74248
 Alpha virt. eigenvalues --    2.75626   2.76360   2.77525   2.79048   2.79807
 Alpha virt. eigenvalues --    2.81605   2.83105   2.83974   2.85638   2.85997
 Alpha virt. eigenvalues --    2.87229   2.89355   2.90955   2.91235   2.92293
 Alpha virt. eigenvalues --    2.93136   2.94042   2.96149   2.96564   2.97647
 Alpha virt. eigenvalues --    2.98241   2.99747   3.00532   3.01862   3.02164
 Alpha virt. eigenvalues --    3.03852   3.05130   3.06079   3.07553   3.09281
 Alpha virt. eigenvalues --    3.10349   3.11485   3.12916   3.13559   3.14020
 Alpha virt. eigenvalues --    3.14885   3.15711   3.17435   3.18664   3.20255
 Alpha virt. eigenvalues --    3.20549   3.21938   3.22937   3.25123   3.25773
 Alpha virt. eigenvalues --    3.27148   3.27987   3.29790   3.30165   3.31607
 Alpha virt. eigenvalues --    3.32981   3.34472   3.34783   3.36339   3.37590
 Alpha virt. eigenvalues --    3.38491   3.40085   3.40524   3.41235   3.42699
 Alpha virt. eigenvalues --    3.43780   3.45770   3.47178   3.48992   3.50641
 Alpha virt. eigenvalues --    3.51725   3.53815   3.55201   3.57300   3.59090
 Alpha virt. eigenvalues --    3.59759   3.60197   3.61537   3.64751   3.66711
 Alpha virt. eigenvalues --    3.66848   3.68493   3.69000   3.69993   3.70444
 Alpha virt. eigenvalues --    3.72216   3.74995   3.77342   3.78212   3.79517
 Alpha virt. eigenvalues --    3.81351   3.84777   3.86420   3.87929   3.90594
 Alpha virt. eigenvalues --    3.91646   3.92372   3.94282   3.97573   3.98969
 Alpha virt. eigenvalues --    4.01497   4.03596   4.05506   4.07011   4.08838
 Alpha virt. eigenvalues --    4.09481   4.12784   4.16022   4.18800   4.20039
 Alpha virt. eigenvalues --    4.21297   4.24341   4.25492   4.26740   4.27581
 Alpha virt. eigenvalues --    4.28156   4.30507   4.31387   4.33237   4.34927
 Alpha virt. eigenvalues --    4.35854   4.37785   4.38341   4.39346   4.40720
 Alpha virt. eigenvalues --    4.41642   4.42792   4.43700   4.44438   4.46257
 Alpha virt. eigenvalues --    4.46641   4.47713   4.49139   4.50200   4.51947
 Alpha virt. eigenvalues --    4.53134   4.53807   4.55776   4.56647   4.57216
 Alpha virt. eigenvalues --    4.58251   4.58435   4.59805   4.62153   4.62521
 Alpha virt. eigenvalues --    4.65085   4.65809   4.66364   4.67837   4.69108
 Alpha virt. eigenvalues --    4.70282   4.70493   4.72403   4.73600   4.75299
 Alpha virt. eigenvalues --    4.75412   4.78846   4.79365   4.81997   4.83628
 Alpha virt. eigenvalues --    4.84065   4.84295   4.85474   4.86794   4.89990
 Alpha virt. eigenvalues --    4.90057   4.91472   4.93628   4.95363   4.98583
 Alpha virt. eigenvalues --    4.98856   4.99954   5.02189   5.03146   5.05501
 Alpha virt. eigenvalues --    5.07110   5.09032   5.09998   5.12542   5.15457
 Alpha virt. eigenvalues --    5.16726   5.18176   5.20763   5.21773   5.23762
 Alpha virt. eigenvalues --    5.25552   5.28168   5.29839   5.32817   5.33978
 Alpha virt. eigenvalues --    5.34962   5.39607   5.41998   5.45241   5.47915
 Alpha virt. eigenvalues --    5.48378   5.52661   5.55895   5.60146   5.60768
 Alpha virt. eigenvalues --    5.64449   5.67117   5.73469   5.76471   5.88178
 Alpha virt. eigenvalues --    5.96004   6.27868   6.57950   6.97219   9.99540
 Alpha virt. eigenvalues --   10.14842  10.30064  10.59276  10.75547  11.06022
 Alpha virt. eigenvalues --   11.14645  11.34655  11.43213  11.53555  11.68660
 Alpha virt. eigenvalues --   11.95039  12.03014  12.27554  12.41360  12.76931
          Condensed to atoms (all electrons):
               1          2          3          4          5          6
     1  C    5.153227   0.528537  -0.011435  -0.016913  -0.000350  -0.000031
     2  C    0.528537   5.072508   0.217306   0.078317  -0.008547   0.002541
     3  C   -0.011435   0.217306   5.543081   0.329183  -0.062692  -0.004467
     4  C   -0.016913   0.078317   0.329183   4.809870   0.531513  -0.028941
     5  C   -0.000350  -0.008547  -0.062692   0.531513   5.033949   0.406609
     6  C   -0.000031   0.002541  -0.004467  -0.028941   0.406609   4.911738
     7  C   -0.000002   0.000025  -0.001451  -0.003562  -0.004926   0.552629
     8  C    0.000000   0.000003  -0.000341   0.000736   0.001126  -0.011903
     9  C   -0.000000   0.000000   0.000005  -0.000028   0.000325  -0.011947
    10  C   -0.000000   0.000000  -0.000002  -0.000000  -0.000012   0.000883
    11  C   -0.000000  -0.000000   0.000025  -0.000080  -0.000096   0.002829
    12  C    0.000000   0.000001  -0.000053   0.000423  -0.000397  -0.009129
    13  C    0.000000   0.000079  -0.008604   0.001823   0.001934  -0.001800
    14  C    0.000000  -0.000014  -0.000378   0.000100   0.000069   0.000160
    15  C    0.000000  -0.000054  -0.003295  -0.000431   0.001596  -0.015282
    16  C   -0.000002  -0.002288   0.232853  -0.035459  -0.031518   0.013761
    17  H    0.350375  -0.011865   0.000613   0.000820   0.000000   0.000000
    18  H    0.354675  -0.019771  -0.000419  -0.000323   0.000210   0.000002
    19  H   -0.046459   0.329889  -0.023722  -0.002105   0.000739  -0.000056
    20  H    0.005684  -0.026537  -0.062863   0.346493  -0.017121  -0.015453
    21  H    0.000711  -0.001583  -0.004791  -0.042628   0.368639  -0.053848
    22  H    0.000003  -0.000081  -0.002186  -0.003680  -0.047006   0.362329
    23  H    0.000000   0.000005  -0.000429   0.000764  -0.008180  -0.053254
    24  H    0.000000   0.000000   0.000000   0.000001   0.000006  -0.000006
    25  H   -0.000000   0.000000   0.000000  -0.000000   0.000000  -0.000013
    26  H   -0.000000   0.000000  -0.000052   0.000001   0.000002  -0.000014
               7          8          9         10         11         12
     1  C   -0.000002   0.000000  -0.000000  -0.000000  -0.000000   0.000000
     2  C    0.000025   0.000003   0.000000   0.000000  -0.000000   0.000001
     3  C   -0.001451  -0.000341   0.000005  -0.000002   0.000025  -0.000053
     4  C   -0.003562   0.000736  -0.000028  -0.000000  -0.000080   0.000423
     5  C   -0.004926   0.001126   0.000325  -0.000012  -0.000096  -0.000397
     6  C    0.552629  -0.011903  -0.011947   0.000883   0.002829  -0.009129
     7  C    4.995922   0.443193  -0.052056   0.007492   0.003990  -0.062927
     8  C    0.443193   4.478839   0.500369  -0.009712  -0.065404   0.516921
     9  C   -0.052056   0.500369   4.996520   0.470652  -0.037503  -0.020134
    10  C    0.007492  -0.009712   0.470652   5.001898   0.501905  -0.109692
    11  C    0.003990  -0.065404  -0.037503   0.501905   5.268765   0.404007
    12  C   -0.062927   0.516921  -0.020134  -0.109692   0.404007   4.916298
    13  C   -0.015388  -0.049985   0.004253   0.003031  -0.047446   0.474482
    14  C    0.000672   0.007444   0.000944   0.000259  -0.031106  -0.055772
    15  C   -0.002970  -0.001898  -0.001887  -0.007380   0.109288  -0.030011
    16  C    0.008081   0.000863   0.001031  -0.000222  -0.000510  -0.044426
    17  H    0.000000  -0.000000   0.000000   0.000000  -0.000000  -0.000000
    18  H   -0.000000  -0.000000   0.000000  -0.000000   0.000000  -0.000000
    19  H   -0.000001  -0.000000   0.000000   0.000000   0.000000  -0.000000
    20  H    0.000582  -0.000074   0.000003   0.000000  -0.000007  -0.000059
    21  H   -0.005040   0.000017   0.000002   0.000000  -0.000004   0.000011
    22  H   -0.033701  -0.009999   0.000674  -0.000000   0.001772  -0.001055
    23  H    0.358637  -0.038667   0.003598  -0.000329  -0.000177   0.004921
    24  H   -0.007110  -0.038108   0.371592  -0.042526   0.002872   0.005355
    25  H   -0.000376   0.002464  -0.051791   0.345805  -0.032045   0.005319
    26  H   -0.000028   0.000195   0.000014  -0.000096   0.007353  -0.000879
              13         14         15         16         17         18
     1  C    0.000000   0.000000   0.000000  -0.000002   0.350375   0.354675
     2  C    0.000079  -0.000014  -0.000054  -0.002288  -0.011865  -0.019771
     3  C   -0.008604  -0.000378  -0.003295   0.232853   0.000613  -0.000419
     4  C    0.001823   0.000100  -0.000431  -0.035459   0.000820  -0.000323
     5  C    0.001934   0.000069   0.001596  -0.031518   0.000000   0.000210
     6  C   -0.001800   0.000160  -0.015282   0.013761   0.000000   0.000002
     7  C   -0.015388   0.000672  -0.002970   0.008081   0.000000  -0.000000
     8  C   -0.049985   0.007444  -0.001898   0.000863  -0.000000  -0.000000
     9  C    0.004253   0.000944  -0.001887   0.001031   0.000000   0.000000
    10  C    0.003031   0.000259  -0.007380  -0.000222   0.000000  -0.000000
    11  C   -0.047446  -0.031106   0.109288  -0.000510  -0.000000   0.000000
    12  C    0.474482  -0.055772  -0.030011  -0.044426  -0.000000  -0.000000
    13  C    5.188259   0.288566   0.015871   0.210623  -0.000000  -0.000000
    14  C    0.288566   5.088972   0.465520   0.055107  -0.000000  -0.000000
    15  C    0.015871   0.465520   5.448566   0.080829  -0.000000   0.000000
    16  C    0.210623   0.055107   0.080829   5.568895   0.000000  -0.000000
    17  H   -0.000000  -0.000000  -0.000000   0.000000   0.610495  -0.078520
    18  H   -0.000000  -0.000000   0.000000  -0.000000  -0.078520   0.595459
    19  H   -0.000003   0.000001   0.000005  -0.000407  -0.008314   0.004890
    20  H    0.000174   0.000025   0.000978  -0.014213  -0.000182   0.000023
    21  H    0.000140   0.000001   0.000008  -0.001317  -0.000009   0.000010
    22  H   -0.006801  -0.000540   0.019414  -0.002292  -0.000000  -0.000000
    23  H    0.000413   0.000009  -0.000129  -0.000067   0.000000  -0.000000
    24  H   -0.000096   0.000009   0.000028   0.000002  -0.000000  -0.000000
    25  H   -0.000197  -0.000048   0.000228  -0.000003   0.000000   0.000000
    26  H   -0.024767   0.345653  -0.036070   0.001928   0.000000  -0.000000
              19         20         21         22         23         24
     1  C   -0.046459   0.005684   0.000711   0.000003   0.000000   0.000000
     2  C    0.329889  -0.026537  -0.001583  -0.000081   0.000005   0.000000
     3  C   -0.023722  -0.062863  -0.004791  -0.002186  -0.000429   0.000000
     4  C   -0.002105   0.346493  -0.042628  -0.003680   0.000764   0.000001
     5  C    0.000739  -0.017121   0.368639  -0.047006  -0.008180   0.000006
     6  C   -0.000056  -0.015453  -0.053848   0.362329  -0.053254  -0.000006
     7  C   -0.000001   0.000582  -0.005040  -0.033701   0.358637  -0.007110
     8  C   -0.000000  -0.000074   0.000017  -0.009999  -0.038667  -0.038108
     9  C    0.000000   0.000003   0.000002   0.000674   0.003598   0.371592
    10  C    0.000000   0.000000   0.000000  -0.000000  -0.000329  -0.042526
    11  C    0.000000  -0.000007  -0.000004   0.001772  -0.000177   0.002872
    12  C   -0.000000  -0.000059   0.000011  -0.001055   0.004921   0.005355
    13  C   -0.000003   0.000174   0.000140  -0.006801   0.000413  -0.000096
    14  C    0.000001   0.000025   0.000001  -0.000540   0.000009   0.000009
    15  C    0.000005   0.000978   0.000008   0.019414  -0.000129   0.000028
    16  C   -0.000407  -0.014213  -0.001317  -0.002292  -0.000067   0.000002
    17  H   -0.008314  -0.000182  -0.000009  -0.000000   0.000000  -0.000000
    18  H    0.004890   0.000023   0.000010  -0.000000  -0.000000  -0.000000
    19  H    0.579626   0.000551  -0.000005  -0.000002  -0.000000  -0.000000
    20  H    0.000551   0.623775   0.006025   0.004141  -0.000008  -0.000000
    21  H   -0.000005   0.006025   0.593856   0.004611   0.004354  -0.000000
    22  H   -0.000002   0.004141   0.004611   0.541237   0.004597   0.000075
    23  H   -0.000000  -0.000008   0.004354   0.004597   0.600205   0.001342
    24  H   -0.000000  -0.000000  -0.000000   0.000075   0.001342   0.586379
    25  H   -0.000000  -0.000000  -0.000000   0.000004   0.000017   0.000563
    26  H   -0.000000   0.000001   0.000000  -0.000013  -0.000000  -0.000000
              25         26
     1  C   -0.000000  -0.000000
     2  C    0.000000   0.000000
     3  C    0.000000  -0.000052
     4  C   -0.000000   0.000001
     5  C    0.000000   0.000002
     6  C   -0.000013  -0.000014
     7  C   -0.000376  -0.000028
     8  C    0.002464   0.000195
     9  C   -0.051791   0.000014
    10  C    0.345805  -0.000096
    11  C   -0.032045   0.007353
    12  C    0.005319  -0.000879
    13  C   -0.000197  -0.024767
    14  C   -0.000048   0.345653
    15  C    0.000228  -0.036070
    16  C   -0.000003   0.001928
    17  H    0.000000   0.000000
    18  H    0.000000  -0.000000
    19  H   -0.000000  -0.000000
    20  H   -0.000000   0.000001
    21  H   -0.000000   0.000000
    22  H    0.000004  -0.000013
    23  H    0.000017  -0.000000
    24  H    0.000563  -0.000000
    25  H    0.625610  -0.000016
    26  H   -0.000016   0.544524
 Mulliken charges:
               1
     1  C   -0.318022
     2  C   -0.158471
     3  C   -0.135889
     4  C    0.034105
     5  C   -0.165870
     6  C   -0.047338
     7  C   -0.181685
     8  C    0.273921
     9  C   -0.174636
    10  C   -0.161954
    11  C   -0.088427
    12  C    0.006794
    13  C   -0.034564
    14  C   -0.165653
    15  C   -0.042923
    16  C   -0.041249
    17  H    0.136585
    18  H    0.143765
    19  H    0.165374
    20  H    0.148063
    21  H    0.130839
    22  H    0.168498
    23  H    0.122375
    24  H    0.119620
    25  H    0.104479
    26  H    0.162265
 Sum of Mulliken charges =  -0.00000
 Mulliken charges with hydrogens summed into heavy atoms:
               1
     1  C   -0.037673
     2  C    0.006903
     3  C   -0.135889
     4  C    0.182168
     5  C   -0.035031
     6  C    0.121159
     7  C   -0.059310
     8  C    0.273921
     9  C   -0.055016
    10  C   -0.057474
    11  C   -0.088427
    12  C    0.006794
    13  C   -0.034564
    14  C   -0.003388
    15  C   -0.042923
    16  C   -0.041249
 Electronic spatial extent (au):  <R**2>=           3628.8701
 Charge=             -0.0000 electrons
 Dipole moment (field-independent basis, Debye):
    X=             -0.9112    Y=             -3.3638    Z=             -0.3538  Tot=              3.5030
 Quadrupole moment (field-independent basis, Debye-Ang):
   XX=            -82.2407   YY=            -89.6383   ZZ=            -96.3514
   XY=              2.0744   XZ=              5.2868   YZ=             -2.5912
 Traceless Quadrupole moment (field-independent basis, Debye-Ang):
   XX=              7.1694   YY=             -0.2282   ZZ=             -6.9413
   XY=              2.0744   XZ=              5.2868   YZ=             -2.5912
 Octapole moment (field-independent basis, Debye-Ang**2):
  XXX=            -57.0462  YYY=            -19.7435  ZZZ=             -0.5708  XYY=             18.8839
  XXY=            -28.2825  XXZ=            -17.3426  XZZ=             -5.4019  YZZ=            -10.5412
  YYZ=              7.6690  XYZ=             15.4294
 Hexadecapole moment (field-independent basis, Debye-Ang**3):
 XXXX=          -3362.9529 YYYY=          -1005.8231 ZZZZ=           -259.4358 XXXY=             54.7201
 XXXZ=             70.1113 YYYX=             22.8821 YYYZ=             -4.4436 ZZZX=             19.4830
 ZZZY=             -9.7035 XXYY=           -787.5973 XXZZ=           -732.9672 YYZZ=           -220.2235
 XXYZ=            -18.9152 YYXZ=              5.8315 ZZXY=             -4.9573
 N-N= 9.163017571524D+02 E-N=-3.255113967173D+03  KE= 6.088067492977D+02
 PrsmSu:  requested number of processors reduced to:  13 ShMem   1 Linda.
 Calling FoFJK, ICntrl=      2127 FMM=F ISym2X=0 I1Cent= 0 IOpClX= 0 NMat=1 NMatS=1 NMatT=0.
 ***** Axes restored to original set *****
 -------------------------------------------------------------------
 Center     Atomic                   Forces (Hartrees/Bohr)
 Number     Number              X              Y              Z
 -------------------------------------------------------------------
      1        6           0.010813769    0.005774916   -0.008010463
      2        6          -0.082573451   -0.044184802   -0.010591755
      3        6          -0.036225216    0.020527456    0.024067044
      4        6          -0.002664583    0.073308309   -0.118749385
      5        6           0.007282746   -0.035952761    0.070651164
      6        6          -0.035304148   -0.023590740   -0.039677152
      7        6           0.000196712    0.007855694    0.027122098
      8        6          -0.016599703    0.064498990    0.018898039
      9        6           0.061870413   -0.009507034   -0.018062432
     10        6           0.031012823   -0.066580900    0.029595579
     11        6          -0.023595666    0.012259708    0.053179999
     12        6          -0.026759962   -0.023708927   -0.039927623
     13        6           0.000764464   -0.005643069   -0.072690971
     14        6          -0.000522186    0.013640890    0.032690792
     15        6          -0.002328094    0.003277085   -0.004671667
     16        6           0.027607309    0.008042846    0.024159087
     17        1           0.055763142    0.014241530    0.012146132
     18        1           0.050729742    0.018201570    0.017379487
     19        1           0.029136369    0.011139622    0.010706475
     20        1           0.011394515   -0.034775793    0.008464944
     21        1           0.004662538    0.003685992    0.001578783
     22        1           0.002671124   -0.012135239    0.016306002
     23        1          -0.022272901   -0.015222447    0.015034508
     24        1           0.006196801    0.007248479   -0.000105456
     25        1          -0.009835408    0.023420640   -0.039075241
     26        1          -0.041421149   -0.015822016   -0.010417989
 -------------------------------------------------------------------
 Cartesian Forces:  Max     0.118749385 RMS     0.033215503

 GradGradGradGradGradGradGradGradGradGradGradGradGradGradGradGradGradGrad
 Berny optimization.
 FormGI is forming the generalized inverse of G from B-inverse, IUseBI=4.
 Internal  Forces:  Max     0.202529509 RMS     0.048643478
 Search for a local minimum.
 Step number   1 out of a maximum of  127
 All quantities printed in internal units (Hartrees-Bohrs-Radians)
 Mixed Optimization -- RFO/linear search
 Second derivative matrix not updated -- first step.
 ITU=  0
     Eigenvalues ---    0.00230   0.00230   0.00232   0.00512   0.01005
     Eigenvalues ---    0.01304   0.01508   0.01831   0.01918   0.02191
     Eigenvalues ---    0.02264   0.02364   0.02645   0.02773   0.02806
     Eigenvalues ---    0.03100   0.03146   0.03270   0.03449   0.03484
     Eigenvalues ---    0.04284   0.06964   0.10546   0.12054   0.13043
     Eigenvalues ---    0.14062   0.14192   0.14996   0.15270   0.15554
     Eigenvalues ---    0.15703   0.15746   0.15773   0.16000   0.16000
     Eigenvalues ---    0.16023   0.16446   0.18886   0.21838   0.22058
     Eigenvalues ---    0.22111   0.22321   0.22348   0.22364   0.22436
     Eigenvalues ---    0.22471   0.23362   0.25000   0.25276   0.25370
     Eigenvalues ---    0.27039   0.27591   0.27946   0.28500   0.28811
     Eigenvalues ---    0.32232   0.33316   0.34010   0.34014   0.34349
     Eigenvalues ---    0.34634   0.34811   0.36926   0.37046   0.38148
     Eigenvalues ---    0.38686   0.41280   0.43549   0.46931   0.55546
     Eigenvalues ---    0.61056   0.61917
 RFO step:  Lambda=-4.38895663D-01 EMin= 2.30000000D-03
 Linear search not attempted -- first point.
 Maximum step size (   0.300) exceeded in Quadratic search.
    -- Step size scaled by   0.425
 Iteration  1 RMS(Cart)=  0.29392827 RMS(Int)=  0.01912916
 Iteration  2 RMS(Cart)=  0.26187884 RMS(Int)=  0.00679246
 Iteration  3 RMS(Cart)=  0.01246600 RMS(Int)=  0.00031751
 Iteration  4 RMS(Cart)=  0.00001204 RMS(Int)=  0.00031734
 Iteration  5 RMS(Cart)=  0.00000000 RMS(Int)=  0.00031734
 Variable       Old X    -DE/DX   Delta X   Delta X   Delta X     New X
                                 (Linear)    (Quad)   (Total)
    R1        2.94290  -0.12193   0.00000  -0.07299  -0.07299   2.86990
    R2        2.25211  -0.04484   0.00000  -0.02753  -0.02753   2.22458
    R3        2.18956  -0.03426   0.00000  -0.02025  -0.02025   2.16931
    R4        3.51707  -0.06675   0.00000  -0.05066  -0.05066   3.46641
    R5        2.10422  -0.01182   0.00000  -0.00659  -0.00659   2.09763
    R6        2.80045   0.02829   0.00000   0.01535   0.01535   2.81581
    R7        2.49455   0.07974   0.00000   0.03200   0.03200   2.52655
    R8        2.07312   0.00471   0.00000   0.00257   0.00257   2.07569
    R9        2.66998  -0.04435   0.00000  -0.02154  -0.02154   2.64844
   R10        2.05982  -0.00072   0.00000  -0.00039  -0.00039   2.05943
   R11        2.50114   0.00781   0.00000   0.00316   0.00316   2.50430
   R12        2.08500  -0.01408   0.00000  -0.00774  -0.00774   2.07726
   R13        2.63095   0.00651   0.00000   0.00304   0.00304   2.63400
   R14        2.00079   0.02408   0.00000   0.01238   0.01238   2.01317
   R15        2.52218   0.07036   0.00000   0.03005   0.02992   2.55211
   R16        2.75181  -0.03764   0.00000  -0.01938  -0.01951   2.73230
   R17        2.72831   0.00300   0.00000   0.00168   0.00182   2.73013
   R18        2.06274  -0.00752   0.00000  -0.00407  -0.00407   2.05867
   R19        2.74236   0.01461   0.00000   0.00648   0.00675   2.74910
   R20        2.17098  -0.03308   0.00000  -0.01932  -0.01932   2.15166
   R21        2.88041  -0.03570   0.00000  -0.02083  -0.02099   2.85942
   R22        2.75777   0.02632   0.00000   0.01381   0.01381   2.77157
   R23        2.96816  -0.03217   0.00000  -0.01998  -0.02000   2.94816
   R24        3.41192   0.00002   0.00000  -0.00050  -0.00055   3.41137
   R25        3.21690  -0.02940   0.00000  -0.02054  -0.02059   3.19631
   R26        2.64886   0.00096   0.00000  -0.00002  -0.00001   2.64885
   R27        2.19742  -0.04431   0.00000  -0.02632  -0.02632   2.17110
   R28        3.44811  -0.01470   0.00000  -0.00907  -0.00897   3.43914
    A1        2.17895  -0.02471   0.00000  -0.01751  -0.01751   2.16143
    A2        2.57457  -0.03623   0.00000  -0.02568  -0.02568   2.54889
    A3        1.52925   0.06100   0.00000   0.04326   0.04326   1.57250
    A4        2.57283  -0.03631   0.00000  -0.02304  -0.02301   2.54982
    A5        1.59708   0.05065   0.00000   0.03507   0.03509   1.63217
    A6        2.04980  -0.01548   0.00000  -0.01190  -0.01186   2.03795
    A7        1.30808   0.01625   0.00000   0.01002   0.01002   1.31810
    A8        2.05528  -0.09396   0.00000  -0.06091  -0.06143   1.99385
    A9        1.67395   0.06657   0.00000   0.04290   0.04215   1.71610
   A10        2.26165  -0.01887   0.00000  -0.01745  -0.01762   2.24402
   A11        1.88503  -0.16676   0.00000  -0.10869  -0.10936   1.77567
   A12        2.11816   0.05471   0.00000   0.03122   0.03059   2.14875
   A13        2.10338   0.06348   0.00000   0.03794   0.03712   2.14050
   A14        2.09491   0.08125   0.00000   0.05112   0.05078   2.14569
   A15        1.97923  -0.04222   0.00000  -0.02854  -0.02894   1.95029
   A16        2.16380  -0.05586   0.00000  -0.03863  -0.03891   2.12489
   A17        2.08874  -0.20253   0.00000  -0.13113  -0.13180   1.95694
   A18        2.17988   0.08506   0.00000   0.05298   0.05226   2.23214
   A19        1.98962   0.10163   0.00000   0.06469   0.06404   2.05366
   A20        2.12842   0.12809   0.00000   0.07869   0.07824   2.20666
   A21        2.13907  -0.14963   0.00000  -0.09626  -0.09576   2.04331
   A22        1.96252   0.01183   0.00000   0.00885   0.00879   1.97131
   A23        1.77694  -0.00865   0.00000  -0.00263  -0.00277   1.77416
   A24        2.21184   0.01001   0.00000   0.00500   0.00509   2.21693
   A25        2.27286  -0.00379   0.00000  -0.00419  -0.00423   2.26863
   A26        1.96616  -0.02823   0.00000  -0.01715  -0.01703   1.94913
   A27        1.87572   0.04678   0.00000   0.03175   0.03172   1.90744
   A28        2.42519  -0.01789   0.00000  -0.01412  -0.01416   2.41103
   A29        1.67377   0.04070   0.00000   0.02488   0.02471   1.69847
   A30        1.76392  -0.00688   0.00000  -0.00479  -0.00480   1.75912
   A31        2.20175  -0.04210   0.00000  -0.02818  -0.02817   2.17358
   A32        1.90616   0.03573   0.00000   0.02223   0.02251   1.92867
   A33        1.89877   0.04833   0.00000   0.03235   0.03240   1.93117
   A34        1.45984   0.02196   0.00000   0.01442   0.01459   1.47444
   A35        2.16997  -0.00817   0.00000  -0.00667  -0.00675   2.16322
   A36        1.42234  -0.00968   0.00000  -0.00550  -0.00546   1.41689
   A37        2.16514  -0.00084   0.00000   0.00095   0.00097   2.16611
   A38        2.31188  -0.00810   0.00000  -0.00382  -0.00382   2.30806
   A39        1.42953  -0.02324   0.00000  -0.01447  -0.01443   1.41510
    D1       -2.95911  -0.00402   0.00000  -0.00415  -0.00412  -2.96323
    D2       -0.27499   0.00276   0.00000   0.00294   0.00291  -0.27208
    D3        0.13856   0.00067   0.00000   0.00036   0.00039   0.13896
    D4        2.82269   0.00745   0.00000   0.00745   0.00742   2.83011
    D5        0.97087   0.01608   0.00000   0.01526   0.01531   0.98618
    D6       -1.64998   0.00281   0.00000   0.00292   0.00287  -1.64711
    D7       -2.42994  -0.02402   0.00000  -0.02071  -0.02111  -2.45105
    D8        1.39033   0.01475   0.00000   0.01195   0.01234   1.40268
    D9       -1.23298   0.05644   0.00000   0.04893   0.04839  -1.18459
   D10        1.30508  -0.00291   0.00000  -0.00262  -0.00272   1.30235
   D11        0.96410   0.02109   0.00000   0.01904   0.01914   0.98323
   D12       -2.78103  -0.03826   0.00000  -0.03252  -0.03198  -2.81301
   D13        2.57057  -0.09264   0.00000  -0.08335  -0.08344   2.48713
   D14       -0.26490  -0.02568   0.00000  -0.02262  -0.02247  -0.28737
   D15        0.02644  -0.03129   0.00000  -0.03018  -0.03034  -0.00389
   D16       -2.80903   0.03567   0.00000   0.03054   0.03063  -2.77840
   D17       -2.70767   0.12161   0.00000   0.11016   0.11003  -2.59763
   D18        0.18104   0.05444   0.00000   0.05052   0.05031   0.23136
   D19        0.09390   0.05351   0.00000   0.04703   0.04724   0.14113
   D20        2.98260  -0.01366   0.00000  -0.01261  -0.01248   2.97012
   D21       -1.78789  -0.02107   0.00000  -0.01908  -0.01858  -1.80646
   D22        0.98299  -0.05101   0.00000  -0.04643  -0.04665   0.93634
   D23        1.58026   0.03560   0.00000   0.03223   0.03245   1.61271
   D24       -1.93205   0.00566   0.00000   0.00488   0.00437  -1.92767
   D25        2.57481  -0.05208   0.00000  -0.03979  -0.04067   2.53415
   D26       -0.36259  -0.03971   0.00000  -0.03052  -0.03110  -0.39369
   D27       -0.23009   0.01002   0.00000   0.00763   0.00755  -0.22254
   D28        3.11569   0.02240   0.00000   0.01691   0.01711   3.13280
   D29       -2.20688  -0.01527   0.00000  -0.00492  -0.00638  -2.21327
   D30       -0.04390  -0.00152   0.00000   0.00167   0.00071  -0.04320
   D31        0.59566  -0.01598   0.00000  -0.01372  -0.01347   0.58219
   D32        2.75864  -0.00223   0.00000  -0.00713  -0.00638   2.75226
   D33       -0.25726   0.00459   0.00000   0.00394   0.00389  -0.25337
   D34        2.72985   0.00591   0.00000   0.00475   0.00488   2.73473
   D35        2.66985  -0.00610   0.00000  -0.00422  -0.00450   2.66535
   D36       -0.62623  -0.00478   0.00000  -0.00342  -0.00351  -0.62974
   D37        0.58397  -0.00405   0.00000  -0.00608  -0.00582   0.57816
   D38       -2.33220  -0.01408   0.00000  -0.01327  -0.01325  -2.34545
   D39       -0.64973   0.00096   0.00000   0.00564   0.00551  -0.64422
   D40       -3.00254   0.03516   0.00000   0.02971   0.02954  -2.97300
   D41       -2.38689   0.00109   0.00000   0.00181   0.00189  -2.38500
   D42       -1.65348  -0.00737   0.00000  -0.00437  -0.00426  -1.65774
   D43       -0.77290   0.01956   0.00000   0.01497   0.01487  -0.75802
   D44       -0.28517  -0.00666   0.00000  -0.00543  -0.00541  -0.29058
   D45        0.44824  -0.01512   0.00000  -0.01161  -0.01156   0.43669
   D46        1.32883   0.01181   0.00000   0.00773   0.00757   1.33640
   D47       -1.19468  -0.01523   0.00000  -0.01282  -0.01281  -1.20750
   D48        2.93360  -0.00580   0.00000  -0.00555  -0.00555   2.92805
   D49       -0.94908  -0.00345   0.00000  -0.00138  -0.00137  -0.95045
   D50        3.08410   0.00877   0.00000   0.00694   0.00692   3.09103
         Item               Value     Threshold  Converged?
 Maximum Force            0.202530     0.000450     NO 
 RMS     Force            0.048643     0.000300     NO 
 Maximum Displacement     2.169396     0.001800     NO 
 RMS     Displacement     0.553420     0.001200     NO 
 Predicted change in Energy=-1.751370D-01
 GradGradGradGradGradGradGradGradGradGradGradGradGradGradGradGradGradGrad

                          Input orientation:                          
 ---------------------------------------------------------------------
 Center     Atomic      Atomic             Coordinates (Angstroms)
 Number     Number       Type             X           Y           Z
 ---------------------------------------------------------------------
      1          6           0        2.924716    0.803451    0.303195
      2          6           0        4.423987    0.983845    0.464617
      3          6           0        5.867174    0.805658    1.582779
      4          6           0        5.275430   -0.560316    1.517693
      5          6           0        5.273177   -1.213679    2.684168
      6          6           0        6.642108   -1.430199    2.892337
      7          6           0        7.208353   -1.364156    4.088670
      8          6           0        8.529625   -0.925493    4.020580
      9          6           0        9.635949   -1.691676    4.134185
     10          6           0       10.540070   -1.036428    3.217432
     11          6           0        9.839237   -0.110289    2.341397
     12          6           0        8.774796    0.319391    3.327262
     13          6           0        7.741794    1.113744    2.654222
     14          6           0        8.252169    1.620037    1.269630
     15          6           0        8.266085    0.221590    1.175036
     16          6           0        6.531459    0.453418    1.674457
     17          1           0        2.359459    0.902066   -0.724695
     18          1           0        1.934476    0.550031    0.825679
     19          1           0        4.620992    0.893849   -0.624063
     20          1           0        5.706248   -0.874688    0.557451
     21          1           0        4.584856   -0.980003    3.496131
     22          1           0        7.221890   -1.287789    1.969356
     23          1           0        6.728320   -1.342451    5.039465
     24          1           0        9.713107   -2.664722    4.617948
     25          1           0       11.613348   -1.281286    3.508204
     26          1           0        9.074275    2.411414    1.136115
 ---------------------------------------------------------------------
                    Distance matrix (angstroms):
                    1          2          3          4          5
     1  C    0.000000
     2  C    1.518687   0.000000
     3  C    3.208644   1.834346   0.000000
     4  C    2.976696   2.053863   1.490061   0.000000
     5  C    3.905523   3.236763   2.375628   1.336994   0.000000
     6  C    5.050925   4.079398   2.704537   2.124653   1.401494
     7  C    6.113746   5.138050   3.575800   3.315460   2.395866
     8  C    6.944293   5.757318   4.003549   4.121600   3.531785
     9  C    8.120516   6.912936   5.191340   5.209619   4.622208
    10  C    8.358920   7.004710   5.282171   5.552678   5.296787
    11  C    7.266347   5.834755   4.146293   4.659330   4.709975
    12  C    6.603236   5.250312   3.425484   4.036581   3.876236
    13  C    5.369157   3.977322   2.181079   3.190161   3.392914
    14  C    5.475633   3.963302   2.539582   3.698169   4.348017
    15  C    5.443243   3.980885   2.502432   3.110114   3.646227
    16  C    3.874465   2.487268   0.757465   1.621679   2.319914
    17  H    1.177199   2.383994   4.199738   3.958503   4.958475
    18  H    1.147950   2.552690   4.013062   3.587998   4.208513
    19  H    1.935286   1.110016   2.535922   2.670206   3.976356
    20  H    3.258484   2.259858   1.975034   1.098407   2.196677
    21  H    4.016418   3.615612   2.914420   2.137112   1.089805
    22  H    5.061134   3.905486   2.523335   2.126482   2.077000
    23  H    6.442403   5.625908   4.159883   3.889153   2.771543
    24  H    8.759427   7.650947   6.003914   5.808019   5.055493
    25  H    9.492656   8.129031   6.409455   6.682151   6.393854
    26  H    6.410645   4.910605   3.614340   4.838182   5.475957
                    6          7          8          9         10
     6  C    0.000000
     7  C    1.325220   0.000000
     8  C    2.256188   1.393852   0.000000
     9  C    3.251713   2.450012   1.350516   0.000000
    10  C    3.931266   3.459306   2.167773   1.444722   0.000000
    11  C    3.502475   3.398043   2.280196   2.399208   1.454764
    12  C    2.792594   2.422358   1.445868   2.331759   2.228565
    13  C    2.781664   2.912420   2.578003   3.694387   3.573625
    14  C    3.811747   4.235794   3.758249   4.592164   4.010640
    15  C    2.883544   3.481759   3.079346   3.780698   3.305298
    16  C    2.245771   3.096803   3.376145   4.504392   4.546358
    17  H    6.071529   7.198334   7.995534   9.125980   9.285501
    18  H    5.509463   6.490378   7.475330   8.676644   9.071581
    19  H    4.674524   5.831198   6.337202   7.380762   7.315636
    20  H    2.576066   3.868515   4.468479   5.376155   5.519737
    21  H    2.190783   2.716876   3.979852   5.140732   5.961999
    22  H    1.099236   2.120732   2.459461   3.267612   3.554039
    23  H    2.150650   1.065324   2.111085   3.065256   4.235905
    24  H    3.732669   2.871480   2.186868   1.089402   2.301446
    25  H    5.011456   4.443848   3.146182   2.114327   1.138608
    26  H    4.874191   5.143362   4.444292   5.112656   4.285796
                   11         12         13         14         15
    11  C    0.000000
    12  C    1.513139   0.000000
    13  C    2.448547   1.466653   0.000000
    14  C    2.580988   2.489712   1.560100   0.000000
    15  C    1.986291   2.213691   1.805218   1.401712   0.000000
    16  C    3.421107   2.789675   1.691414   2.117953   1.819915
    17  H    8.146954   7.610152   6.358571   6.262335   6.241815
    18  H    8.075809   7.287050   6.114433   6.423026   6.349740
    19  H    6.085419   5.761689   4.531546   4.159190   4.120120
    20  H    4.566002   4.302751   3.534652   3.634910   2.852368
    21  H    5.449618   4.390050   3.880573   5.016643   4.514726
    22  H    2.894033   2.615044   2.550824   3.163312   1.999878
    23  H    4.298325   3.143473   3.570631   5.030915   4.443507
    24  H    3.423992   3.383966   4.692451   5.630696   4.719990
    25  H    2.424900   3.263783   4.631887   4.972566   4.348158
    26  H    2.897733   3.044235   2.400854   1.148896   2.334527
                   16         17         18         19         20
    16  C    0.000000
    17  H    4.833508   0.000000
    18  H    4.675684   1.645661   0.000000
    19  H    3.021102   2.263786   3.072025   0.000000
    20  H    1.921599   4.000219   4.040797   2.387777   0.000000
    21  H    3.026955   5.129322   4.061629   4.526436   3.147134
    22  H    1.896171   5.974664   5.713347   4.272006   2.112179
    23  H    3.819317   7.573001   6.657209   6.443402   4.620810
    24  H    5.339459   9.764320   9.231633   8.128452   5.978861
    25  H    5.674277  10.407637  10.209321   8.408322   6.615595
    26  H    3.254147   7.129481   7.384975   5.023242   4.740984
                   21         22         23         24         25
    21  H    0.000000
    22  H    3.062633   0.000000
    23  H    2.666025   3.110011   0.000000
    24  H    5.513230   3.888077   3.291660   0.000000
    25  H    7.034957   4.653278   5.119765   2.599297   0.000000
    26  H    6.101333   4.220157   5.901792   6.188572   5.070476
                   26
    26  H    0.000000
 Stoichiometry    C16H10
 Framework group  C1[X(C16H10)]
 Deg. of freedom    72
 Full point group                 C1      NOp   1
 Largest Abelian subgroup         C1      NOp   1
 Largest concise Abelian subgroup C1      NOp   1
                         Standard orientation:                         
 ---------------------------------------------------------------------
 Center     Atomic      Atomic             Coordinates (Angstroms)
 Number     Number       Type             X           Y           Z
 ---------------------------------------------------------------------
      1          6           0       -4.767656   -0.142471   -0.002282
      2          6           0       -3.428661    0.573374   -0.035030
      3          6           0       -1.642991    0.481865    0.374642
      4          6           0       -1.886188   -0.701399   -0.497724
      5          6           0       -1.236146   -1.806259   -0.117879
      6          6           0        0.097074   -1.451894   -0.365135
      7          6           0        1.097452   -1.814612    0.424730
      8          6           0        2.124161   -0.872002    0.438000
      9          6           0        3.308382   -0.966850   -0.204277
     10          6           0        3.553773    0.409472   -0.568617
     11          6           0        2.356273    1.223767   -0.429854
     12          6           0        1.761487    0.491666    0.753297
     13          6           0        0.391529    0.950608    1.005607
     14          6           0        0.122506    2.304889    0.279342
     15          6           0        0.402254    1.390149   -0.745250
     16          6           0       -0.945524    0.486924    0.079233
     17          1           0       -5.730207    0.241632   -0.560635
     18          1           0       -5.348553   -1.058741    0.372944
     19          1           0       -3.710727    1.205725   -0.902617
     20          1           0       -1.858734   -0.190671   -1.469785
     21          1           0       -1.535075   -2.407483    0.740519
     22          1           0        0.169906   -0.576290   -1.025691
     23          1           0        1.087552   -2.546180    1.199085
     24          1           0        3.801147   -1.878466   -0.540337
     25          1           0        4.671160    0.564049   -0.723471
     26          1           0        0.607186    3.303060    0.577167
 ---------------------------------------------------------------------
 Rotational constants (GHZ):           1.4747927           0.4399761           0.3641400
 Standard basis: 6-31G(2df,p) (6D, 7F)
 There are   546 symmetry adapted cartesian basis functions of A   symmetry.
 There are   498 symmetry adapted basis functions of A   symmetry.
   498 basis functions,   774 primitive gaussians,   546 cartesian basis functions
    53 alpha electrons       53 beta electrons
       nuclear repulsion energy       985.0013388578 Hartrees.
 NAtoms=   26 NActive=   26 NUniq=   26 SFac= 1.00D+00 NAtFMM=   60 NAOKFM=F Big=F
 Integral buffers will be    131072 words long.
 Raffenetti 2 integral format.
 Two-electron integral symmetry is turned on.
 One-electron integrals computed using PRISM.
 PrsmSu:  requested number of processors reduced to:  12 ShMem   1 Linda.
 NBasis=   498 RedAO= T EigKep=  1.62D-05  NBF=   498
 NBsUse=   498 1.00D-06 EigRej= -1.00D+00 NBFU=   498
 Initial guess from the checkpoint file:  "CdCc1ccccc2ccc3c-2c2cc-3c1-2.chk"
 B after Tr=    -0.000000   -0.000000    0.000000
         Rot=    0.997103   -0.034180    0.005153   -0.067758 Ang=  -8.72 deg.
 ExpMin= 1.61D-01 ExpMax= 3.05D+03 ExpMxC= 4.57D+02 IAcc=2 IRadAn=         4 AccDes= 0.00D+00
 Harris functional with IExCor=  402 and IRadAn=       4 diagonalized for initial guess.
 HarFok:  IExCor=  402 AccDes= 0.00D+00 IRadAn=         4 IDoV= 1 UseB2=F ITyADJ=14
 ICtDFT=  3500011 ScaDFX=  1.000000  1.000000  1.000000  1.000000
 FoFCou: FMM=F IPFlag=           0 FMFlag=      100000 FMFlg1=           0
         NFxFlg=           0 DoJE=T BraDBF=F KetDBF=T FulRan=T
         wScrn=  0.000000 ICntrl=       500 IOpCl=  0 I1Cent=   200000004 NGrid=           0
         NMat0=    1 NMatS0=      1 NMatT0=    0 NMatD0=    1 NMtDS0=    0 NMtDT0=    0
 Petite list used in FoFCou.
 Requested convergence on RMS density matrix=1.00D-08 within 128 cycles.
 Requested convergence on MAX density matrix=1.00D-06.
 Requested convergence on             energy=1.00D-06.
 No special actions if energy rises.
 Integral accuracy reduced to 1.0D-05 until final iterations.
 EnCoef did     5 forward-backward iterations
 EnCoef did     8 forward-backward iterations
 EnCoef did     7 forward-backward iterations
 EnCoef did     6 forward-backward iterations
 EnCoef did     3 forward-backward iterations
 EnCoef did     4 forward-backward iterations
 Initial convergence to 1.0D-05 achieved.  Increase integral accuracy.
 SCF Done:  E(RB3LYP) =  -613.487943892     A.U. after   27 cycles
            NFock= 27  Conv=0.37D-08     -V/T= 1.9985
 PrsmSu:  requested number of processors reduced to:  13 ShMem   1 Linda.
 Calling FoFJK, ICntrl=      2127 FMM=F ISym2X=0 I1Cent= 0 IOpClX= 0 NMat=1 NMatS=1 NMatT=0.
 ***** Axes restored to original set *****
 -------------------------------------------------------------------
 Center     Atomic                   Forces (Hartrees/Bohr)
 Number     Number              X              Y              Z
 -------------------------------------------------------------------
      1        6           0.005683361    0.007161894   -0.000435976
      2        6          -0.074633346   -0.027244651    0.005625211
      3        6          -3.547921726    1.836929677   -0.589637523
      4        6          -0.026034546   -0.025658385   -0.106783048
      5        6          -0.026838716   -0.035863617    0.054063647
      6        6          -0.016540669   -0.062644842   -0.006489141
      7        6          -0.011255028   -0.002912818    0.033781890
      8        6           0.000105009    0.036058389    0.019944448
      9        6           0.050712359    0.000259988   -0.040463372
     10        6           0.035988023   -0.055884350    0.031534883
     11        6          -0.000503228    0.000348543    0.057718438
     12        6          -0.017400974    0.001805005   -0.042880011
     13        6           0.065096134    0.005285027   -0.032254848
     14        6           0.038637238    0.030536360    0.038843476
     15        6           0.002017778    0.008865289   -0.016756402
     16        6           3.445623235   -1.679041559    0.517688377
     17        1           0.050628372    0.005318930    0.020211353
     18        1           0.046038508    0.008407556    0.022152065
     19        1           0.036469120    0.005634886    0.019012548
     20        1          -0.007692827   -0.033452387    0.010018586
     21        1           0.004705677    0.004153195    0.000324519
     22        1           0.008103330   -0.026609507    0.021369158
     23        1          -0.018234091   -0.003075062    0.009545631
     24        1           0.003701463    0.007570236    0.000232023
     25        1          -0.017948046    0.018185301   -0.031339084
     26        1          -0.028506411   -0.024133099    0.004973151
 -------------------------------------------------------------------
 Cartesian Forces:  Max     3.547921726 RMS     0.633860340

 GradGradGradGradGradGradGradGradGradGradGradGradGradGradGradGradGradGrad
 Berny optimization.
 Using GEDIIS/GDIIS optimizer.
 FormGI is forming the generalized inverse of G from B-inverse, IUseBI=4.
 Internal  Forces:  Max    10.840828746 RMS     2.315732824
 Search for a local minimum.
 Step number   2 out of a maximum of  127
 All quantities printed in internal units (Hartrees-Bohrs-Radians)
[...]
    R7        2.71831  -0.06556  -0.00433  -0.00601  -0.01034   2.70797
    R8        2.07655  -0.00142  -0.00434   0.00308  -0.00126   2.07529
    R9        2.67236  -0.04743  -0.00525   0.00420  -0.00105   2.67131
   R10        2.05980  -0.00252  -0.00501   0.00475  -0.00026   2.05954
   R11        2.62523  -0.09255  -0.03988   0.04347   0.00359   2.62882
   R12        2.05367   0.00301   0.00018   0.00140   0.00158   2.05525
   R13        2.78197  -0.03791  -0.00913   0.02155   0.01242   2.79439
   R14        2.06467  -0.00389  -0.00723   0.00751   0.00028   2.06495
   R15        2.77868  -0.00176   0.00636  -0.00350   0.00342   2.78210
   R16        2.62639   0.25495   0.04080  -0.00688   0.03281   2.65920
   R17        2.67963  -0.36838  -0.04574  -0.00818  -0.05244   2.62720
   R18        2.04601  -0.00086   0.00216  -0.00309  -0.00093   2.04508
   R19        2.77446  -0.17126  -0.00824  -0.01753  -0.02545   2.74901
   R20        2.04305   0.00337   0.00218  -0.00243  -0.00026   2.04279
   R21        2.68354   0.02413  -0.00728   0.01135   0.00282   2.68636
   R22        2.60711   1.64499   0.08873   0.10021   0.18893   2.79604
   R23        2.72844   0.33277   0.01640   0.02064   0.04635   2.77479
   R24        3.17816   0.79734   0.10594  -0.02650   0.08076   3.25892
   R25        2.65608   0.31679   0.01646   0.01116   0.02365   2.67973
   R26        2.79031  -0.63025  -0.05123   0.00134  -0.05714   2.73317
   R27        2.02823   0.00859   0.01374  -0.01564  -0.00190   2.02633
   R28        3.44769  -0.68255  -0.08686   0.01861  -0.06815   3.37954
    A1        2.10637   0.00203  -0.01150   0.01773   0.00625   2.11262
    A2        2.09586   0.00532   0.04523  -0.06034  -0.01509   2.08077
    A3        2.08049  -0.00729  -0.03353   0.04228   0.00877   2.08925
    A4        2.13973   0.00045   0.01568  -0.02693  -0.01073   2.12900
    A5        2.05904   0.00694   0.01181  -0.00934   0.00301   2.06205
    A6        2.08051  -0.00721  -0.03374   0.04277   0.00952   2.09003
    A7        2.08538   0.06334   0.02812   0.00416   0.03228   2.11766
    A8        2.17578  -0.20545  -0.05170   0.03600  -0.01489   2.16089
    A9        1.97160   0.08203   0.00998   0.00049   0.01137   1.98297
   A10        1.99740   0.08847   0.01052   0.00324   0.01463   2.01203
   A11        1.98848  -0.06010  -0.00256   0.02989   0.02742   2.01590
   A12        2.07775  -0.02936  -0.01863   0.00195  -0.01666   2.06109
   A13        2.07041   0.02886   0.01215  -0.02308  -0.01076   2.05966
   A14        2.24369  -0.21001  -0.04668   0.02091  -0.02580   2.21789
   A15        1.93319   0.10749   0.03585  -0.01553   0.02033   1.95352
   A16        2.01669   0.04741   0.00834  -0.00259   0.00566   2.02235
   A17        1.87458  -0.25231   0.01106   0.04500   0.05624   1.93082
   A18        2.22637   0.04316  -0.00976  -0.02753  -0.03707   2.18930
   A19        2.07159   0.13666   0.00854  -0.02681  -0.01809   2.05350
   A20        2.41242  -0.01143  -0.08835   0.07199  -0.01442   2.39800
   A21        1.97259  -0.41598   0.04955  -0.06146  -0.01202   1.96058
   A22        1.83144   0.43724   0.03490   0.00095   0.03336   1.86480
   A23        1.86885  -0.01094   0.00040   0.01237   0.01443   1.88328
   A24        2.15164   0.01939   0.00140  -0.00741  -0.00686   2.14478
   A25        2.24121   0.01257  -0.00282   0.00224  -0.00131   2.23989
   A26        1.89378  -0.20364  -0.02597  -0.00062  -0.02537   1.86841
   A27        2.22098   0.11385  -0.00221   0.01806   0.01427   2.23526
   A28        2.13071   0.11712   0.03263  -0.02532   0.00740   2.13811
   A29        1.80774   0.64636   0.06201   0.01659   0.07693   1.88468
   A30        1.93769  -0.81369  -0.08836   0.00990  -0.07497   1.86271
   A31        2.37916  -0.97554   0.00192  -0.09830  -0.09571   2.28345
   A32        1.57510   1.75226   0.13340   0.03861   0.17328   1.74838
   A33        2.13734   1.33683  -0.01147   0.20874   0.20455   2.34189
   A34        1.27839   1.96789   0.14058   0.10068   0.22723   1.50562
   A35        2.24827   0.86630   0.03630   0.07423   0.10590   2.35417
   A36        1.05297  -0.24094   0.10993  -0.20955  -0.10045   0.95252
   A37        2.30581  -0.22997  -0.02971   0.01659  -0.01528   2.29053
   A38        2.28753   0.18646   0.03012  -0.01263   0.00615   2.29368
   A39        0.87400   0.11683   0.12817  -0.17721  -0.05607   0.81794
    D1       -3.11017   0.00185   0.03003  -0.04200  -0.01227  -3.12244
    D2       -0.06425   0.00357  -0.02680   0.03988   0.01339  -0.05086
    D3        0.06448  -0.00004   0.02173  -0.03127  -0.00984   0.05463
    D4        3.11040   0.00168  -0.03511   0.05062   0.01582   3.12622
    D5        1.00708  -0.00478   0.04663  -0.06890  -0.02290   0.98418
    D6       -2.03771  -0.00726   0.09973  -0.14896  -0.04860  -2.08631
    D7       -2.79078  -0.02152   0.06894  -0.11117  -0.04241  -2.83319
    D8        0.92548   0.00433   0.11619  -0.18579  -0.06942   0.85605
    D9       -1.55898   0.07051   0.02496  -0.04279  -0.01759  -1.57656
   D10        1.02032  -0.02528   0.01421  -0.03480  -0.02060   0.99972
   D11        1.00055   0.04066  -0.02354   0.03222   0.00869   1.00924
   D12       -2.70333  -0.05514  -0.03429   0.04020   0.00567  -2.69766
   D13        2.54982  -0.21083  -0.05677   0.04901  -0.00755   2.54226
   D14       -0.12261  -0.10381  -0.05627   0.04465  -0.01163  -0.13424
   D15       -0.03202  -0.09548  -0.03498   0.03249  -0.00248  -0.03450
   D16       -2.70445   0.01153  -0.03448   0.02814  -0.00655  -2.71100
   D17       -1.98832   0.10901  -0.11123   0.11254   0.00139  -1.98693
   D18        0.64962  -0.01993  -0.08614   0.08909   0.00305   0.65268
   D19        0.66557   0.00663  -0.10614   0.11463   0.00839   0.67396
   D20       -2.97967  -0.12231  -0.08105   0.09119   0.01005  -2.96962
   D21       -1.33292  -0.23137  -0.14644   0.16413   0.01773  -1.31520
   D22        1.34823  -0.12172  -0.14184   0.19134   0.04935   1.39759
   D23        2.25996  -0.09779  -0.16311   0.18790   0.02493   2.28489
   D24       -1.34207   0.01185  -0.15851   0.21510   0.05656  -1.28551
   D25        2.45713   0.08424   0.02287   0.02064   0.04652   2.50365
   D26       -0.47970  -0.01541   0.02795  -0.01375   0.01438  -0.46531
   D27       -0.24744   0.11802   0.01263   0.00733   0.02303  -0.22441
   D28        3.09892   0.01838   0.01771  -0.02706  -0.00912   3.08981
   D29       -2.43606  -0.29424   0.03872  -0.11989  -0.08102  -2.51708
   D30       -0.44386   0.74171   0.14960  -0.12874   0.02520  -0.41867
   D31        0.39414  -0.26474   0.00831  -0.07638  -0.06811   0.32603
   D32        2.38633   0.77121   0.11919  -0.08523   0.03810   2.42443
   D33        0.02382  -0.15825  -0.04653   0.05735   0.00847   0.03229
   D34        2.87516  -0.04520  -0.02443   0.02280  -0.00502   2.87014
   D35        2.94673  -0.05100  -0.05124   0.09268   0.04221   2.98894
   D36       -0.48511   0.06204  -0.02915   0.05812   0.02872  -0.45639
   D37        0.20282   0.15167   0.07144  -0.09859  -0.03282   0.17000
   D38       -2.66656   0.04235   0.05661  -0.07456  -0.02207  -2.68863
   D39       -0.37567   0.13022  -0.04348   0.10627   0.06488  -0.31078
   D40       -2.83536   0.58855  -0.08126   0.19318   0.10938  -2.72598
   D41       -2.49187  -0.41804  -0.04456  -0.00095  -0.05282  -2.54470
   D42       -2.01401  -0.11869   0.09049  -0.18754  -0.08364  -2.09766
   D43       -1.16467   0.54529   0.12138  -0.11249   0.01704  -1.14763
   D44       -0.36968  -0.18371  -0.01367  -0.00149  -0.03196  -0.40164
   D45        0.10818   0.11564   0.12138  -0.18807  -0.06278   0.04540
   D46        0.95752   0.77962   0.15228  -0.11302   0.03790   0.99542
   D47       -1.67403   0.36385   0.15995  -0.18129  -0.03042  -1.70445
   D48        2.52327  -0.20192   0.06631  -0.12486  -0.05785   2.46542
   D49       -1.05906  -0.11534   0.04712  -0.06208  -0.02769  -1.08675
   D50       -2.96803   0.21390  -0.02427   0.06695   0.04224  -2.92580
         Item               Value     Threshold  Converged?
 Maximum Force            1.967892     0.000450     NO 
 RMS     Force            0.416482     0.000300     NO 
 Maximum Displacement     0.942372     0.001800     NO 
 RMS     Displacement     0.185056     0.001200     NO 
 Predicted change in Energy=-6.459533D-01
 GradGradGradGradGradGradGradGradGradGradGradGradGradGradGradGradGradGrad

                          Input orientation:                          
 ---------------------------------------------------------------------
 Center     Atomic      Atomic             Coordinates (Angstroms)
 Number     Number       Type             X           Y           Z
 ---------------------------------------------------------------------
      1          6           0        3.629654    0.788677   -0.464023
      2          6           0        4.824359    0.455398   -0.363796
      3          6           0        5.450626    0.165951    0.946495
      4          6           0        4.921247   -0.811215    1.811197
      5          6           0        5.233831   -0.894238    3.207220
      6          6           0        6.345631   -1.703420    3.534901
      7          6           0        7.260395   -1.495653    4.562143
      8          6           0        8.602034   -1.202744    4.013643
      9          6           0        9.701983   -1.951075    3.383128
     10          6           0       10.264176   -1.140287    2.403656
     11          6           0        9.555561    0.129569    2.442614
     12          6           0        8.729881    0.136120    3.599784
     13          6           0        7.707721    1.122604    3.185953
     14          6           0        7.680079    2.219462    2.210139
     15          6           0        8.543459    1.187870    1.678855
     16          6           0        6.805341    1.231900    2.097542
     17          1           0        3.182215    0.979903   -1.432156
     18          1           0        3.041191    0.920049    0.433619
     19          1           0        5.394866    0.314227   -1.276381
     20          1           0        4.717895   -1.771247    1.318225
     21          1           0        5.033331   -0.023114    3.830715
     22          1           0        6.717140   -2.251819    2.672295
     23          1           0        7.021289   -1.104019    5.553860
     24          1           0        9.876936   -3.003408    3.565241
     25          1           0       11.216103   -1.259258    1.905419
     26          1           0        7.826155    3.275086    2.328961
 ---------------------------------------------------------------------
                    Distance matrix (angstroms):
                    1          2          3          4          5
     1  C    0.000000
     2  C    1.244363   0.000000
     3  C    2.386061   1.480828   0.000000
     4  C    3.066675   2.518787   1.408121   0.000000
     5  C    4.345528   3.839445   2.506368   1.432998   0.000000
     6  C    5.438610   4.708992   3.315936   2.407500   1.413595
     7  C    6.607783   5.831444   4.371396   3.675292   2.510872
     8  C    6.981391   6.015167   4.605659   4.307233   3.477109
     9  C    7.692853   6.604677   5.337884   5.160007   4.594804
    10  C    7.480734   6.308456   5.196137   5.385739   5.100062
    11  C    6.633200   5.510569   4.369232   4.770810   4.506679
    12  C    6.553829   5.573599   4.218335   4.313025   3.665803
    13  C    5.483107   4.621651   3.320367   3.659788   3.191902
    14  C    5.060063   4.229917   3.283925   4.117683   4.083311
    15  C    5.375571   4.305885   3.338605   4.139357   4.198180
    16  C    4.104028   3.253525   2.072778   2.793943   2.867314
    17  H    1.083536   2.028087   3.386176   4.092881   5.407896
    18  H    1.081345   2.007849   2.576253   2.903379   3.973936
    19  H    2.000251   1.085458   2.228513   3.320252   4.646396
    20  H    3.303617   2.792575   2.104237   1.098196   2.145608
    21  H    4.590652   4.226885   2.920378   2.170741   1.089864
    22  H    5.349176   4.486590   3.229250   2.458060   2.080716
    23  H    7.162430   6.502071   5.030668   4.301562   2.957319
    24  H    8.345263   7.275246   6.041100   5.695720   5.112260
    25  H    8.207467   6.995983   6.015936   6.311484   6.133148
    26  H    5.620820   4.920606   4.149828   5.040280   4.987459
                    6          7          8          9         10
     6  C    0.000000
     7  C    1.391109   0.000000
     8  C    2.360343   1.478730   0.000000
     9  C    3.368896   2.749334   1.472222   0.000000
    10  C    4.117259   3.715919   2.314881   1.390252   0.000000
    11  C    3.854425   3.521582   2.269892   2.288031   1.454712
    12  C    3.012103   2.397542   1.407189   2.312640   2.326800
    13  C    3.156496   2.991533   2.625283   3.669258   3.502589
    14  C    4.350259   4.417028   3.976698   4.780939   4.242985
    15  C    4.078592   4.142571   3.342110   3.754956   2.984380
    16  C    3.300521   3.704170   3.581486   4.491613   4.205297
    17  H    6.471405   7.661041   7.987184   8.618872   8.328435
    18  H    5.236399   6.378245   6.945919   7.830012   7.765149
    19  H    5.303140   6.390949   6.369575   6.737497   6.274429
    20  H    2.750960   4.130770   4.761828   5.397897   5.686607
    21  H    2.152456   2.768244   3.763061   5.070865   5.535911
    22  H    1.087589   2.106760   2.540196   3.083021   3.726813
    23  H    2.211784   1.092726   2.209246   3.551859   4.521218
    24  H    3.763110   3.180161   2.251406   1.082211   2.229451
    25  H    5.154996   4.770921   3.358744   2.225936   1.080999
    26  H    5.332145   5.297843   4.846762   5.651792   5.044309
                   11         12         13         14         15
    11  C    0.000000
    12  C    1.421560   0.000000
    13  C    2.225575   1.479601   0.000000
    14  C    2.817647   2.715421   1.468358   0.000000
    15  C    1.651569   2.197930   1.724547   1.446330   0.000000
    16  C    2.982938   2.676064   1.418053   1.324056   1.788377
    17  H    7.507093   7.537174   6.467418   5.918919   6.201982
    18  H    6.862794   6.557464   5.421519   5.134567   5.647769
    19  H    5.583584   5.910248   5.090697   4.583442   4.405714
    20  H    5.317929   4.993956   4.560903   5.049337   4.849883
    21  H    4.732938   3.707178   2.980059   3.828928   4.291617
    22  H    3.712196   3.257855   3.554128   4.597086   4.019182
    23  H    4.198110   2.876742   3.322051   4.760252   4.752412
    24  H    3.343519   3.342688   4.676893   5.825878   4.785752
    25  H    2.230430   3.316512   4.429648   4.969690   3.630812
    26  H    3.591384   3.504971   2.319836   1.072287   2.300790
                   16         17         18         19         20
    16  C    0.000000
    17  H    5.064515   0.000000
    18  H    4.127313   1.872054   0.000000
    19  H    3.770268   2.315862   2.971684   0.000000
    20  H    3.739472   4.182312   3.291950   3.396979   0.000000
    21  H    2.778303   5.668375   4.049498   5.130978   3.077023
    22  H    3.531914   6.307633   5.346496   4.891323   2.461998
    23  H    4.177234   8.239274   6.793740   7.163020   4.867383
    24  H    5.433845   9.255270   8.481036   7.384914   5.760469
    25  H    5.069280   8.983129   8.587477   6.818101   6.544741
    26  H    2.295698   6.401566   5.659894   5.260832   6.012349
                   21         22         23         24         25
    21  H    0.000000
    22  H    3.023950   0.000000
    23  H    2.844216   3.116628   0.000000
    24  H    5.693254   3.368464   3.964467   0.000000
    25  H    6.592533   4.670540   5.561626   2.755075   0.000000
    26  H    4.575287   5.647519   5.497667   6.719642   5.677272
                   26
    26  H    0.000000
 Stoichiometry    C16H10
 Framework group  C1[X(C16H10)]
 Deg. of freedom    72
 Full point group                 C1      NOp   1
 Largest Abelian subgroup         C1      NOp   1
 Largest concise Abelian subgroup C1      NOp   1
                         Standard orientation:                         
 ---------------------------------------------------------------------
 Center     Atomic      Atomic             Coordinates (Angstroms)
 Number     Number       Type             X           Y           Z
 ---------------------------------------------------------------------
      1          6           0       -4.551096    0.195511   -0.474480
      2          6           0       -3.440914    0.503354   -0.944764
      3          6           0       -2.175147    0.012549   -0.353329
      4          6           0       -1.925419   -1.364417   -0.197105
      5          6           0       -0.920889   -1.898816    0.673997
      6          6           0        0.353110   -2.086492    0.090940
      7          6           0        1.589404   -1.937867    0.711159
      8          6           0        2.332631   -0.801382    0.125787
      9          6           0        3.082281   -0.517759   -1.109130
     10          6           0        2.839030    0.804619   -1.462607
     11          6           0        1.977335    1.369137   -0.435480
     12          6           0        1.903423    0.437834    0.635989
     13          6           0        0.615789    0.840217    1.243693
     14          6           0       -0.176685    2.076350    1.237595
     15          6           0        0.498222    1.987461   -0.038520
     16          6           0       -0.717576    0.959463    0.775940
     17          1           0       -5.468431    0.549108   -0.930020
     18          1           0       -4.595790   -0.407597    0.421941
     19          1           0       -3.416403    1.096966   -1.853194
     20          1           0       -2.121394   -1.952688   -1.103507
     21          1           0       -0.966513   -1.637584    1.731106
     22          1           0        0.337380   -1.915844   -0.983063
     23          1           0        1.818222   -2.216099    1.742799
     24          1           0        3.570541   -1.289050   -1.690415
     25          1           0        3.387031    1.418941   -2.163222
     26          1           0       -0.245640    2.875276    1.949466
 ---------------------------------------------------------------------
 Rotational constants (GHZ):           1.0097626           0.4380104           0.3694080
 Standard basis: 6-31G(2df,p) (6D, 7F)
 There are   546 symmetry adapted cartesian basis functions of A   symmetry.
 There are   498 symmetry adapted basis functions of A   symmetry.
   498 basis functions,   774 primitive gaussians,   546 cartesian basis functions
    53 alpha electrons       53 beta electrons
       nuclear repulsion energy       940.7062424363 Hartrees.
 NAtoms=   26 NActive=   26 NUniq=   26 SFac= 1.00D+00 NAtFMM=   60 NAOKFM=F Big=F
 Integral buffers will be    131072 words long.
 Raffenetti 2 integral format.
 Two-electron integral symmetry is turned on.
 One-electron integrals computed using PRISM.
 PrsmSu:  requested number of processors reduced to:  12 ShMem   1 Linda.
 NBasis=   498 RedAO= T EigKep=  2.66D-04  NBF=   498
 NBsUse=   498 1.00D-06 EigRej= -1.00D+00 NBFU=   498
 Lowest energy guess from the checkpoint file:  "CdCc1ccccc2ccc3c-2c2cc-3c1-2.chk"
 B after Tr=    -0.000000   -0.000000    0.000000
         Rot=    0.999184    0.026992   -0.021088    0.021386 Ang=   4.63 deg.
 B after Tr=    -0.000000   -0.000000    0.000000
         Rot=    0.999547    0.025544    0.012458   -0.009917 Ang=   3.45 deg.
 Requested convergence on RMS density matrix=1.00D-08 within 128 cycles.
 Requested convergence on MAX density matrix=1.00D-06.
 Requested convergence on             energy=1.00D-06.
 No special actions if energy rises.
 Integral accuracy reduced to 1.0D-05 until final iterations.
 EnCoef did     3 forward-backward iterations
slurmstepd: error: *** JOB 27446913 ON lewis4-r630-hpc4-node228 CANCELLED AT 2023-05-16T17:05:53 DUE TO TIME LIMIT ***
