### Starting Gaussian ###
 Entering Gaussian System, Link 0=g16
 Initial command:
 /cluster/software/gaussian/gaussian-16-A.03/avx2/g16/l1.exe "/local/scratch/cz9n3/Gau-3474.inp" -scrdir="/local/scratch/cz9n3/"
 Entering Link 1 = /cluster/software/gaussian/gaussian-16-A.03/avx2/g16/l1.exe PID=      3495.
  
 Copyright (c) 1988,1990,1992,1993,1995,1998,2003,2009,2016,
            Gaussian, Inc.  All Rights Reserved.
  
 This is part of the Gaussian(R) 16 program.  It is based on
 the Gaussian(R) 09 system (copyright 2009, Gaussian, Inc.),
 the Gaussian(R) 03 system (copyright 2003, Gaussian, Inc.),
 the Gaussian(R) 98 system (copyright 1998, Gaussian, Inc.),
 the Gaussian(R) 94 system (copyright 1995, Gaussian, Inc.),
 the Gaussian 92(TM) system (copyright 1992, Gaussian, Inc.),
 the Gaussian 90(TM) system (copyright 1990, Gaussian, Inc.),
 the Gaussian 88(TM) system (copyright 1988, Gaussian, Inc.),
 the Gaussian 86(TM) system (copyright 1986, Carnegie Mellon
 University), and the Gaussian 82(TM) system (copyright 1983,
 Carnegie Mellon University). Gaussian is a federally registered
 trademark of Gaussian, Inc.
  
 This software contains proprietary and confidential information,
 including trade secrets, belonging to Gaussian, Inc.
  
 This software is provided under written license and may be
 used, copied, transmitted, or stored only in accord with that
 written license.
  
 The following legend is applicable only to US Government
 contracts under FAR:
  
                    RESTRICTED RIGHTS LEGEND
  
 Use, reproduction and disclosure by the US Government is
 subject to restrictions as set forth in subparagraphs (a)
 and (c) of the Commercial Computer Software - Restricted
 Rights clause in FAR 52.227-19.
  
 Gaussian, Inc.
 340 Quinnipiac St., Bldg. 40, Wallingford CT 06492
  
  
 ---------------------------------------------------------------
 Warning -- This program may not be used in any manner that
 competes with the business of Gaussian, Inc. or will provide
 assistance to any competitor of Gaussian, Inc.  The licensee
 of this program is prohibited from giving any competitor of
 Gaussian, Inc. access to this program.  By using this program,
 the user acknowledges that Gaussian, Inc. is engaged in the
 business of creating and licensing software in the field of
 computational chemistry and represents and warrants to the
 licensee that it is not a competitor of Gaussian, Inc. and that
 it will not use this program in any manner prohibited above.
 ---------------------------------------------------------------
  

 Cite this work as:
 Gaussian 16, Revision A.03,
 M. J. Frisch, G. W. Trucks, H. B. Schlegel, G. E. Scuseria, 
 M. A. Robb, J. R. Cheeseman, G. Scalmani, V. Barone, 
 G. A. Petersson, H. Nakatsuji, X. Li, M. Caricato, A. V. Marenich, 
 J. Bloino, B. G. Janesko, R. Gomperts, B. Mennucci, H. P. Hratchian, 
 J. V. Ortiz, A. F. Izmaylov, J. L. Sonnenberg, D. Williams-Young, 
 F. Ding, F. Lipparini, F. Egidi, J. Goings, B. Peng, A. Petrone, 
 T. Henderson, D. Ranasinghe, V. G. Zakrzewski, J. Gao, N. Rega, 
 G. Zheng, W. Liang, M. Hada, M. Ehara, K. Toyota, R. Fukuda, 
 J. Hasegawa, M. Ishida, T. Nakajima, Y. Honda, O. Kitao, H. Nakai, 
 T. Vreven, K. Throssell, J. A. Montgomery, Jr., J. E. Peralta, 
 F. Ogliaro, M. J. Bearpark, J. J. Heyd, E. N. Brothers, K. N. Kudin, 
 V. N. Staroverov, T. A. Keith, R. Kobayashi, J. Normand, 
 K. Raghavachari, A. P. Rendell, J. C. Burant, S. S. Iyengar, 
 J. Tomasi, M. Cossi, J. M. Millam, M. Klene, C. Adamo, R. Cammi, 
 J. W. Ochterski, R. L. Martin, K. Morokuma, O. Farkas, 
 J. B. Foresman, and D. J. Fox, Gaussian, Inc., Wallingford CT, 2016.
 
 ******************************************
 Gaussian 16:  ES64L-G16RevA.03 25-Dec-2016
                16-May-2023 
 ******************************************
 %chk=CdCC1dC2CdCCdCqN2rSCdCSCdC1.chk
 %NProcShared=20
 Will use up to   20 processors via shared memory.
 -----------------------------
 # opt freq b3lyp/6-31g(2df,p)
 -----------------------------
 1/18=20,19=15,26=3,38=1/1,3;
 2/9=110,12=2,17=6,18=5,40=1/2;
 3/5=1,6=6,7=104,11=2,25=1,30=1,71=1,74=-5/1,2,3;
 4//1;
 5/5=2,38=5/2;
 6/7=2,8=2,9=2,10=2,28=1/1;
 7//1,2,3,16;
 1/18=20,19=15,26=3/3(2);
 2/9=110/2;
 99//99;
 2/9=110/2;
 3/5=1,6=6,7=104,11=2,25=1,30=1,71=1,74=-5/1,2,3;
 4/5=5,16=3,69=1/1;
 5/5=2,38=5/2;
 7//1,2,3,16;
 1/18=20,19=15,26=3/3(-5);
 2/9=110/2;
 6/7=2,8=2,9=2,10=2,19=2,28=1/1;
 99/9=1/99;
 -------------------
 Title Card Required
 -------------------
 Symbolic Z-matrix:
 Charge =  0 Multiplicity = 1
 C                     1.71768  -0.454    -0.31947 
 C                     3.39588  -1.20309  -0.73487 
 C                     4.78069  -2.72969  -1.58718 
 C                     5.01825  -1.36508  -0.82201 
 C                     5.67964  -2.3533   -1.36684 
 C                     6.95223  -2.2752   -1.35617 
 C                     7.90711  -2.96503  -1.88962 
 C                     8.06391  -2.01038  -1.00606 
 N                     6.24491  -0.896    -0.50341 
 S                     9.62771  -3.24296  -1.85455 
 C                     11.11949  -3.97052  -2.25731 
 C                     11.74066  -5.01966  -2.84669 
 S                     10.63823  -5.97911  -3.36333 
 C                     8.38802  -5.10836  -2.89781 
 C                     6.56347  -4.25963  -2.46668 
 H                     0.70711   0.63161   0.28044 
 H                     0.56263  -0.85744  -0.54259 
 H                     3.13142   0.22934   0.05779 
 H                     5.9807   -3.21235  -1.8385 
 H                     7.47361  -0.93641  -0.70664 
 H                     7.93606  -4.10921  -2.16943 
 H                     5.69521   0.23813   0.07188 
 H                     12.10822  -3.69776  -2.11203 
 H                     11.51224  -6.34433  -3.57924 
 H                     9.87317  -5.87255  -3.35585 
 H                     5.16644  -4.28044  -2.43509 
 
 Add virtual bond connecting atoms H21        and C14        Dist= 2.49D+00.
 Add virtual bond connecting atoms H19        and C15        Dist= 2.56D+00.
 Add virtual bond connecting atoms H21        and C15        Dist= 2.67D+00.
 Add virtual bond connecting atoms H22        and N9         Dist= 2.62D+00.
 Add virtual bond connecting atoms H26        and C15        Dist= 2.64D+00.
 Add virtual bond connecting atoms H26        and H19        Dist= 2.78D+00.
 Add virtual bond connecting atoms H16        and C1         Dist= 3.02D+00.
 Add virtual bond connecting atoms H16        and H17        Dist= 3.23D+00.
 Add virtual bond connecting atoms H18        and C1         Dist= 3.05D+00.
 Add virtual bond connecting atoms H18        and C2         Dist= 3.13D+00.

 GradGradGradGradGradGradGradGradGradGradGradGradGradGradGradGradGradGrad
 Berny optimization.
 Initialization pass.
                           ----------------------------
                           !    Initial Parameters    !
                           ! (Angstroms and Degrees)  !
 --------------------------                            --------------------------
 ! Name  Definition              Value          Derivative Info.                !
 --------------------------------------------------------------------------------
 ! R1    R(1,16)                 1.5999         estimate D2E/DX2                !
 ! R2    R(1,17)                 1.2437         estimate D2E/DX2                !
 ! R3    R(1,18)                 1.6149         estimate D2E/DX2                !
 ! R4    R(2,4)                  1.6328         estimate D2E/DX2                !
 ! R5    R(2,18)                 1.6583         estimate D2E/DX2                !
 ! R6    R(3,4)                  1.5824         estimate D2E/DX2                !
 ! R7    R(3,5)                  0.9992         estimate D2E/DX2                !
 ! R8    R(4,5)                  1.308          estimate D2E/DX2                !
 ! R9    R(4,9)                  1.3514         estimate D2E/DX2                !
 ! R10   R(5,6)                  1.275          estimate D2E/DX2                !
 ! R11   R(5,19)                 1.0252         estimate D2E/DX2                !
 ! R12   R(6,7)                  1.2931         estimate D2E/DX2                !
 ! R13   R(6,8)                  1.1952         estimate D2E/DX2                !
 ! R14   R(7,8)                  1.3102         estimate D2E/DX2                !
 ! R15   R(7,10)                 1.7433         estimate D2E/DX2                !
 ! R16   R(7,21)                 1.1783         estimate D2E/DX2                !
 ! R17   R(8,10)                 2.1644         estimate D2E/DX2                !
 ! R18   R(8,20)                 1.2616         estimate D2E/DX2                !
 ! R19   R(9,22)                 1.3854         estimate D2E/DX2                !
 ! R20   R(10,11)                1.7079         estimate D2E/DX2                !
 ! R21   R(11,12)                1.3542         estimate D2E/DX2                !
 ! R22   R(11,23)                1.0359         estimate D2E/DX2                !
 ! R23   R(12,13)                1.5501         estimate D2E/DX2                !
 ! R24   R(13,24)                0.9715         estimate D2E/DX2                !
 ! R25   R(13,25)                0.7725         estimate D2E/DX2                !
 ! R26   R(14,21)                1.3165         estimate D2E/DX2                !
 ! R27   R(15,19)                1.3532         estimate D2E/DX2                !
 ! R28   R(15,21)                1.4124         estimate D2E/DX2                !
 ! R29   R(15,26)                1.3975         estimate D2E/DX2                !
 ! R30   R(16,17)                1.7075         estimate D2E/DX2                !
 ! R31   R(19,26)                1.4696         estimate D2E/DX2                !
 ! A1    A(16,1,18)            100.2673         estimate D2E/DX2                !
 ! A2    A(4,2,18)             105.6442         estimate D2E/DX2                !
 ! A3    A(2,4,3)               87.8334         estimate D2E/DX2                !
 ! A4    A(2,4,5)              126.8427         estimate D2E/DX2                !
 ! A5    A(2,4,9)              148.7496         estimate D2E/DX2                !
 ! A6    A(3,4,9)              123.3395         estimate D2E/DX2                !
 ! A7    A(5,4,9)               84.3454         estimate D2E/DX2                !
 ! A8    A(3,5,6)              157.3539         estimate D2E/DX2                !
 ! A9    A(3,5,19)              81.2049         estimate D2E/DX2                !
 ! A10   A(4,5,6)              117.0598         estimate D2E/DX2                !
 ! A11   A(6,5,19)              76.2363         estimate D2E/DX2                !
 ! A12   A(5,6,7)              134.4973         estimate D2E/DX2                !
 ! A13   A(5,6,8)              160.7959         estimate D2E/DX2                !
 ! A14   A(6,7,10)             143.6652         estimate D2E/DX2                !
 ! A15   A(6,7,21)             129.3556         estimate D2E/DX2                !
 ! A16   A(8,7,21)             149.8562         estimate D2E/DX2                !
 ! A17   A(10,7,21)             79.9624         estimate D2E/DX2                !
 ! A18   A(6,8,10)             115.5311         estimate D2E/DX2                !
 ! A19   A(6,8,20)              79.8011         estimate D2E/DX2                !
 ! A20   A(7,8,20)             136.4145         estimate D2E/DX2                !
 ! A21   A(10,8,20)            156.336          estimate D2E/DX2                !
 ! A22   A(4,9,22)              91.2545         estimate D2E/DX2                !
 ! A23   A(7,10,11)            157.7096         estimate D2E/DX2                !
 ! A24   A(10,11,12)           146.4395         estimate D2E/DX2                !
 ! A25   A(10,11,23)           133.5066         estimate D2E/DX2                !
 ! A26   A(12,11,23)            80.0506         estimate D2E/DX2                !
 ! A27   A(11,12,13)           107.3588         estimate D2E/DX2                !
 ! A28   A(12,13,24)            70.5457         estimate D2E/DX2                !
 ! A29   A(12,13,25)           128.0069         estimate D2E/DX2                !
 ! A30   A(24,13,25)           160.9045         estimate D2E/DX2                !
 ! A31   A(19,15,21)           103.7923         estimate D2E/DX2                !
 ! A32   A(1,18,2)              70.272          estimate D2E/DX2                !
 ! A33   A(5,19,26)            129.2752         estimate D2E/DX2                !
 ! A34   A(7,21,14)            151.2633         estimate D2E/DX2                !
 ! A35   A(7,21,15)             97.4417         estimate D2E/DX2                !
 ! A36   A(14,21,15)            97.8372         estimate D2E/DX2                !
 ! A37   L(17,1,18,16,-1)      172.8547         estimate D2E/DX2                !
 ! A38   L(4,5,19,6,-1)        193.2961         estimate D2E/DX2                !
 ! A39   L(8,10,11,14,-1)      194.4485         estimate D2E/DX2                !
 ! A40   L(21,15,26,5,-1)      168.5291         estimate D2E/DX2                !
 ! A41   L(5,19,15,7,-1)       171.4181         estimate D2E/DX2                !
 ! A42   L(17,1,18,16,-2)      180.0187         estimate D2E/DX2                !
 ! A43   L(4,5,19,6,-2)        180.2404         estimate D2E/DX2                !
 ! A44   L(8,10,11,14,-2)      183.905          estimate D2E/DX2                !
 ! A45   L(21,15,26,5,-2)      189.2055         estimate D2E/DX2                !
 ! A46   L(5,19,15,7,-2)       181.3218         estimate D2E/DX2                !
 ! D1    D(16,1,17,18)           0.1482         estimate D2E/DX2                !
 ! D2    D(16,1,18,2)         -179.9588         estimate D2E/DX2                !
 ! D3    D(18,2,4,3)          -179.7061         estimate D2E/DX2                !
 ! D4    D(18,2,4,5)           179.9393         estimate D2E/DX2                !
 ! D5    D(18,2,4,9)             4.0764         estimate D2E/DX2                !
 ! D6    D(4,2,18,1)          -179.8913         estimate D2E/DX2                !
 ! D7    D(2,4,5,6)            178.4853         estimate D2E/DX2                !
 ! D8    D(9,4,5,6)             -3.67           estimate D2E/DX2                !
 ! D9    D(2,4,9,22)            -5.4079         estimate D2E/DX2                !
 ! D10   D(3,4,9,22)           179.1179         estimate D2E/DX2                !
 ! D11   D(5,4,9,22)           177.9181         estimate D2E/DX2                !
 ! D12   D(2,4,19,26)            0.2844         estimate D2E/DX2                !
 ! D13   D(9,4,19,26)          178.1088         estimate D2E/DX2                !
 ! D14   D(3,5,6,7)              2.3629         estimate D2E/DX2                !
 ! D15   D(3,5,6,8)           -153.4935         estimate D2E/DX2                !
 ! D16   D(4,5,6,7)           -172.2513         estimate D2E/DX2                !
 ! D17   D(4,5,6,8)             31.8923         estimate D2E/DX2                !
 ! D18   D(19,5,6,7)             7.5082         estimate D2E/DX2                !
 ! D19   D(19,5,6,8)          -148.3482         estimate D2E/DX2                !
 ! D20   D(3,5,15,21)         -172.6205         estimate D2E/DX2                !
 ! D21   D(6,5,15,21)            8.9505         estimate D2E/DX2                !
 ! D22   D(3,5,19,26)           -0.2476         estimate D2E/DX2                !
 ! D23   D(6,5,19,26)         -178.2452         estimate D2E/DX2                !
 ! D24   D(5,6,7,10)          -166.4827         estimate D2E/DX2                !
 ! D25   D(5,6,7,21)           -29.2103         estimate D2E/DX2                !
 ! D26   D(5,6,8,10)           158.3866         estimate D2E/DX2                !
 ! D27   D(5,6,8,20)           -40.6352         estimate D2E/DX2                !
 ! D28   D(21,7,8,20)         -140.7635         estimate D2E/DX2                !
 ! D29   D(6,7,10,11)          175.7756         estimate D2E/DX2                !
 ! D30   D(21,7,10,11)          27.9703         estimate D2E/DX2                !
 ! D31   D(6,7,21,14)          152.7785         estimate D2E/DX2                !
 ! D32   D(6,7,21,15)           31.1612         estimate D2E/DX2                !
 ! D33   D(8,7,21,14)         -121.6722         estimate D2E/DX2                !
 ! D34   D(8,7,21,15)          116.7105         estimate D2E/DX2                !
 ! D35   D(10,7,21,14)         -51.3176         estimate D2E/DX2                !
 ! D36   D(10,7,21,15)        -172.935          estimate D2E/DX2                !
 ! D37   D(6,8,11,12)          -15.3314         estimate D2E/DX2                !
 ! D38   D(6,8,11,23)          169.6796         estimate D2E/DX2                !
 ! D39   D(20,8,11,12)        -153.124          estimate D2E/DX2                !
 ! D40   D(20,8,11,23)          31.8869         estimate D2E/DX2                !
 ! D41   D(7,10,11,12)         -13.9002         estimate D2E/DX2                !
 ! D42   D(7,10,11,23)         165.1427         estimate D2E/DX2                !
 ! D43   D(10,11,12,13)         -1.0704         estimate D2E/DX2                !
 ! D44   D(23,11,12,13)        179.6344         estimate D2E/DX2                !
 ! D45   D(11,12,13,24)        179.8941         estimate D2E/DX2                !
 ! D46   D(11,12,13,25)          5.0934         estimate D2E/DX2                !
 ! D47   D(12,13,24,25)       -167.3928         estimate D2E/DX2                !
 ! D48   D(19,15,21,7)         -20.2822         estimate D2E/DX2                !
 ! D49   D(19,15,21,14)       -175.8711         estimate D2E/DX2                !
 --------------------------------------------------------------------------------
 Trust Radius=3.00D-01 FncErr=1.00D-07 GrdErr=1.00D-06 EigMax=2.50D+02 EigMin=1.00D-04
 Number of steps in this run=    136 maximum allowed number of steps=    156.
 GradGradGradGradGradGradGradGradGradGradGradGradGradGradGradGradGradGrad

                          Input orientation:                          
 ---------------------------------------------------------------------
 Center     Atomic      Atomic             Coordinates (Angstroms)
 Number     Number       Type             X           Y           Z
 ---------------------------------------------------------------------
      1          6           0        1.717680   -0.454000   -0.319470
      2          6           0        3.395880   -1.203090   -0.734870
      3          6           0        4.780690   -2.729690   -1.587180
      4          6           0        5.018250   -1.365080   -0.822010
      5          6           0        5.679640   -2.353300   -1.366840
      6          6           0        6.952230   -2.275200   -1.356170
      7          6           0        7.907110   -2.965030   -1.889620
      8          6           0        8.063910   -2.010380   -1.006060
      9          7           0        6.244910   -0.896000   -0.503410
     10         16           0        9.627710   -3.242960   -1.854550
     11          6           0       11.119490   -3.970520   -2.257310
     12          6           0       11.740660   -5.019660   -2.846690
     13         16           0       10.638230   -5.979110   -3.363330
     14          6           0        8.388020   -5.108360   -2.897810
     15          6           0        6.563470   -4.259630   -2.466680
     16          1           0        0.707110    0.631610    0.280440
     17          1           0        0.562630   -0.857440   -0.542590
     18          1           0        3.131420    0.229340    0.057790
     19          1           0        5.980700   -3.212350   -1.838500
     20          1           0        7.473610   -0.936410   -0.706640
     21          1           0        7.936060   -4.109210   -2.169430
     22          1           0        5.695210    0.238130    0.071880
     23          1           0       12.108220   -3.697760   -2.112030
     24          1           0       11.512240   -6.344330   -3.579240
     25          1           0        9.873170   -5.872550   -3.355850
     26          1           0        5.166440   -4.280440   -2.435090
 ---------------------------------------------------------------------
                    Distance matrix (angstroms):
                    1          2          3          4          5
     1  C    0.000000
     2  C    1.884157   0.000000
     3  C    4.020931   2.230390   0.000000
     4  C    3.460690   1.632764   1.582429   0.000000
     5  C    4.516797   2.633995   0.999165   1.307997   0.000000
     6  C    5.638442   3.766040   2.230586   2.203162   1.275029
     7  C    6.861464   4.978863   3.149819   3.470611   2.368361
     8  C    6.570263   4.745078   3.410959   3.118707   2.435672
     9  N    4.552473   2.874865   2.584747   1.351383   1.785711
    10  S    8.526626   6.652102   4.881448   5.083276   4.076348
    11  C   10.223266   8.344498   6.493775   6.787749   5.744589
    12  C   11.300098   9.416015   7.434481   7.914928   6.784939
    13  S   10.925573   9.064811   6.929951   7.702711   6.459109
    14  C    8.532546   6.697082   4.515379   5.447609   4.155664
    15  C    6.524953   4.730246   2.508494   3.670295   2.371687
    16  H    1.599904   3.409760   5.601821   4.877304   6.029036
    17  H    1.243659   2.860726   4.731651   4.493142   5.394514
    18  H    1.614912   1.658344   3.765883   2.622280   3.897823
    19  H    5.299933   3.454912   1.317629   2.317751   1.025216
    20  H    5.789072   4.086539   3.353062   2.495168   2.379447
    21  H    7.446554   5.578237   3.492628   4.226039   2.969647
    22  H    4.056223   2.831056   3.520906   1.956424   2.964063
    23  H   11.031708   9.166505   7.409813   7.574511   6.609805
    24  H   11.885095  10.019885   7.896055   8.635227   7.405556
    25  H   10.251454   8.404087   6.240121   7.092805   5.824687
    26  H    5.568791   3.936460   1.809027   3.335163   2.262388
                    6          7          8          9         10
     6  C    0.000000
     7  C    1.293147   0.000000
     8  C    1.195215   1.310199   0.000000
     9  N    1.769094   2.994223   2.191634   0.000000
    10  S    2.888449   1.743255   2.164407   4.333259   0.000000
    11  C    4.588270   3.386088   3.839837   6.024149   1.707913
    12  C    5.716885   4.453492   5.095309   7.259394   2.933524
    13  S    5.597699   4.326143   5.285325   7.301946   3.283913
    14  C    3.530573   2.416937   3.644344   5.298117   2.470818
    15  C    2.307017   1.953038   3.073086   3.907674   3.286014
    16  H    7.080223   8.335765   7.921976   5.797865   9.957288
    17  H    6.595373   7.758725   7.603504   5.682546   9.465074
    18  H    4.782321   6.066599   5.520650   3.357850   7.610236
    19  H    1.433444   1.942894   2.545084   2.686587   3.647174
    20  H    1.576732   2.388025   1.261554   1.246049   3.358276
    21  H    2.234481   1.178253   2.403094   3.995038   1.926452
    22  H    3.152182   4.358924   3.439257   1.385417   5.594075
    23  H    5.401781   4.270326   4.519609   6.694469   2.534969
    24  H    6.503349   5.222207   6.106993   8.178618   4.018022
    25  H    5.046933   3.803800   4.869424   6.787248   3.037910
    26  H    2.893804   3.088545   3.948497   4.043380   4.616960
                   11         12         13         14         15
    11  C    0.000000
    12  C    1.354221   0.000000
    13  S    2.342931   1.550101   0.000000
    14  C    3.027515   3.354203   2.457307   0.000000
    15  C    4.569982   5.246461   4.512678   2.057960   0.000000
    16  H   11.663509  12.784953  12.474206  10.101728   8.109738
    17  H   11.139068  12.148305  11.649283   9.211629   7.161501
    18  H    9.317069  10.493189  10.324781   8.053475   6.188923
    19  H    5.211275   6.120454   5.627846   3.242249   1.353154
    20  H    4.990275   6.281756   6.519329   4.800264   3.869094
    21  H    3.187661   3.970212   3.496233   1.316475   1.412440
    22  H    7.249874   8.527008   8.653796   6.682458   5.237176
    23  H    1.035901   1.556356   2.988508   4.055506   5.584418
    24  H    2.745310   1.530868   0.971543   3.428224   5.483985
    25  H    2.525435   2.115227   0.772482   1.731894   3.787644
    26  H    5.963762   6.628441   5.804102   3.358294   1.397542
                   16         17         18         19         20
    16  H    0.000000
    17  H    1.707490   0.000000
    18  H    2.467524   2.853109   0.000000
    19  H    6.861245   6.048179   4.853817   0.000000
    20  H    7.015592   6.913378   4.560476   2.947845   0.000000
    21  H    8.985263   8.221197   6.846027   2.176535   3.524241
    22  H    5.007940   5.284054   2.563844   3.954348   2.268996
    23  H   12.427899  11.992965  10.035595   6.152800   5.574925
    24  H   13.428019  12.618287  11.255189   6.590706   7.335391
    25  H   11.812847  10.943122   9.712734   4.952811   6.094397
    26  H    7.168540   6.040989   5.540205   1.469611   4.415100
                   21         22         23         24         25
    21  H    0.000000
    22  H    5.379986   0.000000
    23  H    4.192792   7.835011   0.000000
    24  H    4.446615   9.513007   3.084190   0.000000
    25  H    2.875649   8.157518   3.357417   1.720183   0.000000
    26  H    2.787596   5.194417   6.973679   6.770369   5.053308
                   26
    26  H    0.000000
 Stoichiometry    C12H11NS2
 Framework group  C1[X(C12H11NS2)]
 Deg. of freedom    72
 Full point group                 C1      NOp   1
 Largest Abelian subgroup         C1      NOp   1
 Largest concise Abelian subgroup C1      NOp   1
                         Standard orientation:                         
 ---------------------------------------------------------------------
 Center     Atomic      Atomic             Coordinates (Angstroms)
 Number     Number       Type             X           Y           Z
 ---------------------------------------------------------------------
      1          6           0       -6.601809    0.629585   -0.005259
      2          6           0       -4.728257    0.429990   -0.002033
      3          6           0       -2.613105    1.137641   -0.003750
      4          6           0       -3.268999   -0.302433    0.004552
      5          6           0       -2.098468    0.281207   -0.004098
      6          6           0       -1.072821   -0.475324    0.033422
      7          6           0        0.197835   -0.273699    0.163843
      8          6           0       -0.361003   -1.420846   -0.133435
      9          7           0       -2.550210   -1.446170   -0.033470
     10         16           0        1.762467   -1.026330    0.007596
     11          6           0        3.466253   -1.144978    0.009217
     12          6           0        4.644012   -0.476546    0.009044
     13         16           0        4.316109    1.038169   -0.021478
     14          6           0        1.892064    1.441008   -0.012092
     15          6           0       -0.155860    1.641586    0.019144
     16          1           0       -8.125918    0.143020    0.001182
     17          1           0       -7.317265    1.646767   -0.017497
     18          1           0       -5.844297   -0.796529    0.012495
     19          1           0       -1.310832    0.937390   -0.015108
     20          1           0       -1.448078   -2.003608    0.131471
     21          1           0        0.843154    0.658659   -0.156394
     22          1           0       -3.705019   -2.209578    0.021315
     23          1           0        4.125485   -1.943911    0.023693
     24          1           0        5.279836    0.915932   -0.007897
     25          1           0        3.622434    1.375602    0.019532
     26          1           0       -1.324297    2.406884   -0.027724
 ---------------------------------------------------------------------
 Rotational constants (GHZ):           2.0035975           0.1993124           0.1813618
 Standard basis: 6-31G(2df,p) (6D, 7F)
 There are   528 symmetry adapted cartesian basis functions of A   symmetry.
 There are   483 symmetry adapted basis functions of A   symmetry.
   483 basis functions,   785 primitive gaussians,   528 cartesian basis functions
    61 alpha electrons       61 beta electrons
       nuclear repulsion energy      1124.9821971232 Hartrees.
 NAtoms=   26 NActive=   26 NUniq=   26 SFac= 1.00D+00 NAtFMM=   60 NAOKFM=F Big=F
 Integral buffers will be    131072 words long.
 Raffenetti 2 integral format.
 Two-electron integral symmetry is turned on.
 One-electron integrals computed using PRISM.
 PrsmSu:  requested number of processors reduced to:  12 ShMem   1 Linda.
 NBasis=   483 RedAO= T EigKep=  3.64D-05  NBF=   483
 NBsUse=   483 1.00D-06 EigRej= -1.00D+00 NBFU=   483
 ExpMin= 1.17D-01 ExpMax= 2.19D+04 ExpMxC= 3.30D+03 IAcc=3 IRadAn=         5 AccDes= 0.00D+00
 Harris functional with IExCor=  402 and IRadAn=       5 diagonalized for initial guess.
 HarFok:  IExCor=  402 AccDes= 0.00D+00 IRadAn=         5 IDoV= 1 UseB2=F ITyADJ=14
 ICtDFT=  3500011 ScaDFX=  1.000000  1.000000  1.000000  1.000000
 FoFCou: FMM=F IPFlag=           0 FMFlag=      100000 FMFlg1=           0
         NFxFlg=           0 DoJE=T BraDBF=F KetDBF=T FulRan=T
         wScrn=  0.000000 ICntrl=       500 IOpCl=  0 I1Cent=   200000004 NGrid=           0
         NMat0=    1 NMatS0=      1 NMatT0=    0 NMatD0=    1 NMtDS0=    0 NMtDT0=    0
 Petite list used in FoFCou.
 Requested convergence on RMS density matrix=1.00D-08 within 128 cycles.
 Requested convergence on MAX density matrix=1.00D-06.
 Requested convergence on             energy=1.00D-06.
 No special actions if energy rises.
 Integral accuracy reduced to 1.0D-05 until final iterations.
 Rare condition: small coef for last iteration:  0.000D+00
 EnCoef did   100 forward-backward iterations
 EnCoef did   100 forward-backward iterations
 EnCoef did   100 forward-backward iterations
 EnCoef did     1 forward-backward iterations
 EnCoef did   100 forward-backward iterations
 EnCoef did   100 forward-backward iterations
 EnCoef did     5 forward-backward iterations
 EnCoef did   100 forward-backward iterations
 EnCoef did     4 forward-backward iterations
 EnCoef did     4 forward-backward iterations
 EnCoef did     5 forward-backward iterations
 EnCoef did    17 forward-backward iterations
 Rare condition: small coef for last iteration:  0.444D-15
 EnCoef did   100 forward-backward iterations
 Rare condition: small coef for last iteration:  0.000D+00
 Restarting incremental Fock formation.
 Initial convergence to 1.0D-05 achieved.  Increase integral accuracy.
 SCF Done:  E(RB3LYP) =  -1311.71943937     A.U. after   49 cycles
            NFock= 49  Conv=0.68D-08     -V/T= 1.9974

 **********************************************************************

            Population analysis using the SCF density.

 **********************************************************************

 Orbital symmetries:
       Occupied  (A) (A) (A) (A) (A) (A) (A) (A) (A) (A) (A) (A)
                 (A) (A) (A) (A) (A) (A) (A) (A) (A) (A) (A) (A)
                 (A) (A) (A) (A) (A) (A) (A) (A) (A) (A) (A) (A)
                 (A) (A) (A) (A) (A) (A) (A) (A) (A) (A) (A) (A)
                 (A) (A) (A) (A) (A) (A) (A) (A) (A) (A) (A) (A)
                 (A)
       Virtual   (A) (A) (A) (A) (A) (A) (A) (A) (A) (A) (A) (A)
                 (A) (A) (A) (A) (A) (A) (A) (A) (A) (A) (A) (A)
                 (A) (A) (A) (A) (A) (A) (A) (A) (A) (A) (A) (A)
                 (A) (A) (A) (A) (A) (A) (A) (A) (A) (A) (A) (A)
                 (A) (A) (A) (A) (A) (A) (A) (A) (A) (A) (A) (A)
                 (A) (A) (A) (A) (A) (A) (A) (A) (A) (A) (A) (A)
                 (A) (A) (A) (A) (A) (A) (A) (A) (A) (A) (A) (A)
                 (A) (A) (A) (A) (A) (A) (A) (A) (A) (A) (A) (A)
                 (A) (A) (A) (A) (A) (A) (A) (A) (A) (A) (A) (A)
                 (A) (A) (A) (A) (A) (A) (A) (A) (A) (A) (A) (A)
                 (A) (A) (A) (A) (A) (A) (A) (A) (A) (A) (A) (A)
                 (A) (A) (A) (A) (A) (A) (A) (A) (A) (A) (A) (A)
                 (A) (A) (A) (A) (A) (A) (A) (A) (A) (A) (A) (A)
                 (A) (A) (A) (A) (A) (A) (A) (A) (A) (A) (A) (A)
                 (A) (A) (A) (A) (A) (A) (A) (A) (A) (A) (A) (A)
                 (A) (A) (A) (A) (A) (A) (A) (A) (A) (A) (A) (A)
                 (A) (A) (A) (A) (A) (A) (A) (A) (A) (A) (A) (A)
                 (A) (A) (A) (A) (A) (A) (A) (A) (A) (A) (A) (A)
                 (A) (A) (A) (A) (A) (A) (A) (A) (A) (A) (A) (A)
                 (A) (A) (A) (A) (A) (A) (A) (A) (A) (A) (A) (A)
                 (A) (A) (A) (A) (A) (A) (A) (A) (A) (A) (A) (A)
                 (A) (A) (A) (A) (A) (A) (A) (A) (A) (A) (A) (A)
                 (A) (A) (A) (A) (A) (A) (A) (A) (A) (A) (A) (A)
                 (A) (A) (A) (A) (A) (A) (A) (A) (A) (A) (A) (A)
                 (A) (A) (A) (A) (A) (A) (A) (A) (A) (A) (A) (A)
                 (A) (A) (A) (A) (A) (A) (A) (A) (A) (A) (A) (A)
                 (A) (A) (A) (A) (A) (A) (A) (A) (A) (A) (A) (A)
                 (A) (A) (A) (A) (A) (A) (A) (A) (A) (A) (A) (A)
                 (A) (A) (A) (A) (A) (A) (A) (A) (A) (A) (A) (A)
                 (A) (A) (A) (A) (A) (A) (A) (A) (A) (A) (A) (A)
                 (A) (A) (A) (A) (A) (A) (A) (A) (A) (A) (A) (A)
                 (A) (A) (A) (A) (A) (A) (A) (A) (A) (A) (A) (A)
                 (A) (A) (A) (A) (A) (A) (A) (A) (A) (A) (A) (A)
                 (A) (A) (A) (A) (A) (A) (A) (A) (A) (A) (A) (A)
                 (A) (A) (A) (A) (A) (A) (A) (A) (A) (A) (A) (A)
                 (A) (A)
 The electronic state is 1-A.
 Alpha  occ. eigenvalues --  -88.93793 -88.88076 -14.41907 -10.37594 -10.32848
 Alpha  occ. eigenvalues --  -10.27882 -10.27645 -10.26199 -10.25423 -10.25312
 Alpha  occ. eigenvalues --  -10.25022 -10.24698 -10.22105 -10.17474 -10.16715
 Alpha  occ. eigenvalues --   -8.01712  -7.99156  -5.98880  -5.96513  -5.96093
 Alpha  occ. eigenvalues --   -5.95726  -5.95145  -5.94859  -1.15993  -1.06784
 Alpha  occ. eigenvalues --   -0.99242  -0.98670  -0.88287  -0.83514  -0.79062
 Alpha  occ. eigenvalues --   -0.74844  -0.71820  -0.71568  -0.68768  -0.68287
 Alpha  occ. eigenvalues --   -0.62398  -0.59360  -0.58334  -0.53570  -0.52971
 Alpha  occ. eigenvalues --   -0.50151  -0.48030  -0.47456  -0.42807  -0.39916
 Alpha  occ. eigenvalues --   -0.39705  -0.36940  -0.36040  -0.34025  -0.33149
 Alpha  occ. eigenvalues --   -0.32863  -0.31639  -0.31589  -0.27870  -0.25397
 Alpha  occ. eigenvalues --   -0.24129  -0.23294  -0.21942  -0.20658  -0.18701
 Alpha  occ. eigenvalues --   -0.17701
 Alpha virt. eigenvalues --   -0.14935  -0.14724  -0.11620  -0.09940  -0.07876
 Alpha virt. eigenvalues --   -0.06902  -0.05753  -0.04539  -0.02893  -0.02080
 Alpha virt. eigenvalues --   -0.00457   0.01550   0.02511   0.04652   0.05671
 Alpha virt. eigenvalues --    0.06870   0.10761   0.12182   0.13938   0.16021
 Alpha virt. eigenvalues --    0.16190   0.17393   0.19009   0.19763   0.20843
 Alpha virt. eigenvalues --    0.22530   0.24634   0.25205   0.26301   0.26724
 Alpha virt. eigenvalues --    0.28655   0.28840   0.30784   0.31325   0.33209
 Alpha virt. eigenvalues --    0.33512   0.36758   0.37496   0.38003   0.38322
 Alpha virt. eigenvalues --    0.39681   0.40701   0.42386   0.43141   0.43989
 Alpha virt. eigenvalues --    0.44623   0.45783   0.47175   0.48263   0.48352
 Alpha virt. eigenvalues --    0.48904   0.49733   0.50119   0.51181   0.51775
 Alpha virt. eigenvalues --    0.52515   0.53010   0.54276   0.55342   0.56048
 Alpha virt. eigenvalues --    0.56614   0.56794   0.58230   0.59844   0.60911
 Alpha virt. eigenvalues --    0.61275   0.61383   0.62545   0.64148   0.64331
 Alpha virt. eigenvalues --    0.65423   0.66102   0.66610   0.67049   0.67593
 Alpha virt. eigenvalues --    0.68864   0.69536   0.69946   0.71041   0.71426
 Alpha virt. eigenvalues --    0.72451   0.72678   0.74106   0.75005   0.76269
 Alpha virt. eigenvalues --    0.77049   0.77696   0.78629   0.80056   0.80263
 Alpha virt. eigenvalues --    0.81279   0.82651   0.83526   0.84314   0.85571
 Alpha virt. eigenvalues --    0.85862   0.87335   0.87817   0.88950   0.90000
 Alpha virt. eigenvalues --    0.90698   0.91530   0.93461   0.93583   0.94840
 Alpha virt. eigenvalues --    0.95419   0.98145   0.99637   1.00386   1.00903
 Alpha virt. eigenvalues --    1.01312   1.02888   1.03890   1.05701   1.07401
 Alpha virt. eigenvalues --    1.07938   1.08331   1.09178   1.10009   1.12748
 Alpha virt. eigenvalues --    1.14359   1.14673   1.17074   1.18292   1.20369
 Alpha virt. eigenvalues --    1.21626   1.22774   1.23741   1.23898   1.24847
 Alpha virt. eigenvalues --    1.26526   1.27372   1.29529   1.30349   1.31054
 Alpha virt. eigenvalues --    1.32255   1.32756   1.34992   1.36177   1.37366
 Alpha virt. eigenvalues --    1.38389   1.40084   1.40200   1.41817   1.43399
 Alpha virt. eigenvalues --    1.44905   1.47880   1.49105   1.50565   1.52045
 Alpha virt. eigenvalues --    1.54612   1.54687   1.56017   1.58334   1.59869
 Alpha virt. eigenvalues --    1.60560   1.62254   1.62911   1.64303   1.65486
 Alpha virt. eigenvalues --    1.66439   1.68237   1.69084   1.69634   1.70482
 Alpha virt. eigenvalues --    1.72880   1.75595   1.76722   1.78352   1.79653
 Alpha virt. eigenvalues --    1.79932   1.82860   1.84152   1.84697   1.86761
 Alpha virt. eigenvalues --    1.87495   1.90856   1.92093   1.92774   1.93132
 Alpha virt. eigenvalues --    1.93772   1.94590   1.95627   1.98238   2.00716
 Alpha virt. eigenvalues --    2.02344   2.03665   2.08332   2.10123   2.10190
 Alpha virt. eigenvalues --    2.11721   2.14688   2.15987   2.16383   2.17746
 Alpha virt. eigenvalues --    2.17955   2.20789   2.21931   2.22162   2.23758
 Alpha virt. eigenvalues --    2.25049   2.26131   2.26930   2.27903   2.29500
 Alpha virt. eigenvalues --    2.30450   2.31413   2.33222   2.34149   2.34871
 Alpha virt. eigenvalues --    2.35503   2.38725   2.41299   2.43103   2.43740
 Alpha virt. eigenvalues --    2.44897   2.47640   2.49830   2.50358   2.52264
 Alpha virt. eigenvalues --    2.55580   2.58558   2.59681   2.61484   2.62827
 Alpha virt. eigenvalues --    2.63854   2.65705   2.67286   2.68971   2.69722
 Alpha virt. eigenvalues --    2.72223   2.73479   2.74710   2.74942   2.75955
 Alpha virt. eigenvalues --    2.77657   2.80043   2.80607   2.82498   2.83825
 Alpha virt. eigenvalues --    2.84233   2.84732   2.86100   2.86597   2.89264
 Alpha virt. eigenvalues --    2.89998   2.90691   2.92192   2.94139   2.95285
 Alpha virt. eigenvalues --    2.96028   2.98219   2.99571   3.01573   3.02692
 Alpha virt. eigenvalues --    3.03825   3.04919   3.05682   3.07570   3.09063
 Alpha virt. eigenvalues --    3.12180   3.13485   3.14008   3.14617   3.16053
 Alpha virt. eigenvalues --    3.16504   3.19181   3.21730   3.22493   3.23127
 Alpha virt. eigenvalues --    3.24031   3.24630   3.25899   3.27640   3.28755
 Alpha virt. eigenvalues --    3.29610   3.31439   3.31971   3.32925   3.34705
 Alpha virt. eigenvalues --    3.36362   3.38390   3.41550   3.43185   3.43984
 Alpha virt. eigenvalues --    3.44832   3.46312   3.48649   3.50048   3.52972
 Alpha virt. eigenvalues --    3.53767   3.55565   3.57814   3.58945   3.61066
 Alpha virt. eigenvalues --    3.62147   3.64616   3.66185   3.67819   3.69603
 Alpha virt. eigenvalues --    3.70568   3.71750   3.72468   3.74822   3.75224
 Alpha virt. eigenvalues --    3.78237   3.79105   3.79139   3.83586   3.84253
 Alpha virt. eigenvalues --    3.86344   3.90073   3.91063   3.95158   3.97903
 Alpha virt. eigenvalues --    3.98952   4.01357   4.04736   4.06707   4.07343
 Alpha virt. eigenvalues --    4.09483   4.14161   4.16057   4.17510   4.18059
 Alpha virt. eigenvalues --    4.19030   4.20310   4.21751   4.22931   4.23731
 Alpha virt. eigenvalues --    4.25724   4.26070   4.26790   4.27845   4.29739
 Alpha virt. eigenvalues --    4.30849   4.31312   4.31905   4.33759   4.35905
 Alpha virt. eigenvalues --    4.36074   4.38100   4.39816   4.41034   4.43110
 Alpha virt. eigenvalues --    4.44738   4.46673   4.49153   4.49411   4.50796
 Alpha virt. eigenvalues --    4.51539   4.54227   4.54443   4.56938   4.58411
 Alpha virt. eigenvalues --    4.58997   4.59794   4.62278   4.65855   4.67492
 Alpha virt. eigenvalues --    4.68176   4.71921   4.74025   4.75102   4.76398
 Alpha virt. eigenvalues --    4.77360   4.80617   4.84329   4.86690   4.88912
 Alpha virt. eigenvalues --    4.89674   4.92013   4.93816   4.96813   4.98225
 Alpha virt. eigenvalues --    5.01705   5.04130   5.06759   5.08287   5.12396
 Alpha virt. eigenvalues --    5.14765   5.18379   5.20063   5.22650   5.24026
 Alpha virt. eigenvalues --    5.25786   5.27927   5.29684   5.33283   5.39736
 Alpha virt. eigenvalues --    5.41896   5.45178   5.49767   5.56026   5.62979
 Alpha virt. eigenvalues --    5.71180   5.78975   5.80058   5.85933   5.86583
 Alpha virt. eigenvalues --    6.00370   6.07639   6.22160   6.34972   6.69067
 Alpha virt. eigenvalues --    6.82196   8.13900   8.97689   9.88830  10.27524
 Alpha virt. eigenvalues --   10.30325  10.47493  10.66504  10.72816  11.08460
 Alpha virt. eigenvalues --   11.28476  11.63577  11.81737  11.88657  12.11766
 Alpha virt. eigenvalues --   13.56287  20.41312
          Condensed to atoms (all electrons):
               1          2          3          4          5          6
     1  C    5.518019   0.120539   0.001551  -0.010355   0.000119   0.000026
     2  C    0.120539   5.874130  -0.078009   0.303546   0.034753   0.007644
     3  C    0.001551  -0.078009   6.513786   0.370072  -0.548840   0.010774
     4  C   -0.010355   0.303546   0.370072   5.285648  -0.284937  -0.028365
     5  C    0.000119   0.034753  -0.548840  -0.284937   6.052422   0.028500
     6  C    0.000026   0.007644   0.010774  -0.028365   0.028500   5.302977
     7  C   -0.000000   0.000099  -0.026859   0.015983   0.017578   0.195941
     8  C    0.000001  -0.000395   0.032816  -0.020359   0.055871   0.207869
     9  N    0.000119  -0.034895  -0.085276   0.357338   0.050541  -0.070384
    10  S    0.000000  -0.000001  -0.000310   0.000579  -0.001802   0.001081
    11  C   -0.000000   0.000000   0.000000  -0.000000   0.000003   0.000259
    12  C    0.000000  -0.000000   0.000000   0.000000   0.000001  -0.000003
    13  S   -0.000000  -0.000000   0.000001  -0.000000  -0.000011  -0.000077
    14  C    0.000000   0.000000  -0.000031   0.000123   0.005282   0.010168
    15  C    0.000004   0.000372  -0.139710   0.030717   0.145000  -0.157081
    16  H    0.168409   0.008452  -0.000012  -0.000169  -0.000011   0.000000
    17  H    0.295161  -0.009307  -0.000125   0.000034   0.000068  -0.000000
    18  H    0.136377   0.005426   0.000152   0.021675   0.005368  -0.000146
    19  H   -0.000033  -0.004996   0.239801  -0.121114  -0.140350   0.022253
    20  H   -0.000006   0.000297  -0.001510  -0.005091   0.003818   0.015062
    21  H   -0.000000  -0.000004   0.000213  -0.001262  -0.020029  -0.022197
    22  H   -0.000400  -0.003605   0.002358  -0.038451   0.015353   0.007892
    23  H    0.000000   0.000000   0.000000   0.000000   0.000000   0.000001
    24  H    0.000000  -0.000000  -0.000000  -0.000000  -0.000000  -0.000000
    25  H    0.000000   0.000000  -0.000001   0.000000   0.000004   0.000011
    26  H   -0.000032  -0.000776   0.076338  -0.009989  -0.012230   0.011856
               7          8          9         10         11         12
     1  C   -0.000000   0.000001   0.000119   0.000000  -0.000000   0.000000
     2  C    0.000099  -0.000395  -0.034895  -0.000001   0.000000  -0.000000
     3  C   -0.026859   0.032816  -0.085276  -0.000310   0.000000   0.000000
     4  C    0.015983  -0.020359   0.357338   0.000579  -0.000000   0.000000
     5  C    0.017578   0.055871   0.050541  -0.001802   0.000003   0.000001
     6  C    0.195941   0.207869  -0.070384   0.001081   0.000259  -0.000003
     7  C    5.785548   0.275139  -0.009452   0.032967   0.015644  -0.001938
     8  C    0.275139   5.976880  -0.184900  -0.135564   0.003927  -0.000280
     9  N   -0.009452  -0.184900   7.274766  -0.002143  -0.000002  -0.000000
    10  S    0.032967  -0.135564  -0.002143  15.814206   0.268408  -0.057115
    11  C    0.015644   0.003927  -0.000002   0.268408   5.185948   0.620875
    12  C   -0.001938  -0.000280  -0.000000  -0.057115   0.620875   5.650399
    13  S    0.001026   0.000046  -0.000000  -0.033046  -0.162022   0.266569
    14  C   -0.163745  -0.004874  -0.000006   0.157373  -0.037415   0.004363
    15  C   -0.108658   0.040789   0.001380  -0.027649   0.000712  -0.000067
    16  H    0.000000  -0.000000   0.000004   0.000000   0.000000   0.000000
    17  H    0.000000  -0.000000  -0.000004  -0.000000   0.000000  -0.000000
    18  H   -0.000002  -0.000008  -0.004981  -0.000000   0.000000  -0.000000
    19  H   -0.063970   0.010087   0.017500  -0.002269   0.000039   0.000000
    20  H    0.006877   0.124350   0.114886  -0.001119   0.000015  -0.000001
    21  H    0.143342  -0.039899  -0.000387  -0.070555   0.004838  -0.000996
    22  H   -0.000331   0.004626   0.156419  -0.000003   0.000000   0.000000
    23  H    0.000434  -0.000029  -0.000000  -0.014033   0.313100  -0.078540
    24  H    0.000022   0.000000  -0.000000  -0.000612   0.005333  -0.028761
    25  H    0.001154   0.000104   0.000000   0.016649   0.008510  -0.026186
    26  H    0.020237  -0.005362  -0.000567   0.000288  -0.000003   0.000000
              13         14         15         16         17         18
     1  C   -0.000000   0.000000   0.000004   0.168409   0.295161   0.136377
     2  C   -0.000000   0.000000   0.000372   0.008452  -0.009307   0.005426
     3  C    0.000001  -0.000031  -0.139710  -0.000012  -0.000125   0.000152
     4  C   -0.000000   0.000123   0.030717  -0.000169   0.000034   0.021675
     5  C   -0.000011   0.005282   0.145000  -0.000011   0.000068   0.005368
     6  C   -0.000077   0.010168  -0.157081   0.000000  -0.000000  -0.000146
     7  C    0.001026  -0.163745  -0.108658   0.000000   0.000000  -0.000002
     8  C    0.000046  -0.004874   0.040789  -0.000000  -0.000000  -0.000008
     9  N   -0.000000  -0.000006   0.001380   0.000004  -0.000004  -0.004981
    10  S   -0.033046   0.157373  -0.027649   0.000000  -0.000000  -0.000000
    11  C   -0.162022  -0.037415   0.000712   0.000000   0.000000   0.000000
    12  C    0.266569   0.004363  -0.000067   0.000000  -0.000000  -0.000000
    13  S   14.913727   0.054914  -0.000597   0.000000   0.000000   0.000000
    14  C    0.054914   6.292388   0.189400  -0.000000  -0.000000  -0.000000
    15  C   -0.000597   0.189400   6.520248  -0.000000  -0.000000  -0.000002
    16  H    0.000000  -0.000000  -0.000000   0.979346  -0.060617  -0.026688
    17  H    0.000000  -0.000000  -0.000000  -0.060617   0.553468   0.000396
    18  H    0.000000  -0.000000  -0.000002  -0.026688   0.000396   0.702736
    19  H    0.000060  -0.015980  -0.015781  -0.000000   0.000001   0.000048
    20  H   -0.000000   0.000037  -0.001949   0.000000   0.000000   0.000045
    21  H    0.001222  -0.004812  -0.004454   0.000000   0.000000   0.000000
    22  H    0.000000  -0.000001  -0.000020  -0.000005   0.000004   0.008358
    23  H    0.023802   0.001936  -0.000012  -0.000000  -0.000000  -0.000000
    24  H    0.327141   0.007335  -0.000019   0.000000  -0.000000   0.000000
    25  H    0.340807  -0.056853   0.000815  -0.000000  -0.000000  -0.000000
    26  H    0.000002  -0.001457   0.051676   0.000000   0.000002   0.000006
              19         20         21         22         23         24
     1  C   -0.000033  -0.000006  -0.000000  -0.000400   0.000000   0.000000
     2  C   -0.004996   0.000297  -0.000004  -0.003605   0.000000  -0.000000
     3  C    0.239801  -0.001510   0.000213   0.002358   0.000000  -0.000000
     4  C   -0.121114  -0.005091  -0.001262  -0.038451   0.000000  -0.000000
     5  C   -0.140350   0.003818  -0.020029   0.015353   0.000000  -0.000000
     6  C    0.022253   0.015062  -0.022197   0.007892   0.000001  -0.000000
     7  C   -0.063970   0.006877   0.143342  -0.000331   0.000434   0.000022
     8  C    0.010087   0.124350  -0.039899   0.004626  -0.000029   0.000000
     9  N    0.017500   0.114886  -0.000387   0.156419  -0.000000  -0.000000
    10  S   -0.002269  -0.001119  -0.070555  -0.000003  -0.014033  -0.000612
    11  C    0.000039   0.000015   0.004838   0.000000   0.313100   0.005333
    12  C    0.000000  -0.000001  -0.000996   0.000000  -0.078540  -0.028761
    13  S    0.000060  -0.000000   0.001222   0.000000   0.023802   0.327141
    14  C   -0.015980   0.000037  -0.004812  -0.000001   0.001936   0.007335
    15  C   -0.015781  -0.001949  -0.004454  -0.000020  -0.000012  -0.000019
    16  H   -0.000000   0.000000   0.000000  -0.000005  -0.000000   0.000000
    17  H    0.000001   0.000000   0.000000   0.000004  -0.000000  -0.000000
    18  H    0.000048   0.000045   0.000000   0.008358  -0.000000   0.000000
    19  H    0.819380   0.000695   0.017867  -0.000668  -0.000001   0.000000
    20  H    0.000695   0.431557   0.000712  -0.003489  -0.000001   0.000000
    21  H    0.017867   0.000712   0.595092   0.000013  -0.000090  -0.000031
    22  H   -0.000668  -0.003489   0.000013   0.725611  -0.000000   0.000000
    23  H   -0.000001  -0.000001  -0.000090  -0.000000   0.576087  -0.001417
    24  H    0.000000   0.000000  -0.000031   0.000000  -0.001417   0.471895
    25  H   -0.000028   0.000000  -0.001236  -0.000000   0.000901   0.013183
    26  H   -0.029248   0.000294   0.006076   0.000017   0.000000  -0.000000
              25         26
     1  C    0.000000  -0.000032
     2  C    0.000000  -0.000776
     3  C   -0.000001   0.076338
     4  C    0.000000  -0.009989
     5  C    0.000004  -0.012230
     6  C    0.000011   0.011856
     7  C    0.001154   0.020237
     8  C    0.000104  -0.005362
     9  N    0.000000  -0.000567
    10  S    0.016649   0.000288
    11  C    0.008510  -0.000003
    12  C   -0.026186   0.000000
    13  S    0.340807   0.000002
    14  C   -0.056853  -0.001457
    15  C    0.000815   0.051676
    16  H   -0.000000   0.000000
    17  H   -0.000000   0.000002
    18  H   -0.000000   0.000006
    19  H   -0.000028  -0.029248
    20  H    0.000000   0.000294
    21  H   -0.001236   0.006076
    22  H   -0.000000   0.000017
    23  H    0.000901   0.000000
    24  H    0.013183  -0.000000
    25  H    0.653496  -0.000017
    26  H   -0.000017   0.820379
 Mulliken charges:
               1
     1  C   -0.229499
     2  C   -0.223268
     3  C   -0.367177
     4  C    0.134377
     5  C    0.593530
     6  C    0.455940
     7  C   -0.137034
     8  C   -0.340836
     9  N   -0.579954
    10  S    0.054670
    11  C   -0.228169
    12  C   -0.348320
    13  S    0.266436
    14  C   -0.438143
    15  C   -0.525112
    16  H   -0.068708
    17  H    0.220918
    18  H    0.151239
    19  H    0.266704
    20  H    0.314520
    21  H    0.396575
    22  H    0.126325
    23  H    0.177861
    24  H    0.205930
    25  H    0.048686
    26  H    0.072508
 Sum of Mulliken charges =  -0.00000
 Mulliken charges with hydrogens summed into heavy atoms:
               1
     1  C    0.073950
     2  C   -0.223268
     3  C   -0.367177
     4  C    0.134377
     5  C    0.860233
     6  C    0.455940
     7  C    0.259540
     8  C   -0.340836
     9  N   -0.139109
    10  S    0.054670
    11  C   -0.050308
    12  C   -0.348320
    13  S    0.521053
    14  C   -0.438143
    15  C   -0.452604
 Electronic spatial extent (au):  <R**2>=           5675.3997
 Charge=             -0.0000 electrons
 Dipole moment (field-independent basis, Debye):
    X=             -1.0653    Y=             -0.7029    Z=              0.2604  Tot=              1.3026
 Quadrupole moment (field-independent basis, Debye-Ang):
   XX=           -105.5236   YY=           -110.1511   ZZ=           -106.3141
   XY=             11.7184   XZ=             -0.1996   YZ=             -1.1742
 Traceless Quadrupole moment (field-independent basis, Debye-Ang):
   XX=              1.8060   YY=             -2.8215   ZZ=              1.0155
   XY=             11.7184   XZ=             -0.1996   YZ=             -1.1742
 Octapole moment (field-independent basis, Debye-Ang**2):
  XXX=             74.0031  YYY=            -20.8913  ZZZ=              0.1284  XYY=             13.0735
  XXY=             66.0007  XXZ=              3.0995  XZZ=             18.5033  YZZ=             -3.5116
  YYZ=              1.6230  XYZ=              1.7532
 Hexadecapole moment (field-independent basis, Debye-Ang**3):
 XXXX=          -7583.1142 YYYY=           -869.8580 ZZZZ=           -115.5773 XXXY=             -0.9867
 XXXZ=             10.0949 YYYX=             50.7941 YYYZ=             -5.7457 ZZZX=              0.0697
 ZZZY=             -0.7195 XXYY=          -1240.6764 XXZZ=          -1302.3433 YYZZ=           -166.2750
 XXYZ=             -0.6645 YYXZ=             -1.4454 ZZXY=             16.0968
 N-N= 1.124982197123D+03 E-N=-5.340530344425D+03  KE= 1.315167669024D+03
 PrsmSu:  requested number of processors reduced to:  13 ShMem   1 Linda.
 Calling FoFJK, ICntrl=      2127 FMM=F ISym2X=0 I1Cent= 0 IOpClX= 0 NMat=1 NMatS=1 NMatT=0.
 ***** Axes restored to original set *****
 -------------------------------------------------------------------
 Center     Atomic                   Forces (Hartrees/Bohr)
 Number     Number              X              Y              Z
 -------------------------------------------------------------------
      1        6          -0.023121390    0.036304683    0.024417601
      2        6          -0.007781026    0.028033672    0.014868488
      3        6          -0.910973779   -0.325223436   -0.195369411
      4        6          -0.147767705    0.160845401    0.088177237
      5        6           0.760597490    0.224791220    0.130530456
      6        6          -0.059934390   -0.050476478   -0.069630398
      7        6           0.038108234    0.009336722   -0.050796996
      8        6           0.191349934    0.134869580    0.134568017
      9        7          -0.151430590    0.264555673    0.138962483
     10       16           0.109716003   -0.028740868   -0.024502656
     11        6           0.028953465   -0.017216654   -0.012899072
     12        6           0.053316430    0.100185054    0.060834716
     13       16           1.076912721   -0.114636013    0.066771500
     14        6          -0.066429843   -0.004965236    0.004472136
     15        6          -0.025108092   -0.016560643   -0.028891864
     16        1           0.050470752   -0.018099695   -0.011834752
     17        1           0.074002427   -0.014816253   -0.008927842
     18        1          -0.026408226   -0.034405832   -0.018797936
     19        1           0.079074253   -0.195906777   -0.091255067
     20        1           0.015324800    0.018506124    0.025704597
     21        1          -0.002561373   -0.059175098    0.001316564
     22        1           0.038675319   -0.053094028   -0.024155566
     23        1           0.035183761    0.072616603    0.038029821
     24        1           0.464481770   -0.273771713   -0.166695909
     25        1          -1.614030233    0.191603124   -0.012678863
     26        1           0.019379285   -0.034559133   -0.012217283
 -------------------------------------------------------------------
 Cartesian Forces:  Max     1.614030233 RMS     0.280516474

 GradGradGradGradGradGradGradGradGradGradGradGradGradGradGradGradGradGrad
 Berny optimization.
 FormGI is forming the generalized inverse of G from B-inverse, IUseBI=4.
 Internal  Forces:  Max     1.624831604 RMS     0.190971332
 Search for a local minimum.
 Step number   1 out of a maximum of  136
 All quantities printed in internal units (Hartrees-Bohrs-Radians)
 Mixed Optimization -- RFO/linear search
 Second derivative matrix not updated -- first step.
 ITU=  0
     Eigenvalues ---    0.00230   0.00230   0.00230   0.00230   0.00336
     Eigenvalues ---    0.00381   0.00606   0.00975   0.00996   0.01340
     Eigenvalues ---    0.01378   0.01624   0.02033   0.02214   0.02335
     Eigenvalues ---    0.02694   0.02939   0.03169   0.03193   0.03421
     Eigenvalues ---    0.03676   0.03989   0.04224   0.05266   0.05366
     Eigenvalues ---    0.05755   0.07607   0.08055   0.08508   0.08812
     Eigenvalues ---    0.10810   0.10928   0.12202   0.12514   0.13968
     Eigenvalues ---    0.14250   0.14902   0.15361   0.15637   0.15658
     Eigenvalues ---    0.15986   0.16000   0.16000   0.16000   0.17385
     Eigenvalues ---    0.17798   0.20667   0.20942   0.21552   0.21660
     Eigenvalues ---    0.21881   0.23276   0.24953   0.24996   0.25000
     Eigenvalues ---    0.25000   0.25168   0.26964   0.34946   0.38022
     Eigenvalues ---    0.41895   0.43550   0.48123   0.54133   0.54728
     Eigenvalues ---    0.57944   0.62219   0.69858   0.87201   1.06631
     Eigenvalues ---    2.79712   3.38953
 RFO step:  Lambda=-1.38302964D+00 EMin= 2.30000000D-03
 Linear search not attempted -- first point.
 Maximum step size (   0.300) exceeded in Quadratic search.
    -- Step size scaled by   0.421
 Iteration  1 RMS(Cart)=  0.10819426 RMS(Int)=  0.00195162
 Iteration  2 RMS(Cart)=  0.00284980 RMS(Int)=  0.00026350
 Iteration  3 RMS(Cart)=  0.00000321 RMS(Int)=  0.00026349
 Iteration  4 RMS(Cart)=  0.00000000 RMS(Int)=  0.00026349
 Variable       Old X    -DE/DX   Delta X   Delta X   Delta X     New X
                                 (Linear)    (Quad)   (Total)
    R1        3.02338  -0.07000   0.00000  -0.02010  -0.02008   3.00330
    R2        2.35017  -0.07565   0.00000  -0.01996  -0.01995   2.33023
    R3        3.05174  -0.09101   0.00000  -0.02605  -0.02605   3.02570
    R4        3.08548  -0.06705   0.00000  -0.01765  -0.01765   3.06783
    R5        3.13382  -0.04598   0.00000  -0.01323  -0.01323   3.12059
    R6        2.99036   0.17808   0.00000   0.01615   0.01476   3.00512
    R7        1.88815   0.73729   0.00000   0.07519   0.07621   1.96435
    R8        2.47176   0.43518   0.00000   0.10200   0.10286   2.57461
    R9        2.55374  -0.00188   0.00000  -0.00041  -0.00041   2.55333
   R10        2.40946   0.28306   0.00000   0.05744   0.05752   2.46698
   R11        1.93738   0.24344   0.00000   0.05601   0.05598   1.99335
   R12        2.44369   0.11585   0.00000   0.02286   0.02294   2.46663
   R13        2.25863   0.24255   0.00000   0.04529   0.04535   2.30398
   R14        2.47592   0.09747   0.00000   0.01839   0.01832   2.49424
   R15        3.29428   0.10488   0.00000   0.02579   0.02581   3.32009
   R16        2.22658   0.09989   0.00000   0.02548   0.02549   2.25206
   R17        4.09014   0.07865   0.00000   0.02206   0.02204   4.11218
   R18        2.38399   0.01468   0.00000   0.00389   0.00389   2.38788
   R19        2.61806  -0.06884   0.00000  -0.01892  -0.01892   2.59914
   R20        3.22749   0.06221   0.00000   0.01513   0.01513   3.24262
   R21        2.55911   0.08852   0.00000   0.01937   0.01937   2.57847
   R22        1.95757   0.05804   0.00000   0.01356   0.01356   1.97113
   R23        2.92927   0.21100   0.00000   0.04430   0.04430   2.97357
   R24        1.83595   0.55781   0.00000   0.09588   0.09588   1.93183
   R25        1.45978   1.62483   0.00000   0.14333   0.14333   1.60311
   R26        2.48778  -0.02155   0.00000  -0.00581  -0.00581   2.48197
   R27        2.55709  -0.00123   0.00000  -0.00177  -0.00183   2.55526
   R28        2.66912  -0.00758   0.00000  -0.00416  -0.00424   2.66488
   R29        2.64097  -0.03783   0.00000  -0.01094  -0.01095   2.63002
   R30        3.22669   0.02976   0.00000   0.00895   0.00892   3.23561
   R31        2.77716   0.02822   0.00000   0.00945   0.00948   2.78664
    A1        1.74999  -0.01458   0.00000  -0.00368  -0.00374   1.74625
    A2        1.84384  -0.05269   0.00000  -0.01438  -0.01438   1.82946
    A3        1.53298  -0.17780   0.00000  -0.02610  -0.02562   1.50737
    A4        2.21382   0.06656   0.00000  -0.00256  -0.00304   2.21078
    A5        2.59617  -0.17800   0.00000  -0.04591  -0.04590   2.55027
    A6        2.15268   0.35564   0.00000   0.07199   0.07151   2.22419
    A7        1.47211   0.11138   0.00000   0.04844   0.04892   1.52102
    A8        2.74634   0.07031   0.00000   0.00381   0.00286   2.74921
    A9        1.41729   0.12322   0.00000   0.01481   0.01378   1.43107
   A10        2.04308   0.30102   0.00000   0.06408   0.06304   2.10612
   A11        1.33057  -0.05286   0.00000  -0.01094  -0.01086   1.31971
   A12        2.34742  -0.00475   0.00000  -0.00242  -0.00236   2.34506
   A13        2.80642   0.05046   0.00000   0.01136   0.01127   2.81769
   A14        2.50743   0.03464   0.00000   0.00736   0.00735   2.51479
   A15        2.25768  -0.06532   0.00000  -0.01312  -0.01307   2.24461
   A16        2.61548  -0.00114   0.00000   0.00091   0.00098   2.61646
   A17        1.39561   0.03893   0.00000   0.00802   0.00798   1.40358
   A18        2.01640  -0.00791   0.00000  -0.00077  -0.00074   2.01566
   A19        1.39279   0.02518   0.00000   0.00599   0.00600   1.39879
   A20        2.38088  -0.00411   0.00000   0.00058   0.00066   2.38154
   A21        2.72858  -0.02012   0.00000  -0.00572  -0.00571   2.72287
   A22        1.59269   0.03270   0.00000   0.00892   0.00892   1.60161
   A23        2.75255   0.03962   0.00000   0.01267   0.01268   2.76523
   A24        2.55585   0.08032   0.00000   0.02112   0.02111   2.57697
   A25        2.33013  -0.10646   0.00000  -0.02864  -0.02864   2.30149
   A26        1.39715   0.02609   0.00000   0.00751   0.00751   1.40466
   A27        1.87376   0.22809   0.00000   0.05880   0.05880   1.93257
   A28        1.23126   0.08307   0.00000   0.02268   0.02268   1.25393
   A29        2.23414  -0.01240   0.00000  -0.00336  -0.00335   2.23079
   A30        2.80831  -0.07245   0.00000  -0.01980  -0.01981   2.78851
   A31        1.81152   0.01592   0.00000   0.00110   0.00099   1.81251
   A32        1.22648  -0.16194   0.00000  -0.04175  -0.04175   1.18473
   A33        2.25628  -0.00918   0.00000  -0.00209  -0.00210   2.25418
   A34        2.64004   0.03019   0.00000   0.00938   0.00944   2.64948
   A35        1.70068   0.07503   0.00000   0.01655   0.01647   1.71715
   A36        1.70758  -0.09266   0.00000  -0.02226  -0.02223   1.68535
   A37        3.01688   0.03966   0.00000   0.01172   0.01179   3.02867
   A38        3.37365   0.24816   0.00000   0.05314   0.05218   3.42584
   A39        3.39377   0.05365   0.00000   0.01396   0.01393   3.40769
   A40        2.94139   0.03850   0.00000   0.00863   0.00857   2.94995
   A41        2.99181   0.03218   0.00000   0.00872   0.00872   3.00053
   A42        3.14192  -0.00008   0.00000  -0.00002  -0.00002   3.14190
   A43        3.14579   0.00384   0.00000   0.00106   0.00104   3.14683
   A44        3.20975   0.00995   0.00000   0.00244   0.00252   3.21227
   A45        3.30226  -0.00186   0.00000   0.00051   0.00051   3.30277
   A46        3.16466  -0.00010   0.00000   0.00089   0.00093   3.16559
    D1        0.00259   0.00020   0.00000   0.00006   0.00006   0.00265
    D2       -3.14087   0.00498   0.00000   0.00151   0.00151  -3.13936
    D3       -3.13646   0.00676   0.00000   0.00180   0.00185  -3.13461
    D4        3.14053   0.00002   0.00000  -0.00004  -0.00007   3.14046
    D5        0.07115  -0.00660   0.00000  -0.00170  -0.00173   0.06942
    D6       -3.13970   0.00070   0.00000   0.00021   0.00021  -3.13948
    D7        3.11516   0.00720   0.00000   0.00154   0.00148   3.11663
    D8       -0.06405   0.00001   0.00000  -0.00027  -0.00026  -0.06431
    D9       -0.09438   0.00387   0.00000   0.00115   0.00110  -0.09328
   D10        3.12620   0.00586   0.00000   0.00063   0.00062   3.12682
   D11        3.10526  -0.00499   0.00000  -0.00036  -0.00031   3.10495
   D12        0.00496   0.00127   0.00000   0.00046   0.00046   0.00542
   D13        3.10859  -0.00673   0.00000  -0.00155  -0.00153   3.10706
   D14        0.04124   0.00646   0.00000   0.00195   0.00197   0.04321
   D15       -2.67897  -0.00334   0.00000  -0.00041  -0.00036  -2.67933
   D16       -3.00635   0.02083   0.00000   0.00511   0.00506  -3.00129
   D17        0.55662   0.01103   0.00000   0.00276   0.00274   0.55936
   D18        0.13104   0.01699   0.00000   0.00406   0.00402   0.13507
   D19       -2.58916   0.00719   0.00000   0.00170   0.00170  -2.58747
   D20       -3.01280  -0.00777   0.00000  -0.00195  -0.00199  -3.01478
   D21        0.15622  -0.00802   0.00000  -0.00148  -0.00148   0.15474
   D22       -0.00432  -0.00493   0.00000  -0.00187  -0.00191  -0.00623
   D23       -3.11097  -0.00740   0.00000  -0.00145  -0.00143  -3.11239
   D24       -2.90567  -0.01631   0.00000  -0.00471  -0.00467  -2.91034
   D25       -0.50982   0.01102   0.00000   0.00248   0.00246  -0.50736
   D26        2.76437  -0.00269   0.00000  -0.00028  -0.00028   2.76409
   D27       -0.70922  -0.01342   0.00000  -0.00321  -0.00315  -0.71236
   D28       -2.45679   0.00673   0.00000   0.00188   0.00188  -2.45490
   D29        3.06786   0.01388   0.00000   0.00508   0.00515   3.07301
   D30        0.48817   0.02464   0.00000   0.00607   0.00605   0.49422
   D31        2.66649  -0.03104   0.00000  -0.00704  -0.00699   2.65950
   D32        0.54386  -0.01017   0.00000  -0.00149  -0.00143   0.54244
   D33       -2.12358  -0.00080   0.00000  -0.00278  -0.00280  -2.12638
   D34        2.03698   0.02007   0.00000   0.00277   0.00277   2.03975
   D35       -0.89566   0.00634   0.00000   0.00155   0.00151  -0.89415
   D36       -3.01829   0.02721   0.00000   0.00711   0.00707  -3.01121
   D37       -0.26758   0.01104   0.00000   0.00310   0.00305  -0.26453
   D38        2.96147   0.01462   0.00000   0.00382   0.00386   2.96533
   D39       -2.67252  -0.01727   0.00000  -0.00468  -0.00470  -2.67722
   D40        0.55653  -0.01370   0.00000  -0.00397  -0.00389   0.55264
   D41       -0.24260   0.01126   0.00000   0.00314   0.00318  -0.23942
   D42        2.88228   0.00401   0.00000   0.00144   0.00138   2.88366
   D43       -0.01868   0.00278   0.00000   0.00102   0.00097  -0.01771
   D44        3.13521   0.00931   0.00000   0.00259   0.00264   3.13786
   D45        3.13974  -0.00736   0.00000  -0.00199  -0.00197   3.13778
   D46        0.08890   0.00894   0.00000   0.00246   0.00243   0.09133
   D47       -2.92155  -0.00458   0.00000  -0.00126  -0.00125  -2.92281
   D48       -0.35399  -0.01040   0.00000  -0.00211  -0.00211  -0.35610
   D49       -3.06953  -0.03535   0.00000  -0.00972  -0.00966  -3.07919
         Item               Value     Threshold  Converged?
 Maximum Force            1.624832     0.000450     NO 
 RMS     Force            0.190971     0.000300     NO 
 Maximum Displacement     0.372548     0.001800     NO 
 RMS     Displacement     0.108250     0.001200     NO 
 Predicted change in Energy=-5.218733D-01
 GradGradGradGradGradGradGradGradGradGradGradGradGradGradGradGradGradGrad

                          Input orientation:                          
 ---------------------------------------------------------------------
 Center     Atomic      Atomic             Coordinates (Angstroms)
 Number     Number       Type             X           Y           Z
 ---------------------------------------------------------------------
      1          6           0        1.695701   -0.501364   -0.350971
      2          6           0        3.347595   -1.163331   -0.714859
      3          6           0        4.751686   -2.642577   -1.537927
      4          6           0        4.966781   -1.267599   -0.768493
      5          6           0        5.699372   -2.275393   -1.319734
      6          6           0        7.003912   -2.226222   -1.321849
      7          6           0        7.943439   -2.945957   -1.872338
      8          6           0        8.152153   -1.989066   -0.987511
      9          7           0        6.139738   -0.708211   -0.398483
     10         16           0        9.669145   -3.275630   -1.869991
     11          6           0       11.149497   -4.034124   -2.291454
     12          6           0       11.774760   -5.089072   -2.889707
     13         16           0       10.721951   -6.113162   -3.454396
     14          6           0        8.316749   -5.124767   -2.881140
     15          6           0        6.548081   -4.224513   -2.435654
     16          1           0        0.614804    0.521368    0.207144
     17          1           0        0.590529   -0.980401   -0.614903
     18          1           0        3.041554    0.258809    0.066676
     19          1           0        5.994363   -3.164562   -1.804542
     20          1           0        7.606041   -0.892203   -0.678695
     21          1           0        7.924566   -4.103797   -2.153931
     22          1           0        5.498066    0.380292    0.144804
     23          1           0       12.142875   -3.754520   -2.139702
     24          1           0       11.656922   -6.467814   -3.666782
     25          1           0        9.877472   -6.034409   -3.472112
     26          1           0        5.156938   -4.225195   -2.394711
 ---------------------------------------------------------------------
                    Distance matrix (angstroms):
                    1          2          3          4          5
     1  C    0.000000
     2  C    1.816416   0.000000
     3  C    3.915700   2.199337   0.000000
     4  C    3.385470   1.623427   1.590239   0.000000
     5  C    4.484982   2.670845   1.039491   1.362425   0.000000
     6  C    5.665231   3.855753   2.300557   2.318418   1.305468
     7  C    6.879304   5.063527   3.223532   3.591080   2.406422
     8  C    6.656141   4.882618   3.506168   3.273389   2.491684
     9  N    4.449102   2.846628   2.639469   1.351166   1.870477
    10  S    8.577866   6.764476   4.969148   5.230460   4.130661
    11  C   10.277165   8.461488   6.590614   6.942553   5.808721
    12  C   11.361324   9.547698   7.558851   8.090228   6.876915
    13  S   11.072340   9.294462   7.166720   7.988463   6.671698
    14  C    8.462617   6.714034   4.546995   5.528409   4.172240
    15  C    6.461682   4.751325   2.556457   3.744767   2.400970
    16  H    1.589280   3.340126   5.492687   4.805411   6.000504
    17  H    1.233102   2.764935   4.574934   4.388354   5.317336
    18  H    1.601129   1.651345   3.730596   2.594982   3.925342
    19  H    5.261558   3.492524   1.373972   2.393280   1.054837
    20  H    5.932309   4.267222   3.456796   2.667336   2.441216
    21  H    7.418015   5.627249   3.547082   4.325730   2.998405
    22  H    3.934602   2.783221   3.539267   1.957529   3.039417
    23  H   11.087202   9.279084   7.498549   7.717598   6.661749
    24  H   12.075556  10.290593   8.175986   8.955461   7.653589
    25  H   10.358450   8.600532   6.443546   7.358459   6.018261
    26  H    5.479412   3.933273   1.844718   3.380550   2.291624
                    6          7          8          9         10
     6  C    0.000000
     7  C    1.305285   0.000000
     8  C    1.219214   1.319894   0.000000
     9  N    1.975793   3.230030   2.457103   0.000000
    10  S    2.916366   1.756915   2.176071   4.605833   0.000000
    11  C    4.625421   3.411535   3.855723   6.304183   1.715921
    12  C    5.780579   4.506329   5.133388   7.559869   2.960069
    13  S    5.786180   4.500469   5.449546   7.716785   3.416185
    14  C    3.543515   2.429867   3.666816   5.514429   2.504137
    15  C    2.332706   1.974603   3.109243   4.084262   3.310800
    16  H    7.120938   8.369915   8.033748   5.692411  10.035575
    17  H    6.571401   7.714262   7.637696   5.560094   9.447994
    18  H    4.878899   6.169180   5.681767   3.278757   7.756798
    19  H    1.460364   1.962468   2.589476   2.834042   3.677042
    20  H    1.598691   2.399277   1.263612   1.504133   3.369913
    21  H    2.250612   1.191739   2.425782   4.218674   1.951932
    22  H    3.348515   4.594850   3.733654   1.375406   5.901108
    23  H    5.423424   4.284918   4.513340   6.953381   2.534052
    24  H    6.718655   5.423417   6.286579   8.619404   4.167703
    25  H    5.232903   3.979736   5.051215   7.196266   3.197038
    26  H    2.925447   3.110291   3.993970   4.161730   4.640799
                   11         12         13         14         15
    11  C    0.000000
    12  C    1.364470   0.000000
    13  S    2.420253   1.573544   0.000000
    14  C    3.092198   3.458206   2.662807   0.000000
    15  C    4.607610   5.317124   4.693189   2.033987   0.000000
    16  H   11.746286  12.869038  12.632430  10.036747   8.044348
    17  H   11.118806  12.130249  11.706992   9.055720   7.023661
    18  H    9.472528  10.658749  10.582460   8.093219   6.217521
    19  H    5.250583   6.188240   5.810881   3.224119   1.352184
    20  H    5.002873   6.315101   6.683698   4.823947   3.912861
    21  H    3.228614   4.041798   3.681593   1.313401   1.410195
    22  H    7.573711   8.861100   9.077894   6.885273   5.381964
    23  H    1.043076   1.574499   3.051334   4.131168   5.622296
    24  H    2.841101   1.587029   1.022280   3.684801   5.713871
    25  H    2.648233   2.198308   0.848328   1.900672   3.928717
    26  H    5.996494   6.692300   5.971325   3.321182   1.391745
                   16         17         18         19         20
    16  H    0.000000
    17  H    1.712210   0.000000
    18  H    2.444950   2.829791   0.000000
    19  H    6.824413   5.948716   4.892853   0.000000
    20  H    7.187509   7.016357   4.766021   3.004772   0.000000
    21  H    8.966573   8.118639   6.914277   2.174837   3.548537
    22  H    4.885697   5.149035   2.460755   4.075813   2.596335
    23  H   12.517481  11.978207  10.188669   6.185837   5.559700
    24  H   13.630272  12.723628  11.550356   6.814982   7.511706
    25  H   11.929466  10.952349   9.942706   5.108360   6.277329
    26  H    7.066151   5.877796   5.535302   1.474626   4.477907
                   21         22         23         24         25
    21  H    0.000000
    22  H    5.592775   0.000000
    23  H    4.232769   8.152860   0.000000
    24  H    4.669880   9.967760   3.151204   0.000000
    25  H    3.046098   8.567945   3.479262   1.841786   0.000000
    26  H    2.780733   5.270296   7.006418   6.992660   5.168897
                   26
    26  H    0.000000
 Stoichiometry    C12H11NS2
 Framework group  C1[X(C12H11NS2)]
 Deg. of freedom    72
 Full point group                 C1      NOp   1
 Largest Abelian subgroup         C1      NOp   1
 Largest concise Abelian subgroup C1      NOp   1
                         Standard orientation:                         
 ---------------------------------------------------------------------
 Center     Atomic      Atomic             Coordinates (Angstroms)
 Number     Number       Type             X           Y           Z
 ---------------------------------------------------------------------
      1          6           0       -6.591069    0.770579    0.001233
      2          6           0       -4.798101    0.479660    0.001830
      3          6           0       -2.689733    1.105634   -0.003003
      4          6           0       -3.387242   -0.323433    0.007508
      5          6           0       -2.139562    0.223677   -0.005502
      6          6           0       -1.078725   -0.536374    0.029033
      7          6           0        0.200631   -0.312382    0.158827
      8          6           0       -0.329958   -1.484082   -0.137343
      9          7           0       -2.784281   -1.531995   -0.030757
     10         16           0        1.794549   -1.035295    0.005294
     11          6           0        3.507427   -1.137421    0.007236
     12          6           0        4.701524   -0.477197    0.011160
     13         16           0        4.476939    1.080097   -0.009737
     14          6           0        1.842676    1.468034   -0.036263
     15          6           0       -0.185245    1.618343    0.008975
     16          1           0       -8.137340    0.403553    0.013382
     17          1           0       -7.205385    1.839674   -0.012687
     18          1           0       -5.954920   -0.698607    0.021713
     19          1           0       -1.331176    0.901147   -0.020597
     20          1           0       -1.400596   -2.098961    0.131677
     21          1           0        0.824034    0.649414   -0.167608
     22          1           0       -3.993509   -2.184581    0.029578
     23          1           0        4.156089   -1.954179    0.019615
     24          1           0        5.483753    0.903655    0.006067
     25          1           0        3.741581    1.500248    0.039065
     26          1           0       -1.352114    2.375545   -0.035968
 ---------------------------------------------------------------------
 Rotational constants (GHZ):           1.9053172           0.1915925           0.1741620
 Standard basis: 6-31G(2df,p) (6D, 7F)
 There are   528 symmetry adapted cartesian basis functions of A   symmetry.
 There are   483 symmetry adapted basis functions of A   symmetry.
   483 basis functions,   785 primitive gaussians,   528 cartesian basis functions
    61 alpha electrons       61 beta electrons
       nuclear repulsion energy      1100.7639179255 Hartrees.
 NAtoms=   26 NActive=   26 NUniq=   26 SFac= 1.00D+00 NAtFMM=   60 NAOKFM=F Big=F
 Integral buffers will be    131072 words long.
 Raffenetti 2 integral format.
 Two-electron integral symmetry is turned on.
 One-electron integrals computed using PRISM.
 PrsmSu:  requested number of processors reduced to:  12 ShMem   1 Linda.
 NBasis=   483 RedAO= T EigKep=  4.93D-05  NBF=   483
 NBsUse=   483 1.00D-06 EigRej= -1.00D+00 NBFU=   483
 Initial guess from the checkpoint file:  "CdCC1dC2CdCCdCqN2rSCdCSCdC1.chk"
 B after Tr=    -0.000000   -0.000000   -0.000000
         Rot=    0.999997   -0.000000   -0.000003    0.002400 Ang=  -0.27 deg.
 ExpMin= 1.17D-01 ExpMax= 2.19D+04 ExpMxC= 3.30D+03 IAcc=2 IRadAn=         4 AccDes= 0.00D+00
 Harris functional with IExCor=  402 and IRadAn=       4 diagonalized for initial guess.
 HarFok:  IExCor=  402 AccDes= 0.00D+00 IRadAn=         4 IDoV= 1 UseB2=F ITyADJ=14
 ICtDFT=  3500011 ScaDFX=  1.000000  1.000000  1.000000  1.000000
 FoFCou: FMM=F IPFlag=           0 FMFlag=      100000 FMFlg1=           0
         NFxFlg=           0 DoJE=T BraDBF=F KetDBF=T FulRan=T
         wScrn=  0.000000 ICntrl=       500 IOpCl=  0 I1Cent=   200000004 NGrid=           0
         NMat0=    1 NMatS0=      1 NMatT0=    0 NMatD0=    1 NMtDS0=    0 NMtDT0=    0
 Petite list used in FoFCou.
 Requested convergence on RMS density matrix=1.00D-08 within 128 cycles.
 Requested convergence on MAX density matrix=1.00D-06.
 Requested convergence on             energy=1.00D-06.
 No special actions if energy rises.
 Integral accuracy reduced to 1.0D-05 until final iterations.
 EnCoef did     3 forward-backward iterations
 EnCoef did     2 forward-backward iterations
 EnCoef did     2 forward-backward iterations
 Initial convergence to 1.0D-05 achieved.  Increase integral accuracy.
 SCF Done:  E(RB3LYP) =  -1312.21315902     A.U. after   39 cycles
            NFock= 39  Conv=0.21D-08     -V/T= 1.9995
 PrsmSu:  requested number of processors reduced to:  13 ShMem   1 Linda.
 Calling FoFJK, ICntrl=      2127 FMM=F ISym2X=0 I1Cent= 0 IOpClX= 0 NMat=1 NMatS=1 NMatT=0.
 ***** Axes restored to original set *****
 -------------------------------------------------------------------
 Center     Atomic                   Forces (Hartrees/Bohr)
 Number     Number              X              Y              Z
 -------------------------------------------------------------------
      1        6          -0.000870345    0.003507827    0.012179072
      2        6          -0.033902362    0.045301213    0.026488352
[...]
   R28        4.03340   0.00467   0.00479   0.03076   0.03624   4.06964
   R29        2.05970  -0.00107  -0.00459  -0.03273  -0.03704   2.02266
   R30        3.47927   0.00162   0.00237  -0.02001  -0.01963   3.45964
   R31        3.48993   0.00055  -0.00129   0.01616   0.01480   3.50473
    A1        1.64522   0.00531  -0.00713  -0.00154  -0.01097   1.63424
    A2        1.98784   0.00262   0.00592   0.00595   0.01187   1.99971
    A3        2.09371  -0.00688  -0.01039  -0.06834  -0.07959   2.01411
    A4        2.05346   0.00026  -0.02093  -0.04711  -0.06704   1.98642
    A5        2.19399  -0.00254  -0.00028  -0.01446  -0.01444   2.17955
    A6        1.99520   0.00939   0.01067   0.08292   0.09419   2.08939
    A7        2.03419   0.00234   0.02144   0.06318   0.08268   2.11687
    A8        2.91178   0.00544   0.01376   0.07650   0.09101   3.00279
    A9        2.00961  -0.00359  -0.00102  -0.02355  -0.02321   1.98640
   A10        2.96606  -0.00277   0.02477   0.04531   0.07069   3.03676
   A11        1.31288  -0.00057  -0.00947  -0.03577  -0.04730   1.26558
   A12        2.65178  -0.00209  -0.00715  -0.03058  -0.04265   2.60913
   A13        2.48875   0.00145   0.00713   0.04324   0.05299   2.54174
   A14        2.30003   0.00209  -0.00826  -0.00210  -0.00915   2.29088
   A15        2.09891   0.00372   0.01752   0.05959   0.07664   2.17555
   A16        2.02261   0.00333   0.00072   0.01537   0.01094   2.03354
   A17        1.79980  -0.00491  -0.00762  -0.04577  -0.05425   1.74555
   A18        1.45039   0.00161  -0.00940  -0.01264  -0.02275   1.42764
   A19        2.64292  -0.00396  -0.00856  -0.03810  -0.04648   2.59644
   A20        2.48569   0.00191   0.01523   0.05380   0.06833   2.55401
   A21        2.06771   0.00257   0.01527   0.04153   0.05621   2.12392
   A22        1.92096  -0.00064   0.00199   0.00382   0.00581   1.92677
   A23        1.94117  -0.00777   0.00036  -0.03017  -0.02920   1.91197
   A24        2.42152  -0.00926   0.00948  -0.00115   0.00804   2.42956
   A25        1.82086   0.00417  -0.00411  -0.00365  -0.00785   1.81301
   A26        2.04030   0.00509  -0.00497   0.00535   0.00029   2.04059
   A27        2.28236  -0.00896   0.00873   0.00619   0.01492   2.29728
   A28        1.73600   0.00020   0.00133   0.00540   0.00669   1.74269
   A29        2.17552  -0.00202   0.00946  -0.00186   0.00759   2.18310
   A30        1.59122  -0.00058   0.00050  -0.00164  -0.00122   1.59001
   A31        1.65567  -0.00037  -0.00135  -0.00259  -0.00560   1.65007
   A32        0.57791   0.00920   0.00255  -0.00756  -0.00501   0.57290
   A33        2.79703   0.00240   0.00024   0.02839   0.02984   2.82687
   A34        2.34818  -0.00439  -0.01626  -0.05553  -0.07217   2.27601
   A35        1.79769  -0.00060  -0.01075  -0.03354  -0.04517   1.75253
   A36        0.55049  -0.00379  -0.00552  -0.02194  -0.02681   0.52368
   A37        3.71493  -0.00690   0.00658  -0.13855  -0.12873   3.58620
   A38        4.27894  -0.00334   0.01529   0.00954   0.02339   4.30233
   A39        2.54282  -0.00655  -0.01168  -0.02475  -0.03701   2.50582
   A40        3.65802   0.00174   0.00136   0.04094   0.04170   3.69972
   A41        2.92035  -0.00136   0.00183  -0.00268  -0.00301   2.91735
   A42        3.21294  -0.00160   0.02171  -0.13478  -0.09471   3.11823
   A43        2.62051  -0.00036  -0.01746  -0.06649  -0.08054   2.53996
   A44        2.58233  -0.00404   0.02011  -0.00934   0.01139   2.59372
   A45        3.18510  -0.00087   0.01048  -0.06460  -0.05226   3.13285
   A46        3.14685   0.00112   0.01409   0.01043   0.02469   3.17154
    D1        3.01099   0.00158  -0.04007   0.21689   0.18476  -3.08744
    D2       -3.13683  -0.00089   0.00512  -0.03021  -0.02509   3.12126
    D3       -3.12005   0.00134  -0.00016   0.00907   0.00515  -3.11490
    D4       -3.08539  -0.00116  -0.00497  -0.01837  -0.01871  -3.10410
    D5       -0.00571  -0.00010   0.00002   0.01607   0.01521   0.00950
    D6        3.09540   0.00230  -0.00955   0.10966   0.10011  -3.08768
    D7       -2.98182   0.00033   0.00927   0.02907   0.03810  -2.94372
    D8        0.21596  -0.00047   0.00545   0.00019   0.00878   0.22474
    D9        0.00905   0.00048  -0.00192  -0.00559  -0.00782   0.00124
   D10        3.12474  -0.00110  -0.00203  -0.00093   0.00021   3.12495
   D11        3.08934   0.00147   0.00133   0.02505   0.02352   3.11286
   D12       -0.37856   0.00096  -0.00912  -0.02949  -0.03785  -0.41641
   D13        2.60318  -0.00190  -0.02447  -0.11395  -0.14103   2.46215
   D14       -3.12797   0.00216   0.02775   0.12966   0.15675  -2.97122
   D15        0.81039  -0.00140   0.00728  -0.00085   0.00775   0.81814
   D16       -3.00782   0.00157   0.00927   0.06358   0.07130  -2.93653
   D17        0.93053  -0.00199  -0.01119  -0.06693  -0.07770   0.85283
   D18        0.65486   0.00193   0.02673   0.13007   0.15184   0.80669
   D19       -1.68997  -0.00164   0.00627  -0.00044   0.00284  -1.68713
   D20       -3.13164  -0.00586  -0.02179  -0.12932  -0.15320   2.99835
   D21       -0.14399  -0.00178  -0.01071  -0.07497  -0.08886  -0.23285
   D22       -0.02640  -0.00187  -0.00423  -0.02100  -0.02448  -0.05088
   D23        2.96410   0.00197   0.00503   0.03040   0.03663   3.00073
   D24        1.79727  -0.00173  -0.02418  -0.10520  -0.12792   1.66935
   D25       -0.83633  -0.00303  -0.02797  -0.12893  -0.15686  -0.99319
   D26       -3.07441  -0.00120   0.00703   0.03780   0.04853  -3.02589
   D27       -0.60598   0.00257   0.00777   0.04547   0.05503  -0.55094
   D28        1.38217  -0.00212  -0.02005  -0.05156  -0.07032   1.31185
   D29       -1.57487  -0.00231  -0.02651  -0.02385  -0.04910  -1.62397
   D30        1.12066   0.00039  -0.01750   0.01826   0.00170   1.12236
   D31        0.24516   0.00252   0.00277  -0.00425  -0.00101   0.24415
   D32        0.24248   0.00089   0.00377  -0.01924  -0.01453   0.22795
   D33        1.33953   0.00057   0.00995   0.01494   0.02317   1.36271
   D34        1.33685  -0.00106   0.01095  -0.00005   0.00966   1.34651
   D35       -2.51480   0.00037   0.00239  -0.02489  -0.02308  -2.53788
   D36       -2.51748  -0.00126   0.00339  -0.03988  -0.03660  -2.55407
   D37       -0.35956  -0.00123  -0.02694  -0.03642  -0.06484  -0.42441
   D38        2.86888  -0.00037  -0.00177  -0.01248  -0.01493   2.85395
   D39        3.13167  -0.00008  -0.02367  -0.00433  -0.02814   3.10352
   D40        0.07693   0.00079   0.00150   0.01961   0.02176   0.09869
   D41        0.41170  -0.00157   0.00776  -0.02523  -0.01665   0.39505
   D42       -2.76743  -0.00137   0.01721  -0.00462   0.01291  -2.75452
   D43       -0.10258  -0.00310   0.00282  -0.06548  -0.06293  -0.16551
   D44        3.07980  -0.00327  -0.00757  -0.08772  -0.09502   2.98477
   D45        2.33473  -0.00218   0.00707  -0.01887  -0.01173   2.32300
   D46        0.62308  -0.00106   0.00314  -0.02023  -0.01716   0.60592
   D47       -2.18941   0.00217  -0.00996   0.00148  -0.00848  -2.19789
   D48       -0.05408  -0.00026  -0.00416   0.04826   0.04385  -0.01023
   D49        3.09117   0.00200  -0.00530   0.06902   0.06487  -3.12715
         Item               Value     Threshold  Converged?
 Maximum Force            0.020541     0.000450     NO 
 RMS     Force            0.004235     0.000300     NO 
 Maximum Displacement     0.564937     0.001800     NO 
 RMS     Displacement     0.166930     0.001200     NO 
 Predicted change in Energy=-8.698401D-03
 GradGradGradGradGradGradGradGradGradGradGradGradGradGradGradGradGradGrad

                          Input orientation:                          
 ---------------------------------------------------------------------
 Center     Atomic      Atomic             Coordinates (Angstroms)
 Number     Number       Type             X           Y           Z
 ---------------------------------------------------------------------
      1          6           0        3.767371   -2.261463   -2.214694
      2          6           0        3.742390   -0.955515   -1.964400
      3          6           0        5.986832   -0.992166   -0.949079
      4          6           0        4.812772   -0.219545   -1.269842
      5          6           0        6.972760   -1.707665   -0.728358
      6          6           0        8.135236   -2.368159   -0.363998
      7          6           0        9.074441   -3.478255   -0.563448
      8          6           0        8.921855   -2.737114    0.650365
      9          7           0        4.767323    1.031557   -0.961951
     10         16           0       10.600837   -3.580943   -1.494214
     11          6           0       10.254907   -4.190771   -3.154269
     12          6           0        9.237577   -4.265005   -4.008223
     13         16           0        7.573632   -3.945170   -3.818072
     14          6           0        7.651909   -5.500339   -0.532915
     15          6           0        6.537807   -4.847359   -0.578148
     16          1           0        2.885821   -2.753496   -2.672998
     17          1           0        4.569987   -2.982729   -1.992762
     18          1           0        2.875145   -0.354552   -2.222802
     19          1           0        6.526751   -3.748332   -0.613670
     20          1           0        9.315092   -2.533073    1.627032
     21          1           0        8.685292   -4.994200   -0.510531
     22          1           0        3.892500    1.436730   -1.263429
     23          1           0       11.209429   -4.596021   -3.487937
     24          1           0        7.354758   -3.195567   -4.921225
     25          1           0        7.039073   -2.953644   -3.005570
     26          1           0        5.593193   -5.350624   -0.586124
 ---------------------------------------------------------------------
                    Distance matrix (angstroms):
                    1          2          3          4          5
     1  C    0.000000
     2  C    1.329952   0.000000
     3  C    2.852876   2.463684   0.000000
     4  C    2.480935   1.473017   1.441613   0.000000
     5  C    3.576368   3.539607   1.238027   2.678293   0.000000
     6  C    4.744966   4.884050   2.617502   4.059047   1.385771
     7  C    5.689657   6.062810   3.982799   5.411101   2.753044
     8  C    5.916376   6.069427   3.770600   5.187476   2.599926
     9  N    3.662411   2.450275   2.362800   1.289233   3.524466
    10  S    6.996883   7.358821   5.318645   6.697092   4.154353
    11  C    6.833238   7.368551   5.771516   6.995608   4.777378
    12  C    6.095414   6.732534   5.535086   6.591158   4.735704
    13  S    4.460192   5.201207   4.412402   5.291135   3.861840
    14  C    5.329947   6.163515   4.823826   6.040741   3.857955
    15  C    4.128008   4.988236   3.911991   4.987068   3.173236
    16  H    1.108724   2.113897   3.961117   3.478921   4.645262
    17  H    1.101667   2.189821   2.656890   2.866486   2.999637
    18  H    2.105337   1.086297   3.422209   2.163505   4.566697
    19  H    3.519692   4.168569   2.828509   3.977515   2.091985
    20  H    6.753506   6.814843   4.481971   5.832254   3.422818
    21  H    5.878602   6.546525   4.846678   6.194376   3.712348
    22  H    3.820628   2.497344   3.222511   1.894779   4.434131
    23  H    7.902881   8.445776   6.834405   8.061682   5.822992
    24  H    4.589902   5.177823   4.743853   5.352662   4.465412
    25  H    3.436369   3.993079   3.030472   3.929945   2.596643
    26  H    3.940657   4.964081   4.391224   5.234931   3.898024
                    6          7          8          9         10
     6  C    0.000000
     7  C    1.467720   0.000000
     8  C    1.335601   1.430355   0.000000
     9  N    4.822702   6.248879   5.836316   0.000000
    10  S    2.971098   1.790742   2.851360   7.455760   0.000000
    11  C    3.949751   2.934882   4.285485   7.886225   1.802037
    12  C    4.253652   3.537240   4.912898   7.570767   2.940520
    13  S    3.838358   3.614280   4.821207   6.387536   3.833660
    14  C    3.173750   2.472520   3.263177   7.153362   3.647514
    15  C    2.957038   2.882564   3.412632   6.151713   4.353298
    16  H    5.747723   6.578336   6.890480   4.560084   7.848291
    17  H    3.967565   4.751694   5.097568   4.149218   6.080918
    18  H    5.931131   7.137384   7.105940   2.662965   8.403973
    19  H    2.134113   2.562458   2.890825   5.105314   4.171518
    20  H    2.320228   2.397808   1.072449   6.331795   3.534593
    21  H    2.687029   1.565990   2.549133   7.201667   2.575702
    22  H    5.769485   7.176320   6.810138   1.010133   8.380459
    23  H    4.916607   3.789487   5.080755   8.919136   2.318555
    24  H    4.697027   4.693341   5.805909   6.343442   4.736026
    25  H    2.919292   3.222096   4.117962   5.021858   3.919676
    26  H    3.925102   3.952894   4.409006   6.446360   5.388219
                   11         12         13         14         15
    11  C    0.000000
    12  C    1.330304   0.000000
    13  S    2.773119   1.705041   0.000000
    14  C    3.919447   4.014743   3.635510   0.000000
    15  C    4.569938   4.403783   3.519088   1.292151   0.000000
    16  H    7.523351   6.664254   4.970599   5.902601   4.702091
    17  H    5.926785   5.243349   3.644164   4.238839   3.057825
    18  H    8.369294   7.678535   6.124802   7.221656   6.025387
    19  H    4.533160   4.374759   3.376818   2.083754   1.099656
    20  H    5.147043   5.895905   5.888621   4.029418   4.234625
    21  H    3.177819   3.615327   3.643635   1.150895   2.153562
    22  H    8.701969   8.283327   7.002984   7.923997   6.852520
    23  H    1.089346   2.066028   3.708317   4.712314   5.509455
    24  H    3.538845   2.349952   1.351576   4.965636   4.717853
    25  H    3.448794   2.749254   1.388898   3.602117   3.119262
    26  H    5.447219   5.115746   4.042638   2.064838   1.070344
                   16         17         18         19         20
    16  H    0.000000
    17  H    1.830761   0.000000
    18  H    2.440844   3.135717   0.000000
    19  H    4.299640   2.513358   5.238442   0.000000
    20  H    7.737853   5.985075   7.812816   3.777889   0.000000
    21  H    6.582620   4.814432   7.629941   2.494419   3.320085
    22  H    4.534124   4.530180   2.272466   5.852037   7.315641
    23  H    8.563964   6.994316   9.436679   5.559448   5.831567
    24  H    5.022086   4.046745   5.951452   4.421105   6.867421
    25  H    4.171351   2.668897   4.970543   2.572001   5.178623
    26  H    4.293016   2.938113   5.918381   1.854624   5.166158
                   21         22         23         24         25
    21  H    0.000000
    22  H    8.055716   0.000000
    23  H    3.923615   9.740635   0.000000
    24  H    4.945666   6.842870   4.344431   0.000000
    25  H    3.619270   5.675505   4.507987   1.956506   0.000000
    26  H    3.113492   7.029885   6.366479   5.151745   3.699973
                   26
    26  H    0.000000
 Stoichiometry    C12H11NS2
 Framework group  C1[X(C12H11NS2)]
 Deg. of freedom    72
 Full point group                 C1      NOp   1
 Largest Abelian subgroup         C1      NOp   1
 Largest concise Abelian subgroup C1      NOp   1
                         Standard orientation:                         
 ---------------------------------------------------------------------
 Center     Atomic      Atomic             Coordinates (Angstroms)
 Number     Number       Type             X           Y           Z
 ---------------------------------------------------------------------
      1          6           0       -3.298436    1.498513   -0.893609
      2          6           0       -4.058664    0.801245   -0.054179
      3          6           0       -2.268799   -0.832848    0.388383
      4          6           0       -3.637895   -0.442030    0.614401
      5          6           0       -1.077957   -1.094152    0.173145
      6          6           0        0.215945   -1.560593    0.003997
      7          6           0        1.623780   -1.296146   -0.315799
      8          6           0        0.976566   -2.565909   -0.437167
      9          7           0       -4.390480   -1.161169    1.375043
     10         16           0        3.036066   -0.983802    0.739969
     11          6           0        3.238954    0.792486    0.965747
     12          6           0        2.514485    1.905951    0.894689
     13         16           0        0.938470    2.196501    0.312520
     14          6           0        1.547264   -0.071824   -2.462549
     15          6           0        0.267681    0.106266   -2.437924
     16          1           0       -3.718216    2.381779   -1.416004
     17          1           0       -2.256887    1.301597   -1.193725
     18          1           0       -5.084542    1.097028    0.146140
     19          1           0       -0.340668   -0.272243   -1.603727
     20          1           0        1.099692   -3.618301   -0.602873
     21          1           0        2.126468   -0.637855   -1.644815
     22          1           0       -5.311272   -0.752168    1.447357
     23          1           0        4.285729    0.902295    1.246602
     24          1           0        0.449337    2.939247    1.330279
     25          1           0       -0.125716    1.309664    0.412842
     26          1           0       -0.240683    0.628191   -3.222013
 ---------------------------------------------------------------------
 Rotational constants (GHZ):           0.6879049           0.2830362           0.2518898
 Standard basis: 6-31G(2df,p) (6D, 7F)
 There are   528 symmetry adapted cartesian basis functions of A   symmetry.
 There are   483 symmetry adapted basis functions of A   symmetry.
   483 basis functions,   785 primitive gaussians,   528 cartesian basis functions
    61 alpha electrons       61 beta electrons
       nuclear repulsion energy      1068.1920219484 Hartrees.
 NAtoms=   26 NActive=   26 NUniq=   26 SFac= 1.00D+00 NAtFMM=   60 NAOKFM=F Big=F
 Integral buffers will be    131072 words long.
 Raffenetti 2 integral format.
 Two-electron integral symmetry is turned on.
 One-electron integrals computed using PRISM.
 PrsmSu:  requested number of processors reduced to:  12 ShMem   1 Linda.
 NBasis=   483 RedAO= T EigKep=  4.20D-05  NBF=   483
 NBsUse=   483 1.00D-06 EigRej= -1.00D+00 NBFU=   483
 Initial guess from the checkpoint file:  "CdCC1dC2CdCCdCqN2rSCdCSCdC1.chk"
 B after Tr=    -0.000000    0.000000   -0.000000
         Rot=    0.999914    0.003590    0.011029   -0.006181 Ang=   1.51 deg.
 ExpMin= 1.17D-01 ExpMax= 2.19D+04 ExpMxC= 3.30D+03 IAcc=2 IRadAn=         4 AccDes= 0.00D+00
 Harris functional with IExCor=  402 and IRadAn=       4 diagonalized for initial guess.
 HarFok:  IExCor=  402 AccDes= 0.00D+00 IRadAn=         4 IDoV= 1 UseB2=F ITyADJ=14
 ICtDFT=  3500011 ScaDFX=  1.000000  1.000000  1.000000  1.000000
 FoFCou: FMM=F IPFlag=           0 FMFlag=      100000 FMFlg1=           0
         NFxFlg=           0 DoJE=T BraDBF=F KetDBF=T FulRan=T
         wScrn=  0.000000 ICntrl=       500 IOpCl=  0 I1Cent=   200000004 NGrid=           0
         NMat0=    1 NMatS0=      1 NMatT0=    0 NMatD0=    1 NMtDS0=    0 NMtDT0=    0
 Petite list used in FoFCou.
 Requested convergence on RMS density matrix=1.00D-08 within 128 cycles.
 Requested convergence on MAX density matrix=1.00D-06.
 Requested convergence on             energy=1.00D-06.
 No special actions if energy rises.
 Integral accuracy reduced to 1.0D-05 until final iterations.
 Initial convergence to 1.0D-05 achieved.  Increase integral accuracy.
 SCF Done:  E(RB3LYP) =  -1314.56169436     A.U. after   15 cycles
            NFock= 15  Conv=0.55D-08     -V/T= 2.0050
 PrsmSu:  requested number of processors reduced to:  13 ShMem   1 Linda.
 Calling FoFJK, ICntrl=      2127 FMM=F ISym2X=0 I1Cent= 0 IOpClX= 0 NMat=1 NMatS=1 NMatT=0.
slurmstepd: error: *** JOB 27447079 ON lewis4-r630-hpc4rc-node353 CANCELLED AT 2023-05-16T08:42:00 DUE TO TIME LIMIT ***
