### Starting Gaussian ###
 Entering Gaussian System, Link 0=g16
 Initial command:
 /cluster/software/gaussian/gaussian-16-A.03/avx2/g16/l1.exe "/local/scratch/linjian/Gau-30145.inp" -scrdir="/local/scratch/linjian/"
 Entering Link 1 = /cluster/software/gaussian/gaussian-16-A.03/avx2/g16/l1.exe PID=     30146.
  
 Copyright (c) 1988,1990,1992,1993,1995,1998,2003,2009,2016,
            Gaussian, Inc.  All Rights Reserved.
  
 This is part of the Gaussian(R) 16 program.  It is based on
 the Gaussian(R) 09 system (copyright 2009, Gaussian, Inc.),
 the Gaussian(R) 03 system (copyright 2003, Gaussian, Inc.),
 the Gaussian(R) 98 system (copyright 1998, Gaussian, Inc.),
 the Gaussian(R) 94 system (copyright 1995, Gaussian, Inc.),
 the Gaussian 92(TM) system (copyright 1992, Gaussian, Inc.),
 the Gaussian 90(TM) system (copyright 1990, Gaussian, Inc.),
 the Gaussian 88(TM) system (copyright 1988, Gaussian, Inc.),
 the Gaussian 86(TM) system (copyright 1986, Carnegie Mellon
 University), and the Gaussian 82(TM) system (copyright 1983,
 Carnegie Mellon University). Gaussian is a federally registered
 trademark of Gaussian, Inc.
  
 This software contains proprietary and confidential information,
 including trade secrets, belonging to Gaussian, Inc.
  
 This software is provided under written license and may be
 used, copied, transmitted, or stored only in accord with that
 written license.
  
 The following legend is applicable only to US Government
 contracts under FAR:
  
                    RESTRICTED RIGHTS LEGEND
  
 Use, reproduction and disclosure by the US Government is
 subject to restrictions as set forth in subparagraphs (a)
 and (c) of the Commercial Computer Software - Restricted
 Rights clause in FAR 52.227-19.
  
 Gaussian, Inc.
 340 Quinnipiac St., Bldg. 40, Wallingford CT 06492
  
  
 ---------------------------------------------------------------
 Warning -- This program may not be used in any manner that
 competes with the business of Gaussian, Inc. or will provide
 assistance to any competitor of Gaussian, Inc.  The licensee
 of this program is prohibited from giving any competitor of
 Gaussian, Inc. access to this program.  By using this program,
 the user acknowledges that Gaussian, Inc. is engaged in the
 business of creating and licensing software in the field of
 computational chemistry and represents and warrants to the
 licensee that it is not a competitor of Gaussian, Inc. and that
 it will not use this program in any manner prohibited above.
 ---------------------------------------------------------------
  

 Cite this work as:
 Gaussian 16, Revision A.03,
 M. J. Frisch, G. W. Trucks, H. B. Schlegel, G. E. Scuseria, 
 M. A. Robb, J. R. Cheeseman, G. Scalmani, V. Barone, 
 G. A. Petersson, H. Nakatsuji, X. Li, M. Caricato, A. V. Marenich, 
 J. Bloino, B. G. Janesko, R. Gomperts, B. Mennucci, H. P. Hratchian, 
 J. V. Ortiz, A. F. Izmaylov, J. L. Sonnenberg, D. Williams-Young, 
 F. Ding, F. Lipparini, F. Egidi, J. Goings, B. Peng, A. Petrone, 
 T. Henderson, D. Ranasinghe, V. G. Zakrzewski, J. Gao, N. Rega, 
 G. Zheng, W. Liang, M. Hada, M. Ehara, K. Toyota, R. Fukuda, 
 J. Hasegawa, M. Ishida, T. Nakajima, Y. Honda, O. Kitao, H. Nakai, 
 T. Vreven, K. Throssell, J. A. Montgomery, Jr., J. E. Peralta, 
 F. Ogliaro, M. J. Bearpark, J. J. Heyd, E. N. Brothers, K. N. Kudin, 
 V. N. Staroverov, T. A. Keith, R. Kobayashi, J. Normand, 
 K. Raghavachari, A. P. Rendell, J. C. Burant, S. S. Iyengar, 
 J. Tomasi, M. Cossi, J. M. Millam, M. Klene, C. Adamo, R. Cammi, 
 J. W. Ochterski, R. L. Martin, K. Morokuma, O. Farkas, 
 J. B. Foresman, and D. J. Fox, Gaussian, Inc., Wallingford CT, 2016.
 
 ******************************************
 Gaussian 16:  ES64L-G16RevA.03 25-Dec-2016
                16-May-2023 
 ******************************************
 %chk=CdCC1dC2[C]CdCdC1NdC2SS.chk
 %NProcShared=20
 Will use up to   20 processors via shared memory.
 -----------------------------
 # opt freq b3lyp/6-31g(2df,p)
 -----------------------------
 1/18=20,19=15,26=3,38=1/1,3;
 2/9=110,12=2,17=6,18=5,40=1/2;
 3/5=1,6=6,7=104,11=2,25=1,30=1,71=1,74=-5/1,2,3;
 4//1;
 5/5=2,38=5/2;
 6/7=2,8=2,9=2,10=2,28=1/1;
 7//1,2,3,16;
 1/18=20,19=15,26=3/3(2);
 2/9=110/2;
 99//99;
 2/9=110/2;
 3/5=1,6=6,7=104,11=2,25=1,30=1,71=1,74=-5/1,2,3;
 4/5=5,16=3,69=1/1;
 5/5=2,38=5/2;
 7//1,2,3,16;
 1/18=20,19=15,26=3/3(-5);
 2/9=110/2;
 6/7=2,8=2,9=2,10=2,19=2,28=1/1;
 99/9=1/99;
 -------------------
 Title Card Required
 -------------------
 Symbolic Z-matrix:
 Charge =  0 Multiplicity = 1
 C                     1.08292  -0.44674  -0.08552 
 C                     2.39977  -0.07279   0.03304 
 C                     3.14462   0.73247  -0.98519 
 C                     3.08941   2.16538  -0.90237 
 C                     4.03732   2.81959  -1.80303 
 C                     4.29901   2.08466  -3.00617 
 C                     3.55694   0.91818  -3.28238 
 C                     2.56215   0.71933  -2.2962 
 N                     1.3711    1.54413  -2.24936 
 C                     1.66108   2.31032  -1.21408 
 S                     0.6827    2.98674   0.09168 
 S                    -1.34905   2.69965  -0.17109 
 H                     0.57062  -0.98652   0.68608 
 H                     0.47268  -0.18007  -0.94025 
 H                     2.94098  -0.38492   0.90871 
 H                     4.98109   2.43082  -3.78415 
 H                    -1.78587   1.93611   0.86839 
 

 GradGradGradGradGradGradGradGradGradGradGradGradGradGradGradGradGradGrad
 Berny optimization.
 Initialization pass.
                           ----------------------------
                           !    Initial Parameters    !
                           ! (Angstroms and Degrees)  !
 --------------------------                            --------------------------
 ! Name  Definition              Value          Derivative Info.                !
 --------------------------------------------------------------------------------
 ! R1    R(1,2)                  1.374          estimate D2E/DX2                !
 ! R2    R(1,13)                 1.072          estimate D2E/DX2                !
 ! R3    R(1,14)                 1.0835         estimate D2E/DX2                !
 ! R4    R(2,3)                  1.4967         estimate D2E/DX2                !
 ! R5    R(2,15)                 1.0757         estimate D2E/DX2                !
 ! R6    R(3,4)                  1.4364         estimate D2E/DX2                !
 ! R7    R(3,8)                  1.4346         estimate D2E/DX2                !
 ! R8    R(4,5)                  1.4621         estimate D2E/DX2                !
 ! R9    R(4,10)                 1.4691         estimate D2E/DX2                !
 ! R10   R(5,6)                  1.4339         estimate D2E/DX2                !
 ! R11   R(6,7)                  1.4098         estimate D2E/DX2                !
 ! R12   R(6,16)                 1.091          estimate D2E/DX2                !
 ! R13   R(7,8)                  1.4148         estimate D2E/DX2                !
 ! R14   R(8,9)                  1.4495         estimate D2E/DX2                !
 ! R15   R(9,10)                 1.3202         estimate D2E/DX2                !
 ! R16   R(10,11)                1.7663         estimate D2E/DX2                !
 ! R17   R(11,12)                2.0687         estimate D2E/DX2                !
 ! R18   R(12,17)                1.3617         estimate D2E/DX2                !
 ! A1    A(2,1,13)             122.2037         estimate D2E/DX2                !
 ! A2    A(2,1,14)             122.7403         estimate D2E/DX2                !
 ! A3    A(13,1,14)            114.9963         estimate D2E/DX2                !
 ! A4    A(1,2,3)              124.3801         estimate D2E/DX2                !
 ! A5    A(1,2,15)             118.2587         estimate D2E/DX2                !
 ! A6    A(3,2,15)             117.3579         estimate D2E/DX2                !
 ! A7    A(2,3,4)              118.5798         estimate D2E/DX2                !
 ! A8    A(2,3,8)              114.5015         estimate D2E/DX2                !
 ! A9    A(4,3,8)               92.6493         estimate D2E/DX2                !
 ! A10   A(3,4,5)              112.7017         estimate D2E/DX2                !
 ! A11   A(3,4,10)              97.0974         estimate D2E/DX2                !
 ! A12   A(5,4,10)             117.0958         estimate D2E/DX2                !
 ! A13   A(4,5,6)              113.9445         estimate D2E/DX2                !
 ! A14   A(5,6,7)              119.4975         estimate D2E/DX2                !
 ! A15   A(5,6,16)             123.3525         estimate D2E/DX2                !
 ! A16   A(7,6,16)             116.8641         estimate D2E/DX2                !
 ! A17   A(6,7,8)              110.4762         estimate D2E/DX2                !
 ! A18   A(3,8,7)              110.5003         estimate D2E/DX2                !
 ! A19   A(3,8,9)              107.3896         estimate D2E/DX2                !
 ! A20   A(7,8,9)              121.3523         estimate D2E/DX2                !
 ! A21   A(8,9,10)             100.084          estimate D2E/DX2                !
 ! A22   A(4,10,9)             108.8249         estimate D2E/DX2                !
 ! A23   A(4,10,11)            114.801          estimate D2E/DX2                !
 ! A24   A(9,10,11)            132.8676         estimate D2E/DX2                !
 ! A25   A(10,11,12)           113.3893         estimate D2E/DX2                !
 ! A26   A(11,12,17)           107.2119         estimate D2E/DX2                !
 ! D1    D(13,1,2,3)          -177.1766         estimate D2E/DX2                !
 ! D2    D(13,1,2,15)            3.5064         estimate D2E/DX2                !
 ! D3    D(14,1,2,3)            -0.1277         estimate D2E/DX2                !
 ! D4    D(14,1,2,15)         -179.4447         estimate D2E/DX2                !
 ! D5    D(1,2,3,4)             87.5884         estimate D2E/DX2                !
 ! D6    D(1,2,3,8)            -20.2374         estimate D2E/DX2                !
 ! D7    D(15,2,3,4)           -93.089          estimate D2E/DX2                !
 ! D8    D(15,2,3,8)           159.0852         estimate D2E/DX2                !
 ! D9    D(2,3,4,5)            170.0186         estimate D2E/DX2                !
 ! D10   D(2,3,4,10)           -66.6396         estimate D2E/DX2                !
 ! D11   D(8,3,4,5)            -70.1154         estimate D2E/DX2                !
 ! D12   D(8,3,4,10)            53.2264         estimate D2E/DX2                !
 ! D13   D(2,3,8,7)           -152.2822         estimate D2E/DX2                !
 ! D14   D(2,3,8,9)             73.3567         estimate D2E/DX2                !
 ! D15   D(4,3,8,7)             84.5307         estimate D2E/DX2                !
 ! D16   D(4,3,8,9)            -49.8304         estimate D2E/DX2                !
 ! D17   D(3,4,5,6)             30.9186         estimate D2E/DX2                !
 ! D18   D(10,4,5,6)           -80.4573         estimate D2E/DX2                !
 ! D19   D(3,4,10,9)           -45.733          estimate D2E/DX2                !
 ! D20   D(3,4,10,11)          115.9461         estimate D2E/DX2                !
 ! D21   D(5,4,10,9)            74.3044         estimate D2E/DX2                !
 ! D22   D(5,4,10,11)         -124.0165         estimate D2E/DX2                !
 ! D23   D(4,5,6,7)              6.3386         estimate D2E/DX2                !
 ! D24   D(4,5,6,16)           179.9996         estimate D2E/DX2                !
 ! D25   D(5,6,7,8)              4.0179         estimate D2E/DX2                !
 ! D26   D(16,6,7,8)          -170.048          estimate D2E/DX2                !
 ! D27   D(6,7,8,3)            -53.4291         estimate D2E/DX2                !
 ! D28   D(6,7,8,9)             73.5432         estimate D2E/DX2                !
 ! D29   D(3,8,9,10)            23.2229         estimate D2E/DX2                !
 ! D30   D(7,8,9,10)          -105.1329         estimate D2E/DX2                !
 ! D31   D(8,9,10,4)            13.8846         estimate D2E/DX2                !
 ! D32   D(8,9,10,11)         -143.2028         estimate D2E/DX2                !
 ! D33   D(4,10,11,12)        -164.1798         estimate D2E/DX2                !
 ! D34   D(9,10,11,12)          -8.1299         estimate D2E/DX2                !
 ! D35   D(10,11,12,17)        117.8676         estimate D2E/DX2                !
 --------------------------------------------------------------------------------
 Trust Radius=3.00D-01 FncErr=1.00D-07 GrdErr=1.00D-06 EigMax=2.50D+02 EigMin=1.00D-04
 Number of steps in this run=     89 maximum allowed number of steps=    102.
 GradGradGradGradGradGradGradGradGradGradGradGradGradGradGradGradGradGrad

                          Input orientation:                          
 ---------------------------------------------------------------------
 Center     Atomic      Atomic             Coordinates (Angstroms)
 Number     Number       Type             X           Y           Z
 ---------------------------------------------------------------------
      1          6           0        1.082920   -0.446740   -0.085520
      2          6           0        2.399770   -0.072790    0.033040
      3          6           0        3.144620    0.732470   -0.985190
      4          6           0        3.089410    2.165380   -0.902370
      5          6           0        4.037320    2.819590   -1.803030
      6          6           0        4.299010    2.084660   -3.006170
      7          6           0        3.556940    0.918180   -3.282380
      8          6           0        2.562150    0.719330   -2.296200
      9          7           0        1.371100    1.544130   -2.249360
     10          6           0        1.661080    2.310320   -1.214080
     11         16           0        0.682700    2.986740    0.091680
     12         16           0       -1.349050    2.699650   -0.171090
     13          1           0        0.570620   -0.986520    0.686080
     14          1           0        0.472680   -0.180070   -0.940250
     15          1           0        2.940980   -0.384920    0.908710
     16          1           0        4.981090    2.430820   -3.784150
     17          1           0       -1.785870    1.936110    0.868390
 ---------------------------------------------------------------------
                    Distance matrix (angstroms):
                    1          2          3          4          5
     1  C    0.000000
     2  C    1.374041   0.000000
     3  C    2.539793   1.496675   0.000000
     4  C    3.393585   2.521904   1.436363   0.000000
     5  C    4.727286   3.797181   2.412850   1.462092   0.000000
     6  C    5.028063   4.183121   2.691727   2.428090   1.433928
     7  C    4.266579   3.648709   2.341277   2.727369   2.456543
     8  C    2.904298   2.465599   1.434640   2.076494   2.613510
     9  N    2.954457   2.980259   2.324283   2.270005   2.989103
    10  C    3.034682   2.789298   2.177818   1.469114   2.500547
    11  S    3.461266   3.508916   3.507482   2.730388   3.856338
    12  S    3.977634   4.667092   4.972487   4.529916   5.629440
    13  H    1.071998   2.146428   3.517605   4.336122   5.718405
    14  H    1.083545   2.161592   2.823829   3.514235   4.738038
    15  H    2.108246   1.075700   2.208367   3.131465   4.338707
    16  H    6.095568   5.244255   3.753824   3.457393   2.228605
    17  H    3.849399   4.717316   5.403169   5.191966   6.467346
                    6          7          8          9         10
     6  C    0.000000
     7  C    1.409835   0.000000
     8  C    2.320531   1.414814   0.000000
     9  N    3.072066   2.497367   1.449513   0.000000
    10  C    3.197059   3.132124   2.124655   1.320205   0.000000
    11  S    4.846454   4.891265   3.791497   2.834693   1.766290
    12  S    6.349525   6.076389   4.871883   3.612983   3.209406
    13  H    6.079946   5.319273   3.971160   3.957495   3.958392
    14  H    4.902839   4.025467   2.648284   2.343884   2.772962
    15  H    4.823832   4.432010   3.410913   4.019846   3.661789
    16  H    1.091015   2.137301   3.315790   4.021670   4.200267
    17  H    7.215265   6.841834   5.513661   4.454265   4.044525
                   11         12         13         14         15
    11  S    0.000000
    12  S    2.068690   0.000000
    13  H    4.019038   4.243551   0.000000
    14  H    3.337315   3.493293   1.817939   0.000000
    15  H    4.139500   5.393042   2.455625   3.090812   0.000000
    16  H    5.814401   7.293637   7.149365   5.935510   5.840666
    17  H    2.793016   1.361736   3.758730   3.584752   5.266110
                   16         17
    16  H    0.000000
    17  H    8.226944   0.000000
 Stoichiometry    C9H5NS2
 Framework group  C1[X(C9H5NS2)]
 Deg. of freedom    45
 Full point group                 C1      NOp   1
 Largest Abelian subgroup         C1      NOp   1
 Largest concise Abelian subgroup C1      NOp   1
                         Standard orientation:                         
 ---------------------------------------------------------------------
 Center     Atomic      Atomic             Coordinates (Angstroms)
 Number     Number       Type             X           Y           Z
 ---------------------------------------------------------------------
      1          6           0       -0.463478    2.411936    0.119750
      2          6           0        0.539546    2.046131   -0.745189
      3          6           0        1.486261    0.911056   -0.509874
      4          6           0        1.104035   -0.403742   -0.943863
      5          6           0        2.202638   -1.365346   -0.865742
      6          6           0        3.136889   -1.097201    0.188498
      7          6           0        2.866193   -0.065201    1.110092
      8          6           0        1.593443    0.500027    0.860439
      9          7           0        0.374449   -0.208488    1.196814
     10          6           0       -0.013024   -0.586436   -0.007328
     11         16           0       -1.600490   -0.734559   -0.767454
     12         16           0       -3.171042   -0.469604    0.552638
     13          1           0       -1.150505    3.203762   -0.104274
     14          1           0       -0.649214    1.895192    1.053852
     15          1           0        0.665485    2.615604   -1.649053
     16          1           0        4.013268   -1.716525    0.385246
     17          1           0       -3.870675    0.620648    0.132890
 ---------------------------------------------------------------------
 Rotational constants (GHZ):           1.5267081           0.5627467           0.4972266
 Standard basis: 6-31G(2df,p) (6D, 7F)
 There are   405 symmetry adapted cartesian basis functions of A   symmetry.
 There are   369 symmetry adapted basis functions of A   symmetry.
   369 basis functions,   611 primitive gaussians,   405 cartesian basis functions
    49 alpha electrons       49 beta electrons
       nuclear repulsion energy       808.3567247993 Hartrees.
 NAtoms=   17 NActive=   17 NUniq=   17 SFac= 1.00D+00 NAtFMM=   60 NAOKFM=F Big=F
 Integral buffers will be    131072 words long.
 Raffenetti 2 integral format.
 Two-electron integral symmetry is turned on.
 One-electron integrals computed using PRISM.
 PrsmSu:  requested number of processors reduced to:  13 ShMem   1 Linda.
 NBasis=   369 RedAO= T EigKep=  2.14D-04  NBF=   369
 NBsUse=   369 1.00D-06 EigRej= -1.00D+00 NBFU=   369
 ExpMin= 1.17D-01 ExpMax= 2.19D+04 ExpMxC= 3.30D+03 IAcc=3 IRadAn=         5 AccDes= 0.00D+00
 Harris functional with IExCor=  402 and IRadAn=       5 diagonalized for initial guess.
 HarFok:  IExCor=  402 AccDes= 0.00D+00 IRadAn=         5 IDoV= 1 UseB2=F ITyADJ=14
 ICtDFT=  3500011 ScaDFX=  1.000000  1.000000  1.000000  1.000000
 FoFCou: FMM=F IPFlag=           0 FMFlag=      100000 FMFlg1=           0
         NFxFlg=           0 DoJE=T BraDBF=F KetDBF=T FulRan=T
         wScrn=  0.000000 ICntrl=       500 IOpCl=  0 I1Cent=   200000004 NGrid=           0
         NMat0=    1 NMatS0=      1 NMatT0=    0 NMatD0=    1 NMtDS0=    0 NMtDT0=    0
 Petite list used in FoFCou.
 Requested convergence on RMS density matrix=1.00D-08 within 128 cycles.
 Requested convergence on MAX density matrix=1.00D-06.
 Requested convergence on             energy=1.00D-06.
 No special actions if energy rises.
 Integral accuracy reduced to 1.0D-05 until final iterations.
 EnCoef did     4 forward-backward iterations
 Initial convergence to 1.0D-05 achieved.  Increase integral accuracy.
 SCF Done:  E(RB3LYP) =  -1196.64045257     A.U. after   22 cycles
            NFock= 22  Conv=0.60D-08     -V/T= 2.0046

 **********************************************************************

            Population analysis using the SCF density.

 **********************************************************************

 Orbital symmetries:
       Occupied  (A) (A) (A) (A) (A) (A) (A) (A) (A) (A) (A) (A)
                 (A) (A) (A) (A) (A) (A) (A) (A) (A) (A) (A) (A)
                 (A) (A) (A) (A) (A) (A) (A) (A) (A) (A) (A) (A)
                 (A) (A) (A) (A) (A) (A) (A) (A) (A) (A) (A) (A)
                 (A)
       Virtual   (A) (A) (A) (A) (A) (A) (A) (A) (A) (A) (A) (A)
                 (A) (A) (A) (A) (A) (A) (A) (A) (A) (A) (A) (A)
                 (A) (A) (A) (A) (A) (A) (A) (A) (A) (A) (A) (A)
                 (A) (A) (A) (A) (A) (A) (A) (A) (A) (A) (A) (A)
                 (A) (A) (A) (A) (A) (A) (A) (A) (A) (A) (A) (A)
                 (A) (A) (A) (A) (A) (A) (A) (A) (A) (A) (A) (A)
                 (A) (A) (A) (A) (A) (A) (A) (A) (A) (A) (A) (A)
                 (A) (A) (A) (A) (A) (A) (A) (A) (A) (A) (A) (A)
                 (A) (A) (A) (A) (A) (A) (A) (A) (A) (A) (A) (A)
                 (A) (A) (A) (A) (A) (A) (A) (A) (A) (A) (A) (A)
                 (A) (A) (A) (A) (A) (A) (A) (A) (A) (A) (A) (A)
                 (A) (A) (A) (A) (A) (A) (A) (A) (A) (A) (A) (A)
                 (A) (A) (A) (A) (A) (A) (A) (A) (A) (A) (A) (A)
                 (A) (A) (A) (A) (A) (A) (A) (A) (A) (A) (A) (A)
                 (A) (A) (A) (A) (A) (A) (A) (A) (A) (A) (A) (A)
                 (A) (A) (A) (A) (A) (A) (A) (A) (A) (A) (A) (A)
                 (A) (A) (A) (A) (A) (A) (A) (A) (A) (A) (A) (A)
                 (A) (A) (A) (A) (A) (A) (A) (A) (A) (A) (A) (A)
                 (A) (A) (A) (A) (A) (A) (A) (A) (A) (A) (A) (A)
                 (A) (A) (A) (A) (A) (A) (A) (A) (A) (A) (A) (A)
                 (A) (A) (A) (A) (A) (A) (A) (A) (A) (A) (A) (A)
                 (A) (A) (A) (A) (A) (A) (A) (A) (A) (A) (A) (A)
                 (A) (A) (A) (A) (A) (A) (A) (A) (A) (A) (A) (A)
                 (A) (A) (A) (A) (A) (A) (A) (A) (A) (A) (A) (A)
                 (A) (A) (A) (A) (A) (A) (A) (A) (A) (A) (A) (A)
                 (A) (A) (A) (A) (A) (A) (A) (A) (A) (A) (A) (A)
                 (A) (A) (A) (A) (A) (A) (A) (A)
 The electronic state is 1-A.
 Alpha  occ. eigenvalues --  -88.94856 -88.92038 -14.37550 -10.31154 -10.27287
 Alpha  occ. eigenvalues --  -10.24717 -10.24417 -10.24173 -10.23273 -10.22288
 Alpha  occ. eigenvalues --  -10.20992 -10.20173  -8.00911  -7.98650  -5.97435
 Alpha  occ. eigenvalues --   -5.96964  -5.96493  -5.95140  -5.94725  -5.94115
 Alpha  occ. eigenvalues --   -1.01819  -0.86204  -0.83643  -0.80440  -0.77974
 Alpha  occ. eigenvalues --   -0.73770  -0.71127  -0.63387  -0.61350  -0.57879
 Alpha  occ. eigenvalues --   -0.54533  -0.52747  -0.49331  -0.47442  -0.44907
 Alpha  occ. eigenvalues --   -0.44456  -0.43321  -0.41992  -0.39887  -0.38194
 Alpha  occ. eigenvalues --   -0.35847  -0.33782  -0.31313  -0.30228  -0.28224
 Alpha  occ. eigenvalues --   -0.27436  -0.25061  -0.24117  -0.21049
 Alpha virt. eigenvalues --   -0.14973  -0.11373  -0.08808  -0.07079  -0.03684
 Alpha virt. eigenvalues --   -0.00149   0.00876   0.03082   0.03791   0.11947
 Alpha virt. eigenvalues --    0.13570   0.15106   0.16136   0.18238   0.19743
 Alpha virt. eigenvalues --    0.21667   0.22942   0.23286   0.24348   0.26196
 Alpha virt. eigenvalues --    0.26692   0.28316   0.28593   0.28949   0.29827
 Alpha virt. eigenvalues --    0.31167   0.32132   0.33412   0.34244   0.34435
 Alpha virt. eigenvalues --    0.35992   0.36646   0.38677   0.39106   0.39759
 Alpha virt. eigenvalues --    0.42213   0.43221   0.43297   0.44991   0.45651
 Alpha virt. eigenvalues --    0.47235   0.48548   0.49295   0.50524   0.51326
 Alpha virt. eigenvalues --    0.52196   0.52439   0.53538   0.54612   0.55632
 Alpha virt. eigenvalues --    0.56138   0.57363   0.58455   0.60474   0.60814
 Alpha virt. eigenvalues --    0.62726   0.63275   0.63601   0.65421   0.65669
 Alpha virt. eigenvalues --    0.67779   0.69199   0.69615   0.71585   0.72222
 Alpha virt. eigenvalues --    0.73200   0.73934   0.77035   0.77277   0.79329
 Alpha virt. eigenvalues --    0.80385   0.82047   0.82498   0.83241   0.84296
 Alpha virt. eigenvalues --    0.85351   0.86603   0.87620   0.88940   0.90933
 Alpha virt. eigenvalues --    0.91547   0.93586   0.94740   0.97171   0.98681
 Alpha virt. eigenvalues --    0.99495   1.02426   1.04427   1.06835   1.07490
 Alpha virt. eigenvalues --    1.10121   1.14339   1.15487   1.20229   1.21997
 Alpha virt. eigenvalues --    1.24111   1.26551   1.27095   1.29366   1.33094
 Alpha virt. eigenvalues --    1.34623   1.37338   1.37582   1.39170   1.40677
 Alpha virt. eigenvalues --    1.41098   1.41697   1.42979   1.43719   1.45302
 Alpha virt. eigenvalues --    1.46508   1.46930   1.47595   1.48814   1.50199
 Alpha virt. eigenvalues --    1.51907   1.54628   1.55217   1.56284   1.57909
 Alpha virt. eigenvalues --    1.59069   1.60260   1.61136   1.62753   1.63720
 Alpha virt. eigenvalues --    1.64738   1.68041   1.68943   1.70993   1.71604
 Alpha virt. eigenvalues --    1.73932   1.76084   1.76494   1.78826   1.79634
 Alpha virt. eigenvalues --    1.82487   1.84143   1.84565   1.85932   1.88162
 Alpha virt. eigenvalues --    1.88711   1.91457   1.93680   1.95158   1.95946
 Alpha virt. eigenvalues --    1.97652   1.99998   2.00970   2.02771   2.06771
 Alpha virt. eigenvalues --    2.09679   2.09978   2.11754   2.14443   2.18160
 Alpha virt. eigenvalues --    2.19927   2.21437   2.23430   2.25547   2.27313
 Alpha virt. eigenvalues --    2.31999   2.32462   2.36115   2.38674   2.42311
 Alpha virt. eigenvalues --    2.47678   2.49770   2.52091   2.55466   2.58479
 Alpha virt. eigenvalues --    2.60218   2.62787   2.65225   2.66743   2.68709
 Alpha virt. eigenvalues --    2.69076   2.71269   2.73321   2.73608   2.76174
 Alpha virt. eigenvalues --    2.78127   2.79143   2.80289   2.82899   2.83599
 Alpha virt. eigenvalues --    2.84958   2.85287   2.88128   2.91332   2.93686
 Alpha virt. eigenvalues --    2.94836   2.97380   3.00640   3.02103   3.04455
 Alpha virt. eigenvalues --    3.08562   3.09993   3.10683   3.13298   3.13616
 Alpha virt. eigenvalues --    3.16045   3.17938   3.19563   3.22615   3.24137
 Alpha virt. eigenvalues --    3.25827   3.26737   3.27580   3.30393   3.31690
 Alpha virt. eigenvalues --    3.32936   3.33730   3.37855   3.41003   3.42971
 Alpha virt. eigenvalues --    3.44992   3.46250   3.47621   3.49842   3.53701
 Alpha virt. eigenvalues --    3.54851   3.56865   3.58986   3.61406   3.62747
 Alpha virt. eigenvalues --    3.66211   3.69685   3.69915   3.74410   3.76935
 Alpha virt. eigenvalues --    3.82675   3.83847   3.88328   3.90703   3.93139
 Alpha virt. eigenvalues --    3.96244   3.99853   4.02615   4.05491   4.06362
 Alpha virt. eigenvalues --    4.08360   4.09387   4.16555   4.19072   4.21443
 Alpha virt. eigenvalues --    4.25610   4.28854   4.30714   4.32616   4.35614
 Alpha virt. eigenvalues --    4.36981   4.38707   4.39573   4.44219   4.44367
 Alpha virt. eigenvalues --    4.46106   4.47604   4.49430   4.50092   4.50994
 Alpha virt. eigenvalues --    4.52067   4.52778   4.56524   4.57049   4.58876
 Alpha virt. eigenvalues --    4.60070   4.61173   4.62608   4.64383   4.67020
 Alpha virt. eigenvalues --    4.69891   4.71918   4.74461   4.76544   4.77598
 Alpha virt. eigenvalues --    4.82074   4.86057   4.87945   4.90242   4.91529
 Alpha virt. eigenvalues --    4.92855   4.94302   4.96932   5.00163   5.00751
 Alpha virt. eigenvalues --    5.03215   5.04370   5.06044   5.12877   5.15960
 Alpha virt. eigenvalues --    5.19376   5.23006   5.26883   5.29664   5.33293
 Alpha virt. eigenvalues --    5.38287   5.39642   5.45109   5.46714   5.51991
 Alpha virt. eigenvalues --    5.55435   5.57086   5.63828   5.69008   5.80936
 Alpha virt. eigenvalues --    5.92270   6.12596   6.48733   6.80140  10.00451
 Alpha virt. eigenvalues --   10.60324  10.66340  11.12568  11.39149  11.56485
 Alpha virt. eigenvalues --   11.62807  12.08196  12.40798  12.80024  18.93724
          Condensed to atoms (all electrons):
               1          2          3          4          5          6
     1  C    5.015697   0.635260  -0.022108  -0.004733   0.000419   0.000002
     2  C    0.635260   4.776568   0.445777  -0.046666   0.002525   0.000275
     3  C   -0.022108   0.445777   5.070900   0.458283  -0.029580  -0.002746
     4  C   -0.004733  -0.046666   0.458283   5.049829   0.531545  -0.055662
     5  C    0.000419   0.002525  -0.029580   0.531545   5.207377   0.550659
     6  C    0.000002   0.000275  -0.002746  -0.055662   0.550659   4.718530
     7  C    0.000724   0.001489  -0.048759  -0.052978  -0.024861   0.554466
     8  C    0.004130  -0.045150   0.345891  -0.102680  -0.061576  -0.052492
     9  N   -0.008145  -0.008855  -0.106797  -0.071966  -0.011701  -0.003362
    10  C   -0.006917  -0.006967  -0.055091   0.334378  -0.025096   0.010124
    11  S    0.009696   0.004072  -0.002804  -0.046836   0.000120   0.000368
    12  S    0.000482  -0.000098  -0.000916   0.002660  -0.000047   0.000011
    13  H    0.362989  -0.017811   0.004414   0.000063   0.000006  -0.000000
    14  H    0.360877  -0.016146  -0.014931   0.001857  -0.000029   0.000003
    15  H   -0.049366   0.370748  -0.041846  -0.000071  -0.000385   0.000019
    16  H   -0.000000  -0.000002  -0.001165   0.004463  -0.044958   0.371026
    17  H   -0.000305   0.000017   0.000028  -0.000011  -0.000000  -0.000000
               7          8          9         10         11         12
     1  C    0.000724   0.004130  -0.008145  -0.006917   0.009696   0.000482
     2  C    0.001489  -0.045150  -0.008855  -0.006967   0.004072  -0.000098
     3  C   -0.048759   0.345891  -0.106797  -0.055091  -0.002804  -0.000916
     4  C   -0.052978  -0.102680  -0.071966   0.334378  -0.046836   0.002660
     5  C   -0.024861  -0.061576  -0.011701  -0.025096   0.000120  -0.000047
     6  C    0.554466  -0.052492  -0.003362   0.010124   0.000368   0.000011
     7  C    5.181106   0.560617  -0.025020  -0.002997  -0.000364   0.000034
     8  C    0.560617   4.792992   0.472060  -0.107523   0.007177   0.000012
     9  N   -0.025020   0.472060   6.422196   0.603169  -0.041673   0.003955
    10  C   -0.002997  -0.107523   0.603169   4.715191   0.342412  -0.016200
    11  S   -0.000364   0.007177  -0.041673   0.342412  15.597633   0.133400
    12  S    0.000034   0.000012   0.003955  -0.016200   0.133400  15.790867
    13  H   -0.000013  -0.000736   0.000459   0.000298  -0.000634  -0.000177
    14  H    0.000179   0.004654   0.010365  -0.001007  -0.003631   0.002545
    15  H   -0.000281   0.002687   0.000105  -0.000616   0.000229   0.000004
    16  H   -0.048850   0.004209  -0.000174  -0.000510  -0.000008  -0.000000
    17  H    0.000000   0.000000   0.000086   0.000136  -0.009677   0.262713
              13         14         15         16         17
     1  C    0.362989   0.360877  -0.049366  -0.000000  -0.000305
     2  C   -0.017811  -0.016146   0.370748  -0.000002   0.000017
     3  C    0.004414  -0.014931  -0.041846  -0.001165   0.000028
     4  C    0.000063   0.001857  -0.000071   0.004463  -0.000011
     5  C    0.000006  -0.000029  -0.000385  -0.044958  -0.000000
     6  C   -0.000000   0.000003   0.000019   0.371026  -0.000000
     7  C   -0.000013   0.000179  -0.000281  -0.048850   0.000000
     8  C   -0.000736   0.004654   0.002687   0.004209   0.000000
     9  N    0.000459   0.010365   0.000105  -0.000174   0.000086
    10  C    0.000298  -0.001007  -0.000616  -0.000510   0.000136
    11  S   -0.000634  -0.003631   0.000229  -0.000008  -0.009677
    12  S   -0.000177   0.002545   0.000004  -0.000000   0.262713
    13  H    0.580128  -0.041052  -0.007104   0.000000   0.000179
    14  H   -0.041052   0.536444   0.005519  -0.000000  -0.000007
    15  H   -0.007104   0.005519   0.605624  -0.000000  -0.000001
    16  H    0.000000  -0.000000  -0.000000   0.602295   0.000000
    17  H    0.000179  -0.000007  -0.000001   0.000000   0.564220
 Mulliken charges:
               1
     1  C   -0.298703
     2  C   -0.095036
     3  C    0.001451
     4  C   -0.001475
     5  C   -0.094419
     6  C   -0.091223
     7  C   -0.094492
     8  C    0.175728
     9  N   -0.234703
    10  C    0.217215
    11  S    0.010520
    12  S   -0.179247
    13  H    0.118991
    14  H    0.154361
    15  H    0.114734
    16  H    0.113676
    17  H    0.182623
 Sum of Mulliken charges =  -0.00000
 Mulliken charges with hydrogens summed into heavy atoms:
               1
     1  C   -0.025351
     2  C    0.019698
     3  C    0.001451
     4  C   -0.001475
     5  C   -0.094419
     6  C    0.022453
     7  C   -0.094492
     8  C    0.175728
     9  N   -0.234703
    10  C    0.217215
    11  S    0.010520
    12  S    0.003376
 Electronic spatial extent (au):  <R**2>=           2299.4481
 Charge=             -0.0000 electrons
 Dipole moment (field-independent basis, Debye):
    X=             -2.4557    Y=              1.9404    Z=             -1.0068  Tot=              3.2877
 Quadrupole moment (field-independent basis, Debye-Ang):
   XX=            -79.8943   YY=            -81.1851   ZZ=            -87.7898
   XY=             -4.5856   XZ=             -0.2212   YZ=             -2.5535
 Traceless Quadrupole moment (field-independent basis, Debye-Ang):
   XX=              3.0621   YY=              1.7713   ZZ=             -4.8334
   XY=             -4.5856   XZ=             -0.2212   YZ=             -2.5535
 Octapole moment (field-independent basis, Debye-Ang**2):
  XXX=            -62.5928  YYY=              9.7434  ZZZ=             -4.5669  XYY=            -11.1308
  XXY=             12.4355  XXZ=             -1.8702  XZZ=            -15.1057  YZZ=              6.4933
  YYZ=              1.3758  XYZ=             -6.5233
 Hexadecapole moment (field-independent basis, Debye-Ang**3):
 XXXX=          -2057.1146 YYYY=           -710.6052 ZZZZ=           -391.4162 XXXY=            -89.1516
 XXXZ=            -24.4224 YYYX=            -10.1418 YYYZ=            -26.8644 ZZZX=             -4.9678
 ZZZY=            -11.9826 XXYY=           -475.1970 XXZZ=           -451.2407 YYZZ=           -180.9271
 XXYZ=            -17.3887 YYXZ=              4.5244 ZZXY=              9.5383
 N-N= 8.083567247993D+02 E-N=-4.436583657470D+03  KE= 1.191161737738D+03
 PrsmSu:  requested number of processors reduced to:  13 ShMem   1 Linda.
 Calling FoFJK, ICntrl=      2127 FMM=F ISym2X=0 I1Cent= 0 IOpClX= 0 NMat=1 NMatS=1 NMatT=0.
 ***** Axes restored to original set *****
 -------------------------------------------------------------------
 Center     Atomic                   Forces (Hartrees/Bohr)
 Number     Number              X              Y              Z
 -------------------------------------------------------------------
      1        6           0.034744199    0.006735416    0.003549192
      2        6          -0.037019933   -0.008799038   -0.010685105
      3        6          -0.025816235   -0.026385540    0.078245370
      4        6           0.079177957    0.033340804   -0.037639458
      5        6          -0.027707624   -0.048986034    0.011467329
      6        6           0.009377960    0.020930449   -0.019249475
      7        6          -0.040649599    0.008824543    0.027931612
      8        6           0.024677453    0.052321723   -0.073187245
      9        7          -0.009709428   -0.026543706   -0.011089340
     10        6          -0.029686826   -0.016907026    0.024421583
     11       16           0.012174586    0.008697164   -0.004790012
     12       16          -0.017303547    0.004367810   -0.013749783
     13        1           0.000085445   -0.007303389    0.007994094
     14        1           0.001573014   -0.000301738   -0.000539759
     15        1           0.004790003    0.001339083    0.007591930
     16        1           0.006123193    0.001218466    0.010340890
     17        1           0.015169381   -0.002548985   -0.000611822
 -------------------------------------------------------------------
 Cartesian Forces:  Max     0.079177957 RMS     0.027491022

 GradGradGradGradGradGradGradGradGradGradGradGradGradGradGradGradGradGrad
 Berny optimization.
 FormGI is forming the generalized inverse of G from B-inverse, IUseBI=4.
 Internal  Forces:  Max     0.053810309 RMS     0.015820484
 Search for a local minimum.
 Step number   1 out of a maximum of   89
 All quantities printed in internal units (Hartrees-Bohrs-Radians)
 Mixed Optimization -- RFO/linear search
 Second derivative matrix not updated -- first step.
 ITU=  0
     Eigenvalues ---    0.00389   0.00810   0.00816   0.01628   0.01686
     Eigenvalues ---    0.01819   0.01885   0.02275   0.02432   0.02440
     Eigenvalues ---    0.03589   0.05041   0.07678   0.08867   0.10474
     Eigenvalues ---    0.11957   0.15949   0.15999   0.16000   0.16000
     Eigenvalues ---    0.16000   0.17448   0.21239   0.22000   0.22341
     Eigenvalues ---    0.23250   0.24757   0.25000   0.27778   0.28963
     Eigenvalues ---    0.31467   0.32729   0.33695   0.34696   0.35466
     Eigenvalues ---    0.35569   0.36126   0.36519   0.36979   0.37308
     Eigenvalues ---    0.39124   0.41983   0.42926   0.50208   0.57057
 RFO step:  Lambda=-7.38482865D-02 EMin= 3.88831569D-03
 Linear search not attempted -- first point.
 Maximum step size (   0.300) exceeded in Quadratic search.
    -- Step size scaled by   0.745
 Iteration  1 RMS(Cart)=  0.17073695 RMS(Int)=  0.00646253
 Iteration  2 RMS(Cart)=  0.00985710 RMS(Int)=  0.00113996
 Iteration  3 RMS(Cart)=  0.00003731 RMS(Int)=  0.00113974
 Iteration  4 RMS(Cart)=  0.00000002 RMS(Int)=  0.00113974
 Variable       Old X    -DE/DX   Delta X   Delta X   Delta X     New X
                                 (Linear)    (Quad)   (Total)
    R1        2.59656  -0.03560   0.00000  -0.04603  -0.04603   2.55053
    R2        2.02578   0.00939   0.00000   0.01576   0.01576   2.04154
    R3        2.04760  -0.00054   0.00000  -0.00093  -0.00093   2.04667
    R4        2.82831   0.00779   0.00000   0.01445   0.01445   2.84276
    R5        2.03278   0.00820   0.00000   0.01391   0.01391   2.04669
    R6        2.71433   0.00770   0.00000   0.01056   0.01212   2.72645
    R7        2.71108   0.05381   0.00000   0.09186   0.09260   2.80367
    R8        2.76295  -0.03726   0.00000  -0.06136  -0.06106   2.70189
    R9        2.77622   0.02877   0.00000   0.05812   0.05759   2.83382
   R10        2.70973  -0.01856   0.00000  -0.03396  -0.03458   2.67515
   R11        2.66420   0.00023   0.00000  -0.00557  -0.00642   2.65778
   R12        2.06172  -0.00316   0.00000  -0.00559  -0.00559   2.05613
   R13        2.67361  -0.02743   0.00000  -0.04078  -0.04084   2.63277
   R14        2.73918  -0.01671   0.00000  -0.03260  -0.03252   2.70666
   R15        2.49483   0.00925   0.00000   0.01083   0.01010   2.50493
   R16        3.33780  -0.01569   0.00000  -0.03215  -0.03215   3.30566
   R17        3.90926   0.00367   0.00000   0.00777   0.00777   3.91702
   R18        2.57331  -0.00390   0.00000  -0.00904  -0.00904   2.56426
    A1        2.13286  -0.00512   0.00000  -0.01612  -0.01620   2.11666
    A2        2.14222   0.00130   0.00000   0.00432   0.00424   2.14647
    A3        2.00706   0.00395   0.00000   0.01278   0.01270   2.01977
    A4        2.17084   0.02653   0.00000   0.06718   0.06712   2.23796
    A5        2.06400  -0.01133   0.00000  -0.02750  -0.02756   2.03644
    A6        2.04828  -0.01523   0.00000  -0.03990  -0.03996   2.00832
    A7        2.06961   0.02615   0.00000   0.08500   0.08356   2.15317
    A8        1.99843   0.02477   0.00000   0.09234   0.08983   2.08825
    A9        1.61703  -0.02473   0.00000  -0.06276  -0.06474   1.55229
   A10        1.96702   0.01075   0.00000   0.02937   0.03042   1.99744
   A11        1.69467  -0.00080   0.00000  -0.02266  -0.02198   1.67269
   A12        2.04371  -0.00774   0.00000   0.00324   0.00221   2.04592
   A13        1.98871   0.02461   0.00000   0.06347   0.06433   2.05304
   A14        2.08563  -0.02317   0.00000  -0.06367  -0.06488   2.02074
   A15        2.15291   0.00349   0.00000   0.00775   0.00745   2.16036
   A16        2.03966   0.02018   0.00000   0.06196   0.06170   2.10136
   A17        1.92817   0.01228   0.00000   0.02814   0.02801   1.95618
   A18        1.92859   0.01009   0.00000   0.06060   0.05992   1.98852
   A19        1.87430   0.00673   0.00000   0.00881   0.00705   1.88136
   A20        2.11800  -0.00449   0.00000  -0.00461  -0.00474   2.11326
   A21        1.74680  -0.00262   0.00000  -0.02854  -0.02958   1.71722
   A22        1.89935  -0.00248   0.00000   0.01067   0.00858   1.90794
   A23        2.00366   0.01219   0.00000   0.03443   0.03399   2.03765
   A24        2.31898  -0.00482   0.00000  -0.01507  -0.01625   2.30273
   A25        1.97902  -0.03019   0.00000  -0.06942  -0.06942   1.90960
   A26        1.87120  -0.03586   0.00000  -0.11418  -0.11418   1.75702
    D1       -3.09232  -0.00387   0.00000  -0.03032  -0.03035  -3.12267
    D2        0.06120  -0.00111   0.00000  -0.00748  -0.00746   0.05374
    D3       -0.00223  -0.00065   0.00000  -0.00587  -0.00589  -0.00812
    D4       -3.13190   0.00211   0.00000   0.01697   0.01700  -3.11490
    D5        1.52871   0.00753   0.00000   0.07619   0.07927   1.60798
    D6       -0.35321   0.00511   0.00000   0.03665   0.03350  -0.31971
    D7       -1.62471   0.00482   0.00000   0.05360   0.05675  -1.56796
    D8        2.77656   0.00240   0.00000   0.01406   0.01098   2.78754
    D9        2.96739  -0.01131   0.00000  -0.06560  -0.06444   2.90294
   D10       -1.16308  -0.01624   0.00000  -0.06257  -0.06209  -1.22517
   D11       -1.22374   0.01169   0.00000   0.03489   0.03330  -1.19044
   D12        0.92898   0.00677   0.00000   0.03792   0.03565   0.96462
   D13       -2.65783   0.00902   0.00000   0.04021   0.04018  -2.61765
   D14        1.28032   0.00132   0.00000  -0.00964  -0.01218   1.26814
   D15        1.47534  -0.01570   0.00000  -0.05446  -0.05245   1.42289
   D16       -0.86970  -0.02339   0.00000  -0.10432  -0.10481  -0.97451
   D17        0.53963   0.01373   0.00000   0.05823   0.05877   0.59840
   D18       -1.40424   0.01214   0.00000   0.06458   0.06413  -1.34011
   D19       -0.79819  -0.01498   0.00000  -0.03188  -0.03313  -0.83132
   D20        2.02364  -0.00403   0.00000   0.03931   0.03984   2.06348
   D21        1.29686  -0.00596   0.00000  -0.01005  -0.01008   1.28678
   D22       -2.16450   0.00499   0.00000   0.06114   0.06289  -2.10160
   D23        0.11063   0.00135   0.00000  -0.02449  -0.02468   0.08595
   D24        3.14159   0.00810   0.00000   0.04594   0.04513  -3.09647
   D25        0.07013  -0.00003   0.00000  -0.00300  -0.00280   0.06733
   D26       -2.96790  -0.00552   0.00000  -0.06617  -0.06702  -3.03492
   D27       -0.93251  -0.00083   0.00000   0.00852   0.00868  -0.92383
   D28        1.28357   0.01560   0.00000   0.08068   0.08145   1.36502
   D29        0.40532   0.01730   0.00000   0.08654   0.08564   0.49095
   D30       -1.83492  -0.00043   0.00000  -0.00725  -0.00771  -1.84263
   D31        0.24233  -0.00777   0.00000  -0.04209  -0.04183   0.20050
   D32       -2.49936  -0.02602   0.00000  -0.14559  -0.14409  -2.64345
   D33       -2.86548  -0.01108   0.00000  -0.07824  -0.07803  -2.94351
   D34       -0.14189   0.00522   0.00000   0.02508   0.02487  -0.11702
   D35        2.05718  -0.01290   0.00000  -0.12353  -0.12353   1.93365
         Item               Value     Threshold  Converged?
 Maximum Force            0.053810     0.000450     NO 
 RMS     Force            0.015820     0.000300     NO 
 Maximum Displacement     0.556389     0.001800     NO 
 RMS     Displacement     0.168858     0.001200     NO 
 Predicted change in Energy=-4.211572D-02
 GradGradGradGradGradGradGradGradGradGradGradGradGradGradGradGradGradGrad

                          Input orientation:                          
 ---------------------------------------------------------------------
 Center     Atomic      Atomic             Coordinates (Angstroms)
 Number     Number       Type             X           Y           Z
 ---------------------------------------------------------------------
      1          6           0        1.125035   -0.636261    0.045715
      2          6           0        2.393633   -0.175520    0.050738
      3          6           0        3.071047    0.697137   -0.970327
      4          6           0        3.107630    2.136903   -0.884666
      5          6           0        4.045673    2.758452   -1.766721
      6          6           0        4.258770    2.155079   -3.029472
      7          6           0        3.436036    1.054144   -3.327999
      8          6           0        2.491781    0.820297   -2.330647
      9          7           0        1.307620    1.619926   -2.231380
     10          6           0        1.651192    2.344070   -1.175607
     11         16           0        0.699544    3.110588    0.076109
     12         16           0       -1.313559    2.940800   -0.387666
     13          1           0        0.746932   -1.246979    0.852680
     14          1           0        0.416841   -0.404953   -0.740391
     15          1           0        3.022356   -0.491082    0.874236
     16          1           0        4.977641    2.519437   -3.760454
     17          1           0       -1.720703    2.074302    0.573961
 ---------------------------------------------------------------------
                    Distance matrix (angstroms):
                    1          2          3          4          5
     1  C    0.000000
     2  C    1.349685   0.000000
     3  C    2.568512   1.504325   0.000000
     4  C    3.533656   2.594624   1.442776   0.000000
     5  C    4.831058   3.826301   2.415193   1.429780   0.000000
     6  C    5.202754   4.289303   2.788613   2.434266   1.415631
     7  C    4.424944   3.743599   2.412320   2.692600   2.390379
     8  C    3.104295   2.583075   1.483640   2.050265   2.547360
     9  N    3.210744   3.100179   2.356155   2.306716   3.001514
    10  C    3.263562   2.898874   2.184151   1.499592   2.500934
    11  S    3.771053   3.697172   3.541723   2.769481   3.836223
    12  S    4.350854   4.862811   4.959666   4.521081   5.536824
    13  H    1.080339   2.121971   3.536163   4.476820   5.812610
    14  H    1.083054   2.141549   2.883103   3.704348   4.922287
    15  H    2.075416   1.083061   2.194686   3.163434   4.310603
    16  H    6.268008   5.335267   3.839361   3.451585   2.213745
    17  H    3.965403   4.718392   5.219413   5.044235   6.260826
                    6          7          8          9         10
     6  C    0.000000
     7  C    1.406438   0.000000
     8  C    2.322122   1.393203   0.000000
     9  N    3.103647   2.460251   1.432304   0.000000
    10  C    3.204996   3.079346   2.088682   1.325550   0.000000
    11  S    4.819308   4.827557   3.774920   2.813599   1.749279
    12  S    6.216700   5.896074   4.769939   3.466205   3.125170
    13  H    6.243245   5.477638   4.177523   4.247933   4.222234
    14  H    5.153065   4.235589   2.887131   2.667709   3.044694
    15  H    4.875431   4.496402   3.503212   4.128138   3.757664
    16  H    1.088057   2.170403   3.333306   4.076303   4.216332
    17  H    6.981788   6.546600   5.268235   4.152968   3.808338
                   11         12         13         14         15
    11  S    0.000000
    12  S    2.072800   0.000000
    13  H    4.426476   4.829242   0.000000
    14  H    3.620168   3.783222   1.831896   0.000000
    15  H    4.359414   5.671894   2.397791   3.066456   0.000000
    16  H    5.776746   7.150696   7.305190   6.202720   5.862313
    17  H    2.679429   1.356950   4.147024   3.527509   5.400738
                   16         17
    16  H    0.000000
    17  H    7.990815   0.000000
 Stoichiometry    C9H5NS2
 Framework group  C1[X(C9H5NS2)]
 Deg. of freedom    45
 Full point group                 C1      NOp   1
 Largest Abelian subgroup         C1      NOp   1
 Largest concise Abelian subgroup C1      NOp   1
                         Standard orientation:                         
 ---------------------------------------------------------------------
 Center     Atomic      Atomic             Coordinates (Angstroms)
 Number     Number       Type             X           Y           Z
 ---------------------------------------------------------------------
      1          6           0       -0.278976    2.708835    0.206769
      2          6           0        0.695206    2.216486   -0.587089
      3          6           0        1.494404    0.954883   -0.406443
      4          6           0        1.115170   -0.313644   -0.979699
      5          6           0        2.144766   -1.305414   -0.955302
      6          6           0        3.030400   -1.305309    0.149082
      7          6           0        2.734303   -0.384945    1.170515
      8          6           0        1.548914    0.305122    0.926233
      9          7           0        0.275390   -0.303846    1.168698
     10          6           0       -0.071371   -0.534595   -0.089712
     11         16           0       -1.632673   -0.641713   -0.871272
     12         16           0       -3.127679   -0.560490    0.562206
     13          1           0       -0.795230    3.624846   -0.041300
     14          1           0       -0.611696    2.211355    1.109441
     15          1           0        0.965012    2.810822   -1.451376
     16          1           0        3.872246   -1.987276    0.249498
     17          1           0       -3.669333    0.653920    0.291779
 ---------------------------------------------------------------------
 Rotational constants (GHZ):           1.3510296           0.5772080           0.4938887
 Standard basis: 6-31G(2df,p) (6D, 7F)
 There are   405 symmetry adapted cartesian basis functions of A   symmetry.
 There are   369 symmetry adapted basis functions of A   symmetry.
   369 basis functions,   611 primitive gaussians,   405 cartesian basis functions
    49 alpha electrons       49 beta electrons
       nuclear repulsion energy       802.2987561996 Hartrees.
 NAtoms=   17 NActive=   17 NUniq=   17 SFac= 1.00D+00 NAtFMM=   60 NAOKFM=F Big=F
 Integral buffers will be    131072 words long.
 Raffenetti 2 integral format.
 Two-electron integral symmetry is turned on.
 One-electron integrals computed using PRISM.
 PrsmSu:  requested number of processors reduced to:  13 ShMem   1 Linda.
 NBasis=   369 RedAO= T EigKep=  2.23D-04  NBF=   369
 NBsUse=   369 1.00D-06 EigRej= -1.00D+00 NBFU=   369
 Initial guess from the checkpoint file:  "CdCC1dC2[C]CdCdC1NdC2SS.chk"
 B after Tr=    -0.000000   -0.000000    0.000000
         Rot=    0.999035   -0.040389    0.004181    0.016747 Ang=  -5.03 deg.
 ExpMin= 1.17D-01 ExpMax= 2.19D+04 ExpMxC= 3.30D+03 IAcc=2 IRadAn=         4 AccDes= 0.00D+00
 Harris functional with IExCor=  402 and IRadAn=       4 diagonalized for initial guess.
 HarFok:  IExCor=  402 AccDes= 0.00D+00 IRadAn=         4 IDoV= 1 UseB2=F ITyADJ=14
 ICtDFT=  3500011 ScaDFX=  1.000000  1.000000  1.000000  1.000000
 FoFCou: FMM=F IPFlag=           0 FMFlag=      100000 FMFlg1=           0
         NFxFlg=           0 DoJE=T BraDBF=F KetDBF=T FulRan=T
         wScrn=  0.000000 ICntrl=       500 IOpCl=  0 I1Cent=   200000004 NGrid=           0
         NMat0=    1 NMatS0=      1 NMatT0=    0 NMatD0=    1 NMtDS0=    0 NMtDT0=    0
 Petite list used in FoFCou.
 Requested convergence on RMS density matrix=1.00D-08 within 128 cycles.
 Requested convergence on MAX density matrix=1.00D-06.
 Requested convergence on             energy=1.00D-06.
 No special actions if energy rises.
 Integral accuracy reduced to 1.0D-05 until final iterations.
 Initial convergence to 1.0D-05 achieved.  Increase integral accuracy.
 SCF Done:  E(RB3LYP) =  -1196.68082599     A.U. after   18 cycles
            NFock= 18  Conv=0.99D-08     -V/T= 2.0047
 PrsmSu:  requested number of processors reduced to:  13 ShMem   1 Linda.
 Calling FoFJK, ICntrl=      2127 FMM=F ISym2X=0 I1Cent= 0 IOpClX= 0 NMat=1 NMatS=1 NMatT=0.
 ***** Axes restored to original set *****
 -------------------------------------------------------------------
 Center     Atomic                   Forces (Hartrees/Bohr)
 Number     Number              X              Y              Z
 -------------------------------------------------------------------
      1        6           0.012147534    0.004297634   -0.002722506
      2        6          -0.007861387    0.004059583   -0.008952490
      3        6          -0.027000672   -0.025740620    0.041218700
      4        6           0.051705521    0.025965614   -0.026532633
      5        6          -0.021529720   -0.034357161    0.011028629
      6        6           0.007878853    0.015035959   -0.010710138
      7        6          -0.027034326    0.004311359    0.018466311
      8        6           0.020678409    0.028926911   -0.035472388
      9        7          -0.004325824   -0.014633464   -0.002074952
     10        6          -0.018607318   -0.015413278    0.017865458
     11       16           0.006469308    0.006567838   -0.006510982
     12       16          -0.007890955    0.000609733   -0.003998628
     13        1           0.001503130   -0.003690551    0.002121132
     14        1           0.000082526    0.001282573   -0.001878639
     15        1           0.003876795    0.003867063    0.003908745
     16        1           0.003314773   -0.000410848    0.006130891
     17        1           0.006593352   -0.000678346   -0.001886511
 -------------------------------------------------------------------
 Cartesian Forces:  Max     0.051705521 RMS     0.017017213

 GradGradGradGradGradGradGradGradGradGradGradGradGradGradGradGradGradGrad
 Berny optimization.
 Using GEDIIS/GDIIS optimizer.
 FormGI is forming the generalized inverse of G from B-inverse, IUseBI=4.
 Internal  Forces:  Max     0.029778897 RMS     0.008260729
 Search for a local minimum.
 Step number   2 out of a maximum of   89
 All quantities printed in internal units (Hartrees-Bohrs-Radians)
 Mixed Optimization -- RFO/linear search
 Update second derivatives using D2CorX and points    1    2
 DE= -4.04D-02 DEPred=-4.21D-02 R= 9.59D-01
 TightC=F SS=  1.41D+00  RLast= 4.55D-01 DXNew= 5.0454D-01 1.3637D+00
 Trust test= 9.59D-01 RLast= 4.55D-01 DXMaxT set to 5.05D-01
 ITU=  1  0
 Use linear search instead of GDIIS.
     Eigenvalues ---    0.00403   0.00810   0.00831   0.01636   0.01678
     Eigenvalues ---    0.01799   0.01922   0.02120   0.02429   0.02437
     Eigenvalues ---    0.03370   0.04830   0.07320   0.08251   0.10694
     Eigenvalues ---    0.11845   0.15573   0.15993   0.15999   0.16000
     Eigenvalues ---    0.16283   0.18179   0.20340   0.21261   0.23551
     Eigenvalues ---    0.24095   0.24621   0.24809   0.27760   0.28663
     Eigenvalues ---    0.31210   0.31859   0.34209   0.34697   0.34943
     Eigenvalues ---    0.35582   0.36502   0.36925   0.37247   0.38977
     Eigenvalues ---    0.39048   0.41526   0.42647   0.50322   0.57199
 RFO step:  Lambda=-2.78362544D-02 EMin= 4.02541336D-03
 Quartic linear search produced a step of  1.21140.
 Iteration  1 RMS(Cart)=  0.13364136 RMS(Int)=  0.02273536
 Iteration  2 RMS(Cart)=  0.03925337 RMS(Int)=  0.00470520
 Iteration  3 RMS(Cart)=  0.00142032 RMS(Int)=  0.00434326
 Iteration  4 RMS(Cart)=  0.00000502 RMS(Int)=  0.00434326
 Iteration  5 RMS(Cart)=  0.00000004 RMS(Int)=  0.00434326
 Variable       Old X    -DE/DX   Delta X   Delta X   Delta X     New X
                                 (Linear)    (Quad)   (Total)
    R1        2.55053  -0.01354  -0.05576   0.01200  -0.04376   2.50678
    R2        2.04154   0.00314   0.01909  -0.00622   0.01288   2.05442
    R3        2.04667   0.00158  -0.00112   0.00998   0.00885   2.05553
    R4        2.84276  -0.01519   0.01751  -0.11043  -0.09292   2.74984
    R5        2.04669   0.00410   0.01685   0.00169   0.01854   2.06523
    R6        2.72645   0.00401   0.01468   0.00160   0.01916   2.74562
    R7        2.80367   0.02020   0.11217  -0.02116   0.08960   2.89328
    R8        2.70189  -0.02978  -0.07397  -0.06619  -0.13953   2.56237
    R9        2.83382   0.01531   0.06977   0.02132   0.09061   2.92443
   R10        2.67515  -0.00936  -0.04189  -0.01019  -0.05312   2.62204
   R11        2.65778   0.00289  -0.00778   0.00631  -0.00322   2.65456
   R12        2.05613  -0.00207  -0.00677  -0.00343  -0.01020   2.04593
   R13        2.63277  -0.01905  -0.04947  -0.02798  -0.07767   2.55510
   R14        2.70666  -0.00992  -0.03940  -0.01667  -0.05538   2.65128
   R15        2.50493   0.00170   0.01224  -0.00397   0.00910   2.51402
   R16        3.30566  -0.00884  -0.03894  -0.01106  -0.05000   3.25565
   R17        3.91702   0.00258   0.00941   0.00624   0.01565   3.93267
   R18        2.56426  -0.00288  -0.01096  -0.00848  -0.01943   2.54483
    A1        2.11666  -0.00173  -0.01962   0.00621  -0.01401   2.10265
    A2        2.14647  -0.00079   0.00514  -0.01485  -0.01031   2.13616
    A3        2.01977   0.00256   0.01539   0.00932   0.02411   2.04388
    A4        2.23796   0.00170   0.08130  -0.08620  -0.00503   2.23293
    A5        2.03644   0.00263  -0.03339   0.07245   0.03891   2.07535
    A6        2.00832  -0.00435  -0.04841   0.01387  -0.03467   1.97365
    A7        2.15317   0.01125   0.10123  -0.01624   0.08527   2.23843
    A8        2.08825   0.00794   0.10882  -0.04061   0.06648   2.15473
    A9        1.55229  -0.00952  -0.07843   0.00431  -0.08357   1.46873
   A10        1.99744   0.00471   0.03685   0.00082   0.04281   2.04025
   A11        1.67269  -0.00457  -0.02663  -0.06312  -0.08966   1.58303
   A12        2.04592   0.00021   0.00268   0.06039   0.05726   2.10318
   A13        2.05304   0.01524   0.07793   0.04230   0.12178   2.17482
   A14        2.02074  -0.01382  -0.07860  -0.03151  -0.11720   1.90354
   A15        2.16036   0.00236   0.00903   0.00695   0.01181   2.17216
   A16        2.10136   0.01162   0.07474   0.02800   0.09735   2.19871
   A17        1.95618   0.00566   0.03393   0.01026   0.04359   1.99977
   A18        1.98852   0.00587   0.07259   0.06370   0.13113   2.11965
   A19        1.88136  -0.00017   0.00855  -0.04820  -0.05376   1.82760
   A20        2.11326   0.00025  -0.00574   0.02025   0.01933   2.13259
   A21        1.71722   0.00008  -0.03583  -0.00824  -0.04806   1.66916
   A22        1.90794  -0.00220   0.01040   0.01207   0.00948   1.91741
   A23        2.03765   0.00904   0.04117   0.03259   0.06582   2.10347
   A24        2.30273  -0.00449  -0.01969  -0.01287  -0.04132   2.26140
   A25        1.90960  -0.01458  -0.08409  -0.00689  -0.09098   1.81862
   A26        1.75702  -0.01407  -0.13832   0.01945  -0.11887   1.63815
    D1       -3.12267  -0.00262  -0.03677  -0.04427  -0.08125   3.07926
    D2        0.05374  -0.00163  -0.00903  -0.04929  -0.05809  -0.00434
    D3       -0.00812  -0.00058  -0.00714  -0.01217  -0.01954  -0.02766
    D4       -3.11490   0.00041   0.02060  -0.01719   0.00363  -3.11127
    D5        1.60798   0.00547   0.09603   0.07890   0.17793   1.78591
    D6       -0.31971   0.00260   0.04059   0.12358   0.16068  -0.15902
    D7       -1.56796   0.00460   0.06875   0.08488   0.15710  -1.41086
    D8        2.78754   0.00173   0.01330   0.12956   0.13985   2.92739
    D9        2.90294  -0.00195  -0.07806   0.07499   0.00155   2.90449
   D10       -1.22517  -0.00252  -0.07522   0.10776   0.03039  -1.19479
   D11       -1.19044   0.00565   0.04034   0.01928   0.05764  -1.13280
   D12        0.96462   0.00509   0.04318   0.05204   0.08648   1.05111
   D13       -2.61765   0.00150   0.04867  -0.09813  -0.04879  -2.66644
   D14        1.26814  -0.00430  -0.01475  -0.14005  -0.15985   1.10828
   D15        1.42289  -0.00894  -0.06354  -0.06383  -0.12238   1.30050
   D16       -0.97451  -0.01474  -0.12697  -0.10575  -0.23344  -1.20796
   D17        0.59840   0.00646   0.07120   0.05897   0.13141   0.72982
   D18       -1.34011   0.00892   0.07769   0.10012   0.17892  -1.16119
   D19       -0.83132  -0.00722  -0.04013   0.00337  -0.03956  -0.87088
   D20        2.06348   0.00001   0.04826   0.11051   0.16591   2.22939
   D21        1.28678  -0.00450  -0.01221  -0.01144  -0.02553   1.26125
   D22       -2.10160   0.00273   0.07619   0.09570   0.17994  -1.92167
   D23        0.08595  -0.00097  -0.02989  -0.05690  -0.08702  -0.00106
   D24       -3.09647   0.00371   0.05467   0.04073   0.08870  -3.00777
   D25        0.06733  -0.00034  -0.00339  -0.01097  -0.01493   0.05240
   D26       -3.03492  -0.00464  -0.08119  -0.10458  -0.19173   3.05654
   D27       -0.92383   0.00238   0.01052   0.05847   0.07060  -0.85323
   D28        1.36502   0.00935   0.09867   0.07890   0.18075   1.54577
   D29        0.49095   0.00955   0.10374   0.08173   0.17596   0.66692
   D30       -1.84263   0.00039  -0.00934   0.01729   0.00701  -1.83562
   D31        0.20050  -0.00374  -0.05067  -0.04379  -0.09471   0.10579
   D32       -2.64345  -0.01518  -0.17455  -0.18283  -0.34616  -2.98962
   D33       -2.94351  -0.00524  -0.09453  -0.01181  -0.10447  -3.04798
   D34       -0.11702   0.00518   0.03013   0.13196   0.16021   0.04319
   D35        1.93365  -0.00759  -0.14964  -0.19617  -0.34581   1.58784
         Item               Value     Threshold  Converged?
 Maximum Force            0.029779     0.000450     NO 
 RMS     Force            0.008261     0.000300     NO 
 Maximum Displacement     0.530167     0.001800     NO 
 RMS     Displacement     0.155203     0.001200     NO 
 Predicted change in Energy=-2.594324D-02
 GradGradGradGradGradGradGradGradGradGradGradGradGradGradGradGradGradGrad

                          Input orientation:                          
 ---------------------------------------------------------------------
 Center     Atomic      Atomic             Coordinates (Angstroms)
 Number     Number       Type             X           Y           Z
 ---------------------------------------------------------------------
      1          6           0        1.148872   -0.733039    0.052280
      2          6           0        2.358026   -0.189989    0.104456
      3          6           0        3.001872    0.657140   -0.888169
      4          6           0        3.170325    2.100092   -0.866164
      5          6           0        4.044504    2.629292   -1.757425
      6          6           0        4.157885    2.230931   -3.081687
      7          6           0        3.231228    1.205624   -3.333349
      8          6           0        2.430180    0.902297   -2.287168
      9          7           0        1.211296    1.560186   -2.063776
     10          6           0        1.646440    2.299816   -1.047181
     11         16           0        0.762505    3.311841    0.031043
     12         16           0       -1.220658    3.068988   -0.551176
     13          1           0        0.808530   -1.397893    0.842240
     14          1           0        0.470675   -0.566290   -0.781636
     15          1           0        3.003657   -0.418845    0.956019
     16          1           0        4.932285    2.568609   -3.758762
     17          1           0       -1.440150    2.047580    0.298565
 ---------------------------------------------------------------------
                    Distance matrix (angstroms):
                    1          2          3          4          5
     1  C    0.000000
     2  C    1.326529   0.000000
     3  C    2.500130   1.455153   0.000000
     4  C    3.599505   2.616563   1.452918   0.000000
     5  C    4.792180   3.776130   2.394174   1.355946   0.000000
     6  C    5.259375   4.387693   2.936785   2.429185   1.387522
     7  C    4.422342   3.811656   2.516415   2.625031   2.274156
     8  C    3.128752   2.630240   1.531056   2.000445   2.422639
     9  N    3.120973   3.013193   2.324587   2.358721   3.043667
    10  C    3.264139   2.834035   2.135618   1.547541   2.522640
    11  S    4.063346   3.848881   3.592652   2.840935   3.799475
    12  S    4.520425   4.884441   4.874457   4.507627   5.419437
    13  H    1.087153   2.098641   3.468173   4.553309   5.783426
    14  H    1.087737   2.118691   2.813376   3.795371   4.892459
    15  H    2.087028   1.092874   2.135129   3.113385   4.211565
    16  H    6.303898   5.400104   3.952279   3.419230   2.190248
    17  H    3.807300   4.412543   4.803459   4.755610   5.886163
                    6          7          8          9         10
     6  C    0.000000
     7  C    1.404735   0.000000
     8  C    2.319804   1.352102   0.000000
     9  N    3.188798   2.411983   1.402997   0.000000
    10  C    3.232850   2.989210   2.026049   1.330364   0.000000
    11  S    4.731391   4.674385   3.736461   2.767304   1.722818
    12  S    6.002879   5.570629   4.586593   3.237104   3.009634
    13  H    6.307436   5.484826   4.208779   4.166219   4.236162
    14  H    5.168190   4.155908   2.874549   2.591196   3.109260
    15  H    4.965543   4.592316   3.548598   4.030915   3.639501
    16  H    1.082659   2.220877   3.347045   4.211372   4.268688
    17  H    6.541997   5.976744   4.793448   3.584462   3.376639
                   11         12         13         14         15
    11  S    0.000000
    12  S    2.081080   0.000000
    13  H    4.779305   5.100220   0.000000
    14  H    3.973098   4.016088   1.855447   0.000000
    15  H    4.449309   5.681677   2.406255   3.075253   0.000000
    16  H    5.683492   6.956845   7.342187   6.212634   5.905391
    17  H    2.553745   1.346667   4.150112   3.413269   5.124736
                   16         17
    16  H    0.000000
    17  H    7.572404   0.000000
 Stoichiometry    C9H5NS2
 Framework group  C1[X(C9H5NS2)]
 Deg. of freedom    45
 Full point group                 C1      NOp   1
 Largest Abelian subgroup         C1      NOp   1
 Largest concise Abelian subgroup C1      NOp   1
                         Standard orientation:                         
 ---------------------------------------------------------------------
 Center     Atomic      Atomic             Coordinates (Angstroms)
 Number     Number       Type             X           Y           Z
 ---------------------------------------------------------------------
      1          6           0       -0.046984    2.848131    0.241839
      2          6           0        0.801329    2.253612   -0.586768
      3          6           0        1.486265    0.982557   -0.405795
      4          6           0        1.167889   -0.303698   -1.001744
      5          6           0        2.110499   -1.273804   -0.907034
      6          6           0        2.864269   -1.531991    0.228919
      7          6           0        2.490842   -0.632843    1.241522
      8          6           0        1.477916    0.198987    0.909530
      9          7           0        0.132530   -0.143831    1.111557
     10          6           0       -0.133506   -0.388934   -0.168684
     11         16           0       -1.644875   -0.697323   -0.935990
     12         16           0       -3.041204   -0.519784    0.596863
     13          1           0       -0.446993    3.831869    0.009130
     14          1           0       -0.348748    2.401175    1.186478
     15          1           0        1.087564    2.767201   -1.508000
     16          1           0        3.695514   -2.224556    0.268119
     17          1           0       -3.248899    0.792760    0.378686
 ---------------------------------------------------------------------
 Rotational constants (GHZ):           1.2561136           0.6083559           0.5076036
 Standard basis: 6-31G(2df,p) (6D, 7F)
 There are   405 symmetry adapted cartesian basis functions of A   symmetry.
 There are   369 symmetry adapted basis functions of A   symmetry.
   369 basis functions,   611 primitive gaussians,   405 cartesian basis functions
    49 alpha electrons       49 beta electrons
       nuclear repulsion energy       807.4863595864 Hartrees.
 NAtoms=   17 NActive=   17 NUniq=   17 SFac= 1.00D+00 NAtFMM=   60 NAOKFM=F Big=F
 Integral buffers will be    131072 words long.
 Raffenetti 2 integral format.
 Two-electron integral symmetry is turned on.
 One-electron integrals computed using PRISM.
 PrsmSu:  requested number of processors reduced to:  13 ShMem   1 Linda.
 NBasis=   369 RedAO= T EigKep=  2.13D-04  NBF=   369
 NBsUse=   369 1.00D-06 EigRej= -1.00D+00 NBFU=   369
 Initial guess from the checkpoint file:  "CdCC1dC2[C]CdCdC1NdC2SS.chk"
 B after Tr=    -0.000000    0.000000   -0.000000
         Rot=    0.999803   -0.001301    0.005457    0.019048 Ang=  -2.28 deg.
 ExpMin= 1.17D-01 ExpMax= 2.19D+04 ExpMxC= 3.30D+03 IAcc=2 IRadAn=         4 AccDes= 0.00D+00
 Harris functional with IExCor=  402 and IRadAn=       4 diagonalized for initial guess.
 HarFok:  IExCor=  402 AccDes= 0.00D+00 IRadAn=         4 IDoV= 1 UseB2=F ITyADJ=14
 ICtDFT=  3500011 ScaDFX=  1.000000  1.000000  1.000000  1.000000
 FoFCou: FMM=F IPFlag=           0 FMFlag=      100000 FMFlg1=           0
         NFxFlg=           0 DoJE=T BraDBF=F KetDBF=T FulRan=T
         wScrn=  0.000000 ICntrl=       500 IOpCl=  0 I1Cent=   200000004 NGrid=           0
         NMat0=    1 NMatS0=      1 NMatT0=    0 NMatD0=    1 NMtDS0=    0 NMtDT0=    0
 Petite list used in FoFCou.
 Requested convergence on RMS density matrix=1.00D-08 within 128 cycles.
 Requested convergence on MAX density matrix=1.00D-06.
 Requested convergence on             energy=1.00D-06.
 No special actions if energy rises.
 Integral accuracy reduced to 1.0D-05 until final iterations.
 Initial convergence to 1.0D-05 achieved.  Increase integral accuracy.
 SCF Done:  E(RB3LYP) =  -1196.70253108     A.U. after   18 cycles
            NFock= 18  Conv=0.46D-08     -V/T= 2.0044
 PrsmSu:  requested number of processors reduced to:  13 ShMem   1 Linda.
 Calling FoFJK, ICntrl=      2127 FMM=F ISym2X=0 I1Cent= 0 IOpClX= 0 NMat=1 NMatS=1 NMatT=0.
 ***** Axes restored to original set *****
 -------------------------------------------------------------------
 Center     Atomic                   Forces (Hartrees/Bohr)
 Number     Number              X              Y              Z
 -------------------------------------------------------------------
      1        6          -0.012875948   -0.013016396    0.000007152
      2        6           0.015686880    0.005688294    0.003332217
      3        6          -0.002956639   -0.005206491   -0.010200670
      4        6           0.005128624    0.010307062    0.009035876
      5        6           0.002869506    0.005415225    0.001849946
      6        6           0.006013922    0.001291160    0.003031858
      7        6          -0.002276732   -0.004026609   -0.010285164
      8        6           0.000208517   -0.018662072    0.006014557
      9        7          -0.002705015    0.014630376   -0.000951445
     10        6           0.000063672   -0.002850429   -0.003986836
     11       16          -0.001346857    0.004414457   -0.000261410
     12       16           0.000531295   -0.000738919    0.003865867
     13        1          -0.000089797    0.000491664   -0.001852744
     14        1           0.000832002   -0.000392738    0.002107697
     15        1          -0.003326254    0.002747869    0.000749888
     16        1          -0.001658556    0.000764312   -0.001731063
     17        1          -0.004098620   -0.000856764   -0.000725725
 -------------------------------------------------------------------
 Cartesian Forces:  Max     0.018662072 RMS     0.006126926

 GradGradGradGradGradGradGradGradGradGradGradGradGradGradGradGradGradGrad
 Berny optimization.
 Using GEDIIS/GDIIS optimizer.
 FormGI is forming the generalized inverse of G from B-inverse, IUseBI=4.
 Internal  Forces:  Max     0.016337160 RMS     0.004103761
 Search for a local minimum.
 Step number   3 out of a maximum of   89
 All quantities printed in internal units (Hartrees-Bohrs-Radians)
 Mixed Optimization -- RFO/linear search
 Update second derivatives using D2CorX and points    2    3
 DE= -2.17D-02 DEPred=-2.59D-02 R= 8.37D-01
 TightC=F SS=  1.41D+00  RLast= 9.63D-01 DXNew= 8.4853D-01 2.8899D+00
 Trust test= 8.37D-01 RLast= 9.63D-01 DXMaxT set to 8.49D-01
 ITU=  1  1  0
 Use linear search instead of GDIIS.
     Eigenvalues ---    0.00407   0.00761   0.00826   0.01588   0.01668
     Eigenvalues ---    0.01694   0.01910   0.02170   0.02430   0.02438
     Eigenvalues ---    0.03480   0.04557   0.06281   0.08381   0.10592
     Eigenvalues ---    0.11474   0.15773   0.15975   0.15998   0.16008
     Eigenvalues ---    0.16612   0.18686   0.20294   0.20893   0.23181
     Eigenvalues ---    0.24735   0.24768   0.25255   0.27750   0.28871
     Eigenvalues ---    0.30913   0.32126   0.34269   0.34695   0.34851
     Eigenvalues ---    0.35586   0.36506   0.36905   0.37503   0.38907
     Eigenvalues ---    0.39037   0.42224   0.42623   0.51151   0.57014
 RFO step:  Lambda=-8.49198967D-03 EMin= 4.07243618D-03
 Quartic linear search produced a step of -0.14670.
 Iteration  1 RMS(Cart)=  0.13049146 RMS(Int)=  0.01426400
 Iteration  2 RMS(Cart)=  0.03142267 RMS(Int)=  0.00066188
 Iteration  3 RMS(Cart)=  0.00077451 RMS(Int)=  0.00048828
 Iteration  4 RMS(Cart)=  0.00000059 RMS(Int)=  0.00048828
 Variable       Old X    -DE/DX   Delta X   Delta X   Delta X     New X
                                 (Linear)    (Quad)   (Total)
    R1        2.50678   0.01634   0.00642   0.02127   0.02769   2.53447
    R2        2.05442  -0.00162  -0.00189  -0.00219  -0.00408   2.05034
    R3        2.05553  -0.00220  -0.00130  -0.00305  -0.00435   2.05118
    R4        2.74984   0.00547   0.01363  -0.00703   0.00660   2.75644
    R5        2.06523  -0.00196  -0.00272  -0.00165  -0.00437   2.06086
    R6        2.74562   0.01239  -0.00281   0.02698   0.02443   2.77005
    R7        2.89328   0.00027  -0.01314   0.01128  -0.00133   2.89195
    R8        2.56237   0.00349   0.02047  -0.01724   0.00313   2.56549
    R9        2.92443   0.00398  -0.01329   0.01667   0.00307   2.92750
   R10        2.62204   0.00439   0.00779   0.00306   0.01065   2.63269
   R11        2.65456   0.00805   0.00047   0.01789   0.01827   2.67284
   R12        2.04593   0.00013   0.00150  -0.00133   0.00017   2.04610
   R13        2.55510   0.00594   0.01139  -0.00100   0.01052   2.56563
   R14        2.65128   0.00992   0.00812   0.01634   0.02458   2.67586
   R15        2.51402  -0.00005  -0.00133  -0.00096  -0.00269   2.51134
   R16        3.25565   0.00598   0.00734   0.00877   0.01611   3.27176
   R17        3.93267   0.00271  -0.00230   0.01038   0.00808   3.94075
   R18        2.54483   0.00086   0.00285  -0.00055   0.00230   2.54713
    A1        2.10265   0.00083   0.00205   0.00219   0.00431   2.10696
    A2        2.13616   0.00019   0.00151  -0.00171  -0.00013   2.13603
    A3        2.04388  -0.00102  -0.00354  -0.00098  -0.00445   2.03944
    A4        2.23293   0.00510   0.00074   0.01152   0.01207   2.24500
    A5        2.07535  -0.00387  -0.00571  -0.00584  -0.01173   2.06362
    A6        1.97365  -0.00127   0.00509  -0.00758  -0.00269   1.97096
    A7        2.23843   0.00080  -0.01251   0.03627   0.02276   2.26120
    A8        2.15473  -0.00070  -0.00975   0.01601   0.00433   2.15906
    A9        1.46873   0.00147   0.01226   0.01674   0.02980   1.49852
   A10        2.04025  -0.00131  -0.00628  -0.01094  -0.01758   2.02266
   A11        1.58303   0.00087   0.01315  -0.01139   0.00177   1.58480
   A12        2.10318  -0.00086  -0.00840   0.00346  -0.00456   2.09863
   A13        2.17482  -0.00179  -0.01787   0.01261  -0.00506   2.16976
   A14        1.90354   0.00346   0.01719   0.00156   0.01888   1.92242
   A15        2.17216  -0.00007  -0.00173   0.00147  -0.00033   2.17184
   A16        2.19871  -0.00295  -0.01428   0.00225  -0.01204   2.18667
   A17        1.99977  -0.00270  -0.00640   0.00312  -0.00264   1.99713
   A18        2.11965   0.00122  -0.01924   0.00572  -0.01334   2.10631
   A19        1.82760   0.00066   0.00789  -0.00453   0.00362   1.83122
   A20        2.13259  -0.00495  -0.00284  -0.03130  -0.03518   2.09741
   A21        1.66916   0.00243   0.00705   0.01705   0.02438   1.69355
   A22        1.91741   0.00077  -0.00139   0.00078   0.00011   1.91752
   A23        2.10347  -0.00124  -0.00966   0.00676  -0.00197   2.10150
   A24        2.26140   0.00048   0.00606  -0.00421   0.00276   2.26416
   A25        1.81862   0.00874   0.01335   0.01451   0.02786   1.84647
   A26        1.63815   0.01059   0.01744   0.03528   0.05272   1.69086
    D1        3.07926  -0.00098   0.01192  -0.04954  -0.03754   3.04173
    D2       -0.00434   0.00012   0.00852  -0.00569   0.00275  -0.00159
    D3       -0.02766  -0.00087   0.00287  -0.03210  -0.02915  -0.05681
    D4       -3.11127   0.00022  -0.00053   0.01175   0.01114  -3.10013
    D5        1.78591   0.00615  -0.02610   0.32606   0.30014   2.08605
    D6       -0.15902   0.00371  -0.02357   0.24405   0.22045   0.06142
    D7       -1.41086   0.00501  -0.02305   0.28434   0.26132  -1.14954
    D8        2.92739   0.00258  -0.02052   0.20233   0.18163   3.10903
    D9        2.90449  -0.00119  -0.00023  -0.04740  -0.04858   2.85591
   D10       -1.19479  -0.00215  -0.00446  -0.05455  -0.05920  -1.25398
   D11       -1.13280  -0.00039  -0.00846   0.00818  -0.00042  -1.13322
   D12        1.05111  -0.00135  -0.01269   0.00103  -0.01103   1.04007
   D13       -2.66644   0.00211   0.00716   0.04138   0.04841  -2.61803
   D14        1.10828   0.00821   0.02345   0.09464   0.11825   1.22653
   D15        1.30050   0.00023   0.01795  -0.02633  -0.00886   1.29165
   D16       -1.20796   0.00633   0.03425   0.02693   0.06098  -1.14697
   D17        0.72982  -0.00129  -0.01928  -0.00539  -0.02468   0.70514
   D18       -1.16119  -0.00081  -0.02625   0.01634  -0.01019  -1.17138
   D19       -0.87088   0.00139   0.00580  -0.01574  -0.00961  -0.88048
   D20        2.22939   0.00168  -0.02434   0.06070   0.03546   2.26485
   D21        1.26125   0.00007   0.00375  -0.03580  -0.03151   1.22974
   D22       -1.92167   0.00036  -0.02640   0.04064   0.01356  -1.90811
   D23       -0.00106   0.00031   0.01276   0.00802   0.02094   0.01988
   D24       -3.00777  -0.00280  -0.01301  -0.03251  -0.04487  -3.05264
   D25        0.05240  -0.00247   0.00219  -0.02709  -0.02474   0.02766
   D26        3.05654   0.00100   0.02813   0.01414   0.04292   3.09946
   D27       -0.85323   0.00119  -0.01036   0.04335   0.03232  -0.82090
   D28        1.54577  -0.00342  -0.02651  -0.00627  -0.03262   1.51315
   D29        0.66692  -0.00265  -0.02581  -0.03598  -0.06079   0.60612
   D30       -1.83562   0.00065  -0.00103   0.00070  -0.00129  -1.83691
   D31        0.10579   0.00330   0.01389   0.03367   0.04781   0.15360
   D32       -2.98962   0.00303   0.05078  -0.05212  -0.00257  -2.99219
   D33       -3.04798   0.00152   0.01532   0.04315   0.05831  -2.98967
   D34        0.04319   0.00186  -0.02350   0.13664   0.11331   0.15650
[...]
 246886,-0.00217817,-0.00929226,-0.00345392,-0.00046333,0.00948783,-0.0
 0365427,-0.02665964,-0.04900747,0.02269078,0.05861721,0.68715496,0.000
 22773,0.00020972,-0.00025226,0.00173298,0.00095555,0.00012693,-0.01604
 103,0.00841156,-0.00092744,0.00605488,-0.00750814,-0.00806124,0.010597
 93,-0.04757721,-0.05773075,0.01215709,0.16869582,-0.00013793,0.0004024
 7,0.00186506,-0.00094088,-0.00260372,-0.00471686,-0.00134211,-0.001822
 83,-0.01161839,0.00983207,-0.00303843,-0.02462427,-0.00091710,-0.05919
 616,-0.24657896,-0.16806978,0.12469922,0.47940729,0.00014727,-0.000238
 73,-0.00125087,0.00132233,0.00183843,0.00224282,0.00387924,0.00235862,
 0.01720847,-0.01797288,-0.00881406,-0.00241682,-0.00184701,-0.01948527
 ,-0.08117945,-0.38040671,-0.06461230,0.01920134,0.68170219,-0.00043238
 ,-0.00048610,-0.00057698,-0.00132488,0.00035420,0.00082865,-0.00405009
 ,-0.00075139,0.00728063,-0.00455117,0.00902243,-0.00990829,-0.01502757
 ,0.00344768,-0.00887957,-0.08006872,-0.06830819,-0.01275079,0.10142466
 ,0.09756189,-0.00025333,0.00020334,-0.00050358,0.00112143,-0.00137536,
 -0.00167217,-0.00225596,-0.00041937,-0.03244630,-0.00074060,-0.0070822
 8,-0.01240238,-0.01935015,-0.01188521,-0.01045721,-0.01445672,-0.01502
 097,-0.03553548,-0.18618101,-0.01741978,0.32706648,-0.00063079,-0.0015
 4615,0.00043360,-0.00241484,0.00191071,-0.00375307,-0.02474681,-0.0019
 9512,0.01838034,-0.03083708,-0.00732516,0.00536865,-0.02229424,-0.0114
 5681,-0.00314907,-0.04956375,-0.01170842,0.00044826,-0.23085340,-0.019
 64020,0.19404192,0.58531725,0.00061870,0.00002475,0.00108030,0.0056133
 3,0.00708159,0.01793850,-0.01047112,-0.06004881,0.00190700,-0.00603600
 ,0.00379223,-0.01056175,-0.01225161,-0.00786193,-0.00688971,0.00266283
 ,-0.00136390,-0.00207913,-0.02370749,-0.04214015,0.05197335,-0.0423322
 0,0.17947223,0.00019230,-0.00084320,0.00097259,0.00093565,0.00373472,-
 0.00604225,0.01388271,0.00687199,0.00643740,-0.02988480,-0.02002844,-0
 .02672787,0.01843823,0.01048520,-0.02411565,0.01760083,0.00595100,-0.0
 0053496,0.19468027,0.04934036,-0.22115992,-0.28613128,0.00444048,0.401
 81004,0.00002054,0.00079853,-0.00155641,-0.00579585,-0.00163748,0.0015
 3011,-0.04169432,0.03257992,-0.05242074,0.00075376,-0.00239596,0.00015
 619,-0.00275664,0.00024824,-0.00289046,0.00739480,0.00538969,0.0059227
 2,-0.02158488,0.01163570,0.01251172,-0.22452273,0.06922857,0.01475632,
 0.39281182,0.00058349,0.00025183,0.00052823,-0.00252800,-0.00214308,-0
 .00233824,0.03649422,0.02569204,0.01153301,0.00173443,-0.00172261,0.00
 559658,0.00927123,0.00484989,-0.00250428,-0.00564421,0.00477132,0.0067
 5284,0.00528733,-0.00791134,-0.01519035,0.07980685,-0.07659694,0.01158
 271,-0.11995078,0.13107304,0.00028345,0.00012274,0.00046529,-0.0013019
 5,-0.00400719,-0.00294349,-0.04679676,0.01154474,-0.03060618,-0.007401
 03,0.00193388,0.00819021,-0.00609428,-0.00116754,0.00136635,-0.0064986
 2,-0.00439418,-0.01024870,0.05494955,-0.02130404,-0.02255760,0.0204182
 6,0.00371856,-0.04073072,0.13486440,0.05556980,0.51547223,-0.00098034,
 -0.00306237,0.00016507,0.00438316,0.01289119,-0.00254635,-0.10743946,0
 .03435754,0.00186361,-0.02233495,0.00424661,-0.00346452,0.00290613,-0.
 00228449,0.00348629,0.00021305,0.00162165,0.00252849,-0.01105635,0.007
 22930,-0.00006044,-0.00159714,0.01461350,0.05725926,-0.11311937,-0.004
 58473,-0.14878089,0.31714184,0.00101672,-0.00053461,0.00277736,0.01945
 248,-0.02363700,-0.00238722,0.04291409,-0.08577091,0.00879909,-0.01145
 753,0.00352979,0.00072947,-0.00799856,0.00202199,0.00293071,0.00159346
 ,-0.00220041,-0.00184878,0.00736722,0.00680827,-0.00064348,0.01017463,
 -0.01003848,-0.05421388,-0.00206093,-0.07235009,-0.03712867,-0.0984193
 2,0.26169957,-0.00113374,-0.00060776,-0.00218131,-0.01392038,0.0151964
 0,0.00398625,0.01093897,0.00468318,-0.03144640,-0.01093185,-0.00690048
 ,-0.00099107,-0.00483741,-0.00040336,-0.00965678,0.01158097,0.00348012
 ,0.00840439,-0.01630942,0.01438009,0.01147844,0.06443762,-0.06560224,-
 0.09753085,-0.13331386,-0.04115930,-0.38227690,0.06682596,0.13143410,0
 .60479824,0.00018037,0.00019758,-0.00006632,0.00016139,-0.00039135,0.0
 0070548,-0.00564255,0.00723685,0.00872476,0.00038409,0.00111871,-0.001
 03196,-0.00028033,-0.00015427,-0.00034784,0.00119000,-0.00012710,0.000
 88198,-0.00196168,0.00157028,0.00156881,0.00386851,0.00052216,-0.00189
 169,0.00656798,0.00340224,0.00721189,-0.05213117,0.02908739,0.02532185
 ,0.13339081,-0.00013773,-0.00014069,0.00010068,-0.00000178,0.00055374,
 -0.00021700,0.00334417,-0.00387320,-0.00784445,0.00028179,0.00023021,-
 0.00096226,0.00039490,0.00047499,0.00157428,-0.00113196,-0.00153407,-0
 .00198554,0.00295008,-0.00169380,0.00017393,0.00231027,0.00643898,-0.0
 0673449,0.00994779,-0.00690767,-0.01401234,0.01942022,-0.06777099,-0.0
 5153894,-0.08547918,0.11720238,-0.00010178,0.00041119,-0.00046220,-0.0
 0041417,-0.00002359,0.00104210,0.00360458,0.00011331,0.00157501,0.0002
 0560,0.00017045,0.00097801,0.00050325,-0.00039662,0.00306997,-0.003322
 16,-0.00049456,-0.00244322,0.00778058,-0.00456196,-0.00541967,-0.01133
 421,0.00577782,-0.00156254,0.01906867,-0.02936035,-0.03474021,0.015116
 53,-0.04669998,-0.11711744,0.01344970,0.04682474,0.20604211,0.00001877
 ,0.00030725,-0.00029079,-0.00039775,0.00020065,0.00052275,0.00300501,0
 .00094260,0.00092566,0.00039745,0.00019697,0.00003845,-0.00007008,0.00
 004506,0.00080773,-0.00052491,-0.00025944,-0.00051621,0.00075109,-0.00
 112167,-0.00012992,-0.00114168,0.00171802,-0.00012856,0.00101219,-0.00
 309111,-0.00235483,-0.01609553,0.01299621,0.00152964,-0.07199022,0.048
 10801,-0.04179947,0.21219384,-0.00001794,-0.00016144,0.00013211,-0.000
 29532,0.00028489,-0.00014564,-0.00323961,0.00107914,-0.00277047,0.0004
 1434,0.00001578,0.00076228,0.00017938,0.00061478,-0.00160231,0.0007358
 7,0.00065467,0.00091133,-0.00187244,0.00048688,0.00071000,0.00354184,-
 0.00158637,-0.00079009,-0.00273944,0.00080967,0.00444397,0.01733026,-0
 .01453802,-0.00208965,0.03031688,-0.04900464,0.02645733,0.07067706,0.2
 1111015,0.00001068,-0.00007722,0.00016400,-0.00007005,0.00014465,-0.00
 027221,-0.00004797,-0.00076308,-0.00161370,-0.00013689,-0.00008425,-0.
 00010625,0.00012274,0.00022549,-0.00016441,0.00011499,-0.00021492,-0.0
 0017256,-0.00025728,0.00003676,0.00087767,0.00145206,-0.00012401,-0.00
 038054,0.00210113,-0.00040427,0.00032568,0.00331259,-0.00655460,0.0110
 1196,-0.04397351,0.04028554,-0.04836820,0.03905121,-0.03851029,0.04451
 360,-0.03630698,-0.01035875,0.00269642,0.00309519,-0.00301249,0.002550
 73,0.01186518,-0.00338107,-0.00082406,0.00102454,0.00232210,-0.0010144
 6,-0.00025135,0.00043679,0.00025420,-0.00003803,-0.00035142,0.00002012
 ,-0.00008249,0.00036498,-0.00005479,-0.00004584,-0.00079638,-0.0003588
 8,0.00080031,0.00039055,0.00018538,-0.00059517,-0.00239073,0.00067375,
 -0.00001289,0.,0.00035155,0.00021702,-0.00004881,-0.00003018,0.0251973
 3,-0.01063740,-0.23818001,0.13441058,-0.00080028,-0.02070714,0.0192785
 6,-0.00187707,-0.00131153,-0.00308775,-0.00020965,-0.00101431,0.000378
 40,-0.00020415,0.00001913,0.00020816,-0.00009547,0.00003995,-0.0002389
 6,0.00019277,-0.00003993,0.00012699,-0.00028048,0.00010463,-0.00011960
 ,0.00035288,-0.00006986,-0.00009134,-0.00028696,0.00013022,0.00037616,
 0.00003984,-0.00005344,-0.00001269,0.00002890,-0.00002020,-0.00002317,
 0.01280686,0.25451849,0.00379513,0.14002794,-0.15719757,-0.00097036,-0
 .01415112,0.00919982,-0.00167364,-0.00171374,-0.00084600,0.00002876,-0
 .00059361,0.00042383,-0.00010410,0.00007767,0.00020053,-0.00026204,0.0
 0003285,-0.00025949,0.00018338,-0.00001533,0.00014536,0.00014738,0.000
 23190,0.00014802,0.00031224,-0.00007435,0.00001200,-0.00032947,0.00016
 071,0.00024102,-0.00000602,0.00000774,-0.00001007,-0.00002645,0.000027
 65,-0.00000208,-0.00343414,-0.14652814,0.15809378,-0.04162173,-0.00709
 483,-0.03563928,0.00524143,-0.00253942,-0.00573519,-0.00760848,0.00295
 872,0.00030579,-0.00050269,-0.00120641,0.00030298,0.00019528,-0.000422
 36,-0.00051899,0.00016678,0.00016108,0.00024858,-0.00032761,-0.0000998
 9,0.00038400,0.00052603,0.00060650,0.00000475,-0.00060858,-0.00036748,
 -0.00026027,0.00059656,0.00122031,0.00028272,-0.00005256,0.00006569,-0
 .00017911,-0.00017332,0.00003127,0.00002703,0.00267157,-0.00013293,0.0
 0127033,0.03010245,-0.00662846,-0.06003477,-0.03286448,-0.00436116,-0.
 00166174,-0.02970248,0.00080708,0.00181266,-0.00222431,-0.00022107,0.0
 0000209,0.00054761,0.00020283,0.00007763,-0.00031842,-0.00018032,0.000
 04888,0.00007351,-0.00000446,-0.00029906,-0.00004909,0.00014142,0.0001
 7771,0.00085780,0.00037058,-0.00024817,-0.00011860,0.00006058,-0.00036
 788,-0.00004187,-0.00006824,0.00010809,0.00006976,-0.00000545,0.000030
 39,0.00002555,0.00300000,0.00550772,0.02236094,0.00897429,0.05904571,-
 0.03711079,-0.03892961,-0.32932686,-0.00189927,0.00114178,-0.00990655,
 0.00093295,0.00078543,0.00062613,0.00045789,0.00002910,-0.00012533,-0.
 00024792,0.00023623,0.00045017,-0.00027373,-0.00013201,-0.00035275,0.0
 0040215,0.00024715,0.00003570,0.00007453,-0.00012957,0.00026582,0.0002
 3492,0.00008609,0.00013287,-0.00029657,-0.00004394,0.00007105,-0.00001
 997,-0.00001734,-0.00007166,-0.00002541,0.00002742,0.00001198,-0.00235
 899,-0.00459491,-0.01126489,0.04149416,0.04285375,0.34844156,0.0054045
 7,-0.00023385,-0.00527500,-0.04530186,-0.00666703,-0.04174730,0.001938
 18,-0.00073828,0.00054071,0.00011245,0.00064286,-0.00077851,0.00072105
 ,0.00004023,-0.00019983,0.00000723,0.00022571,0.00036628,-0.00054291,0
 .00034206,0.00000094,0.00135927,-0.00041385,-0.00048624,0.00060042,-0.
 00015590,0.00029554,0.00011335,-0.00072432,0.00092979,-0.00006115,0.00
 028054,-0.00000059,-0.00007930,-0.00004508,0.00006457,-0.00752464,0.00
 109627,0.00105568,0.01142086,-0.00212589,-0.00135485,0.03184328,-0.004
 76008,-0.00172888,-0.03161666,-0.00615300,-0.05571190,-0.02829548,0.00
 480201,0.00128339,0.02854452,-0.00045420,0.00010119,-0.00185771,0.0001
 1473,0.00024882,-0.00028100,0.00037466,-0.00007511,0.00092544,-0.00066
 581,-0.00022217,0.00097069,-0.00053515,-0.00327703,-0.00168135,0.00103
 971,0.00053494,0.00090386,-0.00147732,0.00134235,-0.00036395,0.0002205
 0,-0.00040947,0.00003576,0.00005199,-0.00002842,-0.00012031,0.00114173
 ,0.00106381,0.00010905,-0.00227483,-0.00424070,-0.00156677,0.00859951,
 0.06100349,-0.00198824,0.00075781,-0.00945609,-0.04101879,-0.03408687,
 -0.31955290,-0.00345941,-0.00118428,-0.01611566,-0.00005528,-0.0001883
 7,0.00175227,0.00046199,-0.00000729,-0.00008939,-0.00026904,0.00006340
 ,-0.00030965,0.00041567,0.00019493,-0.00045528,0.00055472,0.00160228,0
 .00262565,-0.00122569,-0.00021928,-0.00027698,0.00089968,-0.00010019,-
 0.00071005,-0.00021776,0.00037224,-0.00007041,-0.00007730,0.00006521,0
 .00012347,0.00137462,-0.00012273,0.00110341,-0.00198979,-0.00144076,0.
 00100366,0.04656150,0.03438610,0.34037878,0.00003316,-0.00001179,0.000
 01916,0.00007602,0.00012065,0.00003693,-0.00075704,-0.00068351,-0.0004
 9003,0.00104191,0.00103681,-0.00169582,0.00765084,-0.00447234,-0.00473
 759,-0.21569863,0.05480905,0.13226147,-0.02081417,0.00367232,0.0136149
 8,-0.00301116,0.00072692,0.00125982,0.00012309,-0.00057142,0.00039656,
 -0.00006662,-0.00023071,-0.00000560,0.00005388,0.00020433,0.00010993,0
 .00001548,0.00005590,0.00001146,-0.00003127,0.00000392,0.00001214,0.00
 000151,0.00003384,-0.00001519,0.00001165,-0.00001962,0.00002215,0.2313
 5651,0.00002053,0.00006159,0.00001832,0.00050439,-0.00045926,-0.000621
 68,0.00164048,0.00352725,-0.00207706,0.00136224,0.00197124,-0.00108253
 ,0.00333586,-0.00505058,-0.01431188,0.05617590,-0.05520942,-0.04815478
 ,-0.00227787,0.00418019,0.01524858,-0.00039518,0.00590509,-0.00930290,
 -0.00273799,-0.00024574,0.00511663,-0.00251744,-0.00057483,-0.00283066
 ,-0.00035055,0.00055629,0.00092260,0.00016548,-0.00041129,0.00004418,-
 0.00009387,0.00002486,0.00003687,0.00007880,0.00004427,0.00001365,-0.0
 0013922,0.00011609,-0.00009128,-0.05466222,0.04550426,-0.00000023,0.00
 002977,-0.00012241,0.00021541,0.00043467,0.00052782,-0.00270415,-0.001
 75026,-0.00049671,0.00104794,-0.00038722,-0.00101434,0.01744350,-0.008
 25914,-0.01605244,0.13345134,-0.04724893,-0.15236593,-0.00924321,0.003
 00159,0.00306249,-0.00140015,-0.00295684,0.00648487,0.00110498,-0.0004
 9158,-0.00186060,0.00070376,0.00065607,0.00155908,0.00017136,-0.000210
 95,-0.00043970,-0.00008504,0.00023632,-0.00001309,-0.00002011,0.000025
 38,0.00001186,-0.00000563,-0.00002059,0.00000620,0.00004232,-0.0001144
 9,0.00006308,-0.14078236,0.05709705,0.16063457,0.00001278,0.00000999,-
 0.00001672,-0.00011750,0.00010775,0.00006945,-0.00023850,0.00024705,-0
 .00042078,0.00015838,0.00013147,0.00022269,0.00008119,0.00020802,-0.00
 040687,0.00017169,0.00012193,0.00021270,-0.00035200,0.00007728,0.00023
 913,0.00058841,-0.00030188,-0.00012869,-0.00000253,-0.00007671,0.00088
 360,0.00006201,-0.00254042,-0.00206902,-0.01366448,-0.00055713,-0.0030
 3889,-0.12713807,-0.11502415,-0.00175260,0.00001752,0.00000296,0.00000
 118,-0.00002749,0.00000442,0.00000610,-0.00002245,-0.00000482,0.000010
 99,0.00001484,-0.00010937,0.00006027,0.14045619,-0.00002786,-0.0000535
 7,0.00003009,0.00014608,-0.00003501,-0.00009055,0.00010067,-0.00047088
 ,0.00034456,-0.00018055,-0.00014544,-0.00014839,0.00006527,-0.00011897
 ,0.00018427,-0.00010233,-0.00001103,-0.00004568,0.00025933,-0.00000943
 ,-0.00032099,-0.00067086,-0.00008361,0.00044969,-0.00006902,0.00021277
 ,-0.00113027,0.00086179,0.00225101,0.00198815,0.01285826,0.00582329,0.
 00076678,-0.13096053,-0.14933597,0.00611395,-0.00002948,-0.00001238,0.
 00000297,0.00004150,-0.00000283,-0.00000644,0.00001625,-0.00000039,-0.
 00000092,-0.00001213,0.00005998,-0.00004085,0.11770362,0.14193247,0.00
 000409,0.00000263,-0.00001184,0.00003793,-0.00008060,-0.00003998,-0.00
 007280,-0.00020962,-0.00008806,-0.00007500,0.00010240,0.00018951,-0.00
 011975,-0.00017068,-0.00009277,0.00011150,0.00012373,0.00008447,-0.000
 22616,0.00010656,-0.00005656,0.00001046,-0.00032696,0.00004090,-0.0011
 5623,0.00009275,0.00027677,0.00331700,0.00213321,0.00036036,-0.0104807
 8,-0.00581584,-0.00200189,0.00255853,0.01213483,-0.00593533,-0.0000111
 6,0.00001508,0.00000049,0.00000791,-0.00000833,0.00000291,-0.00001502,
 0.00002229,-0.00001393,-0.00001801,-0.00002510,0.00001527,0.00612747,-
 0.00809638,0.00726969\\-0.00000337,0.00000677,0.00001030,-0.00000406,0
 .00001195,-0.00002148,0.00001887,0.00002649,-0.00007499,-0.00003168,0.
 00000701,-0.00000965,0.00000676,-0.00001819,0.00004316,-0.00001464,-0.
 00001709,-0.00002582,0.00002572,0.00000044,0.00001566,0.00002019,-0.00
 001382,0.00003945,-0.00002102,0.00001111,0.00000274,-0.00000631,-0.000
 00277,0.00004246,0.00001320,-0.00001728,-0.00001748,-0.00001153,0.0000
 0569,-0.00000201,0.00000551,-0.00000033,-0.00000155,-0.00000086,-0.000
 00711,-0.00000237,-0.00000015,-0.00000505,0.00000045,-0.00000036,0.000
 01171,0.00000043,0.00000375,0.00000047,0.00000070\\\@


                                                                                    A
                                                                                  AA
                                                                                 AAA
                                                                                AAAA
                                                                               AAAAA
                                                                              AAAAAA   KKKKKKKK
                                                                             AAAAAAA   KKKKKKKK
                                                                            AAAAAAAA   KKKKKKKK
                                       ZZZZZZZZZZZZZZZZZZZZ                AAAA  AAA   KKKKKKKK
                                       ZZZZZZZZZZZZZZZZZZZ                AAAA   AAA   KKKKKKKK          K
                                       ZZZZZZZZZZZZZZZZZZ                AAAA    AAA   KKKKKKKK         KKK
                                       ZZZZZZZZZZZZZZZZZ                AAAA     AAA   KKKKKKKK        KKKKK
                                       ZZZZZZZZZZZZZZZZ                AAAA      AAA   KKKKKKKK       KKKKKKK
                                                ZZZZZZ                AAAA       AAA   KKKKKKKK      KKKKKKK
                                               ZZZZZZ                AAAA        AAA   KKKKKKKK     KKKKKKK
                                              ZZZZZZ                AAAA         AAA   KKKKKKKK    KKKKKKK
                                             ZZZZZZ                AAAA          AAA   KKKKKKKK   KKKKKKK
                                            ZZZZZZ                AAAAAAAAAAAAAAAAAA   KKKKKKKK  KKKKKKK
                                           ZZZZZZ                AAAAAAAAAAAAAAAAAAA   KKKKKKKK KKKKKKK
                                          ZZZZZZ                AAAAAAAAAAAAAAAAAAAA   KKKKKKKKKKKKKKK
                                         ZZZZZZ                AAAAAAAAAAAAAAAAAAAAA   KKKKKKKKKKKKKK
                                        ZZZZZZ                AAAAAA        AAAAAAAA   KKKKKKKKKKKKK
                                       ZZZZZZ                AAAAAA         AAAAAAAA   KKKKKKKKKKKK
                                      ZZZZZZ                AAAAAA          AAAAAAAA   KKKKKKKKKKK
                                     ZZZZZZ                AAAAAA           AAAAAAAA   KKKKKKKKKKKK
                                    ZZZZZZ                AAAAAA            AAAAAAAA   KKKKKKKKKKKKK
                                   ZZZZZZ                AAAAAA             AAAAAAAA   KKKKKKKKKKKKKK
                                  ZZZZZZ                AAAAAA              AAAAAAAA   KKKKKKKKKKKKKKK
                                 ZZZZZZ                AAAAAA               AAAAAAAA   KKKKK KKKKKKKKKK
                                ZZZZZZ                AAAAAA                AAAAAAAA   KKKKK  KKKKKKKKKK
                               ZZZZZZ                AAAAAA                            KKKKK   KKKKKKKKKK
                              ZZZZZZ                AAAAAA                             KKKKK    KKKKKKKKKK
                             ZZZZZZ                                                    KKKKK     KKKKKKKKKK
                            ZZZZZZ                                                     KKKKK      KKKKKKKKKK
                           ZZZZZZ                                                      KKKKK       KKKKKKKKKK
                          ZZZZZZ                                                       KKKKK        KKKKKKKKKK
                         ZZZZZZZZZZZZZZZZZZZZZZZZZZZZZZZZZZZZZZZZ                      KKKKK         KKKKKKKKKK
                        ZZZZZZZZZZZZZZZZZZZZZZZZZZZZZZZZZZZZZZZZZ                      KKKKK          KKKKKKKKKK
                       ZZZZZZZZZZZZZZZZZZZZZZZZZZZZZZZZZZZZZZZZZZ                      KKKKK           KKKKKKKKKK
                       ZZZZZZZZZZZZZZZZZZZZZZZZZZZZZZZZZZZZZZZZZZ                      KKKKK            KKKKKKKKKK
                       ZZZZZZZZZZZZZZZZZZZZZZZZZZZZZZZZZZZZZZZZZZ                      KKKKK             KKKKKKKKKK
                       ZZZZZZZZZZZZZZZZZZZZZZZZZZZZZZZZZZZZZZZZZZ                      KKKKK              KKKKKKKKKK
                       ZZZZZZZZZZZZZZZZZZZZZZZZZZZZZZZZZZZZZZZZZZ                      KKKKK               KKKKKKKKKK
                       ZZZZZZZZZZZZZZZZZZZZZZZZZZZZZZZZZZZZZZZZZZ                      KKKKK                KKKKKKKKKK
                       ZZZZZZZZZZZZZZZZZZZZZZZZZZZZZZZZZZZZZZZZZZ                      KKKKK
                                                                                       KKKKK
                                                                                          (J.P.)
 Job cpu time:       0 days  2 hours 57 minutes 21.4 seconds.
 Elapsed time:       0 days  0 hours 44 minutes 23.2 seconds.
 File lengths (MBytes):  RWF=    208 Int=      0 D2E=      0 Chk=     12 Scr=      1
 Normal termination of Gaussian 16 at Tue May 16 12:49:52 2023.
### All Done ###
