### Starting Gaussian ###
 Entering Gaussian System, Link 0=g16
 Initial command:
 /cluster/software/gaussian/gaussian-16-A.03/avx2/g16/l1.exe "/local/scratch/linjian/Gau-25323.inp" -scrdir="/local/scratch/linjian/"
 Entering Link 1 = /cluster/software/gaussian/gaussian-16-A.03/avx2/g16/l1.exe PID=     25324.
  
 Copyright (c) 1988,1990,1992,1993,1995,1998,2003,2009,2016,
            Gaussian, Inc.  All Rights Reserved.
  
 This is part of the Gaussian(R) 16 program.  It is based on
 the Gaussian(R) 09 system (copyright 2009, Gaussian, Inc.),
 the Gaussian(R) 03 system (copyright 2003, Gaussian, Inc.),
 the Gaussian(R) 98 system (copyright 1998, Gaussian, Inc.),
 the Gaussian(R) 94 system (copyright 1995, Gaussian, Inc.),
 the Gaussian 92(TM) system (copyright 1992, Gaussian, Inc.),
 the Gaussian 90(TM) system (copyright 1990, Gaussian, Inc.),
 the Gaussian 88(TM) system (copyright 1988, Gaussian, Inc.),
 the Gaussian 86(TM) system (copyright 1986, Carnegie Mellon
 University), and the Gaussian 82(TM) system (copyright 1983,
 Carnegie Mellon University). Gaussian is a federally registered
 trademark of Gaussian, Inc.
  
 This software contains proprietary and confidential information,
 including trade secrets, belonging to Gaussian, Inc.
  
 This software is provided under written license and may be
 used, copied, transmitted, or stored only in accord with that
 written license.
  
 The following legend is applicable only to US Government
 contracts under FAR:
  
                    RESTRICTED RIGHTS LEGEND
  
 Use, reproduction and disclosure by the US Government is
 subject to restrictions as set forth in subparagraphs (a)
 and (c) of the Commercial Computer Software - Restricted
 Rights clause in FAR 52.227-19.
  
 Gaussian, Inc.
 340 Quinnipiac St., Bldg. 40, Wallingford CT 06492
  
  
 ---------------------------------------------------------------
 Warning -- This program may not be used in any manner that
 competes with the business of Gaussian, Inc. or will provide
 assistance to any competitor of Gaussian, Inc.  The licensee
 of this program is prohibited from giving any competitor of
 Gaussian, Inc. access to this program.  By using this program,
 the user acknowledges that Gaussian, Inc. is engaged in the
 business of creating and licensing software in the field of
 computational chemistry and represents and warrants to the
 licensee that it is not a competitor of Gaussian, Inc. and that
 it will not use this program in any manner prohibited above.
 ---------------------------------------------------------------
  

 Cite this work as:
 Gaussian 16, Revision A.03,
 M. J. Frisch, G. W. Trucks, H. B. Schlegel, G. E. Scuseria, 
 M. A. Robb, J. R. Cheeseman, G. Scalmani, V. Barone, 
 G. A. Petersson, H. Nakatsuji, X. Li, M. Caricato, A. V. Marenich, 
 J. Bloino, B. G. Janesko, R. Gomperts, B. Mennucci, H. P. Hratchian, 
 J. V. Ortiz, A. F. Izmaylov, J. L. Sonnenberg, D. Williams-Young, 
 F. Ding, F. Lipparini, F. Egidi, J. Goings, B. Peng, A. Petrone, 
 T. Henderson, D. Ranasinghe, V. G. Zakrzewski, J. Gao, N. Rega, 
 G. Zheng, W. Liang, M. Hada, M. Ehara, K. Toyota, R. Fukuda, 
 J. Hasegawa, M. Ishida, T. Nakajima, Y. Honda, O. Kitao, H. Nakai, 
 T. Vreven, K. Throssell, J. A. Montgomery, Jr., J. E. Peralta, 
 F. Ogliaro, M. J. Bearpark, J. J. Heyd, E. N. Brothers, K. N. Kudin, 
 V. N. Staroverov, T. A. Keith, R. Kobayashi, J. Normand, 
 K. Raghavachari, A. P. Rendell, J. C. Burant, S. S. Iyengar, 
 J. Tomasi, M. Cossi, J. M. Millam, M. Klene, C. Adamo, R. Cammi, 
 J. W. Ochterski, R. L. Martin, K. Morokuma, O. Farkas, 
 J. B. Foresman, and D. J. Fox, Gaussian, Inc., Wallingford CT, 2016.
 
 ******************************************
 Gaussian 16:  ES64L-G16RevA.03 25-Dec-2016
                18-May-2023 
 ******************************************
 %chk=CdCdC1CCqdOrNdCCdCdCC2CCqOCrCdCdC12.chk
 %NProcShared=20
 Will use up to   20 processors via shared memory.
 -----------------------------
 # opt freq b3lyp/6-31g(2df,p)
 -----------------------------
 1/18=20,19=15,26=3,38=1/1,3;
 2/9=110,12=2,17=6,18=5,40=1/2;
 3/5=1,6=6,7=104,11=2,25=1,30=1,71=1,74=-5/1,2,3;
 4//1;
 5/5=2,38=5/2;
 6/7=2,8=2,9=2,10=2,28=1/1;
 7//1,2,3,16;
 1/18=20,19=15,26=3/3(2);
 2/9=110/2;
 99//99;
 2/9=110/2;
 3/5=1,6=6,7=104,11=2,25=1,30=1,71=1,74=-5/1,2,3;
 4/5=5,16=3,69=1/1;
 5/5=2,38=5/2;
 7//1,2,3,16;
 1/18=20,19=15,26=3/3(-5);
 2/9=110/2;
 6/7=2,8=2,9=2,10=2,19=2,28=1/1;
 99/9=1/99;
 -------------------
 Title Card Required
 -------------------
 Symbolic Z-matrix:
 Charge =  0 Multiplicity = 1
 C                     3.40295  -0.13464  -0.22459 
 C                     5.35527  -0.29473  -0.50089 
 C                     7.30666  -0.09426  -0.64645 
 C                     5.47786   0.969    -0.51003 
 C                     6.48093   1.1311    0.36252 
 O                     6.47919  -0.00647   1.10952 
 N                     7.03768   2.18354  -0.36678 
 C                     8.28538   2.00904  -0.3926 
 C                     9.25735   2.97395  -0.72391 
 C                     10.51062   2.80656  -0.65144 
 C                     11.7157   2.48296  -0.60317 
 C                     11.59613   1.01566  -0.5056 
 C                     13.65221   1.46358  -0.55187 
 C                     13.48246   0.23543  -0.31094 
 O                     13.95497  -0.81328  -1.79007 
 C                     12.65644  -1.34384  -2.04954 
 C                     13.54086  -0.92071  -0.33861 
 C                     11.60573  -0.55545  -0.36557 
 C                     9.73343  -0.10308  -0.52067 
 H                     1.84827   0.43948  -0.33254 
 H                     1.86887  -0.51833   0.24286 
 H                     4.54122   1.82506   0.36142 
 H                     4.47743   1.52943  -1.28382 
 H                     8.61745   1.07775  -0.0325 
 H                     8.87957   3.92185  -0.97795 
 H                     12.55529   3.23649  -0.54163 
 H                     11.86182   0.88119   0.63195 
 H                     14.23289   1.62112   0.42679 
 H                     14.32874   1.59661  -1.4142 
 H                     13.98328  -0.67195   0.55311 
 H                     12.25298  -1.68414  -2.89076 
 H                     12.37762  -0.273    -2.12305 
 H                     12.23546  -1.95065  -1.12121 
 H                     15.12554  -0.16994  -0.41167 
 
 Add virtual bond connecting atoms H21        and H20        Dist= 2.11D+00.
 Add virtual bond connecting atoms H23        and C4         Dist= 2.61D+00.
 Add virtual bond connecting atoms H22        and C4         Dist= 2.91D+00.
 Add virtual bond connecting atoms H22        and H23        Dist= 3.16D+00.
 Add virtual bond connecting atoms H34        and C14        Dist= 3.20D+00.
 Add virtual bond connecting atoms H34        and H30        Dist= 2.98D+00.
 Add virtual bond connecting atoms H20        and C1         Dist= 3.14D+00.
 Add virtual bond connecting atoms H21        and C1         Dist= 3.12D+00.
 Add virtual bond connecting atoms H24        and C19        Dist= 3.21D+00.
 Add virtual bond connecting atoms H33        and C18        Dist= 3.23D+00.
 Add virtual bond connecting atoms C2         and C1         Dist= 3.74D+00.

 GradGradGradGradGradGradGradGradGradGradGradGradGradGradGradGradGradGrad
 Berny optimization.
 Initialization pass.
                           ----------------------------
                           !    Initial Parameters    !
                           ! (Angstroms and Degrees)  !
 --------------------------                            --------------------------
 ! Name  Definition              Value          Derivative Info.                !
 --------------------------------------------------------------------------------
 ! R1    R(1,2)                  1.9783         estimate D2E/DX2                !
 ! R2    R(1,20)                 1.6608         estimate D2E/DX2                !
 ! R3    R(1,21)                 1.649          estimate D2E/DX2                !
 ! R4    R(2,4)                  1.2697         estimate D2E/DX2                !
 ! R5    R(3,5)                  1.7892         estimate D2E/DX2                !
 ! R6    R(4,5)                  1.3393         estimate D2E/DX2                !
 ! R7    R(4,22)                 1.5393         estimate D2E/DX2                !
 ! R8    R(4,23)                 1.3834         estimate D2E/DX2                !
 ! R9    R(5,6)                  1.3609         estimate D2E/DX2                !
 ! R10   R(5,7)                  1.3962         estimate D2E/DX2                !
 ! R11   R(7,8)                  1.2601         estimate D2E/DX2                !
 ! R12   R(8,9)                  1.4091         estimate D2E/DX2                !
 ! R13   R(8,24)                 1.0523         estimate D2E/DX2                !
 ! R14   R(9,10)                 1.2665         estimate D2E/DX2                !
 ! R15   R(9,25)                 1.0516         estimate D2E/DX2                !
 ! R16   R(10,11)                1.2487         estimate D2E/DX2                !
 ! R17   R(11,12)                1.4754         estimate D2E/DX2                !
 ! R18   R(11,26)                1.1298         estimate D2E/DX2                !
 ! R19   R(12,18)                1.5774         estimate D2E/DX2                !
 ! R20   R(12,27)                1.1759         estimate D2E/DX2                !
 ! R21   R(13,14)                1.263          estimate D2E/DX2                !
 ! R22   R(13,28)                1.1488         estimate D2E/DX2                !
 ! R23   R(13,29)                1.1041         estimate D2E/DX2                !
 ! R24   R(14,17)                1.1579         estimate D2E/DX2                !
 ! R25   R(14,34)                1.6953         estimate D2E/DX2                !
 ! R26   R(15,16)                1.4265         estimate D2E/DX2                !
 ! R27   R(15,17)                1.5132         estimate D2E/DX2                !
 ! R28   R(16,31)                0.9931         estimate D2E/DX2                !
 ! R29   R(16,32)                1.109          estimate D2E/DX2                !
 ! R30   R(16,33)                1.1863         estimate D2E/DX2                !
 ! R31   R(17,30)                1.0261         estimate D2E/DX2                !
 ! R32   R(18,33)                1.7071         estimate D2E/DX2                !
 ! R33   R(19,24)                1.6965         estimate D2E/DX2                !
 ! R34   R(20,21)                1.1175         estimate D2E/DX2                !
 ! R35   R(22,23)                1.6728         estimate D2E/DX2                !
 ! R36   R(30,34)                1.5772         estimate D2E/DX2                !
 ! A1    A(2,1,20)             160.5129         estimate D2E/DX2                !
 ! A2    A(2,1,21)             159.8651         estimate D2E/DX2                !
 ! A3    A(1,2,4)               90.9022         estimate D2E/DX2                !
 ! A4    A(2,4,5)              100.841          estimate D2E/DX2                !
 ! A5    A(2,4,22)             119.3857         estimate D2E/DX2                !
 ! A6    A(2,4,23)             109.7198         estimate D2E/DX2                !
 ! A7    A(5,4,22)              91.1218         estimate D2E/DX2                !
 ! A8    A(5,4,23)             148.982          estimate D2E/DX2                !
 ! A9    A(3,5,4)               83.9939         estimate D2E/DX2                !
 ! A10   A(3,5,6)               74.791          estimate D2E/DX2                !
 ! A11   A(3,5,7)               92.1576         estimate D2E/DX2                !
 ! A12   A(4,5,6)              104.8017         estimate D2E/DX2                !
 ! A13   A(4,5,7)               92.8417         estimate D2E/DX2                !
 ! A14   A(6,5,7)              156.5321         estimate D2E/DX2                !
 ! A15   A(5,7,8)              107.5264         estimate D2E/DX2                !
 ! A16   A(7,8,9)              126.3689         estimate D2E/DX2                !
 ! A17   A(7,8,24)             115.342          estimate D2E/DX2                !
 ! A18   A(9,8,24)             117.9587         estimate D2E/DX2                !
 ! A19   A(8,9,10)             125.3544         estimate D2E/DX2                !
 ! A20   A(8,9,25)             115.2308         estimate D2E/DX2                !
 ! A21   A(10,9,25)            119.2406         estimate D2E/DX2                !
 ! A22   A(10,11,12)           100.4905         estimate D2E/DX2                !
 ! A23   A(10,11,26)           123.1218         estimate D2E/DX2                !
 ! A24   A(12,11,26)           136.0468         estimate D2E/DX2                !
 ! A25   A(11,12,27)            99.1717         estimate D2E/DX2                !
 ! A26   A(18,12,27)            78.3952         estimate D2E/DX2                !
 ! A27   A(14,13,28)            92.2223         estimate D2E/DX2                !
 ! A28   A(14,13,29)           110.3959         estimate D2E/DX2                !
 ! A29   A(28,13,29)           109.8226         estimate D2E/DX2                !
 ! A30   A(13,14,17)           163.6461         estimate D2E/DX2                !
 ! A31   A(13,14,34)            95.2163         estimate D2E/DX2                !
 ! A32   A(17,14,34)            73.1998         estimate D2E/DX2                !
 ! A33   A(16,15,17)            84.2006         estimate D2E/DX2                !
 ! A34   A(15,16,31)           130.6419         estimate D2E/DX2                !
 ! A35   A(15,16,32)            83.2109         estimate D2E/DX2                !
 ! A36   A(15,16,33)           111.7738         estimate D2E/DX2                !
 ! A37   A(31,16,32)            99.9384         estimate D2E/DX2                !
 ! A38   A(31,16,33)           110.0858         estimate D2E/DX2                !
 ! A39   A(32,16,33)           117.1669         estimate D2E/DX2                !
 ! A40   A(14,17,15)            88.0423         estimate D2E/DX2                !
 ! A41   A(14,17,30)            76.0493         estimate D2E/DX2                !
 ! A42   A(15,17,30)           134.2994         estimate D2E/DX2                !
 ! A43   A(12,18,33)           140.9874         estimate D2E/DX2                !
 ! A44   A(8,24,19)            136.481          estimate D2E/DX2                !
 ! A45   A(17,30,34)            81.8265         estimate D2E/DX2                !
 ! A46   A(16,33,18)            93.3962         estimate D2E/DX2                !
 ! A47   A(14,34,30)            48.5364         estimate D2E/DX2                !
 ! A48   L(9,10,11,19,-1)      172.643          estimate D2E/DX2                !
 ! A49   L(11,12,18,27,-1)     177.567          estimate D2E/DX2                !
 ! A50   L(9,10,11,19,-2)      178.5863         estimate D2E/DX2                !
 ! A51   L(11,12,18,27,-2)     184.6271         estimate D2E/DX2                !
 ! D1    D(20,1,2,4)            36.2497         estimate D2E/DX2                !
 ! D2    D(21,1,2,4)          -153.7412         estimate D2E/DX2                !
 ! D3    D(2,1,20,21)          174.6086         estimate D2E/DX2                !
 ! D4    D(1,2,4,5)            130.3156         estimate D2E/DX2                !
 ! D5    D(1,2,4,22)            32.8044         estimate D2E/DX2                !
 ! D6    D(1,2,4,23)           -44.2965         estimate D2E/DX2                !
 ! D7    D(2,4,5,3)             51.1025         estimate D2E/DX2                !
 ! D8    D(2,4,5,6)            -21.4012         estimate D2E/DX2                !
 ! D9    D(2,4,5,7)            142.9752         estimate D2E/DX2                !
 ! D10   D(22,4,5,3)           171.331          estimate D2E/DX2                !
 ! D11   D(22,4,5,6)            98.8272         estimate D2E/DX2                !
 ! D12   D(22,4,5,7)           -96.7963         estimate D2E/DX2                !
 ! D13   D(23,4,5,3)          -138.7742         estimate D2E/DX2                !
 ! D14   D(23,4,5,6)           148.7221         estimate D2E/DX2                !
 ! D15   D(23,4,5,7)           -46.9015         estimate D2E/DX2                !
 ! D16   D(3,5,7,8)            -52.9085         estimate D2E/DX2                !
 ! D17   D(4,5,7,8)           -136.9984         estimate D2E/DX2                !
 ! D18   D(6,5,7,8)              2.1704         estimate D2E/DX2                !
 ! D19   D(5,7,8,9)           -163.3002         estimate D2E/DX2                !
 ! D20   D(5,7,8,24)             9.9217         estimate D2E/DX2                !
 ! D21   D(7,8,9,10)           174.6294         estimate D2E/DX2                !
 ! D22   D(7,8,9,25)            -0.5112         estimate D2E/DX2                !
 ! D23   D(24,8,9,10)            1.5656         estimate D2E/DX2                !
 ! D24   D(24,8,9,25)         -173.5751         estimate D2E/DX2                !
 ! D25   D(7,8,24,19)          135.4171         estimate D2E/DX2                !
 ! D26   D(9,8,24,19)          -50.7595         estimate D2E/DX2                !
 ! D27   D(8,9,11,12)           14.4329         estimate D2E/DX2                !
 ! D28   D(8,9,11,26)         -160.2374         estimate D2E/DX2                !
 ! D29   D(25,9,11,12)        -168.6343         estimate D2E/DX2                !
 ! D30   D(25,9,11,26)          16.6954         estimate D2E/DX2                !
 ! D31   D(10,11,12,27)       -105.2952         estimate D2E/DX2                !
 ! D32   D(26,11,12,27)         67.7834         estimate D2E/DX2                !
 ! D33   D(10,11,18,33)        127.0778         estimate D2E/DX2                !
 ! D34   D(26,11,18,33)        -60.2556         estimate D2E/DX2                !
 ! D35   D(27,12,18,33)       -131.391          estimate D2E/DX2                !
 ! D36   D(28,13,14,17)       -109.6416         estimate D2E/DX2                !
 ! D37   D(28,13,14,34)        -65.6687         estimate D2E/DX2                !
 ! D38   D(29,13,14,17)          2.4749         estimate D2E/DX2                !
 ! D39   D(29,13,14,34)         46.4478         estimate D2E/DX2                !
 ! D40   D(13,14,17,15)        -24.5277         estimate D2E/DX2                !
 ! D41   D(13,14,17,30)        112.237          estimate D2E/DX2                !
 ! D42   D(34,14,17,15)        -70.77           estimate D2E/DX2                !
 ! D43   D(34,14,17,30)         65.9947         estimate D2E/DX2                !
 ! D44   D(13,14,34,30)        141.4615         estimate D2E/DX2                !
 ! D45   D(17,14,34,30)        -50.322          estimate D2E/DX2                !
 ! D46   D(17,15,16,31)       -169.7298         estimate D2E/DX2                !
 ! D47   D(17,15,16,32)         92.9815         estimate D2E/DX2                !
 ! D48   D(17,15,16,33)        -23.607          estimate D2E/DX2                !
 ! D49   D(16,15,17,14)       -109.1595         estimate D2E/DX2                !
 ! D50   D(16,15,17,30)       -177.4187         estimate D2E/DX2                !
 ! D51   D(15,16,33,18)         85.628          estimate D2E/DX2                !
 ! D52   D(31,16,33,18)       -121.1384         estimate D2E/DX2                !
 ! D53   D(32,16,33,18)         -7.9216         estimate D2E/DX2                !
 ! D54   D(14,17,30,34)        -71.7445         estimate D2E/DX2                !
 ! D55   D(15,17,30,34)          1.3021         estimate D2E/DX2                !
 ! D56   D(12,18,33,16)         -7.6179         estimate D2E/DX2                !
 ! D57   D(17,30,34,14)         57.1443         estimate D2E/DX2                !
 --------------------------------------------------------------------------------
 Trust Radius=3.00D-01 FncErr=1.00D-07 GrdErr=1.00D-06 EigMax=2.50D+02 EigMin=1.00D-04
 Number of steps in this run=    154 maximum allowed number of steps=    204.
 GradGradGradGradGradGradGradGradGradGradGradGradGradGradGradGradGradGrad

                          Input orientation:                          
 ---------------------------------------------------------------------
 Center     Atomic      Atomic             Coordinates (Angstroms)
 Number     Number       Type             X           Y           Z
 ---------------------------------------------------------------------
      1          6           0        3.402950   -0.134640   -0.224590
      2          6           0        5.355270   -0.294730   -0.500890
      3          6           0        7.306660   -0.094260   -0.646450
      4          6           0        5.477860    0.969000   -0.510030
      5          6           0        6.480930    1.131100    0.362520
      6          8           0        6.479190   -0.006470    1.109520
      7          7           0        7.037680    2.183540   -0.366780
      8          6           0        8.285380    2.009040   -0.392600
      9          6           0        9.257350    2.973950   -0.723910
     10          6           0       10.510620    2.806560   -0.651440
     11          6           0       11.715700    2.482960   -0.603170
     12          6           0       11.596130    1.015660   -0.505600
     13          6           0       13.652210    1.463580   -0.551870
     14          6           0       13.482460    0.235430   -0.310940
     15          8           0       13.954970   -0.813280   -1.790070
     16          6           0       12.656440   -1.343840   -2.049540
     17          6           0       13.540860   -0.920710   -0.338610
     18          6           0       11.605730   -0.555450   -0.365570
     19          6           0        9.733430   -0.103080   -0.520670
     20          1           0        1.848270    0.439480   -0.332540
     21          1           0        1.868870   -0.518330    0.242860
     22          1           0        4.541220    1.825060    0.361420
     23          1           0        4.477430    1.529430   -1.283820
     24          1           0        8.617450    1.077750   -0.032500
     25          1           0        8.879570    3.921850   -0.977950
     26          1           0       12.555290    3.236490   -0.541630
     27          1           0       11.861820    0.881190    0.631950
     28          1           0       14.232890    1.621120    0.426790
     29          1           0       14.328740    1.596610   -1.414200
     30          1           0       13.983280   -0.671950    0.553110
     31          1           0       12.252980   -1.684140   -2.890760
     32          1           0       12.377620   -0.273000   -2.123050
     33          1           0       12.235460   -1.950650   -1.121210
     34          1           0       15.125540   -0.169940   -0.411670
 ---------------------------------------------------------------------
                    Distance matrix (angstroms):
                    1          2          3          4          5
     1  C    0.000000
     2  C    1.978263   0.000000
     3  C    3.926646   1.967053   0.000000
     4  C    2.367435   1.269695   2.119821   0.000000
     5  C    3.379461   2.011362   1.789234   1.339317   0.000000
     6  O    3.355522   1.984870   1.943153   2.139426   1.360911
     7  N    4.313402   2.998385   2.310614   1.982086   1.396237
     8  C    5.334952   3.728891   2.333710   2.996271   2.144067
     9  C    6.647304   5.095119   3.636634   4.283703   3.504987
    10  C    7.704014   6.018164   4.322053   5.359599   4.480366
    11  C    8.723357   6.941260   5.107208   6.419610   5.492076
    12  C    8.278306   6.376949   4.432980   6.118450   5.189627
    13  C   10.378283   8.481360   6.534663   8.189405   7.236982
    14  C   10.086671   8.146678   6.193688   8.040608   7.090641
    15  O   10.689079   8.711241   6.784164   8.756507   8.017202
    16  C    9.508927   7.536978   5.670120   7.697489   7.076743
    17  C   10.168979   8.211094   6.296271   8.283258   7.385399
    18  C    8.214777   6.257359   4.332850   6.316297   5.444092
    19  C    6.337479   4.382397   2.430043   4.388547   3.589148
    20  H    1.660812   3.586984   5.493400   3.672304   4.735291
    21  H    1.648978   3.571855   5.526325   3.975400   4.899595
    22  H    2.340831   2.428943   3.513865   1.539337   2.060111
    23  H    2.246242   2.170517   3.323726   1.383363   2.623569
    24  H    5.357033   3.570001   1.862448   3.177560   2.173386
    25  H    6.856824   5.516142   4.325861   4.528786   3.916455
    26  H    9.758604   8.019443   6.217154   7.431859   6.492149
    27  H    8.562596   6.708301   4.830662   6.485890   5.393424
    28  H   10.990659   9.129250   7.215749   8.829125   7.767698
    29  H   11.125884   9.215990   7.263476   8.919052   8.059873
    30  H   10.622472   8.700331   6.808078   8.727265   7.718327
    31  H    9.371896   7.431039   5.659570   7.655670   7.199026
    32  H    9.174312   7.207307   5.284594   7.193823   6.551375
    33  H    9.061736   7.103794   5.288161   7.386681   6.694270
    34  H   11.724136   9.771474   7.822770   9.715173   8.776181
                    6          7          8          9         10
     6  O    0.000000
     7  N    2.699540   0.000000
     8  C    3.095314   1.260108   0.000000
     9  C    4.467946   2.383112   1.409093   0.000000
    10  C    5.221738   3.539844   2.377967   1.266474   0.000000
    11  C    6.045792   4.693549   3.469299   2.509808   1.248705
    12  C    5.462274   4.707726   3.458416   3.058178   2.099268
    13  C    7.508227   6.656171   5.396828   4.650334   3.418055
    14  C    7.149966   6.733011   5.491994   5.051890   3.944424
    15  O    8.058899   7.671739   6.485573   6.127597   5.124770
    16  C    7.065878   6.844308   5.752688   5.652824   4.876992
    17  C    7.266368   7.206144   6.017177   5.802180   4.813809
    18  C    5.362712   5.326270   4.195481   4.254405   3.547407
    19  C    3.641007   3.538274   2.564040   3.120268   3.014487
    20  H    4.870711   5.474751   6.625972   7.840356   8.985604
    21  H    4.718914   5.864159   6.925533   8.229235   9.302393
    22  H    2.769455   2.625090   3.823758   4.973909   6.133756
    23  H    3.477658   2.797088   3.940150   5.024716   6.199221
    24  H    2.655541   1.957087   1.052256   2.117332   2.637416
    25  H    5.054805   2.605342   2.086753   1.051555   2.002699
    26  H    7.082519   5.619902   4.445332   3.313391   2.092265
    27  H    5.476196   5.095675   3.887502   3.605727   2.679530
    28  H    7.952046   7.260655   6.016208   5.283016   4.052548
    29  H    8.399670   7.389258   6.142961   5.300242   4.077232
    30  H    7.554060   7.565803   6.367742   6.103915   5.060666
    31  H    7.221736   6.966260   5.968436   5.947003   5.311945
    32  H    6.731421   6.134658   4.994857   4.715545   3.890375
    33  H    6.472298   6.684131   5.640315   5.768767   5.082008
    34  H    8.780667   8.423441   7.178865   6.664622   5.496774
                   11         12         13         14         15
    11  C    0.000000
    12  C    1.475394   0.000000
    13  C    2.189027   2.104813   0.000000
    14  C    2.873714   2.050583   1.263018   0.000000
    15  O    4.157915   3.249463   2.609386   1.873735   0.000000
    16  C    4.197782   3.012515   3.334094   2.489806   1.426534
    17  C    3.871198   2.749434   2.396397   1.157945   1.513197
    18  C    3.049669   1.577367   2.880845   2.037300   2.759457
    19  C    3.259418   2.172892   4.220454   3.770120   4.465105
    20  H   10.080438   9.766407  11.850312  11.635999  12.258303
    21  H   10.328774   9.875875  11.975252  11.651194  12.259430
    22  H    7.268867   7.153923   9.163782   9.106304  10.010416
    23  H    7.332466   7.179518   9.204166   9.149399   9.775906
    24  H    3.449555   3.016656   5.076162   4.945235   5.929095
    25  H    3.202264   4.006089   5.385418   5.934744   6.988611
    26  H    1.129826   2.419374   2.084838   3.149480   4.462997
    27  H    2.027940   1.175880   2.223984   1.983059   3.621973
    28  H    2.853039   2.861544   1.148818   1.739979   3.304241
    29  H    2.875998   2.937723   1.104085   1.945812   2.467499
    30  H    4.053685   3.109241   2.427154   1.349349   2.347609
    31  H    4.783980   3.661879   4.163699   3.442650   2.206057
    32  H    3.216129   2.210773   2.666251   2.182410   1.700239
    33  H    4.493931   3.096242   3.740093   2.643954   2.167418
    34  H    4.324530   3.724407   2.204256   1.695342   1.919403
                   16         17         18         19         20
    16  C    0.000000
    17  C    1.971933   0.000000
    18  C    2.135721   1.969485   0.000000
    19  C    3.524332   3.898485   1.932408   0.000000
    20  H   11.088050  11.771441   9.808109   7.906043   0.000000
    21  H   11.059305  11.693390   9.755922   7.912440   1.117546
    22  H    9.039439   9.435190   7.490170   5.608462   3.106991
    23  H    8.702770   9.436227   7.483486   5.556350   3.000901
    24  H    5.123084   5.322360   3.421709   1.696491   6.805822
    25  H    6.568146   6.751797   5.277611   4.139836   7.872905
    26  H    4.823220   4.277251   3.912987   4.372192  11.068300
    27  H    3.573873   2.647264   1.767643   2.612923  10.069585
    28  H    4.172337   2.743290   3.502465   4.910772  12.464015
    29  H    3.441873   2.848605   3.625710   4.980383  12.580583
    30  H    2.997620   1.026051   2.551527   4.420163  12.217943
    31  H    0.993094   2.958873   2.840679   3.803316  10.923014
    32  H    1.108983   2.226406   1.940188   3.096488  10.704241
    33  H    1.186271   1.837745   1.707084   3.167699  10.687770
    34  H    3.187023   1.755051   3.541159   5.393626  13.291484
                   21         22         23         24         25
    21  H    0.000000
    22  H    3.556260   0.000000
    23  H    3.650843   1.672806   0.000000
    24  H    6.940218   4.162847   4.348515   0.000000
    25  H    8.387818   5.001172   5.019568   3.008569   0.000000
    26  H   11.354016   8.187365   8.289555   4.519508   3.764440
    27  H   10.097975   7.386153   7.656344   3.317539   4.553153
    28  H   12.549106   9.694036   9.904726   5.660333   5.993721
    29  H   12.746261   9.949903   9.852402   5.898910   5.940582
    30  H   12.119356   9.768536   9.928825   5.674198   7.035268
    31  H   10.909098   9.075373   8.565539   5.386536   6.816587
    32  H   10.774579   8.484316   8.146537   4.509302   5.580715
    33  H   10.553597   8.698017   8.504377   4.842158   6.765263
    34  H   13.277390  10.798404  10.818075   6.637449   7.488362
                   26         27         28         29         30
    26  H    0.000000
    27  H    2.721328   0.000000
    28  H    2.522221   2.492300   0.000000
    29  H    2.568211   3.283938   1.843646   0.000000
    30  H    4.302733   2.630409   2.310072   3.022584   0.000000
    31  H    5.460989   4.375318   5.084381   4.153592   3.984810
    32  H    3.853437   3.031209   3.678505   2.793703   3.146289
    33  H    5.229209   3.351491   4.375337   4.129251   2.737389
    34  H    4.269290   3.584116   2.169732   2.181893   1.577204
                   31         32         33         34
    31  H    0.000000
    32  H    1.611282   0.000000
    33  H    1.789593   1.959184   0.000000
    34  H    4.085375   3.238905   3.467988   0.000000
 Stoichiometry    C16H15NO2
 Framework group  C1[X(C16H15NO2)]
 Deg. of freedom    96
 Full point group                 C1      NOp   1
 Largest Abelian subgroup         C1      NOp   1
 Largest concise Abelian subgroup C1      NOp   1
                         Standard orientation:                         
 ---------------------------------------------------------------------
 Center     Atomic      Atomic             Coordinates (Angstroms)
 Number     Number       Type             X           Y           Z
 ---------------------------------------------------------------------
      1          6           0       -6.130550   -1.219161   -0.215527
      2          6           0       -4.154273   -1.261794   -0.293220
      3          6           0       -2.214693   -0.934635   -0.276020
      4          6           0       -4.111683    0.001599   -0.412175
      5          6           0       -3.212137    0.313138    0.529913
      6          8           0       -3.215693   -0.750222    1.379225
      7          7           0       -2.653771    1.333627   -0.242297
      8          6           0       -1.401100    1.248151   -0.135611
      9          6           0       -0.464212    2.247286   -0.466538
     10          6           0        0.783817    2.178064   -0.262605
     11          6           0        1.996279    1.948022   -0.072131
     12          6           0        1.960837    0.490534    0.154275
     13          6           0        3.978885    1.079947    0.255831
     14          6           0        3.864279   -0.130785    0.596726
     15          8           0        4.546265   -1.270647   -0.724825
     16          6           0        3.316001   -1.914738   -1.051314
     17          6           0        3.998252   -1.277512    0.685636
     18          6           0        2.056047   -1.056943    0.444684
     19          6           0        0.183393   -0.756759    0.074196
     20          1           0       -7.700159   -0.770863   -0.521556
     21          1           0       -7.675943   -1.669383    0.142510
     22          1           0       -5.182271    0.862208    0.282628
     23          1           0       -5.064148    0.416820   -1.325463
     24          1           0       -1.047953    0.379235    0.341375
     25          1           0       -0.874296    3.138882   -0.844237
     26          1           0        2.776235    2.762738   -0.005694
     27          1           0        2.120682    0.477872    1.319171
     28          1           0        4.448758    1.365916    1.264406
     29          1           0        4.727604    1.183885   -0.548917
     30          1           0        4.333644   -0.918693    1.586493
     31          1           0        3.020103   -2.357158   -1.889731
     32          1           0        2.978546   -0.877723   -1.252727
     33          1           0        2.844547   -2.464944   -0.112035
     34          1           0        5.531628   -0.423722    0.687933
 ---------------------------------------------------------------------
 Rotational constants (GHZ):           0.9664610           0.1738328           0.1557525
 Standard basis: 6-31G(2df,p) (6D, 7F)
 There are   664 symmetry adapted cartesian basis functions of A   symmetry.
 There are   607 symmetry adapted basis functions of A   symmetry.
   607 basis functions,   941 primitive gaussians,   664 cartesian basis functions
    67 alpha electrons       67 beta electrons
       nuclear repulsion energy      1315.7550486912 Hartrees.
 NAtoms=   34 NActive=   34 NUniq=   34 SFac= 1.00D+00 NAtFMM=   60 NAOKFM=F Big=F
 Integral buffers will be    131072 words long.
 Raffenetti 2 integral format.
 Two-electron integral symmetry is turned on.
 One-electron integrals computed using PRISM.
 PrsmSu:  requested number of processors reduced to:  12 ShMem   1 Linda.
 NBasis=   607 RedAO= T EigKep=  1.22D-04  NBF=   607
 NBsUse=   607 1.00D-06 EigRej= -1.00D+00 NBFU=   607
 ExpMin= 1.61D-01 ExpMax= 5.48D+03 ExpMxC= 8.25D+02 IAcc=3 IRadAn=         5 AccDes= 0.00D+00
 Harris functional with IExCor=  402 and IRadAn=       5 diagonalized for initial guess.
 HarFok:  IExCor=  402 AccDes= 0.00D+00 IRadAn=         5 IDoV= 1 UseB2=F ITyADJ=14
 ICtDFT=  3500011 ScaDFX=  1.000000  1.000000  1.000000  1.000000
 FoFCou: FMM=F IPFlag=           0 FMFlag=      100000 FMFlg1=           0
         NFxFlg=           0 DoJE=T BraDBF=F KetDBF=T FulRan=T
         wScrn=  0.000000 ICntrl=       500 IOpCl=  0 I1Cent=   200000004 NGrid=           0
         NMat0=    1 NMatS0=      1 NMatT0=    0 NMatD0=    1 NMtDS0=    0 NMtDT0=    0
 Petite list used in FoFCou.
 Requested convergence on RMS density matrix=1.00D-08 within 128 cycles.
 Requested convergence on MAX density matrix=1.00D-06.
 Requested convergence on             energy=1.00D-06.
 No special actions if energy rises.
 Integral accuracy reduced to 1.0D-05 until final iterations.
 EnCoef did     5 forward-backward iterations
 Problem detected with inexpensive integrals.
 Switching to full accuracy and repeating last cycle.
 EnCoef did     5 forward-backward iterations
 EnCoef did     2 forward-backward iterations
 EnCoef did     2 forward-backward iterations
 EnCoef did     3 forward-backward iterations
 EnCoef did     5 forward-backward iterations
 EnCoef did     3 forward-backward iterations
 EnCoef did   100 forward-backward iterations
 EnCoef did     6 forward-backward iterations
 EnCoef did     4 forward-backward iterations
 EnCoef did    12 forward-backward iterations
 EnCoef did     3 forward-backward iterations
 EnCoef did     9 forward-backward iterations
 EnCoef did     5 forward-backward iterations
 EnCoef did     4 forward-backward iterations
 EnCoef did     4 forward-backward iterations
 Restarting incremental Fock formation.
 SCF Done:  E(RB3LYP) =  -821.547006959     A.U. after   40 cycles
            NFock= 40  Conv=0.83D-08     -V/T= 2.0026

 **********************************************************************

            Population analysis using the SCF density.

 **********************************************************************

 Orbital symmetries:
       Occupied  (A) (A) (A) (A) (A) (A) (A) (A) (A) (A) (A) (A)
                 (A) (A) (A) (A) (A) (A) (A) (A) (A) (A) (A) (A)
                 (A) (A) (A) (A) (A) (A) (A) (A) (A) (A) (A) (A)
                 (A) (A) (A) (A) (A) (A) (A) (A) (A) (A) (A) (A)
                 (A) (A) (A) (A) (A) (A) (A) (A) (A) (A) (A) (A)
                 (A) (A) (A) (A) (A) (A) (A)
       Virtual   (A) (A) (A) (A) (A) (A) (A) (A) (A) (A) (A) (A)
                 (A) (A) (A) (A) (A) (A) (A) (A) (A) (A) (A) (A)
                 (A) (A) (A) (A) (A) (A) (A) (A) (A) (A) (A) (A)
                 (A) (A) (A) (A) (A) (A) (A) (A) (A) (A) (A) (A)
                 (A) (A) (A) (A) (A) (A) (A) (A) (A) (A) (A) (A)
                 (A) (A) (A) (A) (A) (A) (A) (A) (A) (A) (A) (A)
                 (A) (A) (A) (A) (A) (A) (A) (A) (A) (A) (A) (A)
                 (A) (A) (A) (A) (A) (A) (A) (A) (A) (A) (A) (A)
                 (A) (A) (A) (A) (A) (A) (A) (A) (A) (A) (A) (A)
                 (A) (A) (A) (A) (A) (A) (A) (A) (A) (A) (A) (A)
                 (A) (A) (A) (A) (A) (A) (A) (A) (A) (A) (A) (A)
                 (A) (A) (A) (A) (A) (A) (A) (A) (A) (A) (A) (A)
                 (A) (A) (A) (A) (A) (A) (A) (A) (A) (A) (A) (A)
                 (A) (A) (A) (A) (A) (A) (A) (A) (A) (A) (A) (A)
                 (A) (A) (A) (A) (A) (A) (A) (A) (A) (A) (A) (A)
                 (A) (A) (A) (A) (A) (A) (A) (A) (A) (A) (A) (A)
                 (A) (A) (A) (A) (A) (A) (A) (A) (A) (A) (A) (A)
                 (A) (A) (A) (A) (A) (A) (A) (A) (A) (A) (A) (A)
                 (A) (A) (A) (A) (A) (A) (A) (A) (A) (A) (A) (A)
                 (A) (A) (A) (A) (A) (A) (A) (A) (A) (A) (A) (A)
                 (A) (A) (A) (A) (A) (A) (A) (A) (A) (A) (A) (A)
                 (A) (A) (A) (A) (A) (A) (A) (A) (A) (A) (A) (A)
                 (A) (A) (A) (A) (A) (A) (A) (A) (A) (A) (A) (A)
                 (A) (A) (A) (A) (A) (A) (A) (A) (A) (A) (A) (A)
                 (A) (A) (A) (A) (A) (A) (A) (A) (A) (A) (A) (A)
                 (A) (A) (A) (A) (A) (A) (A) (A) (A) (A) (A) (A)
                 (A) (A) (A) (A) (A) (A) (A) (A) (A) (A) (A) (A)
                 (A) (A) (A) (A) (A) (A) (A) (A) (A) (A) (A) (A)
                 (A) (A) (A) (A) (A) (A) (A) (A) (A) (A) (A) (A)
                 (A) (A) (A) (A) (A) (A) (A) (A) (A) (A) (A) (A)
                 (A) (A) (A) (A) (A) (A) (A) (A) (A) (A) (A) (A)
                 (A) (A) (A) (A) (A) (A) (A) (A) (A) (A) (A) (A)
                 (A) (A) (A) (A) (A) (A) (A) (A) (A) (A) (A) (A)
                 (A) (A) (A) (A) (A) (A) (A) (A) (A) (A) (A) (A)
                 (A) (A) (A) (A) (A) (A) (A) (A) (A) (A) (A) (A)
                 (A) (A) (A) (A) (A) (A) (A) (A) (A) (A) (A) (A)
                 (A) (A) (A) (A) (A) (A) (A) (A) (A) (A) (A) (A)
                 (A) (A) (A) (A) (A) (A) (A) (A) (A) (A) (A) (A)
                 (A) (A) (A) (A) (A) (A) (A) (A) (A) (A) (A) (A)
                 (A) (A) (A) (A) (A) (A) (A) (A) (A) (A) (A) (A)
                 (A) (A) (A) (A) (A) (A) (A) (A) (A) (A) (A) (A)
                 (A) (A) (A) (A) (A) (A) (A) (A) (A) (A) (A) (A)
                 (A) (A) (A) (A) (A) (A) (A) (A) (A) (A) (A) (A)
                 (A) (A) (A) (A) (A) (A) (A) (A) (A) (A) (A) (A)
                 (A) (A) (A) (A) (A) (A) (A) (A) (A) (A) (A) (A)
 The electronic state is 1-A.
 Alpha  occ. eigenvalues --  -19.21175 -19.20613 -14.36006 -10.31226 -10.29620
 Alpha  occ. eigenvalues --  -10.29463 -10.28689 -10.28632 -10.27886 -10.27502
 Alpha  occ. eigenvalues --  -10.25491 -10.24586 -10.24395 -10.23658 -10.23587
 Alpha  occ. eigenvalues --  -10.22758 -10.21586 -10.21565 -10.20835  -1.12934
 Alpha  occ. eigenvalues --   -1.08699  -0.98237  -0.95606  -0.89456  -0.85447
 Alpha  occ. eigenvalues --   -0.83192  -0.80575  -0.78280  -0.72180  -0.69634
 Alpha  occ. eigenvalues --   -0.65423  -0.62548  -0.60801  -0.59615  -0.57540
 Alpha  occ. eigenvalues --   -0.56474  -0.55747  -0.54696  -0.52076  -0.51530
 Alpha  occ. eigenvalues --   -0.50930  -0.49671  -0.48283  -0.47035  -0.46635
 Alpha  occ. eigenvalues --   -0.45927  -0.44506  -0.43914  -0.42538  -0.40884
 Alpha  occ. eigenvalues --   -0.38794  -0.37956  -0.36807  -0.35298  -0.34019
 Alpha  occ. eigenvalues --   -0.32622  -0.30745  -0.29809  -0.28504  -0.27411
 Alpha  occ. eigenvalues --   -0.26602  -0.24477  -0.21538  -0.19606  -0.19026
 Alpha  occ. eigenvalues --   -0.17560  -0.15859
 Alpha virt. eigenvalues --   -0.14046  -0.12966  -0.10911  -0.09433  -0.08260
 Alpha virt. eigenvalues --   -0.06716  -0.06238  -0.04993  -0.03726  -0.01531
 Alpha virt. eigenvalues --   -0.00979   0.00250   0.01051   0.02331   0.04520
 Alpha virt. eigenvalues --    0.05023   0.05489   0.07360   0.08786   0.09451
 Alpha virt. eigenvalues --    0.09893   0.10111   0.10851   0.11910   0.13306
 Alpha virt. eigenvalues --    0.13969   0.15315   0.15799   0.16473   0.17492
 Alpha virt. eigenvalues --    0.17633   0.20898   0.27172   0.28431   0.29089
 Alpha virt. eigenvalues --    0.30630   0.31149   0.32224   0.32932   0.36351
 Alpha virt. eigenvalues --    0.38367   0.38854   0.40079   0.41042   0.41155
 Alpha virt. eigenvalues --    0.41802   0.41932   0.42876   0.43558   0.43987
 Alpha virt. eigenvalues --    0.45833   0.46811   0.48110   0.48408   0.49602
 Alpha virt. eigenvalues --    0.49732   0.49989   0.51186   0.52401   0.52501
 Alpha virt. eigenvalues --    0.53104   0.53733   0.55650   0.56299   0.56800
 Alpha virt. eigenvalues --    0.57287   0.57907   0.58045   0.59202   0.59876
 Alpha virt. eigenvalues --    0.60455   0.60982   0.61583   0.62000   0.62754
 Alpha virt. eigenvalues --    0.63387   0.63955   0.65288   0.65463   0.66862
 Alpha virt. eigenvalues --    0.67154   0.67840   0.68426   0.68638   0.69442
 Alpha virt. eigenvalues --    0.70028   0.70477   0.71306   0.71819   0.72552
 Alpha virt. eigenvalues --    0.72981   0.73681   0.73932   0.74559   0.75937
 Alpha virt. eigenvalues --    0.76548   0.76998   0.77665   0.78142   0.78868
 Alpha virt. eigenvalues --    0.79800   0.80086   0.81534   0.81923   0.83221
 Alpha virt. eigenvalues --    0.83493   0.84077   0.84234   0.85911   0.86250
 Alpha virt. eigenvalues --    0.86449   0.87150   0.88826   0.88889   0.89484
 Alpha virt. eigenvalues --    0.90494   0.90956   0.91996   0.92341   0.93238
 Alpha virt. eigenvalues --    0.93885   0.95098   0.95562   0.96728   0.97348
 Alpha virt. eigenvalues --    0.98449   0.99696   1.00056   1.01200   1.01490
 Alpha virt. eigenvalues --    1.01921   1.02996   1.03477   1.04147   1.06214
 Alpha virt. eigenvalues --    1.06664   1.07829   1.08988   1.09528   1.10306
 Alpha virt. eigenvalues --    1.12758   1.13438   1.14280   1.15084   1.15922
 Alpha virt. eigenvalues --    1.17278   1.18469   1.19164   1.19900   1.21355
 Alpha virt. eigenvalues --    1.22275   1.24353   1.25206   1.26084   1.27190
 Alpha virt. eigenvalues --    1.28440   1.29648   1.29984   1.30956   1.31718
 Alpha virt. eigenvalues --    1.32742   1.33573   1.35317   1.35605   1.36797
 Alpha virt. eigenvalues --    1.37618   1.39829   1.40647   1.41825   1.42980
 Alpha virt. eigenvalues --    1.45127   1.45850   1.46478   1.48669   1.49344
 Alpha virt. eigenvalues --    1.49960   1.50046   1.52126   1.53100   1.53352
 Alpha virt. eigenvalues --    1.54037   1.55700   1.56120   1.57542   1.58679
 Alpha virt. eigenvalues --    1.60833   1.62152   1.63976   1.64672   1.66220
 Alpha virt. eigenvalues --    1.67504   1.68178   1.69279   1.70998   1.71585
 Alpha virt. eigenvalues --    1.72696   1.73572   1.74879   1.75752   1.76930
 Alpha virt. eigenvalues --    1.78808   1.79313   1.79948   1.81586   1.82280
 Alpha virt. eigenvalues --    1.82974   1.83906   1.85003   1.86866   1.88231
 Alpha virt. eigenvalues --    1.89495   1.90662   1.91251   1.92377   1.93079
 Alpha virt. eigenvalues --    1.95088   1.95707   1.96367   1.97634   1.98160
 Alpha virt. eigenvalues --    1.98941   2.00608   2.02861   2.06638   2.08707
 Alpha virt. eigenvalues --    2.09677   2.11130   2.12388   2.13434   2.15460
 Alpha virt. eigenvalues --    2.17279   2.19402   2.20812   2.21622   2.24249
 Alpha virt. eigenvalues --    2.26311   2.26705   2.27440   2.28502   2.29831
 Alpha virt. eigenvalues --    2.31830   2.32780   2.34486   2.34892   2.36361
 Alpha virt. eigenvalues --    2.39416   2.41927   2.43152   2.44545   2.46118
 Alpha virt. eigenvalues --    2.47733   2.48746   2.50360   2.50498   2.52256
 Alpha virt. eigenvalues --    2.54080   2.55116   2.56247   2.57668   2.59016
 Alpha virt. eigenvalues --    2.59956   2.61590   2.64109   2.65436   2.67173
 Alpha virt. eigenvalues --    2.68169   2.69030   2.69764   2.71665   2.72106
 Alpha virt. eigenvalues --    2.73594   2.74854   2.75316   2.76820   2.78192
 Alpha virt. eigenvalues --    2.79424   2.80270   2.82266   2.82434   2.83317
 Alpha virt. eigenvalues --    2.83910   2.85270   2.85886   2.86726   2.87772
 Alpha virt. eigenvalues --    2.87930   2.88373   2.89211   2.89935   2.91241
 Alpha virt. eigenvalues --    2.93202   2.94002   2.95360   2.95930   2.97646
 Alpha virt. eigenvalues --    2.98251   2.99167   2.99993   3.00780   3.01711
 Alpha virt. eigenvalues --    3.01956   3.02593   3.04222   3.05210   3.07168
 Alpha virt. eigenvalues --    3.08223   3.09096   3.10005   3.10784   3.12348
 Alpha virt. eigenvalues --    3.13184   3.14029   3.15161   3.15263   3.16560
 Alpha virt. eigenvalues --    3.17590   3.18974   3.19514   3.19912   3.20478
 Alpha virt. eigenvalues --    3.22205   3.24232   3.24804   3.25829   3.27202
 Alpha virt. eigenvalues --    3.28342   3.29571   3.30485   3.31307   3.32197
 Alpha virt. eigenvalues --    3.34072   3.34727   3.36246   3.36441   3.37770
 Alpha virt. eigenvalues --    3.39026   3.39970   3.41760   3.42343   3.43278
 Alpha virt. eigenvalues --    3.44189   3.45291   3.46010   3.47793   3.49767
 Alpha virt. eigenvalues --    3.50567   3.51258   3.52911   3.53362   3.54719
 Alpha virt. eigenvalues --    3.56219   3.56563   3.58418   3.59293   3.59834
 Alpha virt. eigenvalues --    3.61598   3.62590   3.63345   3.64562   3.66691
 Alpha virt. eigenvalues --    3.67796   3.68345   3.68681   3.71305   3.73491
 Alpha virt. eigenvalues --    3.74189   3.76141   3.76945   3.79796   3.80336
 Alpha virt. eigenvalues --    3.82060   3.82772   3.84728   3.86224   3.87734
 Alpha virt. eigenvalues --    3.90459   3.91631   3.94558   3.95454   3.97224
 Alpha virt. eigenvalues --    3.97854   3.99406   4.01370   4.02803   4.06319
 Alpha virt. eigenvalues --    4.06864   4.08298   4.12350   4.15657   4.16853
 Alpha virt. eigenvalues --    4.17492   4.19448   4.19922   4.22528   4.23441
 Alpha virt. eigenvalues --    4.23991   4.25227   4.26480   4.27383   4.28510
 Alpha virt. eigenvalues --    4.28719   4.29737   4.30426   4.31017   4.31971
 Alpha virt. eigenvalues --    4.34052   4.34124   4.35787   4.36042   4.37849
 Alpha virt. eigenvalues --    4.38654   4.40266   4.41293   4.43136   4.43850
 Alpha virt. eigenvalues --    4.44640   4.46820   4.46982   4.48949   4.49795
 Alpha virt. eigenvalues --    4.50741   4.51169   4.51924   4.53028   4.55044
 Alpha virt. eigenvalues --    4.56407   4.57220   4.58112   4.58614   4.60133
 Alpha virt. eigenvalues --    4.61500   4.62938   4.63232   4.64400   4.65522
 Alpha virt. eigenvalues --    4.66602   4.67996   4.68833   4.69462   4.70722
 Alpha virt. eigenvalues --    4.71296   4.72271   4.74702   4.75889   4.76314
 Alpha virt. eigenvalues --    4.77242   4.77984   4.80155   4.81064   4.81644
 Alpha virt. eigenvalues --    4.85237   4.86283   4.86389   4.88109   4.90368
 Alpha virt. eigenvalues --    4.91761   4.92944   4.94336   4.96700   4.97288
 Alpha virt. eigenvalues --    4.98020   5.00140   5.01737   5.04228   5.04479
 Alpha virt. eigenvalues --    5.06203   5.07609   5.08706   5.10161   5.12437
 Alpha virt. eigenvalues --    5.12818   5.14965   5.16855   5.18036   5.19694
 Alpha virt. eigenvalues --    5.21816   5.22817   5.25360   5.26555   5.29823
 Alpha virt. eigenvalues --    5.30001   5.31721   5.33902   5.35577   5.37451
 Alpha virt. eigenvalues --    5.40303   5.41564   5.43975   5.44616   5.49966
 Alpha virt. eigenvalues --    5.54968   5.55381   5.56946   5.58834   5.60393
 Alpha virt. eigenvalues --    5.63128   5.68921   5.70475   5.71988   5.74750
 Alpha virt. eigenvalues --    5.79268   5.83337   5.84993   5.90479   5.93119
 Alpha virt. eigenvalues --    5.94058   5.97218   5.98867   6.05540   6.08248
 Alpha virt. eigenvalues --    6.15882   6.20927   6.29736   6.48468   6.61767
 Alpha virt. eigenvalues --    6.77312   6.82752   7.07071   7.12209   7.54238
 Alpha virt. eigenvalues --    9.98460  10.09536  10.18395  10.55612  10.76002
 Alpha virt. eigenvalues --   10.90596  11.19841  11.31051  11.36335  11.48672
 Alpha virt. eigenvalues --   11.61191  11.88233  12.02724  12.11633  12.27186
 Alpha virt. eigenvalues --   12.29915  12.72467  13.32765  13.60063  18.42707
          Condensed to atoms (all electrons):
               1          2          3          4          5          6
     1  C    6.193563   0.072858  -0.000056  -0.045356  -0.002725   0.000232
     2  C    0.072858   5.412608   0.113097   0.463888  -0.110695   0.044950
     3  C   -0.000056   0.113097   5.990032   0.008092   0.014997   0.003770
     4  C   -0.045356   0.463888   0.008092   4.971896   0.430713  -0.096030
     5  C   -0.002725  -0.110695   0.014997   0.430713   4.727258   0.429353
     6  O    0.000232   0.044950   0.003770  -0.096030   0.429353   7.956186
     7  N    0.000717   0.008641  -0.044459  -0.101714   0.407589  -0.009467
     8  C   -0.000052   0.001089  -0.029203  -0.002084  -0.089020  -0.001659
     9  C   -0.000000  -0.000043   0.001819  -0.000470   0.004242   0.000026
    10  C    0.000000  -0.000008   0.002653  -0.000017  -0.000490  -0.000029
    11  C   -0.000000  -0.000000   0.000104  -0.000001  -0.000036  -0.000000
    12  C    0.000000  -0.000002   0.000807  -0.000002  -0.000019  -0.000002
    13  C    0.000000  -0.000000   0.000000  -0.000000  -0.000000  -0.000000
    14  C    0.000000   0.000000  -0.000005   0.000000   0.000000  -0.000000
    15  O   -0.000000   0.000000   0.000000  -0.000000  -0.000000   0.000000
    16  C   -0.000000   0.000000   0.000012  -0.000000  -0.000000   0.000000
    17  C   -0.000000   0.000000  -0.000001  -0.000000   0.000000   0.000000
    18  C    0.000000  -0.000001   0.000283  -0.000001  -0.000011  -0.000002
    19  C   -0.000001  -0.000104   0.023794   0.000171  -0.000102   0.000211
    20  H   -0.048868   0.001849  -0.000029   0.001133   0.000009   0.000005
    21  H   -0.013401   0.005790  -0.000028   0.000524   0.000017  -0.000028
    22  H    0.054996  -0.004493   0.013018   0.128233  -0.107039  -0.010218
    23  H    0.023456  -0.029643  -0.000821   0.273563   0.004502   0.003798
    24  H   -0.000009   0.000928  -0.036614   0.006066  -0.016355   0.009981
    25  H   -0.000000   0.000004   0.000059   0.000027  -0.000069  -0.000001
    26  H   -0.000000  -0.000000   0.000001  -0.000000  -0.000000  -0.000000
    27  H    0.000000  -0.000000  -0.000003   0.000000   0.000006  -0.000000
    28  H    0.000000   0.000000  -0.000000   0.000000   0.000000  -0.000000
    29  H   -0.000000   0.000000  -0.000000  -0.000000  -0.000000   0.000000
    30  H   -0.000000   0.000000   0.000000  -0.000000  -0.000000   0.000000
    31  H   -0.000000   0.000000   0.000001   0.000000  -0.000000   0.000000
    32  H    0.000000   0.000000  -0.000007  -0.000000   0.000000  -0.000000
    33  H    0.000000  -0.000000  -0.000003   0.000000   0.000000  -0.000000
    34  H    0.000000   0.000000  -0.000000   0.000000   0.000000  -0.000000
               7          8          9         10         11         12
     1  C    0.000717  -0.000052  -0.000000   0.000000  -0.000000   0.000000
     2  C    0.008641   0.001089  -0.000043  -0.000008  -0.000000  -0.000002
     3  C   -0.044459  -0.029203   0.001819   0.002653   0.000104   0.000807
     4  C   -0.101714  -0.002084  -0.000470  -0.000017  -0.000001  -0.000002
     5  C    0.407589  -0.089020   0.004242  -0.000490  -0.000036  -0.000019
     6  O   -0.009467  -0.001659   0.000026  -0.000029  -0.000000  -0.000002
     7  N    6.516248   0.531212  -0.012028   0.001129   0.000004  -0.000004
     8  C    0.531212   4.850927   0.429699  -0.039409  -0.023740   0.000542
     9  C   -0.012028   0.429699   5.332211   0.543450  -0.089309  -0.022919
    10  C    0.001129  -0.039409   0.543450   4.389032   0.533107   0.016137
    11  C    0.000004  -0.023740  -0.089309   0.533107   5.517174   0.338011
    12  C   -0.000004   0.000542  -0.022919   0.016137   0.338011   5.124178
    13  C    0.000000  -0.000061  -0.001497  -0.019117  -0.014487  -0.096326
    14  C    0.000000  -0.000050  -0.000118  -0.001704  -0.021103  -0.026523
    15  O    0.000000   0.000000   0.000000  -0.000023  -0.000069   0.008455
    16  C    0.000000  -0.000006  -0.000010   0.000142   0.000464  -0.014336
    17  C    0.000000   0.000005   0.000013   0.000227   0.004344  -0.059149
    18  C   -0.000018   0.000650   0.000329   0.001150  -0.017807   0.359794
    19  C    0.002021  -0.051790  -0.006114   0.017365  -0.013617   0.034713
    20  H    0.000004  -0.000000   0.000000  -0.000000  -0.000000   0.000000
    21  H   -0.000001   0.000000   0.000000   0.000000   0.000000   0.000000
    22  H    0.011814  -0.000715  -0.000073  -0.000000  -0.000000  -0.000000
    23  H   -0.007420  -0.000330   0.000014  -0.000000  -0.000000   0.000000
    24  H   -0.050086   0.330666  -0.061848  -0.006205   0.000809   0.001278
    25  H   -0.002267  -0.022871   0.307387  -0.003387   0.005800   0.000780
    26  H    0.000003   0.000208   0.000047  -0.032400   0.359420  -0.022910
    27  H   -0.000017   0.000711   0.001075  -0.017700  -0.054246   0.302603
    28  H   -0.000000  -0.000001   0.000005   0.000752  -0.000608   0.003930
    29  H    0.000000   0.000001   0.000029   0.000150  -0.000991   0.002441
    30  H    0.000000  -0.000000   0.000001  -0.000026  -0.000222   0.006662
    31  H   -0.000000   0.000002   0.000001  -0.000006  -0.000004   0.000899
    32  H    0.000000  -0.000024  -0.000097  -0.000181   0.001259  -0.004846
    33  H    0.000000  -0.000004  -0.000002   0.000001  -0.000106  -0.000629
    34  H   -0.000000  -0.000000  -0.000000   0.000038   0.000518   0.005466
              13         14         15         16         17         18
     1  C    0.000000   0.000000  -0.000000  -0.000000  -0.000000   0.000000
     2  C   -0.000000   0.000000   0.000000   0.000000   0.000000  -0.000001
     3  C    0.000000  -0.000005   0.000000   0.000012  -0.000001   0.000283
     4  C   -0.000000   0.000000  -0.000000  -0.000000  -0.000000  -0.000001
     5  C   -0.000000   0.000000  -0.000000  -0.000000   0.000000  -0.000011
     6  O   -0.000000  -0.000000   0.000000   0.000000   0.000000  -0.000002
     7  N    0.000000   0.000000   0.000000   0.000000   0.000000  -0.000018
     8  C   -0.000061  -0.000050   0.000000  -0.000006   0.000005   0.000650
     9  C   -0.001497  -0.000118   0.000000  -0.000010   0.000013   0.000329
    10  C   -0.019117  -0.001704  -0.000023   0.000142   0.000227   0.001150
    11  C   -0.014487  -0.021103  -0.000069   0.000464   0.004344  -0.017807
    12  C   -0.096326  -0.026523   0.008455  -0.014336  -0.059149   0.359794
    13  C    5.742753   0.664412   0.010273  -0.004561  -0.231172  -0.047374
    14  C    0.664412   4.514467  -0.153159  -0.004201   0.370119   0.047543
    15  O    0.010273  -0.153159   8.245327   0.169985   0.154861  -0.028532
    16  C   -0.004561  -0.004201   0.169985   5.150161  -0.084474  -0.083152
    17  C   -0.231172   0.370119   0.154861  -0.084474   5.944173   0.026252
    18  C   -0.047374   0.047543  -0.028532  -0.083152   0.026252   5.930402
    19  C    0.001538   0.002808   0.000109  -0.003646  -0.000255   0.144057
    20  H    0.000000   0.000000   0.000000  -0.000000  -0.000000   0.000000
    21  H    0.000000  -0.000000   0.000000   0.000000  -0.000000   0.000000
    22  H   -0.000000   0.000000  -0.000000  -0.000000   0.000000  -0.000000
    23  H    0.000000   0.000000  -0.000000  -0.000000  -0.000000  -0.000000
    24  H    0.000047  -0.000008  -0.000000   0.000031  -0.000017   0.000543
    25  H    0.000024   0.000001  -0.000000   0.000000  -0.000000   0.000014
    26  H   -0.023491  -0.003969  -0.000016   0.000053  -0.000093   0.000722
    27  H   -0.018547   0.020077   0.000556   0.002800   0.002674  -0.067811
    28  H    0.275618  -0.012016   0.001200  -0.000021  -0.005112   0.004200
    29  H    0.363815  -0.035678   0.011744  -0.001744  -0.002478  -0.000268
    30  H   -0.014687  -0.007105   0.011039   0.001372   0.304004  -0.012867
    31  H    0.000073   0.002732  -0.006071   0.350766   0.006774  -0.002317
    32  H    0.004352  -0.006310  -0.055515   0.385354  -0.014236  -0.020715
    33  H   -0.000172  -0.011761  -0.020111   0.389464  -0.034188  -0.028260
    34  H   -0.047280   0.117960  -0.135988   0.017331  -0.020627   0.012893
              19         20         21         22         23         24
     1  C   -0.000001  -0.048868  -0.013401   0.054996   0.023456  -0.000009
     2  C   -0.000104   0.001849   0.005790  -0.004493  -0.029643   0.000928
     3  C    0.023794  -0.000029  -0.000028   0.013018  -0.000821  -0.036614
     4  C    0.000171   0.001133   0.000524   0.128233   0.273563   0.006066
     5  C   -0.000102   0.000009   0.000017  -0.107039   0.004502  -0.016355
     6  O    0.000211   0.000005  -0.000028  -0.010218   0.003798   0.009981
     7  N    0.002021   0.000004  -0.000001   0.011814  -0.007420  -0.050086
     8  C   -0.051790  -0.000000   0.000000  -0.000715  -0.000330   0.330666
     9  C   -0.006114   0.000000   0.000000  -0.000073   0.000014  -0.061848
    10  C    0.017365  -0.000000   0.000000  -0.000000  -0.000000  -0.006205
    11  C   -0.013617  -0.000000   0.000000  -0.000000  -0.000000   0.000809
    12  C    0.034713   0.000000   0.000000  -0.000000   0.000000   0.001278
    13  C    0.001538   0.000000   0.000000  -0.000000   0.000000   0.000047
    14  C    0.002808   0.000000  -0.000000   0.000000   0.000000  -0.000008
    15  O    0.000109   0.000000   0.000000  -0.000000  -0.000000  -0.000000
    16  C   -0.003646  -0.000000   0.000000  -0.000000  -0.000000   0.000031
    17  C   -0.000255  -0.000000  -0.000000   0.000000  -0.000000  -0.000017
    18  C    0.144057   0.000000   0.000000  -0.000000  -0.000000   0.000543
    19  C    5.982000  -0.000000   0.000000  -0.000010   0.000001   0.029126
    20  H   -0.000000   0.890486   0.167420  -0.001641   0.003544  -0.000000
    21  H    0.000000   0.167420   0.841268  -0.000304  -0.001028  -0.000000
    22  H   -0.000010  -0.001641  -0.000304   0.943781  -0.018173  -0.000119
    23  H    0.000001   0.003544  -0.001028  -0.018173   0.513240  -0.000115
    24  H    0.029126  -0.000000  -0.000000  -0.000119  -0.000115   0.581982
    25  H    0.000240  -0.000000   0.000000  -0.000006  -0.000002   0.005945
    26  H    0.000419  -0.000000   0.000000  -0.000000   0.000000   0.000001
    27  H    0.000157   0.000000   0.000000   0.000000   0.000000  -0.000476
    28  H   -0.000013   0.000000  -0.000000   0.000000   0.000000  -0.000000
    29  H   -0.000018  -0.000000   0.000000   0.000000  -0.000000  -0.000000
    30  H   -0.000110  -0.000000   0.000000  -0.000000  -0.000000   0.000000
    31  H    0.001070  -0.000000   0.000000  -0.000000  -0.000000  -0.000003
    32  H   -0.000234   0.000000  -0.000000   0.000000   0.000000   0.000028
    33  H   -0.001677   0.000000  -0.000000   0.000000   0.000000   0.000011
    34  H   -0.000021   0.000000   0.000000   0.000000   0.000000   0.000000
              25         26         27         28         29         30
     1  C   -0.000000  -0.000000   0.000000   0.000000  -0.000000  -0.000000
     2  C    0.000004  -0.000000  -0.000000   0.000000   0.000000   0.000000
     3  C    0.000059   0.000001  -0.000003  -0.000000  -0.000000   0.000000
     4  C    0.000027  -0.000000   0.000000   0.000000  -0.000000  -0.000000
     5  C   -0.000069  -0.000000   0.000006   0.000000  -0.000000  -0.000000
     6  O   -0.000001  -0.000000  -0.000000  -0.000000   0.000000   0.000000
     7  N   -0.002267   0.000003  -0.000017  -0.000000   0.000000   0.000000
     8  C   -0.022871   0.000208   0.000711  -0.000001   0.000001  -0.000000
     9  C    0.307387   0.000047   0.001075   0.000005   0.000029   0.000001
    10  C   -0.003387  -0.032400  -0.017700   0.000752   0.000150  -0.000026
    11  C    0.005800   0.359420  -0.054246  -0.000608  -0.000991  -0.000222
    12  C    0.000780  -0.022910   0.302603   0.003930   0.002441   0.006662
    13  C    0.000024  -0.023491  -0.018547   0.275618   0.363815  -0.014687
    14  C    0.000001  -0.003969   0.020077  -0.012016  -0.035678  -0.007105
    15  O   -0.000000  -0.000016   0.000556   0.001200   0.011744   0.011039
    16  C    0.000000   0.000053   0.002800  -0.000021  -0.001744   0.001372
    17  C   -0.000000  -0.000093   0.002674  -0.005112  -0.002478   0.304004
    18  C    0.000014   0.000722  -0.067811   0.004200  -0.000268  -0.012867
    19  C    0.000240   0.000419   0.000157  -0.000013  -0.000018  -0.000110
    20  H   -0.000000  -0.000000   0.000000   0.000000  -0.000000  -0.000000
    21  H    0.000000   0.000000   0.000000  -0.000000   0.000000   0.000000
    22  H   -0.000006  -0.000000   0.000000   0.000000   0.000000  -0.000000
    23  H   -0.000002   0.000000   0.000000   0.000000  -0.000000  -0.000000
    24  H    0.005945   0.000001  -0.000476  -0.000000  -0.000000   0.000000
    25  H    0.559782   0.000006  -0.000067  -0.000000  -0.000000  -0.000000
    26  H    0.000006   0.556367  -0.001606  -0.004635  -0.002142  -0.000080
    27  H   -0.000067  -0.001606   0.639884  -0.006160   0.002293  -0.002654
    28  H   -0.000000  -0.004635  -0.006160   0.574049  -0.026494  -0.002248
    29  H   -0.000000  -0.002142   0.002293  -0.026494   0.530820   0.001190
    30  H   -0.000000  -0.000080  -0.002654  -0.002248   0.001190   0.487542
    31  H   -0.000000  -0.000000  -0.000126   0.000012  -0.000025  -0.000175
    32  H   -0.000000   0.000112   0.002892  -0.000445   0.002188   0.000821
    33  H   -0.000000  -0.000002   0.000409   0.000025  -0.000020   0.003342
    34  H   -0.000000  -0.000205  -0.001211   0.034896  -0.028411  -0.011540
              31         32         33         34
     1  C   -0.000000   0.000000   0.000000   0.000000
     2  C    0.000000   0.000000  -0.000000   0.000000
     3  C    0.000001  -0.000007  -0.000003  -0.000000
     4  C    0.000000  -0.000000   0.000000   0.000000
     5  C   -0.000000   0.000000   0.000000   0.000000
     6  O    0.000000  -0.000000  -0.000000  -0.000000
     7  N   -0.000000   0.000000   0.000000  -0.000000
     8  C    0.000002  -0.000024  -0.000004  -0.000000
     9  C    0.000001  -0.000097  -0.000002  -0.000000
    10  C   -0.000006  -0.000181   0.000001   0.000038
    11  C   -0.000004   0.001259  -0.000106   0.000518
    12  C    0.000899  -0.004846  -0.000629   0.005466
    13  C    0.000073   0.004352  -0.000172  -0.047280
    14  C    0.002732  -0.006310  -0.011761   0.117960
    15  O   -0.006071  -0.055515  -0.020111  -0.135988
    16  C    0.350766   0.385354   0.389464   0.017331
    17  C    0.006774  -0.014236  -0.034188  -0.020627
    18  C   -0.002317  -0.020715  -0.028260   0.012893
    19  C    0.001070  -0.000234  -0.001677  -0.000021
    20  H   -0.000000   0.000000   0.000000   0.000000
    21  H    0.000000  -0.000000  -0.000000   0.000000
    22  H   -0.000000   0.000000   0.000000   0.000000
    23  H   -0.000000   0.000000   0.000000   0.000000
    24  H   -0.000003   0.000028   0.000011   0.000000
    25  H   -0.000000  -0.000000  -0.000000  -0.000000
    26  H   -0.000000   0.000112  -0.000002  -0.000205
    27  H   -0.000126   0.002892   0.000409  -0.001211
    28  H    0.000012  -0.000445   0.000025   0.034896
    29  H   -0.000025   0.002188  -0.000020  -0.028411
    30  H   -0.000175   0.000821   0.003342  -0.011540
    31  H    0.580573  -0.045489  -0.030419  -0.000177
    32  H   -0.045489   0.562970  -0.024474  -0.000933
    33  H   -0.030419  -0.024474   0.523925   0.000622
    34  H   -0.000177  -0.000933   0.000622   1.162692
 Mulliken charges:
               1
     1  C   -0.235355
     2  C    0.019288
     3  C   -0.061310
     4  C   -0.038632
     5  C    0.307874
     6  O   -0.331076
     7  N   -0.251900
     8  C    0.115306
     9  C   -0.425822
    10  C    0.615371
    11  C   -0.524667
    12  C    0.040968
    13  C   -0.544132
    14  C    0.543589
    15  O   -0.214067
    16  C   -0.271783
    17  C   -0.361645
    18  C   -0.219694
    19  C   -0.162087
    20  H   -0.013911
    21  H   -0.000228
    22  H   -0.009050
    23  H    0.235415
    24  H    0.204413
    25  H    0.148601
    26  H    0.174191
    27  H    0.194489
    28  H    0.163067
    29  H    0.183599
    30  H    0.235742
    31  H    0.141910
    32  H    0.213529
    33  H    0.234028
    34  H   -0.106021
 Sum of Mulliken charges =  -0.00000
 Mulliken charges with hydrogens summed into heavy atoms:
               1
     1  C   -0.249494
     2  C    0.019288
     3  C   -0.061310
     4  C    0.187733
     5  C    0.307874
     6  O   -0.331076
     7  N   -0.251900
     8  C    0.319719
     9  C   -0.277221
    10  C    0.615371
    11  C   -0.350477
    12  C    0.235457
    13  C   -0.197467
    14  C    0.437568
    15  O   -0.214067
    16  C    0.317684
    17  C   -0.125903
    18  C   -0.219694
    19  C   -0.162087
 Electronic spatial extent (au):  <R**2>=           6866.3871
 Charge=             -0.0000 electrons
 Dipole moment (field-independent basis, Debye):
    X=              9.0677    Y=              4.6405    Z=             -0.6827  Tot=             10.2090
 Quadrupole moment (field-independent basis, Debye-Ang):
   XX=           -145.9326   YY=           -112.9618   ZZ=           -112.4792
   XY=             -7.7769   XZ=              7.7017   YZ=              2.7468
 Traceless Quadrupole moment (field-independent basis, Debye-Ang):
   XX=            -22.1414   YY=             10.8294   ZZ=             11.3120
   XY=             -7.7769   XZ=              7.7017   YZ=              2.7468
 Octapole moment (field-independent basis, Debye-Ang**2):
  XXX=            244.5771  YYY=             28.7906  ZZZ=             -0.6775  XYY=             47.8234
  XXY=             95.1551  XXZ=             -5.4474  XZZ=             33.6812  YZZ=              3.5841
  YYZ=             -9.5692  XYZ=              0.5587
 Hexadecapole moment (field-independent basis, Debye-Ang**3):
 XXXX=         -10248.9679 YYYY=          -1219.4206 ZZZZ=           -345.6637 XXXY=           -258.7371
 XXXZ=             99.9935 YYYX=            -85.2268 YYYZ=             -2.6260 ZZZX=            -27.3151
 ZZZY=             14.1753 XXYY=          -1699.0614 XXZZ=          -1409.0602 YYZZ=           -274.0995
 XXYZ=             31.3977 YYXZ=            -21.4013 ZZXY=            -41.9955
 N-N= 1.315755048691D+03 E-N=-4.543098912652D+03  KE= 8.193933792276D+02
 PrsmSu:  requested number of processors reduced to:  12 ShMem   1 Linda.
 Calling FoFJK, ICntrl=      2127 FMM=F ISym2X=0 I1Cent= 0 IOpClX= 0 NMat=1 NMatS=1 NMatT=0.
 ***** Axes restored to original set *****
 -------------------------------------------------------------------
 Center     Atomic                   Forces (Hartrees/Bohr)
 Number     Number              X              Y              Z
 -------------------------------------------------------------------
      1        6          -0.015601282    0.012655610    0.015610855
      2        6          -0.022418324   -0.190664728   -0.033452724
      3        6          -0.068138826   -0.047016406    0.033049963
      4        6          -0.192238804    0.159381791   -0.039407293
      5        6           0.027335449    0.001270439   -0.051288376
      6        8           0.042598279    0.025737275   -0.001337954
      7        7           0.033555555    0.067463522    0.065862879
      8        6           0.057516245    0.065540370    0.013834129
      9        6          -0.077485694   -0.000206905   -0.005257122
     10        6          -0.025439481    0.010759600    0.006938587
     11        6           0.061772969    0.007785781   -0.022378769
     12        6           0.000332290   -0.019406555    0.074264753
     13        6           0.103139725    0.069752064    0.025737140
     14        6           0.023689170    0.276299949    0.013117621
     15        8           0.024916710   -0.112585194   -0.045783399
     16        6          -0.026725637    0.028623037    0.020689462
     17        6           0.016193175   -0.270944469    0.013215706
     18        6          -0.093378096    0.062180192   -0.017649535
     19        6           0.075102491   -0.034997698    0.001283203
     20        1           0.007664437   -0.041185961    0.005308884
     21        1           0.015237243    0.035245715   -0.015290572
     22        1          -0.006403152   -0.031159419   -0.012112216
     23        1           0.070980098   -0.027616264    0.034762914
     24        1           0.028937420   -0.014113305    0.013762589
     25        1          -0.011311067    0.023487718   -0.024019810
     26        1          -0.019217270   -0.024412591    0.003373284
     27        1          -0.016374146    0.019200285   -0.011082878
     28        1          -0.014830854    0.034926961   -0.011209397
     29        1          -0.011048317    0.011582492    0.002893815
     30        1           0.045960491   -0.040395274    0.090524632
     31        1          -0.005415935   -0.041757788   -0.086602476
     32        1          -0.052116272   -0.022020678   -0.004176646
     33        1           0.012418164    0.006942940   -0.063664670
     34        1           0.010793245   -0.000352506    0.010483424
 -------------------------------------------------------------------
 Cartesian Forces:  Max     0.276299949 RMS     0.062785553

 GradGradGradGradGradGradGradGradGradGradGradGradGradGradGradGradGradGrad
 Berny optimization.
 FormGI is forming the generalized inverse of G from B-inverse, IUseBI=4.
 Internal  Forces:  Max     0.517590049 RMS     0.112618068
 Search for a local minimum.
 Step number   1 out of a maximum of  154
 All quantities printed in internal units (Hartrees-Bohrs-Radians)
 Mixed Optimization -- RFO/linear search
 Second derivative matrix not updated -- first step.
 ITU=  0
     Eigenvalues ---    0.00230   0.00230   0.00230   0.00230   0.00230
     Eigenvalues ---    0.00230   0.00230   0.00239   0.00517   0.00734
     Eigenvalues ---    0.00909   0.01026   0.01341   0.01742   0.01968
     Eigenvalues ---    0.02135   0.02891   0.03168   0.03294   0.03413
     Eigenvalues ---    0.03542   0.03812   0.03901   0.04069   0.04394
     Eigenvalues ---    0.04795   0.04891   0.05041   0.05763   0.06011
     Eigenvalues ---    0.07257   0.07305   0.07460   0.08054   0.08122
     Eigenvalues ---    0.08266   0.08365   0.08970   0.09282   0.09491
     Eigenvalues ---    0.10437   0.11840   0.13205   0.13273   0.13413
     Eigenvalues ---    0.14323   0.14328   0.15114   0.15398   0.15512
     Eigenvalues ---    0.15677   0.15891   0.15920   0.15967   0.15990
     Eigenvalues ---    0.16000   0.16000   0.16000   0.16000   0.16546
     Eigenvalues ---    0.18114   0.19678   0.21223   0.21946   0.22003
     Eigenvalues ---    0.22004   0.24985   0.25000   0.25000   0.25000
     Eigenvalues ---    0.25000   0.25000   0.25449   0.25695   0.26513
     Eigenvalues ---    0.28813   0.30588   0.31031   0.32380   0.32708
     Eigenvalues ---    0.33234   0.35101   0.39565   0.39662   0.41491
     Eigenvalues ---    0.44146   0.46250   0.48923   0.52764   0.57358
     Eigenvalues ---    0.76364   0.77433   0.78606   0.79611   0.83715
     Eigenvalues ---    1.02501
 RFO step:  Lambda=-1.25703165D+00 EMin= 2.30000000D-03
 Linear search not attempted -- first point.
 Maximum step size (   0.300) exceeded in Quadratic search.
    -- Step size scaled by   0.382
 Iteration  1 RMS(Cart)=  0.10279347 RMS(Int)=  0.02342656
 Iteration  2 RMS(Cart)=  0.10647339 RMS(Int)=  0.01735919
 Iteration  3 RMS(Cart)=  0.12390192 RMS(Int)=  0.01127685
 Iteration  4 RMS(Cart)=  0.16526591 RMS(Int)=  0.00602590
 Iteration  5 RMS(Cart)=  0.02229232 RMS(Int)=  0.00050790
 Iteration  6 RMS(Cart)=  0.00018952 RMS(Int)=  0.00050656
 Iteration  7 RMS(Cart)=  0.00000012 RMS(Int)=  0.00050656
 Variable       Old X    -DE/DX   Delta X   Delta X   Delta X     New X
                                 (Linear)    (Quad)   (Total)
    R1        3.73837  -0.00587   0.00000  -0.00166  -0.00166   3.73671
    R2        3.13848  -0.01067   0.00000  -0.00305  -0.00305   3.13543
    R3        3.11612  -0.01623   0.00000  -0.00463  -0.00463   3.11149
    R4        2.39938   0.18434   0.00000   0.03485   0.03485   2.43422
    R5        3.38116  -0.01788   0.00000  -0.00488  -0.00488   3.37628
    R6        2.53094   0.14606   0.00000   0.03048   0.03048   2.56142
    R7        2.90893  -0.00873   0.00000  -0.00257  -0.00257   2.90635
    R8        2.61418  -0.07270   0.00000  -0.01984  -0.01984   2.59434
    R9        2.57175  -0.02230   0.00000  -0.00477  -0.00477   2.56697
   R10        2.63851   0.10061   0.00000   0.02235   0.02235   2.66086
   R11        2.38126   0.10144   0.00000   0.01887   0.01887   2.40013
   R12        2.66280  -0.01644   0.00000  -0.00370  -0.00370   2.65910
   R13        1.98848   0.08192   0.00000   0.01894   0.01893   2.00741
   R14        2.39329   0.03501   0.00000   0.00658   0.00658   2.39987
   R15        1.98715   0.03104   0.00000   0.00717   0.00717   1.99432
   R16        2.35971   0.06118   0.00000   0.01116   0.01116   2.37087
   R17        2.78809  -0.00190   0.00000  -0.00045  -0.00045   2.78764
   R18        2.13506  -0.03038   0.00000  -0.00742  -0.00742   2.12764
   R19        2.98079  -0.00748   0.00000  -0.00189  -0.00189   2.97890
   R20        2.22209  -0.01662   0.00000  -0.00417  -0.00417   2.21792
   R21        2.38676   0.12011   0.00000   0.02246   0.02246   2.40921
   R22        2.17095  -0.01226   0.00000  -0.00303  -0.00303   2.16792
   R23        2.08642  -0.00763   0.00000  -0.00183  -0.00183   2.08458
   R24        2.18820   0.32565   0.00000   0.05435   0.05440   2.24260
   R25        3.20373   0.00989   0.00000   0.00002  -0.00007   3.20366
   R26        2.69576   0.18718   0.00000   0.04276   0.04276   2.73852
   R27        2.85953   0.08553   0.00000   0.02084   0.02084   2.88037
   R28        1.87668   0.08987   0.00000   0.01966   0.01966   1.89633
   R29        2.09567  -0.00788   0.00000  -0.00190  -0.00190   2.09377
   R30        2.24173  -0.01616   0.00000  -0.00408  -0.00408   2.23765
   R31        1.93896   0.12191   0.00000   0.02369   0.02373   1.96268
   R32        3.22592   0.11121   0.00000   0.03194   0.03194   3.25786
   R33        3.20590   0.07280   0.00000   0.02088   0.02088   3.22679
   R34        2.11186  -0.03195   0.00000  -0.00878  -0.00878   2.10308
   R35        3.16115  -0.01830   0.00000  -0.00517  -0.00517   3.15598
   R36        2.98048   0.02343   0.00000   0.00523   0.00527   2.98575
    A1        2.80148   0.00347   0.00000   0.00094   0.00094   2.80242
    A2        2.79017   0.00417   0.00000   0.00112   0.00113   2.79130
    A3        1.58654  -0.00885   0.00000  -0.00224  -0.00224   1.58430
    A4        1.76001   0.01375   0.00000   0.00363   0.00363   1.76364
    A5        2.08367  -0.01180   0.00000  -0.00333  -0.00333   2.08034
    A6        1.91497  -0.01127   0.00000  -0.00285  -0.00285   1.91212
    A7        1.59038   0.00458   0.00000   0.00156   0.00157   1.59194
    A8        2.60023  -0.00002   0.00000  -0.00006  -0.00007   2.60016
    A9        1.46597  -0.05512   0.00000  -0.01501  -0.01525   1.45072
   A10        1.30535  -0.05592   0.00000  -0.01466  -0.01440   1.29095
   A11        1.60845   0.07052   0.00000   0.01961   0.02009   1.62854
   A12        1.82913  -0.04742   0.00000  -0.01098  -0.01073   1.81840
   A13        1.62039   0.13476   0.00000   0.03470   0.03486   1.65526
   A14        2.73200  -0.07503   0.00000  -0.01980  -0.02010   2.71190
   A15        1.87669   0.14927   0.00000   0.03783   0.03783   1.91452
   A16        2.20555   0.04968   0.00000   0.01285   0.01285   2.21841
   A17        2.01310   0.08615   0.00000   0.02350   0.02350   2.03660
   A18        2.05877  -0.13589   0.00000  -0.03637  -0.03637   2.02240
   A19        2.18785  -0.22633   0.00000  -0.05853  -0.05852   2.12932
   A20        2.01116   0.11118   0.00000   0.02873   0.02874   2.03990
   A21        2.08114   0.11427   0.00000   0.02956   0.02956   2.11070
   A22        1.75389  -0.23644   0.00000  -0.06113  -0.06111   1.69278
   A23        2.14888   0.12212   0.00000   0.03165   0.03165   2.18053
   A24        2.37446   0.11476   0.00000   0.02964   0.02966   2.40412
   A25        1.73087   0.04703   0.00000   0.01399   0.01359   1.74447
   A26        1.36826   0.07159   0.00000   0.02059   0.02022   1.38847
   A27        1.60958   0.07271   0.00000   0.01972   0.01967   1.62926
   A28        1.92677   0.02534   0.00000   0.00689   0.00686   1.93363
   A29        1.91677  -0.00629   0.00000  -0.00138  -0.00151   1.91526
   A30        2.85616  -0.00804   0.00000  -0.00216  -0.00215   2.85401
   A31        1.66184   0.01209   0.00000  -0.00116  -0.00114   1.66069
   A32        1.27758  -0.01637   0.00000   0.00006   0.00005   1.27762
   A33        1.46958   0.51759   0.00000   0.13119   0.13119   1.60077
   A34        2.28013  -0.15638   0.00000  -0.04342  -0.04382   2.23632
   A35        1.45231   0.20596   0.00000   0.05853   0.05865   1.51096
   A36        1.95082   0.05911   0.00000   0.01593   0.01521   1.96603
   A37        1.74425  -0.02976   0.00000  -0.00752  -0.00671   1.73755
   A38        1.92136  -0.01356   0.00000  -0.00493  -0.00565   1.91571
   A39        2.04495  -0.00270   0.00000   0.00035  -0.00038   2.04457
   A40        1.53663  -0.00616   0.00000  -0.00276  -0.00259   1.53404
   A41        1.32731  -0.07151   0.00000  -0.01595  -0.01583   1.31148
   A42        2.34397   0.02066   0.00000   0.00746   0.00733   2.35130
   A43        2.46069   0.31442   0.00000   0.08478   0.08479   2.54549
   A44        2.38204   0.01306   0.00000   0.00331   0.00329   2.38534
   A45        1.42814   0.01372   0.00000   0.00332   0.00341   1.43155
[...]
    32  H    6.797935   7.125616   6.067754   6.064166   5.288828
    33  H    5.789661   6.639093   5.709609   6.087963   5.505317
    34  H    8.672801   9.562451   8.464219   8.605085   7.637877
                   11         12         13         14         15
    11  C    0.000000
    12  C    1.469737   0.000000
    13  C    4.593972   4.030983   0.000000
    14  C    4.948524   4.021254   1.325497   0.000000
    15  O    6.021625   4.907602   3.531119   2.386007   0.000000
    16  C    5.242363   4.145912   4.018752   3.059432   1.432153
    17  C    5.670145   4.480025   2.766202   1.440705   1.521055
    18  C    3.173616   1.747132   4.107911   3.528613   3.717314
    19  C    2.540384   1.367047   4.811629   4.451269   4.670995
    20  H    9.892611   9.348503  12.948499  12.362175  12.104603
    21  H    9.809101   9.179854  12.667196  12.041871  11.783365
    22  H    7.865654   7.485902  11.306505  10.845170  10.684824
    23  H    7.651197   7.406496  11.300882  10.878335  10.570303
    24  H    3.025641   2.572472   6.540826   6.301976   6.592987
    25  H    3.498484   4.283152   8.032204   8.208869   8.710716
    26  H    1.082024   2.228175   4.249428   4.883366   6.277112
    27  H    2.060672   1.101006   3.745402   3.779763   5.064026
    28  H    4.790053   4.365775   1.088017   2.161711   4.513931
    29  H    4.815863   4.488662   1.100668   2.097703   3.804620
    30  H    6.182958   4.972363   3.061976   1.889240   2.554414
    31  H    6.097731   5.051974   5.040065   4.078441   2.029279
    32  H    4.534556   3.667057   3.681405   3.054424   2.121187
    33  H    4.853518   3.579470   4.183165   3.173613   2.044310
    34  H    6.531997   5.451040   2.891934   1.746898   1.798004
                   16         17         18         19         20
    16  C    0.000000
    17  C    2.442328   0.000000
    18  C    2.888747   3.409995   0.000000
    19  C    3.652696   4.491211   1.130896   0.000000
    20  H   11.104497  11.860798   9.011104   8.469094   0.000000
    21  H   10.838322  11.497729   8.760744   8.293922   0.690272
    22  H    9.572059  10.511681   7.370750   6.647375   2.306089
    23  H    9.332972  10.589482   7.351056   6.508202   3.527516
    24  H    5.521280   6.353428   2.953760   1.958653   6.951616
    25  H    7.562364   8.630725   5.424667   4.314198   8.236490
    26  H    5.682517   5.841693   3.898200   3.474129  10.882807
    27  H    4.573179   4.307311   2.110031   2.144800   9.530037
    28  H    5.022129   3.528564   4.683917   5.327502  13.219767
    29  H    4.222747   3.442630   4.692776   5.272126  13.624607
    30  H    3.507333   1.115061   3.975706   5.081429  12.027052
    31  H    1.108924   3.329902   3.742735   4.376676  11.295826
    32  H    1.094897   2.953724   2.836553   3.372825  11.310003
    33  H    1.084830   2.446326   2.046690   2.914817  10.130063
    34  H    3.107415   1.124114   4.499682   5.553988  12.959861
                   21         22         23         24         25
    21  H    0.000000
    22  H    2.577239   0.000000
    23  H    3.892005   1.545494   0.000000
    24  H    6.869619   4.961275   4.847523   0.000000
    25  H    8.392203   5.962206   5.346796   3.055067   0.000000
    26  H   10.793160   8.870216   8.678807   4.082176   4.227472
    27  H    9.306400   7.812777   7.935517   3.140837   4.993772
    28  H   12.929284  11.609205  11.698672   6.882023   8.285832
    29  H   13.380410  11.879848  11.745970   7.011653   8.181788
    30  H   11.618594  10.812153  11.039700   6.815260   9.212093
    31  H   11.043311   9.815918   9.479144   6.109132   8.083633
    32  H   11.097038   9.606190   9.263327   5.247831   6.917689
    33  H    9.842021   8.655639   8.528307   4.723479   7.064028
    34  H   12.586111  11.632013  11.696122   7.441514   9.606554
                   26         27         28         29         30
    26  H    0.000000
    27  H    2.474313   0.000000
    28  H    4.291310   3.852817   0.000000
    29  H    4.368853   4.412497   1.802656   0.000000
    30  H    6.299766   4.560529   3.523217   3.926408   0.000000
    31  H    6.596194   5.575711   6.071688   5.134339   4.358332
    32  H    4.905505   4.242939   4.702641   3.686618   4.038875
    33  H    5.422911   3.938365   5.060027   4.612598   3.332845
    34  H    6.573908   5.253625   3.621961   3.406656   1.421829
                   31         32         33         34
    31  H    0.000000
    32  H    1.794434   0.000000
    33  H    1.843512   1.752673   0.000000
    34  H    3.823979   3.574946   3.390765   0.000000
 Stoichiometry    C16H15NO2
 Framework group  C1[X(C16H15NO2)]
 Deg. of freedom    96
 Full point group                 C1      NOp   1
 Largest Abelian subgroup         C1      NOp   1
 Largest concise Abelian subgroup C1      NOp   1
                         Standard orientation:                         
 ---------------------------------------------------------------------
 Center     Atomic      Atomic             Coordinates (Angstroms)
 Number     Number       Type             X           Y           Z
 ---------------------------------------------------------------------
      1          6           0       -5.668945   -1.994699    0.669884
      2          6           0       -4.383511   -1.879431   -0.247952
      3          6           0       -3.068329   -1.672462   -0.278351
      4          6           0       -4.827181   -0.475198   -0.385174
      5          6           0       -3.565658    0.241329    0.062547
      6          8           0       -2.762003   -0.632621    0.667704
      7          7           0       -3.101259    1.345914   -0.350233
      8          6           0       -1.801810    1.619455   -0.205350
      9          6           0       -1.214867    2.821176   -0.605705
     10          6           0        0.119192    3.008640   -0.320919
     11          6           0        1.364650    2.756525    0.088173
     12          6           0        1.494673    1.326847    0.403195
     13          6           0        5.468291    0.852016    0.886644
     14          6           0        5.099115   -0.416317    0.777178
     15          8           0        4.734159   -2.150737   -0.820202
     16          6           0        3.532391   -1.749041   -1.487627
     17          6           0        4.697853   -1.794890    0.658197
     18          6           0        1.617012   -0.404836    0.206272
     19          6           0        0.806577    0.291148   -0.164844
     20          1           0       -7.119097   -2.091491    1.633011
     21          1           0       -6.698938   -2.487299    2.011533
     22          1           0       -5.742820   -0.578498    0.567761
     23          1           0       -5.643777   -0.145438   -0.912511
     24          1           0       -1.028845    0.906229    0.133852
     25          1           0       -1.816734    3.583250   -1.109621
     26          1           0        2.154336    3.454026    0.334478
     27          1           0        1.792395    1.281601    1.462218
     28          1           0        5.627585    1.409061    1.807572
     29          1           0        5.968473    1.344117    0.038632
     30          1           0        4.907482   -2.038813    1.725867
     31          1           0        3.441994   -2.427307   -2.360265
     32          1           0        3.555332   -0.713202   -1.841619
     33          1           0        2.716601   -1.824003   -0.776484
     34          1           0        5.800859   -2.008347    0.620178
 ---------------------------------------------------------------------
 Rotational constants (GHZ):           0.5989569           0.1463697           0.1241939
 Standard basis: 6-31G(2df,p) (6D, 7F)
 There are   664 symmetry adapted cartesian basis functions of A   symmetry.
 There are   607 symmetry adapted basis functions of A   symmetry.
   607 basis functions,   941 primitive gaussians,   664 cartesian basis functions
    67 alpha electrons       67 beta electrons
       nuclear repulsion energy      1204.4271512234 Hartrees.
 NAtoms=   34 NActive=   34 NUniq=   34 SFac= 1.00D+00 NAtFMM=   60 NAOKFM=F Big=F
 Integral buffers will be    131072 words long.
 Raffenetti 2 integral format.
 Two-electron integral symmetry is turned on.
 One-electron integrals computed using PRISM.
 PrsmSu:  requested number of processors reduced to:  12 ShMem   1 Linda.
 NBasis=   607 RedAO= T EigKep=  1.92D-04  NBF=   607
 NBsUse=   607 1.00D-06 EigRej= -1.00D+00 NBFU=   607
 Initial guess from the checkpoint file:  "CdCdC1CCqdOrNdCCdCdCC2CCqOCrCdCdC12.chk"
 B after Tr=     0.000000    0.000000   -0.000000
         Rot=    0.999902   -0.007616   -0.000451   -0.011732 Ang=  -1.60 deg.
 ExpMin= 1.61D-01 ExpMax= 5.48D+03 ExpMxC= 8.25D+02 IAcc=2 IRadAn=         4 AccDes= 0.00D+00
 Harris functional with IExCor=  402 and IRadAn=       4 diagonalized for initial guess.
 HarFok:  IExCor=  402 AccDes= 0.00D+00 IRadAn=         4 IDoV= 1 UseB2=F ITyADJ=14
 ICtDFT=  3500011 ScaDFX=  1.000000  1.000000  1.000000  1.000000
 FoFCou: FMM=F IPFlag=           0 FMFlag=      100000 FMFlg1=           0
         NFxFlg=           0 DoJE=T BraDBF=F KetDBF=T FulRan=T
         wScrn=  0.000000 ICntrl=       500 IOpCl=  0 I1Cent=   200000004 NGrid=           0
         NMat0=    1 NMatS0=      1 NMatT0=    0 NMatD0=    1 NMtDS0=    0 NMtDT0=    0
 Petite list used in FoFCou.
 Requested convergence on RMS density matrix=1.00D-08 within 128 cycles.
 Requested convergence on MAX density matrix=1.00D-06.
 Requested convergence on             energy=1.00D-06.
 No special actions if energy rises.
 Integral accuracy reduced to 1.0D-05 until final iterations.
 EnCoef did     6 forward-backward iterations
 EnCoef did     2 forward-backward iterations
 EnCoef did    42 forward-backward iterations
 EnCoef did    98 forward-backward iterations
 Initial convergence to 1.0D-05 achieved.  Increase integral accuracy.
 SCF Done:  E(RB3LYP) =  -822.741886362     A.U. after   25 cycles
            NFock= 25  Conv=0.61D-08     -V/T= 2.0057
 PrsmSu:  requested number of processors reduced to:  13 ShMem   1 Linda.
 Calling FoFJK, ICntrl=      2127 FMM=F ISym2X=0 I1Cent= 0 IOpClX= 0 NMat=1 NMatS=1 NMatT=0.
 ***** Axes restored to original set *****
 -------------------------------------------------------------------
 Center     Atomic                   Forces (Hartrees/Bohr)
 Number     Number              X              Y              Z
 -------------------------------------------------------------------
      1        6           0.118923031    0.023876059   -0.082561129
      2        6          -0.130728212    0.004061435    0.050428751
      3        6           0.076047346   -0.048118089   -0.007621278
      4        6           0.041831550    0.001108378    0.050514886
      5        6          -0.029942288    0.031557620   -0.001251570
      6        8           0.001110407   -0.041381992   -0.006497720
      7        7          -0.017074478    0.032103173   -0.000949867
      8        6           0.033597876    0.014554039    0.002680498
      9        6          -0.003645040   -0.009453751    0.000261040
     10        6           0.009145829    0.011007589    0.009784616
     11        6          -0.011804833   -0.005006875   -0.026903747
     12        6          -0.003165871    0.064671286    0.034533079
     13        6           0.000195377   -0.035501249   -0.015843791
     14        6          -0.009286720    0.049170904    0.013609830
     15        8          -0.038681440   -0.005405359    0.021572696
     16        6          -0.002802112   -0.016858903   -0.014475622
     17        6           0.116837062    0.038022493   -0.024357443
     18        6           0.189522110   -0.269013336    0.071660635
     19        6          -0.195092246    0.203310875   -0.091101851
     20        1          -0.051216568    0.021271173    0.004471400
     21        1          -0.001070242   -0.035056142    0.047497184
     22        1          -0.010956261   -0.021766957    0.001393294
     23        1          -0.013008882    0.027000736   -0.052464497
     24        1          -0.022871316    0.000689966    0.001223800
     25        1           0.004709809   -0.002950695   -0.005570742
     26        1          -0.001944155    0.004680498    0.010927940
     27        1           0.011468519   -0.000969210   -0.001145219
     28        1          -0.008409400   -0.000697889    0.006290431
     29        1          -0.004171389   -0.000707777   -0.001069938
     30        1          -0.056511138   -0.028103721    0.000481454
     31        1          -0.001379057    0.005192027    0.007339813
     32        1           0.005477194    0.000747727    0.001103269
     33        1          -0.007215419   -0.002382683   -0.007986599
     34        1           0.012110958   -0.009651350    0.004026394
 -------------------------------------------------------------------
 Cartesian Forces:  Max     0.269013336 RMS     0.054811237

 GradGradGradGradGradGradGradGradGradGradGradGradGradGradGradGradGradGrad
 Berny optimization.
 Using GEDIIS/GDIIS optimizer.
 FormGI is forming the generalized inverse of G from B-inverse, IUseBI=4.
 Internal  Forces:  Max     1.019475661 RMS     0.164218088
 Search for a local minimum.
 Step number  13 out of a maximum of  154
 All quantities printed in internal units (Hartrees-Bohrs-Radians)
 Mixed Optimization -- RFO/linear search
 Update second derivatives using D2CorX and points   12   13
 DE= -1.49D-01 DEPred=-1.75D-01 R= 8.52D-01
 TightC=F SS=  1.41D+00  RLast= 3.66D+00 DXNew= 2.8541D+00 1.0988D+01
 Trust test= 8.52D-01 RLast= 3.66D+00 DXMaxT set to 2.85D+00
 ITU=  1  1  1  1  1 -1  0  0  1 -1  0  1  0
 Use linear search instead of GDIIS.
     Eigenvalues ---    0.00012   0.00226   0.00230   0.00230   0.00231
     Eigenvalues ---    0.00234   0.00262   0.00322   0.00419   0.00495
     Eigenvalues ---    0.00841   0.00961   0.01053   0.01343   0.01662
     Eigenvalues ---    0.01788   0.02156   0.02346   0.03063   0.03381
     Eigenvalues ---    0.03551   0.03693   0.03883   0.04068   0.04287
     Eigenvalues ---    0.04754   0.05043   0.05899   0.06464   0.06807
     Eigenvalues ---    0.07039   0.07416   0.07577   0.08092   0.08379
     Eigenvalues ---    0.08457   0.08567   0.08704   0.09052   0.09800
     Eigenvalues ---    0.10568   0.11114   0.11699   0.12370   0.12406
     Eigenvalues ---    0.13754   0.14187   0.14507   0.14991   0.15353
     Eigenvalues ---    0.15475   0.15883   0.15960   0.16004   0.16048
     Eigenvalues ---    0.16198   0.16898   0.18168   0.18497   0.18824
     Eigenvalues ---    0.19331   0.21761   0.23285   0.24496   0.24850
     Eigenvalues ---    0.25096   0.25766   0.26492   0.28722   0.28804
     Eigenvalues ---    0.30505   0.30778   0.32641   0.32842   0.33209
     Eigenvalues ---    0.34399   0.35138   0.38642   0.39198   0.39919
     Eigenvalues ---    0.43031   0.47342   0.49276   0.52646   0.57885
     Eigenvalues ---    0.63768   0.69735   0.75816   0.78446   0.81111
     Eigenvalues ---    0.84098   0.85536   1.68804   2.11068   5.90622
     Eigenvalues ---   39.30718
 RFO step:  Lambda=-2.36272400D-01 EMin= 1.15441583D-04
 Quartic linear search produced a step of  0.07161.
 Iteration  1 RMS(Cart)=  0.00403185 RMS(Int)=  0.05166249
 SLEqS3 Cycle:   116 Max:0.303727E-01 RMS: 1584.09     Conv:0.115782E-01
 Iteration  2 RMS(Cart)=  0.00347878 RMS(Int)=  0.05032375
 SLEqS3 Cycle:    20 Max:0.313682E-01 RMS: 1541.27     Conv:0.112723E-01
 Iteration  3 RMS(Cart)=  0.00361516 RMS(Int)=  0.04926342
 SLEqS3 Cycle:    25 Max:0.343357E-01 RMS: 1499.02     Conv:0.109641E-01
 Iteration  4 RMS(Cart)=  0.00319132 RMS(Int)=  0.04832670
 SLEqS3 Cycle:    24 Max:0.342423E-01 RMS: 1465.73     Conv:0.107211E-01
 Iteration  5 RMS(Cart)=  0.00301457 RMS(Int)=  0.04744094
 SLEqS3 Cycle:    20 Max:0.337283E-01 RMS: 1418.20     Conv:0.103739E-01
 Iteration  6 RMS(Cart)=  0.00297066 RMS(Int)=  0.04656669
 SLEqS3 Cycle:    20 Max:0.339003E-01 RMS: 1394.68     Conv:0.102024E-01
 Iteration  7 RMS(Cart)=  0.00273167 RMS(Int)=  0.04576189
 SLEqS3 Cycle:    26 Max:0.342401E-01 RMS: 1370.14     Conv:0.100233E-01
 Iteration  8 RMS(Cart)=  0.00249305 RMS(Int)=  0.04502700
 SLEqS3 Cycle:    26 Max:0.342137E-01 RMS: 1345.31     Conv:0.984204E-02
 Iteration  9 RMS(Cart)=  0.00236385 RMS(Int)=  0.04432947
 SLEqS3 Cycle:    22 Max:0.342599E-01 RMS: 1312.30     Conv:0.960084E-02
 Iteration 10 RMS(Cart)=  0.00221688 RMS(Int)=  0.04367452
 SLEqS3 Cycle:    25 Max:0.327352E-01 RMS: 1305.19     Conv:0.954913E-02
 Iteration 11 RMS(Cart)=  0.00263216 RMS(Int)=  0.04289682
 SLEqS3 Cycle:    30 Max:0.341974E-01 RMS: 1269.25     Conv:0.928654E-02
 Iteration 12 RMS(Cart)=  0.00200297 RMS(Int)=  0.04230392
 SLEqS3 Cycle:    26 Max:0.342054E-01 RMS: 1240.62     Conv:0.907730E-02
 Iteration 13 RMS(Cart)=  0.00189929 RMS(Int)=  0.04174183
 SLEqS3 Cycle:    26 Max:0.341813E-01 RMS: 1215.24     Conv:0.889180E-02
 Iteration 14 RMS(Cart)=  0.00181035 RMS(Int)=  0.04120649
 SLEqS3 Cycle:    24 Max:0.338952E-01 RMS: 1199.96     Conv:0.878014E-02
 Iteration 15 RMS(Cart)=  0.00180911 RMS(Int)=  0.04067205
 SLEqS3 Cycle:    23 Max:0.341356E-01 RMS: 1175.18     Conv:0.859904E-02
 Iteration 16 RMS(Cart)=  0.00165075 RMS(Int)=  0.04018466
 SLEqS3 Cycle:  1021 Max:0.128868E-01 RMS:0.201139E-02 Conv:0.846775E-02
 SLEqS3 Cycle:   105 Max:0.326298E-01 RMS: 1157.21     Conv:0.846775E-02
 Iteration 17 RMS(Cart)=  0.00127624 RMS(Int)=  0.03969219
 SLEqS3 Cycle:    20 Max:0.318607E-01 RMS: 1138.14     Conv:0.832961E-02
 Iteration 18 RMS(Cart)=  0.00158949 RMS(Int)=  0.03922528
 SLEqS3 Cycle:    23 Max:0.336272E-01 RMS: 1121.49     Conv:0.820786E-02
 Iteration 19 RMS(Cart)=  0.00155514 RMS(Int)=  0.03876873
 SLEqS3 Cycle:    21 Max:0.328613E-01 RMS: 1113.34     Conv:0.814838E-02
 Iteration 20 RMS(Cart)=  0.00141788 RMS(Int)=  0.03835284
 SLEqS3 Cycle:    21 Max:0.337508E-01 RMS: 1097.33     Conv:0.803133E-02
 Iteration 21 RMS(Cart)=  0.00139707 RMS(Int)=  0.03794342
 SLEqS3 Cycle:    19 Max:0.337171E-01 RMS: 1086.25     Conv:0.795029E-02
 Iteration 22 RMS(Cart)=  0.00134425 RMS(Int)=  0.03754976
 SLEqS3 Cycle:  1021 Max:0.133861E-01 RMS:0.201746E-02 Conv:0.787006E-02
 SLEqS3 Cycle:   105 Max:0.322528E-01 RMS: 1075.27     Conv:0.787006E-02
 Iteration 23 RMS(Cart)=  0.00089733 RMS(Int)=  0.03718909
 SLEqS3 Cycle:    20 Max:0.337249E-01 RMS: 1061.98     Conv:0.777359E-02
 Iteration 24 RMS(Cart)=  0.00126553 RMS(Int)=  0.03682019
 SLEqS3 Cycle:    20 Max:0.332924E-01 RMS: 1055.50     Conv:0.772624E-02
 Iteration 25 RMS(Cart)=  0.00119822 RMS(Int)=  0.03647118
 SLEqS3 Cycle:    18 Max:0.318740E-01 RMS: 1044.67     Conv:0.764709E-02
 Iteration 26 RMS(Cart)=  0.00117089 RMS(Int)=  0.03613038
 SLEqS3 Cycle:    20 Max:0.336251E-01 RMS: 1030.89     Conv:0.754628E-02
 Iteration 27 RMS(Cart)=  0.00113264 RMS(Int)=  0.03580095
 Iteration 28 RMS(Cart)=  0.00035382 RMS(Int)=  0.51933314
 SLEqS3 Cycle:  1021 Max:0.209389     RMS:0.483840E-01 Conv:0.286411E-06
 SLEqS3 Cycle:  1021 Max:0.352104E-01 RMS:0.552026E-02 Conv:0.286411E-06
 Iteration 29 RMS(Cart)=  0.00105261 RMS(Int)=  0.51924166
 SLEqS3 Cycle:  1021 Max:0.125611E-01 RMS:0.179347E-02 Conv:0.284837E-06
 SLEqS3 Cycle:  1021 Max:0.351860E-01 RMS:0.550290E-02 Conv:0.284837E-06
 Iteration 30 RMS(Cart)=  0.00102085 RMS(Int)=  0.51915288
 SLEqS3 Cycle:  1021 Max:0.351663E-01 RMS:0.550143E-02 Conv:0.283303E-06
 SLEqS3 Cycle:  1021 Max:0.351745E-01 RMS:0.550180E-02 Conv:0.283303E-06
 Iteration 31 RMS(Cart)=  0.00098868 RMS(Int)=  0.51906683
 SLEqS3 Cycle:  1021 Max:0.351630E-01 RMS:0.550198E-02 Conv:0.281811E-06
 SLEqS3 Cycle:  1021 Max:0.351937E-01 RMS:0.551353E-02 Conv:0.281811E-06
 Iteration 32 RMS(Cart)=  0.00095653 RMS(Int)=  0.51898351
slurmstepd: error: *** JOB 27449225 ON lewis4-r630-hpc4-node234 CANCELLED AT 2023-05-19T23:34:12 DUE TO TIME LIMIT ***
