### Starting Gaussian ###
 Entering Gaussian System, Link 0=g16
 Initial command:
 /cluster/software/gaussian/gaussian-16-A.03/avx2/g16/l1.exe "/local/scratch/linjian/Gau-11629.inp" -scrdir="/local/scratch/linjian/"
 Entering Link 1 = /cluster/software/gaussian/gaussian-16-A.03/avx2/g16/l1.exe PID=     11630.
  
 Copyright (c) 1988,1990,1992,1993,1995,1998,2003,2009,2016,
            Gaussian, Inc.  All Rights Reserved.
  
 This is part of the Gaussian(R) 16 program.  It is based on
 the Gaussian(R) 09 system (copyright 2009, Gaussian, Inc.),
 the Gaussian(R) 03 system (copyright 2003, Gaussian, Inc.),
 the Gaussian(R) 98 system (copyright 1998, Gaussian, Inc.),
 the Gaussian(R) 94 system (copyright 1995, Gaussian, Inc.),
 the Gaussian 92(TM) system (copyright 1992, Gaussian, Inc.),
 the Gaussian 90(TM) system (copyright 1990, Gaussian, Inc.),
 the Gaussian 88(TM) system (copyright 1988, Gaussian, Inc.),
 the Gaussian 86(TM) system (copyright 1986, Carnegie Mellon
 University), and the Gaussian 82(TM) system (copyright 1983,
 Carnegie Mellon University). Gaussian is a federally registered
 trademark of Gaussian, Inc.
  
 This software contains proprietary and confidential information,
 including trade secrets, belonging to Gaussian, Inc.
  
 This software is provided under written license and may be
 used, copied, transmitted, or stored only in accord with that
 written license.
  
 The following legend is applicable only to US Government
 contracts under FAR:
  
                    RESTRICTED RIGHTS LEGEND
  
 Use, reproduction and disclosure by the US Government is
 subject to restrictions as set forth in subparagraphs (a)
 and (c) of the Commercial Computer Software - Restricted
 Rights clause in FAR 52.227-19.
  
 Gaussian, Inc.
 340 Quinnipiac St., Bldg. 40, Wallingford CT 06492
  
  
 ---------------------------------------------------------------
 Warning -- This program may not be used in any manner that
 competes with the business of Gaussian, Inc. or will provide
 assistance to any competitor of Gaussian, Inc.  The licensee
 of this program is prohibited from giving any competitor of
 Gaussian, Inc. access to this program.  By using this program,
 the user acknowledges that Gaussian, Inc. is engaged in the
 business of creating and licensing software in the field of
 computational chemistry and represents and warrants to the
 licensee that it is not a competitor of Gaussian, Inc. and that
 it will not use this program in any manner prohibited above.
 ---------------------------------------------------------------
  

 Cite this work as:
 Gaussian 16, Revision A.03,
 M. J. Frisch, G. W. Trucks, H. B. Schlegel, G. E. Scuseria, 
 M. A. Robb, J. R. Cheeseman, G. Scalmani, V. Barone, 
 G. A. Petersson, H. Nakatsuji, X. Li, M. Caricato, A. V. Marenich, 
 J. Bloino, B. G. Janesko, R. Gomperts, B. Mennucci, H. P. Hratchian, 
 J. V. Ortiz, A. F. Izmaylov, J. L. Sonnenberg, D. Williams-Young, 
 F. Ding, F. Lipparini, F. Egidi, J. Goings, B. Peng, A. Petrone, 
 T. Henderson, D. Ranasinghe, V. G. Zakrzewski, J. Gao, N. Rega, 
 G. Zheng, W. Liang, M. Hada, M. Ehara, K. Toyota, R. Fukuda, 
 J. Hasegawa, M. Ishida, T. Nakajima, Y. Honda, O. Kitao, H. Nakai, 
 T. Vreven, K. Throssell, J. A. Montgomery, Jr., J. E. Peralta, 
 F. Ogliaro, M. J. Bearpark, J. J. Heyd, E. N. Brothers, K. N. Kudin, 
 V. N. Staroverov, T. A. Keith, R. Kobayashi, J. Normand, 
 K. Raghavachari, A. P. Rendell, J. C. Burant, S. S. Iyengar, 
 J. Tomasi, M. Cossi, J. M. Millam, M. Klene, C. Adamo, R. Cammi, 
 J. W. Ochterski, R. L. Martin, K. Morokuma, O. Farkas, 
 J. B. Foresman, and D. J. Fox, Gaussian, Inc., Wallingford CT, 2016.
 
 ******************************************
 Gaussian 16:  ES64L-G16RevA.03 25-Dec-2016
                16-May-2023 
 ******************************************
 %chk=CdCdCSCdCqC[SH]d[SH]OrSSSC.chk
 %NProcShared=20
 Will use up to   20 processors via shared memory.
 -----------------------------
 # opt freq b3lyp/6-31g(2df,p)
 -----------------------------
 1/18=20,19=15,26=3,38=1/1,3;
 2/9=110,12=2,17=6,18=5,40=1/2;
 3/5=1,6=6,7=104,11=2,25=1,30=1,71=1,74=-5/1,2,3;
 4//1;
 5/5=2,38=5/2;
 6/7=2,8=2,9=2,10=2,28=1/1;
 7//1,2,3,16;
 1/18=20,19=15,26=3/3(2);
 2/9=110/2;
 99//99;
 2/9=110/2;
 3/5=1,6=6,7=104,11=2,25=1,30=1,71=1,74=-5/1,2,3;
 4/5=5,16=3,69=1/1;
 5/5=2,38=5/2;
 7//1,2,3,16;
 1/18=20,19=15,26=3/3(-5);
 2/9=110/2;
 6/7=2,8=2,9=2,10=2,19=2,28=1/1;
 99/9=1/99;
 -------------------
 Title Card Required
 -------------------
 Symbolic Z-matrix:
 Charge =  0 Multiplicity = 1
 C                     1.08601   0.03255   0.023 
 C                     2.39338  -0.08348   0.06489 
 C                     3.69549  -0.16283   0.09295 
 S                     4.52907   1.22966  -0.39198 
 C                     6.27062   1.15349  -0.39682 
 C                     7.08642   2.19798  -0.78848 
 C                     6.67173   3.60711  -1.31394 
 S                     4.88223   3.83286  -1.53257 
 S                     4.37818   5.54765  -1.88437 
 O                     2.78499   5.27354  -1.95484 
 S                     8.87899   1.87384  -0.66963 
 S                     9.91797   3.58446  -1.31293 
 S                     11.95301   3.13787  -1.14545 
 C                     12.8709   4.6316   -1.70793 
 H                     0.52726  -0.16107  -0.88761 
 H                     0.51312   0.30471   0.90337 
 H                     4.19227  -1.0591    0.42796 
 H                     6.7123    0.2208   -0.055 
 H                     7.10009   3.75493  -2.31044 
 H                     7.04552   4.37889  -0.63288 
 H                     4.48248   3.64835  -0.28591 
 H                     4.6375    5.52153  -3.17322 
 H                     2.39664   5.04347  -1.07429 
 H                     13.95263   4.44277  -1.637 
 H                     12.65999   5.49906  -1.07589 
 H                     12.65978   4.8674   -2.75497 
 

 GradGradGradGradGradGradGradGradGradGradGradGradGradGradGradGradGradGrad
 Berny optimization.
 Initialization pass.
                           ----------------------------
                           !    Initial Parameters    !
                           ! (Angstroms and Degrees)  !
 --------------------------                            --------------------------
 ! Name  Definition              Value          Derivative Info.                !
 --------------------------------------------------------------------------------
 ! R1    R(1,2)                  1.3132         estimate D2E/DX2                !
 ! R2    R(1,15)                 1.0858         estimate D2E/DX2                !
 ! R3    R(1,16)                 1.085          estimate D2E/DX2                !
 ! R4    R(2,3)                  1.3048         estimate D2E/DX2                !
 ! R5    R(3,4)                  1.6938         estimate D2E/DX2                !
 ! R6    R(3,17)                 1.0781         estimate D2E/DX2                !
 ! R7    R(4,5)                  1.7432         estimate D2E/DX2                !
 ! R8    R(5,6)                  1.382          estimate D2E/DX2                !
 ! R9    R(5,18)                 1.0871         estimate D2E/DX2                !
 ! R10   R(6,7)                  1.56           estimate D2E/DX2                !
 ! R11   R(6,11)                 1.8255         estimate D2E/DX2                !
 ! R12   R(7,8)                  1.8169         estimate D2E/DX2                !
 ! R13   R(7,19)                 1.0947         estimate D2E/DX2                !
 ! R14   R(7,20)                 1.0951         estimate D2E/DX2                !
 ! R15   R(8,9)                  1.8216         estimate D2E/DX2                !
 ! R16   R(8,21)                 1.3221         estimate D2E/DX2                !
 ! R17   R(9,10)                 1.6181         estimate D2E/DX2                !
 ! R18   R(9,22)                 1.3149         estimate D2E/DX2                !
 ! R19   R(10,23)                0.9895         estimate D2E/DX2                !
 ! R20   R(11,12)                2.1023         estimate D2E/DX2                !
 ! R21   R(12,13)                2.0902         estimate D2E/DX2                !
 ! R22   R(13,14)                1.8412         estimate D2E/DX2                !
 ! R23   R(14,24)                1.1004         estimate D2E/DX2                !
 ! R24   R(14,25)                1.0938         estimate D2E/DX2                !
 ! R25   R(14,26)                1.0938         estimate D2E/DX2                !
 ! A1    A(2,1,15)             121.556          estimate D2E/DX2                !
 ! A2    A(2,1,16)             121.462          estimate D2E/DX2                !
 ! A3    A(15,1,16)            116.9681         estimate D2E/DX2                !
 ! A4    A(2,3,4)              115.7823         estimate D2E/DX2                !
 ! A5    A(2,3,17)             121.1357         estimate D2E/DX2                !
 ! A6    A(4,3,17)             123.068          estimate D2E/DX2                !
 ! A7    A(3,4,5)              117.1634         estimate D2E/DX2                !
 ! A8    A(4,5,6)              123.8835         estimate D2E/DX2                !
 ! A9    A(4,5,18)             116.2641         estimate D2E/DX2                !
 ! A10   A(6,5,18)             119.848          estimate D2E/DX2                !
 ! A11   A(5,6,7)              128.4052         estimate D2E/DX2                !
 ! A12   A(5,6,11)             115.2778         estimate D2E/DX2                !
 ! A13   A(7,6,11)             116.317          estimate D2E/DX2                !
 ! A14   A(6,7,8)              114.4926         estimate D2E/DX2                !
 ! A15   A(6,7,19)             108.9392         estimate D2E/DX2                !
 ! A16   A(6,7,20)             109.6565         estimate D2E/DX2                !
 ! A17   A(8,7,19)             105.0161         estimate D2E/DX2                !
 ! A18   A(8,7,20)             108.8723         estimate D2E/DX2                !
 ! A19   A(19,7,20)            109.7189         estimate D2E/DX2                !
 ! A20   A(7,8,9)              114.3768         estimate D2E/DX2                !
 ! A21   A(7,8,21)              99.6131         estimate D2E/DX2                !
 ! A22   A(9,8,21)             103.2859         estimate D2E/DX2                !
 ! A23   A(8,9,10)              96.972          estimate D2E/DX2                !
 ! A24   A(8,9,22)              96.6627         estimate D2E/DX2                !
 ! A25   A(10,9,22)             98.518          estimate D2E/DX2                !
 ! A26   A(9,10,23)            112.7712         estimate D2E/DX2                !
 ! A27   A(6,11,12)            108.7171         estimate D2E/DX2                !
 ! A28   A(11,12,13)           106.4276         estimate D2E/DX2                !
 ! A29   A(12,13,14)           106.7115         estimate D2E/DX2                !
 ! A30   A(13,14,24)           109.3394         estimate D2E/DX2                !
 ! A31   A(13,14,25)           111.7609         estimate D2E/DX2                !
 ! A32   A(13,14,26)           111.7829         estimate D2E/DX2                !
 ! A33   A(24,14,25)           106.762          estimate D2E/DX2                !
 ! A34   A(24,14,26)           106.7643         estimate D2E/DX2                !
 ! A35   A(25,14,26)           110.1777         estimate D2E/DX2                !
 ! A36   L(1,2,3,9,-1)         178.3084         estimate D2E/DX2                !
 ! A37   L(1,2,3,9,-2)         180.0476         estimate D2E/DX2                !
 ! D1    D(15,1,3,4)            85.5245         estimate D2E/DX2                !
 ! D2    D(15,1,3,17)          -95.7869         estimate D2E/DX2                !
 ! D3    D(16,1,3,4)           -94.8468         estimate D2E/DX2                !
 ! D4    D(16,1,3,17)           83.8419         estimate D2E/DX2                !
 ! D5    D(2,3,4,5)           -178.886          estimate D2E/DX2                !
 ! D6    D(17,3,4,5)             2.4651         estimate D2E/DX2                !
 ! D7    D(3,4,5,6)            178.8373         estimate D2E/DX2                !
 ! D8    D(3,4,5,18)            -1.9247         estimate D2E/DX2                !
 ! D9    D(4,5,6,7)             -1.1097         estimate D2E/DX2                !
 ! D10   D(4,5,6,11)           178.8493         estimate D2E/DX2                !
 ! D11   D(18,5,6,7)           179.6782         estimate D2E/DX2                !
 ! D12   D(18,5,6,11)           -0.3629         estimate D2E/DX2                !
 ! D13   D(5,6,7,8)             -4.4774         estimate D2E/DX2                !
 ! D14   D(5,6,7,19)          -121.6925         estimate D2E/DX2                !
 ! D15   D(5,6,7,20)           118.2176         estimate D2E/DX2                !
 ! D16   D(11,6,7,8)           175.564          estimate D2E/DX2                !
 ! D17   D(11,6,7,19)           58.3489         estimate D2E/DX2                !
 ! D18   D(11,6,7,20)          -61.741          estimate D2E/DX2                !
 ! D19   D(5,6,11,12)          179.9394         estimate D2E/DX2                !
 ! D20   D(7,6,11,12)           -0.0965         estimate D2E/DX2                !
 ! D21   D(6,7,8,9)            170.6097         estimate D2E/DX2                !
 ! D22   D(6,7,8,21)            61.1804         estimate D2E/DX2                !
 ! D23   D(19,7,8,9)           -69.9527         estimate D2E/DX2                !
 ! D24   D(19,7,8,21)         -179.3819         estimate D2E/DX2                !
 ! D25   D(20,7,8,9)            47.4911         estimate D2E/DX2                !
 ! D26   D(20,7,8,21)          -61.9381         estimate D2E/DX2                !
 ! D27   D(7,8,9,10)          -178.5778         estimate D2E/DX2                !
 ! D28   D(7,8,9,22)            81.9527         estimate D2E/DX2                !
 ! D29   D(21,8,9,10)          -71.3976         estimate D2E/DX2                !
 ! D30   D(21,8,9,22)         -170.8671         estimate D2E/DX2                !
 ! D31   D(8,9,10,23)           68.9245         estimate D2E/DX2                !
 ! D32   D(22,9,10,23)         166.7704         estimate D2E/DX2                !
 ! D33   D(6,11,12,13)         179.918          estimate D2E/DX2                !
 ! D34   D(11,12,13,14)        179.9774         estimate D2E/DX2                !
 ! D35   D(12,13,14,24)        179.9907         estimate D2E/DX2                !
 ! D36   D(12,13,14,25)         62.0087         estimate D2E/DX2                !
 ! D37   D(12,13,14,26)        -62.0112         estimate D2E/DX2                !
 --------------------------------------------------------------------------------
 Trust Radius=3.00D-01 FncErr=1.00D-07 GrdErr=1.00D-06 EigMax=2.50D+02 EigMin=1.00D-04
 Number of steps in this run=    109 maximum allowed number of steps=    156.
 GradGradGradGradGradGradGradGradGradGradGradGradGradGradGradGradGradGrad

                          Input orientation:                          
 ---------------------------------------------------------------------
 Center     Atomic      Atomic             Coordinates (Angstroms)
 Number     Number       Type             X           Y           Z
 ---------------------------------------------------------------------
      1          6           0        1.086010    0.032550    0.023000
      2          6           0        2.393380   -0.083480    0.064890
      3          6           0        3.695490   -0.162830    0.092950
      4         16           0        4.529070    1.229660   -0.391980
      5          6           0        6.270620    1.153490   -0.396820
      6          6           0        7.086420    2.197980   -0.788480
      7          6           0        6.671730    3.607110   -1.313940
      8         16           0        4.882230    3.832860   -1.532570
      9         16           0        4.378180    5.547650   -1.884370
     10          8           0        2.784990    5.273540   -1.954840
     11         16           0        8.878990    1.873840   -0.669630
     12         16           0        9.917970    3.584460   -1.312930
     13         16           0       11.953010    3.137870   -1.145450
     14          6           0       12.870900    4.631600   -1.707930
     15          1           0        0.527260   -0.161070   -0.887610
     16          1           0        0.513120    0.304710    0.903370
     17          1           0        4.192270   -1.059100    0.427960
     18          1           0        6.712300    0.220800   -0.055000
     19          1           0        7.100090    3.754930   -2.310440
     20          1           0        7.045520    4.378890   -0.632880
     21          1           0        4.482480    3.648350   -0.285910
     22          1           0        4.637500    5.521530   -3.173220
     23          1           0        2.396640    5.043470   -1.074290
     24          1           0       13.952630    4.442770   -1.637000
     25          1           0       12.659990    5.499060   -1.075890
     26          1           0       12.659780    4.867400   -2.754970
 ---------------------------------------------------------------------
                    Distance matrix (angstroms):
                    1          2          3          4          5
     1  C    0.000000
     2  C    1.313177   0.000000
     3  C    2.617719   1.304827   0.000000
     4  S    3.668779   2.548380   1.693824   0.000000
     5  C    5.320990   4.095883   2.933235   1.743222   0.000000
     6  C    6.430592   5.287525   4.224778   2.763131   1.381986
     7  C    6.764995   5.816004   5.004977   3.330656   2.649953
     8  S    5.592266   4.907542   4.473947   2.863969   3.224373
     9  S    6.700207   6.280818   6.081566   4.571109   5.010267
    10  O    5.853748   5.738496   5.880185   4.673041   5.617104
    11  S    8.037451   6.814232   5.621230   4.406116   2.719729
    12  S    9.612715   8.483609   7.398509   5.952602   4.477950
    13  S   11.362217  10.160145   8.978580   7.702199   6.065292
    14  C   12.768360  11.625545  10.507991   9.104452   7.574956
    15  H    1.085772   2.096588   3.316502   4.265473   5.912286
    16  H    1.085046   2.095022   3.317055   4.319875   5.963198
    17  H    3.317310   2.078379   1.078110   2.454416   3.145688
    18  H    5.629979   4.331285   3.044701   2.428548   1.087121
    19  H    7.447833   6.521403   5.719828   4.082600   3.334284
    20  H    7.405175   6.483983   5.690057   4.038342   3.325568
    21  H    4.970457   4.291148   3.909985   2.421463   3.071493
    22  H    7.277211   6.851100   6.623232   5.115389   5.427269
    23  H    5.294442   5.251986   5.491359   4.422437   5.531603
    24  H   13.702392  12.529949  11.375992  10.033824   8.448117
    25  H   12.847074  11.741781  10.667026   9.209092   7.756878
    26  H   12.846986  11.741456  10.666413   9.215493   7.757278
                    6          7          8          9         10
     6  C    0.000000
     7  C    1.560040   0.000000
     8  S    2.843406   1.816885   0.000000
     9  S    4.444753   3.058015   1.821630   0.000000
    10  O    5.414958   4.277206   2.579203   1.618134   0.000000
    11  S    1.825513   2.879472   4.533929   5.935467   7.095531
    12  S    3.196099   3.246319   5.046645   5.905077   7.358291
    13  S    4.969358   5.304761   7.115392   7.983176   9.448216
    14  C    6.342563   6.295595   8.030416   8.543803  10.109334
    15  H    6.971192   7.220488   5.944175   6.957916   5.980912
    16  H    7.046638   7.331493   6.121337   7.085097   6.166038
    17  H    4.523760   5.563763   5.315167   7.002184   6.910897
    18  H    2.141775   3.612986   4.310377   6.096724   6.675578
    19  H    2.177302   1.094694   2.351607   3.286970   4.588324
    20  H    2.186836   1.095083   2.405705   3.169689   4.549735
    21  H    3.022690   2.418959   1.322121   2.484611   2.882367
    22  H    4.767618   3.355595   2.367115   1.314939   2.231085
    23  H    5.492953   4.516299   2.802455   2.199302   0.989503
    24  H    7.273507   7.335816   9.091482   9.641164  11.203008
    25  H    6.484167   6.284537   7.967329   8.321321   9.916604
    26  H    6.485000   6.286624   7.940706   8.354974   9.915475
                   11         12         13         14         15
    11  S    0.000000
    12  S    2.102269   0.000000
    13  S    3.357644   2.090187   0.000000
    14  C    4.961719   3.157898   1.841232   0.000000
    15  H    8.598824  10.119058  11.895262  13.266803   0.000000
    16  H    8.655881  10.203918  11.962255  13.351239   1.850611
    17  H    5.636682   7.574760   8.962101  10.595504   3.996183
    18  H    2.793717   4.813826   6.096181   7.753431   6.252502
    19  H    3.065166   2.994083   5.028797   5.868033   7.782133
    20  H    3.104551   3.056887   5.087860   5.929135   7.947568
    21  H    4.756619   5.532034   7.537123   8.564725   5.524264
    22  H    6.128935   5.924212   7.956782   8.409990   7.376315
    23  H    7.227113   7.665250   9.744772  10.501488   5.533233
    24  H    5.768625   4.137656   2.437799   1.100376  14.212582
    25  H    5.253877   3.352694   2.465741   1.093821  13.389386
    26  H    5.253991   3.353049   2.466040   1.093831  13.265391
                   16         17         18         19         20
    16  H    0.000000
    17  H    3.952485   0.000000
    18  H    6.273384   2.867394   0.000000
    19  H    8.100665   6.255329   4.210400   0.000000
    20  H    7.850558   6.232026   4.211258   1.790673   0.000000
    21  H    5.324484   4.770107   4.095548   3.310886   2.687611
    22  H    7.800276   7.514747   6.490441   3.151129   3.682053
    23  H    5.469427   6.536238   6.551490   5.030988   4.716842
    24  H   14.289767  11.392948   8.529369   6.919823   6.980008
    25  H   13.358338  10.815420   8.017310   5.956391   5.742239
    26  H   13.481207  10.814489   8.015812   5.687297   6.021779
                   21         22         23         24         25
    21  H    0.000000
    22  H    3.445199   0.000000
    23  H    2.630329   3.107330   0.000000
    24  H    9.598973   9.502386  11.585266   0.000000
    25  H    8.421453   8.292144  10.273457   1.761111   0.000000
    26  H    8.628475   8.059764  10.401333   1.761144   1.793963
                   26
    26  H    0.000000
 Stoichiometry    C7H12OS6
 Framework group  C1[X(C7H12OS6)]
 Deg. of freedom    72
 Full point group                 C1      NOp   1
 Largest Abelian subgroup         C1      NOp   1
 Largest concise Abelian subgroup C1      NOp   1
                         Standard orientation:                         
 ---------------------------------------------------------------------
 Center     Atomic      Atomic             Coordinates (Angstroms)
 Number     Number       Type             X           Y           Z
 ---------------------------------------------------------------------
      1          6           0        6.056541   -1.891924    0.016895
      2          6           0        4.798040   -2.266872    0.011984
      3          6           0        3.537084   -2.602346    0.007376
      4         16           0        2.433146   -1.318050   -0.023337
      5          6           0        0.738203   -1.724807   -0.000120
      6          6           0       -0.278749   -0.789025    0.002195
      7          6           0       -0.164101    0.766780    0.009256
      8         16           0        1.534912    1.396254    0.144131
      9         16           0        1.694355    3.191986   -0.117135
     10          8           0        3.301703    3.272964    0.050889
     11         16           0       -1.970105   -1.475875   -0.005026
     12         16           0       -3.344317    0.115046    0.001818
     13         16           0       -5.247925   -0.748103   -0.009714
     14          6           0       -6.458393    0.639289   -0.003086
     15          1           0        6.574715   -1.653186    0.940691
     16          1           0        6.632093   -1.828307   -0.900721
     17          1           0        3.235641   -3.637438    0.001111
     18          1           0        0.497878   -2.785032    0.000075
     19          1           0       -0.682060    1.157214    0.891093
     20          1           0       -0.621698    1.173987   -0.898485
     21          1           0        2.049273    0.881748   -0.959826
     22          1           0        1.352808    3.554151    1.099929
     23          1           0        3.787014    2.838316   -0.693873
     24          1           0       -7.480325    0.231311   -0.009047
     25          1           0       -6.363219    1.264756   -0.895374
     26          1           0       -6.368562    1.252049    0.898536
 ---------------------------------------------------------------------
 Rotational constants (GHZ):           0.5018601           0.1429519           0.1116902
 Standard basis: 6-31G(2df,p) (6D, 7F)
 There are   518 symmetry adapted cartesian basis functions of A   symmetry.
 There are   476 symmetry adapted basis functions of A   symmetry.
   476 basis functions,   844 primitive gaussians,   518 cartesian basis functions
    79 alpha electrons       79 beta electrons
       nuclear repulsion energy      1570.7801134787 Hartrees.
 NAtoms=   26 NActive=   26 NUniq=   26 SFac= 1.00D+00 NAtFMM=   60 NAOKFM=F Big=F
 Integral buffers will be    131072 words long.
 Raffenetti 2 integral format.
 Two-electron integral symmetry is turned on.
 One-electron integrals computed using PRISM.
 PrsmSu:  requested number of processors reduced to:  12 ShMem   1 Linda.
 NBasis=   476 RedAO= T EigKep=  4.25D-04  NBF=   476
 NBsUse=   476 1.00D-06 EigRej= -1.00D+00 NBFU=   476
 ExpMin= 1.17D-01 ExpMax= 2.19D+04 ExpMxC= 3.30D+03 IAcc=3 IRadAn=         5 AccDes= 0.00D+00
 Harris functional with IExCor=  402 and IRadAn=       5 diagonalized for initial guess.
 HarFok:  IExCor=  402 AccDes= 0.00D+00 IRadAn=         5 IDoV= 1 UseB2=F ITyADJ=14
 ICtDFT=  3500011 ScaDFX=  1.000000  1.000000  1.000000  1.000000
 FoFCou: FMM=F IPFlag=           0 FMFlag=      100000 FMFlg1=           0
         NFxFlg=           0 DoJE=T BraDBF=F KetDBF=T FulRan=T
         wScrn=  0.000000 ICntrl=       500 IOpCl=  0 I1Cent=   200000004 NGrid=           0
         NMat0=    1 NMatS0=      1 NMatT0=    0 NMatD0=    1 NMtDS0=    0 NMtDT0=    0
 Petite list used in FoFCou.
 Requested convergence on RMS density matrix=1.00D-08 within 128 cycles.
 Requested convergence on MAX density matrix=1.00D-06.
 Requested convergence on             energy=1.00D-06.
 No special actions if energy rises.
 Integral accuracy reduced to 1.0D-05 until final iterations.
 EnCoef did     9 forward-backward iterations
 EnCoef did     8 forward-backward iterations
 Initial convergence to 1.0D-05 achieved.  Increase integral accuracy.
 SCF Done:  E(RB3LYP) =  -2737.95068550     A.U. after   22 cycles
            NFock= 22  Conv=0.54D-08     -V/T= 2.0032

 **********************************************************************

            Population analysis using the SCF density.

 **********************************************************************

 Orbital symmetries:
       Occupied  (A) (A) (A) (A) (A) (A) (A) (A) (A) (A) (A) (A)
                 (A) (A) (A) (A) (A) (A) (A) (A) (A) (A) (A) (A)
                 (A) (A) (A) (A) (A) (A) (A) (A) (A) (A) (A) (A)
                 (A) (A) (A) (A) (A) (A) (A) (A) (A) (A) (A) (A)
                 (A) (A) (A) (A) (A) (A) (A) (A) (A) (A) (A) (A)
                 (A) (A) (A) (A) (A) (A) (A) (A) (A) (A) (A) (A)
                 (A) (A) (A) (A) (A) (A) (A)
       Virtual   (A) (A) (A) (A) (A) (A) (A) (A) (A) (A) (A) (A)
                 (A) (A) (A) (A) (A) (A) (A) (A) (A) (A) (A) (A)
                 (A) (A) (A) (A) (A) (A) (A) (A) (A) (A) (A) (A)
                 (A) (A) (A) (A) (A) (A) (A) (A) (A) (A) (A) (A)
                 (A) (A) (A) (A) (A) (A) (A) (A) (A) (A) (A) (A)
                 (A) (A) (A) (A) (A) (A) (A) (A) (A) (A) (A) (A)
                 (A) (A) (A) (A) (A) (A) (A) (A) (A) (A) (A) (A)
                 (A) (A) (A) (A) (A) (A) (A) (A) (A) (A) (A) (A)
                 (A) (A) (A) (A) (A) (A) (A) (A) (A) (A) (A) (A)
                 (A) (A) (A) (A) (A) (A) (A) (A) (A) (A) (A) (A)
                 (A) (A) (A) (A) (A) (A) (A) (A) (A) (A) (A) (A)
                 (A) (A) (A) (A) (A) (A) (A) (A) (A) (A) (A) (A)
                 (A) (A) (A) (A) (A) (A) (A) (A) (A) (A) (A) (A)
                 (A) (A) (A) (A) (A) (A) (A) (A) (A) (A) (A) (A)
                 (A) (A) (A) (A) (A) (A) (A) (A) (A) (A) (A) (A)
                 (A) (A) (A) (A) (A) (A) (A) (A) (A) (A) (A) (A)
                 (A) (A) (A) (A) (A) (A) (A) (A) (A) (A) (A) (A)
                 (A) (A) (A) (A) (A) (A) (A) (A) (A) (A) (A) (A)
                 (A) (A) (A) (A) (A) (A) (A) (A) (A) (A) (A) (A)
                 (A) (A) (A) (A) (A) (A) (A) (A) (A) (A) (A) (A)
                 (A) (A) (A) (A) (A) (A) (A) (A) (A) (A) (A) (A)
                 (A) (A) (A) (A) (A) (A) (A) (A) (A) (A) (A) (A)
                 (A) (A) (A) (A) (A) (A) (A) (A) (A) (A) (A) (A)
                 (A) (A) (A) (A) (A) (A) (A) (A) (A) (A) (A) (A)
                 (A) (A) (A) (A) (A) (A) (A) (A) (A) (A) (A) (A)
                 (A) (A) (A) (A) (A) (A) (A) (A) (A) (A) (A) (A)
                 (A) (A) (A) (A) (A) (A) (A) (A) (A) (A) (A) (A)
                 (A) (A) (A) (A) (A) (A) (A) (A) (A) (A) (A) (A)
                 (A) (A) (A) (A) (A) (A) (A) (A) (A) (A) (A) (A)
                 (A) (A) (A) (A) (A) (A) (A) (A) (A) (A) (A) (A)
                 (A) (A) (A) (A) (A) (A) (A) (A) (A) (A) (A) (A)
                 (A) (A) (A) (A) (A) (A) (A) (A) (A) (A) (A) (A)
                 (A) (A) (A) (A) (A) (A) (A) (A) (A) (A) (A) (A)
                 (A)
 The electronic state is 1-A.
 Alpha  occ. eigenvalues --  -88.96531 -88.95151 -88.89927 -88.89843 -88.89232
 Alpha  occ. eigenvalues --  -88.88816 -19.12062 -10.25015 -10.23028 -10.22934
 Alpha  occ. eigenvalues --  -10.22692 -10.21578 -10.20905 -10.20606  -8.01614
 Alpha  occ. eigenvalues --   -8.01209  -7.96328  -7.96099  -7.95686  -7.95152
 Alpha  occ. eigenvalues --   -5.98027  -5.97730  -5.97539  -5.97504  -5.97289
 Alpha  occ. eigenvalues --   -5.97035  -5.92792  -5.92609  -5.92359  -5.92268
 Alpha  occ. eigenvalues --   -5.92207  -5.91930  -5.91884  -5.91711  -5.91557
 Alpha  occ. eigenvalues --   -5.91304  -5.91021  -5.90537  -1.03414  -0.88644
 Alpha  occ. eigenvalues --   -0.85390  -0.82704  -0.80241  -0.77134  -0.74985
 Alpha  occ. eigenvalues --   -0.73126  -0.70105  -0.66893  -0.64696  -0.59035
 Alpha  occ. eigenvalues --   -0.55100  -0.53338  -0.52452  -0.50740  -0.48954
 Alpha  occ. eigenvalues --   -0.47888  -0.46728  -0.45196  -0.45112  -0.44184
 Alpha  occ. eigenvalues --   -0.43657  -0.43434  -0.41177  -0.40038  -0.39577
 Alpha  occ. eigenvalues --   -0.37250  -0.36153  -0.34498  -0.33071  -0.32363
 Alpha  occ. eigenvalues --   -0.31032  -0.29834  -0.28839  -0.28056  -0.27029
 Alpha  occ. eigenvalues --   -0.25149  -0.20613  -0.17118  -0.10170
 Alpha virt. eigenvalues --   -0.06844  -0.03052  -0.02003  -0.01580  -0.00296
 Alpha virt. eigenvalues --    0.00084   0.00978   0.02499   0.04031   0.04593
 Alpha virt. eigenvalues --    0.07537   0.08936   0.09148   0.10307   0.11132
 Alpha virt. eigenvalues --    0.11879   0.12446   0.13090   0.13675   0.14353
 Alpha virt. eigenvalues --    0.14929   0.16681   0.19790   0.20173   0.21124
 Alpha virt. eigenvalues --    0.21476   0.22089   0.22784   0.24184   0.24709
 Alpha virt. eigenvalues --    0.25911   0.27162   0.27976   0.28257   0.28524
 Alpha virt. eigenvalues --    0.29808   0.30935   0.31381   0.31605   0.32220
 Alpha virt. eigenvalues --    0.32498   0.33507   0.33977   0.34290   0.35069
 Alpha virt. eigenvalues --    0.36538   0.37830   0.38911   0.39220   0.39823
 Alpha virt. eigenvalues --    0.40404   0.41110   0.41601   0.41818   0.42511
 Alpha virt. eigenvalues --    0.43008   0.44561   0.44852   0.45279   0.45873
 Alpha virt. eigenvalues --    0.48199   0.49455   0.50933   0.51950   0.52714
 Alpha virt. eigenvalues --    0.53268   0.53988   0.55726   0.56314   0.56451
 Alpha virt. eigenvalues --    0.57132   0.58424   0.58963   0.59308   0.60528
 Alpha virt. eigenvalues --    0.61631   0.61849   0.62655   0.62709   0.63239
 Alpha virt. eigenvalues --    0.64248   0.64751   0.65700   0.66198   0.66677
 Alpha virt. eigenvalues --    0.68010   0.68479   0.69322   0.70128   0.71085
 Alpha virt. eigenvalues --    0.71764   0.72156   0.72697   0.73215   0.73425
 Alpha virt. eigenvalues --    0.74491   0.75972   0.78715   0.79238   0.79536
 Alpha virt. eigenvalues --    0.79843   0.80072   0.80515   0.81951   0.83601
 Alpha virt. eigenvalues --    0.84668   0.86266   0.87357   0.87892   0.88477
 Alpha virt. eigenvalues --    0.88826   0.90244   0.91351   0.91994   0.93102
 Alpha virt. eigenvalues --    0.93776   0.94226   0.94410   0.96013   0.96937
 Alpha virt. eigenvalues --    0.98941   1.00430   1.02331   1.04308   1.05126
 Alpha virt. eigenvalues --    1.05405   1.07781   1.09269   1.10511   1.11975
 Alpha virt. eigenvalues --    1.13418   1.14960   1.15166   1.16326   1.17748
 Alpha virt. eigenvalues --    1.18696   1.22740   1.23003   1.23664   1.24487
 Alpha virt. eigenvalues --    1.27048   1.29368   1.30688   1.33828   1.35113
 Alpha virt. eigenvalues --    1.36821   1.37795   1.40037   1.40994   1.41943
 Alpha virt. eigenvalues --    1.42875   1.46408   1.46577   1.47830   1.48469
 Alpha virt. eigenvalues --    1.48857   1.50654   1.50808   1.53130   1.54349
 Alpha virt. eigenvalues --    1.54652   1.55764   1.56384   1.57584   1.58982
 Alpha virt. eigenvalues --    1.60527   1.61785   1.61899   1.63879   1.64697
 Alpha virt. eigenvalues --    1.65930   1.67185   1.68462   1.69478   1.69568
 Alpha virt. eigenvalues --    1.71407   1.73413   1.73911   1.75035   1.75542
 Alpha virt. eigenvalues --    1.76163   1.77910   1.78618   1.79837   1.81285
 Alpha virt. eigenvalues --    1.82647   1.84234   1.84858   1.86213   1.86644
 Alpha virt. eigenvalues --    1.88357   1.88554   1.89372   1.89849   1.92751
 Alpha virt. eigenvalues --    1.93000   1.93723   1.94550   1.95370   1.96323
 Alpha virt. eigenvalues --    1.97384   1.98858   1.99476   2.01361   2.02027
 Alpha virt. eigenvalues --    2.02623   2.06394   2.07973   2.08628   2.10283
 Alpha virt. eigenvalues --    2.10982   2.11478   2.11974   2.13175   2.14667
 Alpha virt. eigenvalues --    2.19243   2.19452   2.19828   2.20376   2.21793
 Alpha virt. eigenvalues --    2.22725   2.24308   2.26797   2.27420   2.28186
 Alpha virt. eigenvalues --    2.28690   2.29613   2.31862   2.32980   2.34063
 Alpha virt. eigenvalues --    2.35133   2.38078   2.39580   2.39941   2.40982
 Alpha virt. eigenvalues --    2.41173   2.41869   2.42578   2.44604   2.46166
 Alpha virt. eigenvalues --    2.46879   2.47895   2.48562   2.51455   2.52090
 Alpha virt. eigenvalues --    2.53239   2.54041   2.54887   2.55745   2.57941
 Alpha virt. eigenvalues --    2.58952   2.60358   2.61845   2.63414   2.65876
 Alpha virt. eigenvalues --    2.67220   2.71102   2.72368   2.74049   2.74799
 Alpha virt. eigenvalues --    2.75270   2.76142   2.78600   2.79774   2.81004
 Alpha virt. eigenvalues --    2.81472   2.83274   2.84400   2.84921   2.85917
 Alpha virt. eigenvalues --    2.87429   2.89667   2.90387   2.92045   2.93602
 Alpha virt. eigenvalues --    2.96100   2.96149   2.97814   2.98066   3.00508
 Alpha virt. eigenvalues --    3.01865   3.02928   3.06244   3.09206   3.12346
 Alpha virt. eigenvalues --    3.13759   3.15955   3.20340   3.20687   3.21631
 Alpha virt. eigenvalues --    3.23443   3.25290   3.27762   3.28476   3.30107
 Alpha virt. eigenvalues --    3.32505   3.33454   3.34701   3.35216   3.35888
 Alpha virt. eigenvalues --    3.36872   3.38561   3.41853   3.42594   3.46001
 Alpha virt. eigenvalues --    3.47665   3.50303   3.53674   3.58039   3.58695
 Alpha virt. eigenvalues --    3.58761   3.59251   3.62981   3.63889   3.68948
 Alpha virt. eigenvalues --    3.70405   3.71120   3.72596   3.76740   3.77535
 Alpha virt. eigenvalues --    3.80058   3.82367   3.84980   3.88822   3.88937
 Alpha virt. eigenvalues --    3.90271   3.92515   3.93588   3.98582   4.04059
 Alpha virt. eigenvalues --    4.07825   4.09433   4.15225   4.18811   4.19590
 Alpha virt. eigenvalues --    4.19867   4.21564   4.25481   4.26670   4.28451
 Alpha virt. eigenvalues --    4.30172   4.32625   4.33727   4.37674   4.40753
 Alpha virt. eigenvalues --    4.42381   4.43542   4.48344   4.49219   4.50674
 Alpha virt. eigenvalues --    4.51897   4.53439   4.54925   4.58302   4.59009
 Alpha virt. eigenvalues --    4.66014   4.66428   4.67914   4.68572   4.72000
 Alpha virt. eigenvalues --    4.72494   4.73119   4.79019   4.81534   4.84646
 Alpha virt. eigenvalues --    4.90454   4.96087   4.97862   4.98597   5.00486
 Alpha virt. eigenvalues --    5.07305   5.09585   5.16509   5.18738   5.19237
 Alpha virt. eigenvalues --    5.23161   5.31368   5.35299   5.38392   5.39209
 Alpha virt. eigenvalues --    5.40585   5.49233   5.50405   5.56693   5.59320
 Alpha virt. eigenvalues --    5.70515   5.82539   6.22439   6.81265  10.12256
 Alpha virt. eigenvalues --   10.57068  10.91632  11.28473  11.55284  11.86045
 Alpha virt. eigenvalues --   12.20698  13.04303
          Condensed to atoms (all electrons):
               1          2          3          4          5          6
     1  C    5.208657   0.674990  -0.117375   0.002424   0.000022  -0.000000
     2  C    0.674990   4.352956   0.661515  -0.049368   0.001135   0.000004
     3  C   -0.117375   0.661515   5.228321   0.274016  -0.003290   0.000921
     4  S    0.002424  -0.049368   0.274016  15.637827   0.288428  -0.024937
     5  C    0.000022   0.001135  -0.003290   0.288428   4.970990   0.670641
     6  C   -0.000000   0.000004   0.000921  -0.024937   0.670641   4.767460
     7  C    0.000000  -0.000013  -0.000220  -0.016021  -0.034982   0.202522
     8  S    0.000020   0.000146  -0.000206  -0.056666  -0.007225   0.012968
     9  S    0.000003  -0.000007  -0.000010   0.003862   0.000514   0.010644
    10  O   -0.000000   0.000001   0.000000  -0.000256   0.000001   0.000025
    11  S   -0.000000  -0.000002  -0.000130   0.004544  -0.065523   0.308661
    12  S   -0.000000  -0.000000  -0.000000  -0.000107   0.001998  -0.008030
    13  S   -0.000000   0.000000   0.000000   0.000001  -0.000000   0.000596
    14  C   -0.000000  -0.000000  -0.000000  -0.000000   0.000000  -0.000001
    15  H    0.347821  -0.005759   0.000854   0.000627  -0.000000  -0.000000
    16  H    0.349093  -0.007140   0.000301   0.000375   0.000000  -0.000000
    17  H    0.001609  -0.006716   0.334970  -0.037869  -0.001941  -0.000069
    18  H    0.000004   0.000236  -0.003623  -0.048620   0.362530  -0.036980
    19  H   -0.000000   0.000000   0.000004   0.000755   0.001487  -0.006508
    20  H   -0.000000   0.000000   0.000005   0.000879   0.000540  -0.010967
    21  H   -0.000036   0.000353   0.000857   0.005981  -0.000995   0.013638
    22  H    0.000000  -0.000000  -0.000000  -0.000072  -0.000005  -0.000287
    23  H    0.000013  -0.000008  -0.000005  -0.000029   0.000003  -0.000023
    24  H    0.000000   0.000000   0.000000   0.000000  -0.000000   0.000000
    25  H    0.000000  -0.000000  -0.000000  -0.000000   0.000000  -0.000000
    26  H    0.000000  -0.000000  -0.000000  -0.000000   0.000000  -0.000000
               7          8          9         10         11         12
     1  C    0.000000   0.000020   0.000003  -0.000000  -0.000000  -0.000000
     2  C   -0.000013   0.000146  -0.000007   0.000001  -0.000002  -0.000000
     3  C   -0.000220  -0.000206  -0.000010   0.000000  -0.000130  -0.000000
     4  S   -0.016021  -0.056666   0.003862  -0.000256   0.004544  -0.000107
     5  C   -0.034982  -0.007225   0.000514   0.000001  -0.065523   0.001998
     6  C    0.202522   0.012968   0.010644   0.000025   0.308661  -0.008030
     7  C    5.609354   0.135798  -0.128286  -0.000606  -0.035874  -0.001242
     8  S    0.135798  15.619459   0.281726  -0.200580   0.003090   0.000141
     9  S   -0.128286   0.281726  15.848336  -0.067864  -0.000098   0.000716
    10  O   -0.000606  -0.200580  -0.067864   8.441073  -0.000000   0.000000
    11  S   -0.035874   0.003090  -0.000098  -0.000000  15.826637   0.025140
    12  S   -0.001242   0.000141   0.000716   0.000000   0.025140  16.047189
    13  S   -0.000062   0.000013   0.000005   0.000000   0.016600   0.032346
    14  C    0.000000  -0.000000  -0.000000  -0.000000   0.000216  -0.001763
    15  H   -0.000000   0.000004   0.000000  -0.000000   0.000000  -0.000000
    16  H    0.000000  -0.000003   0.000000  -0.000000   0.000000  -0.000000
    17  H    0.000004  -0.000045   0.000000  -0.000000   0.000005   0.000000
    18  H    0.004365   0.000020   0.000017   0.000000  -0.005958   0.000047
    19  H    0.319640  -0.031074   0.017856   0.000107  -0.002607   0.004292
    20  H    0.326677  -0.041570   0.020011   0.000109  -0.001874   0.004070
    21  H   -0.091440   0.142347  -0.003623   0.024836  -0.000354   0.000031
    22  H    0.007543   0.009767   0.200388  -0.062615   0.000002  -0.000029
    23  H    0.000538   0.043107   0.021529   0.195480   0.000000  -0.000000
    24  H    0.000000   0.000000   0.000000   0.000000  -0.000003   0.001044
    25  H   -0.000000   0.000000  -0.000000  -0.000000  -0.000016   0.001639
    26  H   -0.000000  -0.000000  -0.000000  -0.000000  -0.000016   0.001675
              13         14         15         16         17         18
     1  C   -0.000000  -0.000000   0.347821   0.349093   0.001609   0.000004
     2  C    0.000000  -0.000000  -0.005759  -0.007140  -0.006716   0.000236
     3  C    0.000000  -0.000000   0.000854   0.000301   0.334970  -0.003623
     4  S    0.000001  -0.000000   0.000627   0.000375  -0.037869  -0.048620
     5  C   -0.000000   0.000000  -0.000000   0.000000  -0.001941   0.362530
     6  C    0.000596  -0.000001  -0.000000  -0.000000  -0.000069  -0.036980
     7  C   -0.000062   0.000000  -0.000000   0.000000   0.000004   0.004365
     8  S    0.000013  -0.000000   0.000004  -0.000003  -0.000045   0.000020
     9  S    0.000005  -0.000000   0.000000   0.000000   0.000000   0.000017
    10  O    0.000000  -0.000000  -0.000000  -0.000000  -0.000000   0.000000
    11  S    0.016600   0.000216   0.000000   0.000000   0.000005  -0.005958
    12  S    0.032346  -0.001763  -0.000000  -0.000000   0.000000   0.000047
    13  S   15.849207   0.286872   0.000000  -0.000000  -0.000000  -0.000001
    14  C    0.286872   4.973907   0.000000   0.000000   0.000000   0.000000
    15  H    0.000000   0.000000   0.558487  -0.045903  -0.000073   0.000000
    16  H   -0.000000   0.000000  -0.045903   0.562687  -0.000055  -0.000000
    17  H   -0.000000   0.000000  -0.000073  -0.000055   0.559963   0.003757
    18  H   -0.000001   0.000000   0.000000  -0.000000   0.003757   0.589720
    19  H    0.000194  -0.000001   0.000000  -0.000000  -0.000000  -0.000087
    20  H    0.000179  -0.000001  -0.000000   0.000000  -0.000000  -0.000095
    21  H    0.000000  -0.000000  -0.000001   0.000002  -0.000009   0.000102
    22  H   -0.000000   0.000000   0.000000  -0.000000   0.000000  -0.000000
    23  H   -0.000000   0.000000  -0.000000   0.000000   0.000000  -0.000000
    24  H   -0.024408   0.374765   0.000000   0.000000  -0.000000  -0.000000
    25  H   -0.043809   0.380575   0.000000   0.000000   0.000000   0.000000
    26  H   -0.043845   0.380500  -0.000000   0.000000   0.000000   0.000000
              19         20         21         22         23         24
     1  C   -0.000000  -0.000000  -0.000036   0.000000   0.000013   0.000000
     2  C    0.000000   0.000000   0.000353  -0.000000  -0.000008   0.000000
     3  C    0.000004   0.000005   0.000857  -0.000000  -0.000005   0.000000
     4  S    0.000755   0.000879   0.005981  -0.000072  -0.000029   0.000000
     5  C    0.001487   0.000540  -0.000995  -0.000005   0.000003  -0.000000
     6  C   -0.006508  -0.010967   0.013638  -0.000287  -0.000023   0.000000
     7  C    0.319640   0.326677  -0.091440   0.007543   0.000538   0.000000
     8  S   -0.031074  -0.041570   0.142347   0.009767   0.043107   0.000000
     9  S    0.017856   0.020011  -0.003623   0.200388   0.021529   0.000000
    10  O    0.000107   0.000109   0.024836  -0.062615   0.195480   0.000000
    11  S   -0.002607  -0.001874  -0.000354   0.000002   0.000000  -0.000003
    12  S    0.004292   0.004070   0.000031  -0.000029  -0.000000   0.001044
    13  S    0.000194   0.000179   0.000000  -0.000000  -0.000000  -0.024408
    14  C   -0.000001  -0.000001  -0.000000   0.000000   0.000000   0.374765
    15  H    0.000000  -0.000000  -0.000001   0.000000  -0.000000   0.000000
    16  H   -0.000000   0.000000   0.000002  -0.000000   0.000000   0.000000
    17  H   -0.000000  -0.000000  -0.000009   0.000000   0.000000  -0.000000
    18  H   -0.000087  -0.000095   0.000102  -0.000000  -0.000000  -0.000000
    19  H    0.570198  -0.028661   0.004582  -0.001003  -0.000017   0.000000
    20  H   -0.028661   0.575632   0.003021  -0.001049  -0.000041   0.000000
    21  H    0.004582   0.003021   0.751229  -0.001029  -0.009818   0.000000
    22  H   -0.001003  -0.001049  -0.001029   0.665758   0.007472  -0.000000
    23  H   -0.000017  -0.000041  -0.009818   0.007472   0.499940  -0.000000
    24  H    0.000000   0.000000   0.000000  -0.000000  -0.000000   0.537763
    25  H   -0.000000   0.000000  -0.000000   0.000000   0.000000  -0.028497
    26  H    0.000000  -0.000000  -0.000000   0.000000   0.000000  -0.028499
              25         26
     1  C    0.000000   0.000000
     2  C   -0.000000  -0.000000
     3  C   -0.000000  -0.000000
     4  S   -0.000000  -0.000000
     5  C    0.000000   0.000000
     6  C   -0.000000  -0.000000
     7  C   -0.000000  -0.000000
     8  S    0.000000  -0.000000
     9  S   -0.000000  -0.000000
    10  O   -0.000000  -0.000000
    11  S   -0.000016  -0.000016
    12  S    0.001639   0.001675
    13  S   -0.043809  -0.043845
    14  C    0.380575   0.380500
    15  H    0.000000  -0.000000
    16  H    0.000000   0.000000
    17  H    0.000000   0.000000
    18  H    0.000000   0.000000
    19  H   -0.000000   0.000000
    20  H    0.000000  -0.000000
    21  H   -0.000000  -0.000000
    22  H    0.000000   0.000000
    23  H    0.000000   0.000000
    24  H   -0.028497  -0.028499
    25  H    0.567012  -0.035560
    26  H   -0.035560   0.567403
 Mulliken charges:
               1
     1  C   -0.467245
     2  C    0.377676
     3  C   -0.376904
     4  S    0.014223
     5  C   -0.184328
     6  C    0.099722
     7  C   -0.297694
     8  S    0.088764
     9  S   -0.205720
    10  O   -0.329711
    11  S   -0.072439
    12  S   -0.109158
    13  S   -0.073888
    14  C   -0.395070
    15  H    0.143942
    16  H    0.140642
    17  H    0.146468
    18  H    0.134568
    19  H    0.150843
    20  H    0.153133
    21  H    0.160325
    22  H    0.175160
    23  H    0.241858
    24  H    0.167835
    25  H    0.158656
    26  H    0.158342
 Sum of Mulliken charges =  -0.00000
 Mulliken charges with hydrogens summed into heavy atoms:
               1
     1  C   -0.182661
     2  C    0.377676
     3  C   -0.230436
     4  S    0.014223
     5  C   -0.049760
     6  C    0.099722
     7  C    0.006282
     8  S    0.249089
     9  S   -0.030560
    10  O   -0.087852
    11  S   -0.072439
    12  S   -0.109158
    13  S   -0.073888
    14  C    0.089763
 Electronic spatial extent (au):  <R**2>=           8931.7479
 Charge=             -0.0000 electrons
 Dipole moment (field-independent basis, Debye):
    X=              1.0373    Y=              0.1669    Z=             -0.5705  Tot=              1.1955
 Quadrupole moment (field-independent basis, Debye-Ang):
   XX=           -107.4605   YY=           -127.0945   ZZ=           -127.9556
   XY=            -16.2238   XZ=             -4.6782   YZ=              0.6559
 Traceless Quadrupole moment (field-independent basis, Debye-Ang):
   XX=             13.3763   YY=             -6.2576   ZZ=             -7.1187
   XY=            -16.2238   XZ=             -4.6782   YZ=              0.6559
 Octapole moment (field-independent basis, Debye-Ang**2):
  XXX=            -72.9390  YYY=            -21.4241  ZZZ=              0.6639  XYY=             -8.9643
  XXY=             25.8203  XXZ=            -18.9183  XZZ=             17.2717  YZZ=             21.2188
  YYZ=              7.1467  XYZ=             -8.3259
 Hexadecapole moment (field-independent basis, Debye-Ang**3):
 XXXX=          -7381.8876 YYYY=          -2610.8115 ZZZZ=           -185.0997 XXXY=           -339.1438
 XXXZ=            -72.9255 YYYX=            -75.9062 YYYZ=             41.7689 ZZZX=             -2.5578
 ZZZY=              4.7511 XXYY=          -2086.1535 XXZZ=          -1577.0207 YYZZ=           -458.4396
 XXYZ=            -38.6063 YYXZ=            -19.8347 ZZXY=             19.8893
 N-N= 1.570780113479D+03 E-N=-9.630577243661D+03  KE= 2.729319097456D+03
 PrsmSu:  requested number of processors reduced to:  13 ShMem   1 Linda.
 Calling FoFJK, ICntrl=      2127 FMM=F ISym2X=0 I1Cent= 0 IOpClX= 0 NMat=1 NMatS=1 NMatT=0.
 ***** Axes restored to original set *****
 -------------------------------------------------------------------
 Center     Atomic                   Forces (Hartrees/Bohr)
 Number     Number              X              Y              Z
 -------------------------------------------------------------------
      1        6           0.016368939   -0.002391815    0.000399155
      2        6          -0.020093137   -0.004597752    0.001891391
      3        6          -0.011053140   -0.031781677    0.011480193
      4       16           0.002789207    0.038917837   -0.011152383
      5        6           0.031805348    0.013089140   -0.004593642
      6        6          -0.003366173   -0.007699973    0.004342660
      7        6           0.042870164   -0.032995447    0.028280709
      8       16           0.017872791   -0.065177482   -0.021400567
      9       16           0.073008203    0.095084188    0.018434670
     10        8          -0.116719294    0.001392030   -0.018876329
     11       16          -0.014378754   -0.030569824    0.010435664
     12       16          -0.019044255    0.044817350   -0.016248120
     13       16           0.029404333   -0.021323780    0.007988136
     14        6          -0.009080500    0.010133822   -0.003788600
     15        1          -0.001001325   -0.002197166   -0.000489115
     16        1          -0.001051285    0.003035541    0.000659020
     17        1           0.004987734   -0.005214892   -0.000918163
     18        1           0.000769287    0.000686093   -0.000830129
     19        1          -0.002706078    0.003391215    0.000316772
     20        1           0.000388947    0.001747489   -0.002457411
     21        1           0.007039933   -0.010497207    0.025662633
     22        1          -0.023690807    0.003959877   -0.023438954
     23        1           0.006731264    0.009294277   -0.009853962
     24        1          -0.006701915   -0.009844955    0.003693078
     25        1          -0.002574824   -0.001016576   -0.000824023
     26        1          -0.002574661   -0.000240315    0.001287317
 -------------------------------------------------------------------
 Cartesian Forces:  Max     0.116719294 RMS     0.025385351

 GradGradGradGradGradGradGradGradGradGradGradGradGradGradGradGradGradGrad
 Berny optimization.
 FormGI is forming the generalized inverse of G from B-inverse, IUseBI=4.
 Internal  Forces:  Max     0.126597459 RMS     0.027636302
 Search for a local minimum.
 Step number   1 out of a maximum of  109
 All quantities printed in internal units (Hartrees-Bohrs-Radians)
 Mixed Optimization -- RFO/linear search
 Second derivative matrix not updated -- first step.
 ITU=  0
     Eigenvalues ---    0.00230   0.00230   0.00230   0.00230   0.00230
     Eigenvalues ---    0.00230   0.00230   0.00232   0.00738   0.00951
     Eigenvalues ---    0.01121   0.01775   0.01943   0.02327   0.02379
     Eigenvalues ---    0.03183   0.03348   0.03657   0.04462   0.04503
     Eigenvalues ---    0.06236   0.09338   0.09372   0.09879   0.10016
     Eigenvalues ---    0.11757   0.11855   0.13331   0.15998   0.16000
     Eigenvalues ---    0.16000   0.16000   0.16000   0.16000   0.16000
     Eigenvalues ---    0.16000   0.22000   0.22001   0.22139   0.23120
     Eigenvalues ---    0.24206   0.24312   0.24788   0.24830   0.25000
     Eigenvalues ---    0.25000   0.25000   0.25000   0.25000   0.25000
     Eigenvalues ---    0.25093   0.26018   0.26815   0.27906   0.28533
     Eigenvalues ---    0.31153   0.33641   0.34232   0.34276   0.34374
     Eigenvalues ---    0.34375   0.35147   0.35306   0.35391   0.36224
     Eigenvalues ---    0.36644   0.47865   0.48741   0.49583   0.63663
     Eigenvalues ---    0.65870   0.66792
 RFO step:  Lambda=-1.59577570D-01 EMin= 2.30000000D-03
 Linear search not attempted -- first point.
 Maximum step size (   0.300) exceeded in Quadratic search.
    -- Step size scaled by   0.510
 Iteration  1 RMS(Cart)=  0.32659211 RMS(Int)=  0.01027218
 Iteration  2 RMS(Cart)=  0.12952364 RMS(Int)=  0.00158756
 Iteration  3 RMS(Cart)=  0.00349040 RMS(Int)=  0.00045669
 Iteration  4 RMS(Cart)=  0.00000222 RMS(Int)=  0.00045669
 Iteration  5 RMS(Cart)=  0.00000000 RMS(Int)=  0.00045669
 Variable       Old X    -DE/DX   Delta X   Delta X   Delta X     New X
                                 (Linear)    (Quad)   (Total)
    R1        2.48155  -0.01441   0.00000  -0.00923  -0.00923   2.47232
    R2        2.05181   0.00132   0.00000   0.00131   0.00131   2.05312
    R3        2.05044   0.00185   0.00000   0.00184   0.00184   2.05228
    R4        2.46577   0.00534   0.00000   0.00333   0.00333   2.46909
    R5        3.20086   0.04503   0.00000   0.04366   0.04366   3.24452
    R6        2.03733   0.00635   0.00000   0.00620   0.00620   2.04354
    R7        3.29421   0.00886   0.00000   0.00960   0.00960   3.30381
    R8        2.61158  -0.02211   0.00000  -0.01743  -0.01743   2.59415
    R9        2.05436  -0.00054   0.00000  -0.00054  -0.00054   2.05383
   R10        2.94805   0.00545   0.00000   0.00649   0.00649   2.95454
   R11        3.44972  -0.02291   0.00000  -0.02909  -0.02909   3.42063
   R12        3.43342   0.04300   0.00000   0.05376   0.05376   3.48718
   R13        2.06867  -0.00089   0.00000  -0.00090  -0.00090   2.06777
   R14        2.06941  -0.00016   0.00000  -0.00017  -0.00017   2.06924
   R15        3.44238   0.12660   0.00000   0.07802   0.07802   3.52040
   R16        2.49845   0.02353   0.00000   0.02736   0.02736   2.52581
   R17        3.05783   0.10773   0.00000   0.08609   0.08609   3.14392
   R18        2.48487   0.01822   0.00000   0.02089   0.02089   2.50576
   R19        1.86989  -0.01357   0.00000  -0.01056  -0.01056   1.85933
   R20        3.97271   0.01552   0.00000   0.01928   0.01928   3.99199
   R21        3.94988   0.01368   0.00000   0.01662   0.01662   3.96650
   R22        3.47942  -0.01133   0.00000  -0.01479  -0.01479   3.46463
   R23        2.07941  -0.00466   0.00000  -0.00479  -0.00479   2.07462
   R24        2.06702  -0.00079   0.00000  -0.00080  -0.00080   2.06623
   R25        2.06704  -0.00079   0.00000  -0.00080  -0.00080   2.06624
    A1        2.12155   0.00003   0.00000   0.00005   0.00005   2.12161
    A2        2.11991   0.00034   0.00000   0.00055   0.00055   2.12046
    A3        2.04148  -0.00035   0.00000  -0.00056  -0.00056   2.04092
    A4        2.02078   0.01305   0.00000   0.01753   0.01753   2.03831
    A5        2.11422  -0.00416   0.00000  -0.00500  -0.00500   2.10922
    A6        2.14794  -0.00888   0.00000  -0.01253  -0.01253   2.13541
    A7        2.04489  -0.05988   0.00000  -0.07457  -0.07457   1.97032
    A8        2.16218   0.05160   0.00000   0.06933   0.06933   2.23151
    A9        2.02919  -0.02469   0.00000  -0.03288  -0.03288   1.99631
   A10        2.09174  -0.02691   0.00000  -0.03643  -0.03643   2.05531
   A11        2.24109   0.07431   0.00000   0.09253   0.09253   2.33362
   A12        2.01198  -0.03806   0.00000  -0.04739  -0.04739   1.96458
   A13        2.03011  -0.03625   0.00000  -0.04513  -0.04513   1.98498
   A14        1.99827   0.06744   0.00000   0.09263   0.09265   2.09092
   A15        1.90135  -0.01500   0.00000  -0.01916  -0.01892   1.88242
   A16        1.91387  -0.01644   0.00000  -0.01846  -0.01868   1.89519
   A17        1.83288  -0.02182   0.00000  -0.03028  -0.03034   1.80254
   A18        1.90018  -0.02035   0.00000  -0.02505  -0.02550   1.87468
   A19        1.91496   0.00505   0.00000  -0.00205  -0.00286   1.91210
   A20        1.99625   0.00959   0.00000   0.01157   0.01159   2.00784
   A21        1.73858  -0.02385   0.00000  -0.04279  -0.04279   1.69579
   A22        1.80268   0.01375   0.00000   0.02581   0.02598   1.82866
   A23        1.69248   0.09653   0.00000   0.12039   0.12036   1.81284
   A24        1.68708   0.01053   0.00000   0.02331   0.02518   1.71227
   A25        1.71946  -0.03593   0.00000  -0.06355  -0.06488   1.65459
   A26        1.96823  -0.00511   0.00000  -0.00815  -0.00815   1.96007
   A27        1.89747  -0.04301   0.00000  -0.05355  -0.05355   1.84392
   A28        1.85751  -0.04036   0.00000  -0.05025  -0.05025   1.80726
   A29        1.86247  -0.04356   0.00000  -0.05424  -0.05424   1.80823
   A30        1.90833  -0.01646   0.00000  -0.02655  -0.02659   1.88174
   A31        1.95059   0.00064   0.00000   0.00117   0.00115   1.95174
   A32        1.95098   0.00060   0.00000   0.00111   0.00109   1.95206
   A33        1.86335   0.00735   0.00000   0.01147   0.01143   1.87478
   A34        1.86339   0.00734   0.00000   0.01144   0.01140   1.87479
   A35        1.92296   0.00088   0.00000   0.00189   0.00188   1.92484
   A36        3.11207   0.00036   0.00000   0.00095   0.00095   3.11302
   A37        3.14242  -0.00002   0.00000  -0.00005  -0.00005   3.14237
    D1        1.49268   0.00187   0.00000   0.00590   0.00591   1.49859
    D2       -1.67180   0.00175   0.00000   0.00552   0.00552  -1.66628
    D3       -1.65539   0.00241   0.00000   0.00758   0.00758  -1.64781
    D4        1.46332   0.00228   0.00000   0.00720   0.00719   1.47051
    D5       -3.12215  -0.00087   0.00000  -0.00256  -0.00256  -3.12471
    D6        0.04302  -0.00078   0.00000  -0.00217  -0.00218   0.04084
    D7        3.12130  -0.00059   0.00000  -0.00170  -0.00171   3.11959
    D8       -0.03359  -0.00022   0.00000  -0.00071  -0.00071  -0.03430
    D9       -0.01937  -0.00067   0.00000  -0.00200  -0.00201  -0.02138
   D10        3.12151   0.00007   0.00000   0.00024   0.00025   3.12176
   D11        3.13598  -0.00109   0.00000  -0.00309  -0.00310   3.13288
   D12       -0.00633  -0.00035   0.00000  -0.00085  -0.00084  -0.00717
   D13       -0.07815  -0.00126   0.00000  -0.00316  -0.00323  -0.08137
   D14       -2.12393  -0.00521   0.00000  -0.00920  -0.00911  -2.13304
   D15        2.06329   0.00771   0.00000   0.01616   0.01618   2.07947
   D16        3.06417  -0.00200   0.00000  -0.00541  -0.00550   3.05867
   D17        1.01838  -0.00595   0.00000  -0.01145  -0.01138   1.00700
   D18       -1.07758   0.00697   0.00000   0.01391   0.01390  -1.06368
   D19        3.14054   0.00062   0.00000   0.00203   0.00211  -3.14054
   D20       -0.00168   0.00131   0.00000   0.00404   0.00395   0.00227
   D21        2.97770   0.00646   0.00000   0.01456   0.01461   2.99231
   D22        1.06780   0.00030   0.00000   0.00409   0.00427   1.07207
   D23       -1.22090   0.01132   0.00000   0.02281   0.02234  -1.19856
   D24       -3.13081   0.00515   0.00000   0.01234   0.01200  -3.11881
   D25        0.82888  -0.00403   0.00000  -0.00746  -0.00724   0.82163
   D26       -1.08102  -0.01019   0.00000  -0.01794  -0.01759  -1.09861
   D27       -3.11677   0.00111   0.00000   0.00283   0.00371  -3.11306
   D28        1.43035   0.02274   0.00000   0.04741   0.04644   1.47679
   D29       -1.24612  -0.01542   0.00000  -0.02837  -0.02741  -1.27353
   D30       -2.98219   0.00621   0.00000   0.01620   0.01532  -2.96687
   D31        1.20296  -0.00564   0.00000  -0.00283  -0.00055   1.20241
   D32        2.91069   0.01615   0.00000   0.03205   0.02977   2.94046
   D33        3.14016   0.00010   0.00000   0.00031   0.00031   3.14047
   D34        3.14120  -0.00004   0.00000  -0.00014  -0.00014   3.14106
   D35        3.14143   0.00002   0.00000   0.00003   0.00003   3.14146
   D36        1.08226   0.00104   0.00000   0.00209   0.00207   1.08432
   D37       -1.08230  -0.00105   0.00000  -0.00211  -0.00209  -1.08439
         Item               Value     Threshold  Converged?
 Maximum Force            0.126597     0.000450     NO 
 RMS     Force            0.027636     0.000300     NO 
 Maximum Displacement     1.939337     0.001800     NO 
 RMS     Displacement     0.451633     0.001200     NO 
 Predicted change in Energy=-6.828538D-02
 GradGradGradGradGradGradGradGradGradGradGradGradGradGradGradGradGradGrad

                          Input orientation:                          
 ---------------------------------------------------------------------
 Center     Atomic      Atomic             Coordinates (Angstroms)
 Number     Number       Type             X           Y           Z
 ---------------------------------------------------------------------
      1          6           0        1.170293   -0.598332    0.243416
      2          6           0        2.475220   -0.511624    0.207611
      3          6           0        3.775236   -0.390162    0.158880
      4         16           0        4.391840    1.127379   -0.355616
      5          6           0        6.138836    1.168906   -0.408839
      6          6           0        6.945362    2.210233   -0.795670
      7          6           0        6.665489    3.653861   -1.326770
      8         16           0        4.930655    4.189479   -1.656498
      9         16           0        4.724532    5.999980   -2.043874
     10          8           0        3.082778    6.180655   -2.243532
     11         16           0        8.706044    1.813074   -0.658537
     12         16           0        9.732389    3.545157   -1.298101
     13         16           0       11.754824    3.015478   -1.111224
     14          6           0       12.647133    4.517606   -1.666895
     15          1           0        0.594490   -0.875336   -0.635291
     16          1           0        0.614517   -0.416441    1.158548
     17          1           0        4.419904   -1.207042    0.453024
     18          1           0        6.619605    0.250914   -0.081170
     19          1           0        7.148619    3.751472   -2.303687
     20          1           0        7.103464    4.373932   -0.627707
     21          1           0        4.474216    4.054018   -0.407572
     22          1           0        4.988784    5.944674   -3.342091
     23          1           0        2.589515    6.069723   -1.399450
     24          1           0       13.723655    4.314257   -1.596168
     25          1           0       12.433718    5.377560   -1.026226
     26          1           0       12.427450    4.758619   -2.710540
 ---------------------------------------------------------------------
                    Distance matrix (angstroms):
                    1          2          3          4          5
     1  C    0.000000
     2  C    1.308294   0.000000
     3  C    2.614614   1.306587   0.000000
     4  S    3.703415   2.583987   1.716926   0.000000
     5  C    5.313660   4.077533   2.887837   1.748300   0.000000
     6  C    6.505318   5.328907   4.209860   2.808326   1.372765
     7  C    7.123469   6.104420   5.187951   3.534931   2.700919
     8  S    6.377548   5.621782   5.060009   3.370322   3.484281
     9  S    7.835945   7.247729   6.825481   5.167508   5.292719
    10  O    7.469750   7.152889   7.030413   5.550988   6.150058
    11  S    7.963412   6.706534   5.462168   4.378846   2.658544
    12  S    9.636091   8.449327   7.286782   5.937625   4.398974
    13  S   11.266187  10.014531   8.768431   7.638678   5.953360
    14  C   12.709837  11.501076  10.301951   9.020142   7.426603
    15  H    1.086466   2.092825   3.314098   4.302203   5.913542
    16  H    1.086019   2.091783   3.315143   4.352498   5.957191
    17  H    3.312768   2.079815   1.081394   2.470670   3.056577
    18  H    5.524633   4.223836   2.925583   2.409658   1.086838
    19  H    7.819777   6.805973   5.881928   4.275591   3.358535
    20  H    7.790043   6.781376   5.864504   4.238755   3.354192
    21  H    5.743174   5.021904   4.534332   2.928259   3.330890
    22  H    8.381388   7.784740   7.338913   5.699273   5.721412
    23  H    7.012571   6.775679   6.750143   5.363276   6.131639
    24  H   13.605311  12.372148  11.143733   9.938709   8.296533
    25  H   12.813587  11.635142  10.470931   9.120612   7.597334
    26  H   12.811962  11.633484  10.469208   9.127026   7.598061
                    6          7          8          9         10
     6  C    0.000000
     7  C    1.563476   0.000000
     8  S    2.952539   1.845334   0.000000
     9  S    4.566430   3.128231   1.862917   0.000000
    10  O    5.725392   4.478946   2.779215   1.663689   0.000000
    11  S    1.810122   2.828232   4.571301   5.941530   7.294456
    12  S    3.130810   3.068959   4.858009   5.626808   7.215054
    13  S    4.886606   5.133744   6.945855   7.694290   9.300798
    14  C    6.212342   6.053247   7.723459   8.068901   9.724974
    15  H    7.062580   7.605840   6.745187   8.143177   7.652779
    16  H    7.127270   7.704442   6.911442   8.265482   7.822284
    17  H    4.428876   5.642579   5.816648   7.633379   7.977305
    18  H    2.110820   3.624041   4.565798   6.363590   7.235108
    19  H    2.165836   1.094216   2.351610   3.316548   4.736625
    20  H    2.175960   1.094995   2.411127   3.210744   4.694789
    21  H    3.107528   2.409716   1.336601   2.554782   3.135193
    22  H    4.925293   3.481478   2.434197   1.325993   2.212550
    23  H    5.850950   4.738696   3.013689   2.231242   0.983915
    24  H    7.142336   7.094110   8.794093   9.166587  10.822697
    25  H    6.340912   6.027763   7.622647   7.800934   9.463978
    26  H    6.341474   6.027894   7.591895   7.830732   9.463782
                   11         12         13         14         15
    11  S    0.000000
    12  S    2.112471   0.000000
    13  S    3.308438   2.098983   0.000000
    14  C    4.885025   3.094738   1.833405   0.000000
    15  H    8.545490  10.172574  11.828694  13.244404   0.000000
    16  H    8.587511  10.240359  11.875874  13.308336   1.851714
    17  H    5.359819   7.339777   8.606835  10.244655   3.991021
    18  H    2.669630   4.692801   5.922356   7.553164   6.154470
    19  H    2.981522   2.780222   4.814642   5.588034   8.194359
    20  H    3.021127   2.836820   4.869738   5.642059   8.361915
    21  H    4.795121   5.357272   7.387892   8.282354   6.277154
    22  H    6.171678   5.695381   7.703004   7.968257   8.552727
    23  H    7.488654   7.576566   9.665111  10.180190   7.266217
    24  H    5.684320   4.075606   2.407964   1.097840  14.150270
    25  H    5.170717   3.275485   2.459177   1.093400  13.394733
    26  H    5.170669   3.275795   2.459427   1.093409  13.269026
                   16         17         18         19         20
    16  H    0.000000
    17  H    3.950163   0.000000
    18  H    6.167929   2.692524   0.000000
    19  H    8.488407   6.295411   4.180113   0.000000
    20  H    8.261041   6.286235   4.187136   1.788409   0.000000
    21  H    6.110238   5.331260   4.378680   3.292297   2.657771
    22  H    8.936093   8.116254   6.761072   3.248586   3.782457
    23  H    7.246675   7.728732   7.199863   5.193974   4.883341
    24  H   14.206247  11.011073   8.323071   6.636897   6.690920
    25  H   13.343058  10.476945   7.808940   5.675239   5.438539
    26  H   13.464638  10.474638   7.807948   5.389428   5.729835
                   21         22         23         24         25
    21  H    0.000000
    22  H    3.528565   0.000000
    23  H    2.932403   3.089657   0.000000
    24  H    9.329127   9.055633  11.273395   0.000000
    25  H    8.092477   7.817410   9.875562   1.766177   0.000000
    26  H    8.309877   7.559057  10.011139   1.766191   1.794447
                   26
    26  H    0.000000
 Stoichiometry    C7H12OS6
 Framework group  C1[X(C7H12OS6)]
 Deg. of freedom    72
 Full point group                 C1      NOp   1
 Largest Abelian subgroup         C1      NOp   1
 Largest concise Abelian subgroup C1      NOp   1
                         Standard orientation:                         
 ---------------------------------------------------------------------
 Center     Atomic      Atomic             Coordinates (Angstroms)
 Number     Number       Type             X           Y           Z
 ---------------------------------------------------------------------
      1          6           0        6.215576   -2.300000    0.017373
      2          6           0        4.927248   -2.527655    0.013061
      3          6           0        3.634629   -2.718156    0.009090
      4         16           0        2.645834   -1.315045   -0.028301
      5          6           0        0.937540   -1.686097   -0.003698
      6          6           0       -0.115785   -0.805768   -0.000069
      7          6           0       -0.219916    0.754209    0.009126
      8         16           0        1.311255    1.774770    0.147807
      9         16           0        1.064995    3.604144   -0.103607
     10          8           0        2.598188    4.235398    0.033136
     11         16           0       -1.720654   -1.642972   -0.005031
     12         16           0       -3.166706   -0.103020   -0.000593
     13         16           0       -4.990845   -1.141373   -0.008856
     14          6           0       -6.247163    0.193924   -0.004066
     15          1           0        6.758663   -2.123077    0.941582
     16          1           0        6.794683   -2.299453   -0.901361
     17          1           0        3.221404   -3.717481    0.006745
     18          1           0        0.709226   -2.748682   -0.002049
     19          1           0       -0.797627    1.046696    0.891175
     20          1           0       -0.746084    1.074214   -0.896279
     21          1           0        1.895916    1.351757   -0.977242
     22          1           0        0.705685    3.916258    1.134027
     23          1           0        3.176922    3.976932   -0.719426
     24          1           0       -7.238563   -0.277628   -0.008221
     25          1           0       -6.178666    0.819750   -0.898031
     26          1           0       -6.181884    0.810737    0.896391
 ---------------------------------------------------------------------
 Rotational constants (GHZ):           0.3768571           0.1537968           0.1096405
 Standard basis: 6-31G(2df,p) (6D, 7F)
 There are   518 symmetry adapted cartesian basis functions of A   symmetry.
 There are   476 symmetry adapted basis functions of A   symmetry.
   476 basis functions,   844 primitive gaussians,   518 cartesian basis functions
    79 alpha electrons       79 beta electrons
       nuclear repulsion energy      1543.3073445885 Hartrees.
 NAtoms=   26 NActive=   26 NUniq=   26 SFac= 1.00D+00 NAtFMM=   60 NAOKFM=F Big=F
 Integral buffers will be    131072 words long.
 Raffenetti 2 integral format.
 Two-electron integral symmetry is turned on.
 One-electron integrals computed using PRISM.
 PrsmSu:  requested number of processors reduced to:  12 ShMem   1 Linda.
 NBasis=   476 RedAO= T EigKep=  3.99D-04  NBF=   476
 NBsUse=   476 1.00D-06 EigRej= -1.00D+00 NBFU=   476
 Initial guess from the checkpoint file:  "CdCdCSCdCqC[SH]d[SH]OrSSSC.chk"
 B after Tr=    -0.000000   -0.000000   -0.000000
         Rot=    0.999322   -0.000631   -0.000070   -0.036825 Ang=  -4.22 deg.
 ExpMin= 1.17D-01 ExpMax= 2.19D+04 ExpMxC= 3.30D+03 IAcc=2 IRadAn=         4 AccDes= 0.00D+00
 Harris functional with IExCor=  402 and IRadAn=       4 diagonalized for initial guess.
 HarFok:  IExCor=  402 AccDes= 0.00D+00 IRadAn=         4 IDoV= 1 UseB2=F ITyADJ=14
 ICtDFT=  3500011 ScaDFX=  1.000000  1.000000  1.000000  1.000000
 FoFCou: FMM=F IPFlag=           0 FMFlag=      100000 FMFlg1=           0
         NFxFlg=           0 DoJE=T BraDBF=F KetDBF=T FulRan=T
         wScrn=  0.000000 ICntrl=       500 IOpCl=  0 I1Cent=   200000004 NGrid=           0
         NMat0=    1 NMatS0=      1 NMatT0=    0 NMatD0=    1 NMtDS0=    0 NMtDT0=    0
 Petite list used in FoFCou.
 Requested convergence on RMS density matrix=1.00D-08 within 128 cycles.
 Requested convergence on MAX density matrix=1.00D-06.
 Requested convergence on             energy=1.00D-06.
 No special actions if energy rises.
 Integral accuracy reduced to 1.0D-05 until final iterations.
 Initial convergence to 1.0D-05 achieved.  Increase integral accuracy.
 SCF Done:  E(RB3LYP) =  -2738.01061383     A.U. after   18 cycles
            NFock= 18  Conv=0.57D-08     -V/T= 2.0033
 PrsmSu:  requested number of processors reduced to:  13 ShMem   1 Linda.
 Calling FoFJK, ICntrl=      2127 FMM=F ISym2X=0 I1Cent= 0 IOpClX= 0 NMat=1 NMatS=1 NMatT=0.
 ***** Axes restored to original set *****
 -------------------------------------------------------------------
 Center     Atomic                   Forces (Hartrees/Bohr)
 Number     Number              X              Y              Z
 -------------------------------------------------------------------
      1        6           0.010870036   -0.000533471   -0.000260432
      2        6          -0.010667224   -0.004789454    0.002011504
      3        6          -0.006113648   -0.019969948    0.007783146
      4       16          -0.000614043    0.042749848   -0.013085971
      5        6           0.022452109    0.010930043   -0.004235331
      6        6          -0.005141587    0.000971354    0.001474975
      7        6           0.026924765   -0.049819926    0.028992170
      8       16           0.014303418   -0.037697686   -0.028276438
      9       16           0.047547702    0.028323947    0.041788571
     10        8          -0.085661260    0.032289483   -0.028911442
     11       16           0.003875624   -0.021066102    0.007138724
     12       16          -0.012257956    0.030232593   -0.010674956
     13       16           0.018907348   -0.017507368    0.006239599
     14        6          -0.007663566    0.007675755   -0.002784592
     15        1          -0.000570602   -0.002045667   -0.000108382
     16        1          -0.001145061    0.002490234    0.000231612
     17        1           0.005211620   -0.001599496   -0.002061844
     18        1           0.000368777   -0.000519358   -0.000101019
     19        1          -0.002827479    0.003239154    0.000207519
     20        1          -0.000826153    0.001598129   -0.002369344
     21        1           0.001610620   -0.004433918    0.020321112
     22        1          -0.021802392    0.001523395   -0.018743606
     23        1           0.012048908    0.006438228   -0.007713317
     24        1          -0.004891369   -0.007263465    0.002683234
     25        1          -0.001973580   -0.000884239   -0.000551598
     26        1          -0.001965008   -0.000332065    0.001006104
 -------------------------------------------------------------------
 Cartesian Forces:  Max     0.085661260 RMS     0.018986842

 GradGradGradGradGradGradGradGradGradGradGradGradGradGradGradGradGradGrad
 Berny optimization.
 Using GEDIIS/GDIIS optimizer.
 FormGI is forming the generalized inverse of G from B-inverse, IUseBI=4.
 Internal  Forces:  Max     0.103284160 RMS     0.019640172
 Search for a local minimum.
 Step number   2 out of a maximum of  109
 All quantities printed in internal units (Hartrees-Bohrs-Radians)
 Mixed Optimization -- RFO/linear search
 Update second derivatives using D2CorX and points    1    2
 DE= -5.99D-02 DEPred=-6.83D-02 R= 8.78D-01
 TightC=F SS=  1.41D+00  RLast= 3.11D-01 DXNew= 5.0454D-01 9.3170D-01
 Trust test= 8.78D-01 RLast= 3.11D-01 DXMaxT set to 5.05D-01
 ITU=  1  0
 Use linear search instead of GDIIS.
 Linear search step of   0.601 exceeds DXMaxT=   0.505 but not scaled.
 Quartic linear search produced a step of  2.00000.
 Iteration  1 RMS(Cart)=  0.45640621 RMS(Int)=  0.03079592
 Iteration  2 RMS(Cart)=  0.34228652 RMS(Int)=  0.01485416
 Iteration  3 RMS(Cart)=  0.11518581 RMS(Int)=  0.00291751
 Iteration  4 RMS(Cart)=  0.00369922 RMS(Int)=  0.00259114
 Iteration  5 RMS(Cart)=  0.00000982 RMS(Int)=  0.00259114
 Iteration  6 RMS(Cart)=  0.00000012 RMS(Int)=  0.00259114
 Iteration  1 RMS(Cart)=  0.45640621 RMS(Int)=  0.03079592
 Iteration  2 RMS(Cart)=  0.34228652 RMS(Int)=  0.01485416
 Iteration  3 RMS(Cart)=  0.11518581 RMS(Int)=  0.00291751
 Iteration  4 RMS(Cart)=  0.00369922 RMS(Int)=  0.00259114
 Iteration  5 RMS(Cart)=  0.00000982 RMS(Int)=  0.00259114
 Iteration  6 RMS(Cart)=  0.00000012 RMS(Int)=  0.00259114
 ITry= 2 IFail=0 DXMaxC= 3.51D+00 DCOld= 3.51D+00 DXMaxT= 5.05D-01 DXLimC= 3.00D+00 Rises=F
 Iteration  1 RMS(Cart)=  0.45640621 RMS(Int)=  0.03079592
 Iteration  2 RMS(Cart)=  0.34228652 RMS(Int)=  0.01485416
 Iteration  3 RMS(Cart)=  0.11518581 RMS(Int)=  0.00291751
 Iteration  4 RMS(Cart)=  0.00369922 RMS(Int)=  0.00259114
 Iteration  5 RMS(Cart)=  0.00000982 RMS(Int)=  0.00259114
 Iteration  6 RMS(Cart)=  0.00000012 RMS(Int)=  0.00259114
 ITry= 3 IFail=0 DXMaxC= 3.51D+00 DCOld= 3.51D+00 DXMaxT= 5.05D-01 DXLimC= 3.00D+00 Rises=F
 Iteration  1 RMS(Cart)=  0.45640621 RMS(Int)=  0.03079592
 Iteration  2 RMS(Cart)=  0.34228652 RMS(Int)=  0.01485416
 Iteration  3 RMS(Cart)=  0.11518581 RMS(Int)=  0.00291751
 Iteration  4 RMS(Cart)=  0.00369922 RMS(Int)=  0.00259114
 Iteration  5 RMS(Cart)=  0.00000982 RMS(Int)=  0.00259114
 Iteration  6 RMS(Cart)=  0.00000012 RMS(Int)=  0.00259114
 ITry= 4 IFail=0 DXMaxC= 3.51D+00 DCOld= 3.51D+00 DXMaxT= 5.05D-01 DXLimC= 3.00D+00 Rises=F
 Iteration  1 RMS(Cart)=  0.45640621 RMS(Int)=  0.03079592
 Iteration  2 RMS(Cart)=  0.34228652 RMS(Int)=  0.01485416
 Iteration  3 RMS(Cart)=  0.11518581 RMS(Int)=  0.00291751
 Iteration  4 RMS(Cart)=  0.00369922 RMS(Int)=  0.00259114
 Iteration  5 RMS(Cart)=  0.00000982 RMS(Int)=  0.00259114
 Iteration  6 RMS(Cart)=  0.00000012 RMS(Int)=  0.00259114
 ITry= 5 IFail=0 DXMaxC= 3.51D+00 DCOld= 3.51D+00 DXMaxT= 5.05D-01 DXLimC= 3.00D+00 Rises=F
 Iteration  1 RMS(Cart)=  0.45640621 RMS(Int)=  0.03079592
 Iteration  2 RMS(Cart)=  0.34228652 RMS(Int)=  0.01485416
 Iteration  3 RMS(Cart)=  0.11518581 RMS(Int)=  0.00291751
 Iteration  4 RMS(Cart)=  0.00369922 RMS(Int)=  0.00259114
 Iteration  5 RMS(Cart)=  0.00000982 RMS(Int)=  0.00259114
 Iteration  6 RMS(Cart)=  0.00000012 RMS(Int)=  0.00259114
 ITry= 6 IFail=0 DXMaxC= 3.51D+00 DCOld= 3.51D+00 DXMaxT= 5.05D-01 DXLimC= 3.00D+00 Rises=F
 Iteration  1 RMS(Cart)=  0.45640621 RMS(Int)=  0.03079592
 Iteration  2 RMS(Cart)=  0.34228652 RMS(Int)=  0.01485416
 Iteration  3 RMS(Cart)=  0.11518581 RMS(Int)=  0.00291751
 Iteration  4 RMS(Cart)=  0.00369922 RMS(Int)=  0.00259114
 Iteration  5 RMS(Cart)=  0.00000982 RMS(Int)=  0.00259114
 Iteration  6 RMS(Cart)=  0.00000012 RMS(Int)=  0.00259114
 ITry= 7 IFail=0 DXMaxC= 3.51D+00 DCOld= 3.51D+00 DXMaxT= 5.05D-01 DXLimC= 3.00D+00 Rises=F
 Iteration  1 RMS(Cart)=  0.45640621 RMS(Int)=  0.03079592
 Iteration  2 RMS(Cart)=  0.34228652 RMS(Int)=  0.01485416
 Iteration  3 RMS(Cart)=  0.11518581 RMS(Int)=  0.00291751
 Iteration  4 RMS(Cart)=  0.00369922 RMS(Int)=  0.00259114
 Iteration  5 RMS(Cart)=  0.00000982 RMS(Int)=  0.00259114
[...]
 Iteration  2 RMS(Cart)=  0.00011247 RMS(Int)=  0.00000417
 Iteration  3 RMS(Cart)=  0.00000001 RMS(Int)=  0.00000417
 Variable       Old X    -DE/DX   Delta X   Delta X   Delta X     New X
                                 (Linear)    (Quad)   (Total)
    R1        2.45824  -0.00000  -0.00001  -0.00000  -0.00002   2.45822
    R2        2.05390   0.00000   0.00000   0.00000   0.00000   2.05390
    R3        2.05409  -0.00000   0.00001  -0.00000   0.00001   2.05410
    R4        2.46181  -0.00001  -0.00002   0.00001  -0.00001   2.46180
    R5        3.36810  -0.00011  -0.00059  -0.00004  -0.00063   3.36747
    R6        2.05391   0.00000   0.00004  -0.00001   0.00003   2.05394
    R7        3.31411  -0.00010  -0.00052  -0.00013  -0.00065   3.31346
    R8        2.54457   0.00010   0.00016   0.00011   0.00026   2.54484
    R9        2.04947   0.00003   0.00005   0.00003   0.00007   2.04954
   R10        2.83897   0.00002  -0.00007   0.00004  -0.00003   2.83894
   R11        3.35956   0.00005  -0.00006  -0.00000  -0.00006   3.35949
   R12        3.49999  -0.00011  -0.00043  -0.00042  -0.00085   3.49915
   R13        2.07016   0.00003   0.00002   0.00007   0.00009   2.07026
   R14        2.05793   0.00001  -0.00000   0.00007   0.00006   2.05800
   R15        6.16448   0.00000  -0.00166   0.00196   0.00030   6.16478
   R16        2.54321  -0.00002  -0.00018   0.00005  -0.00013   2.54308
   R17        3.18400   0.00024   0.00002   0.00055   0.00057   3.18457
   R18        2.55414  -0.00001  -0.00013  -0.00000  -0.00013   2.55401
   R19        1.82226  -0.00001   0.00001  -0.00001   0.00001   1.82226
   R20        3.98102   0.00012   0.00029   0.00042   0.00070   3.98172
   R21        3.90836   0.00007   0.00001   0.00013   0.00013   3.90850
   R22        3.45156   0.00001   0.00006  -0.00003   0.00003   3.45158
   R23        2.06657   0.00000  -0.00001   0.00000  -0.00000   2.06657
   R24        2.06150  -0.00001  -0.00003  -0.00001  -0.00003   2.06147
   R25        2.06066   0.00001  -0.00001   0.00002   0.00001   2.06067
    A1        2.12086  -0.00000   0.00004  -0.00002   0.00003   2.12089
    A2        2.12259  -0.00000  -0.00002  -0.00000  -0.00002   2.12257
    A3        2.03974   0.00000  -0.00003   0.00002  -0.00001   2.03973
    A4        2.12866   0.00002   0.00059  -0.00018   0.00041   2.12907
    A5        2.12852   0.00000  -0.00025   0.00010  -0.00015   2.12837
    A6        2.02286  -0.00002  -0.00035   0.00009  -0.00026   2.02261
    A7        1.75451   0.00002   0.00015   0.00004   0.00019   1.75470
    A8        2.16685   0.00004   0.00048  -0.00004   0.00045   2.16729
    A9        2.01280   0.00000  -0.00008   0.00011   0.00003   2.01284
   A10        2.10341  -0.00004  -0.00040  -0.00008  -0.00048   2.10294
   A11        2.16988  -0.00006  -0.00009  -0.00016  -0.00025   2.16963
   A12        2.02916  -0.00005  -0.00041   0.00015  -0.00026   2.02890
   A13        2.07962   0.00011   0.00048   0.00001   0.00049   2.08011
   A14        1.99834   0.00015   0.00092   0.00010   0.00102   1.99936
   A15        1.92844  -0.00005  -0.00001  -0.00026  -0.00026   1.92817
   A16        1.94652  -0.00007  -0.00024  -0.00021  -0.00046   1.94607
   A17        1.80274  -0.00003  -0.00059   0.00007  -0.00052   1.80222
   A18        1.89036  -0.00000   0.00005   0.00050   0.00056   1.89092
   A19        1.88962   0.00001  -0.00020  -0.00019  -0.00039   1.88924
   A20        1.59497   0.00006   0.00147  -0.00114   0.00033   1.59530
   A21        1.68467   0.00011   0.00108   0.00043   0.00148   1.68615
   A22        1.70103  -0.00003   0.00835   0.00027   0.00862   1.70965
   A23        2.96763  -0.00003  -0.00630   0.00145  -0.00486   2.96277
   A24        1.24908  -0.00000  -0.00427   0.00138  -0.00288   1.24619
   A25        1.72993  -0.00002  -0.00014  -0.00005  -0.00018   1.72974
   A26        1.85752  -0.00001  -0.00005  -0.00009  -0.00014   1.85738
   A27        1.85207   0.00025   0.00118  -0.00008   0.00110   1.85317
   A28        1.89099   0.00009   0.00025   0.00010   0.00035   1.89134
   A29        1.79793   0.00011   0.00046   0.00008   0.00054   1.79846
   A30        1.84904   0.00002  -0.00004   0.00003  -0.00001   1.84903
   A31        1.92609   0.00001  -0.00003   0.00008   0.00005   1.92614
   A32        1.93083  -0.00002  -0.00008  -0.00002  -0.00011   1.93072
   A33        1.90928  -0.00001   0.00005  -0.00001   0.00004   1.90933
   A34        1.91463  -0.00001   0.00003  -0.00007  -0.00004   1.91459
   A35        1.93212   0.00000   0.00006  -0.00001   0.00006   1.93218
   A36        3.13977   0.00002  -0.00003   0.00014   0.00011   3.13988
   A37        3.12457  -0.00000   0.00000  -0.00003  -0.00003   3.12454
    D1        1.66138   0.00002   0.00077  -0.00005   0.00072   1.66210
    D2       -1.57701   0.00002   0.00065   0.00004   0.00069  -1.57632
    D3       -1.48005   0.00002   0.00020   0.00042   0.00062  -1.47942
    D4        1.56475   0.00002   0.00008   0.00052   0.00059   1.56534
    D5       -2.55336  -0.00001  -0.00439   0.00120  -0.00319  -2.55655
    D6        0.67177  -0.00001  -0.00429   0.00109  -0.00320   0.66857
    D7        2.88846   0.00002   0.00235   0.00087   0.00322   2.89168
    D8       -0.26991   0.00001   0.00261   0.00054   0.00314  -0.26677
    D9       -0.01938   0.00000  -0.00008  -0.00047  -0.00054  -0.01992
   D10       -3.05770   0.00001   0.00007  -0.00043  -0.00036  -3.05805
   D11        3.13982   0.00000  -0.00035  -0.00012  -0.00047   3.13935
   D12        0.10150   0.00001  -0.00021  -0.00008  -0.00028   0.10122
   D13        1.34310   0.00001   0.00323   0.00014   0.00337   1.34646
   D14       -0.68325  -0.00001   0.00340   0.00016   0.00356  -0.67969
   D15       -2.78591   0.00006   0.00381   0.00072   0.00453  -2.78137
   D16       -1.90456  -0.00001   0.00303   0.00010   0.00313  -1.90143
   D17        2.35228  -0.00002   0.00320   0.00013   0.00333   2.35561
   D18        0.24962   0.00005   0.00361   0.00069   0.00430   0.25393
   D19       -2.05846   0.00006   0.00569   0.00207   0.00776  -2.05070
   D20        1.18078   0.00007   0.00586   0.00212   0.00798   1.18875
   D21        2.77498  -0.00000   0.00840   0.00033   0.00874   2.78372
   D22        1.07026   0.00002  -0.00022   0.00017  -0.00005   1.07022
   D23       -1.41046  -0.00001   0.00850   0.00012   0.00861  -1.40184
   D24       -3.11517   0.00001  -0.00012  -0.00004  -0.00017  -3.11534
   D25        0.59094  -0.00002   0.00802   0.00014   0.00816   0.59909
   D26       -1.11378   0.00001  -0.00060  -0.00002  -0.00062  -1.11441
   D27        1.99461  -0.00009  -0.01539  -0.00129  -0.01669   1.97792
   D28        2.36676  -0.00007   0.00847  -0.00183   0.00663   2.37340
   D29       -2.59971   0.00003  -0.01381  -0.00099  -0.01479  -2.61450
   D30       -2.22756   0.00005   0.01005  -0.00153   0.00853  -2.21903
   D31        1.95371   0.00003   0.02422  -0.00061   0.02360   1.97731
   D32        1.59680   0.00001   0.00199  -0.00027   0.00173   1.59852
   D33       -1.60479  -0.00007  -0.00095  -0.00075  -0.00170  -1.60649
   D34       -1.43736   0.00001   0.00062   0.00016   0.00078  -1.43658
   D35       -3.07140   0.00001   0.00062   0.00041   0.00103  -3.07037
   D36        1.14678  -0.00000   0.00059   0.00037   0.00096   1.14774
   D37       -0.99752   0.00000   0.00059   0.00034   0.00092  -0.99659
         Item               Value     Threshold  Converged?
 Maximum Force            0.000246     0.000450     YES
 RMS     Force            0.000057     0.000300     YES
 Maximum Displacement     0.079125     0.001800     NO 
 RMS     Displacement     0.017986     0.001200     NO 
 Predicted change in Energy=-2.140897D-06
 GradGradGradGradGradGradGradGradGradGradGradGradGradGradGradGradGradGrad

                          Input orientation:                          
 ---------------------------------------------------------------------
 Center     Atomic      Atomic             Coordinates (Angstroms)
 Number     Number       Type             X           Y           Z
 ---------------------------------------------------------------------
      1          6           0        1.959811   -2.047019   -0.108547
      2          6           0        2.986553   -1.337126    0.257545
      3          6           0        4.004312   -0.616790    0.634880
      4         16           0        4.245588    1.051797    0.057736
      5          6           0        5.996643    1.120493   -0.001661
      6          6           0        6.694922    2.081037   -0.636704
      7          6           0        6.073051    3.213613   -1.403160
      8         16           0        5.396802    4.576885   -0.348239
      9         16           0        5.498330    6.670292   -2.848178
     10          8           0        5.250496    7.747819   -4.119955
     11         16           0        8.460250    1.874629   -0.675043
     12         16           0        9.266280    3.517750    0.369023
     13         16           0        9.663391    5.023521   -0.992141
     14          6           0       11.285570    4.541028   -1.679045
     15          1           0        2.018337   -2.743648   -0.940764
     16          1           0        1.003916   -1.972691    0.403579
     17          1           0        4.711902   -0.967612    1.381596
     18          1           0        6.510414    0.328722    0.532601
     19          1           0        5.194378    2.864845   -1.956772
     20          1           0        6.774567    3.646732   -2.114712
     21          1           0        6.563279    4.919285    0.228917
     22          1           0        4.319878    6.824253   -2.204628
     23          1           0        5.599268    8.598297   -3.828542
     24          1           0       11.577615    5.349049   -2.355601
     25          1           0       11.197782    3.610895   -2.242223
     26          1           0       12.025235    4.441983   -0.883944
 ---------------------------------------------------------------------
                    Distance matrix (angstroms):
                    1          2          3          4          5
     1  C    0.000000
     2  C    1.300835   0.000000
     3  C    2.603502   1.302727   0.000000
     4  S    3.854231   2.707776   1.781991   0.000000
     5  C    5.132307   3.894576   2.718956   1.753408   0.000000
     6  C    6.304052   5.122062   4.016787   2.746055   1.346669
     7  C    6.802134   5.744009   4.806794   3.185480   2.520156
     8  S    7.466356   6.414968   5.466243   3.730463   3.525135
     9  S    9.798889   8.948368   8.213729   6.448347   6.257096
    10  O   11.084172  10.335578   9.701964   7.956107   7.838273
    11  S    7.612881   6.414550   5.270527   4.356305   2.662991
    12  S    9.196697   7.938339   6.697269   5.602247   4.071213
    13  S   10.493733   9.305897   8.153863   6.799222   5.446074
    14  C   11.525564  10.352621   9.218137   8.046893   6.518161
    15  H    1.086877   2.086070   3.309120   4.512544   5.624981
    16  H    1.086983   2.087131   3.300658   4.446974   5.887217
    17  H    3.310537   2.092095   1.086898   2.459282   2.814985
    18  H    5.173316   3.907467   2.680485   2.424411   1.084572
    19  H    6.164802   5.237772   4.500522   2.871513   2.740228
    20  H    7.721747   6.694438   5.780327   4.224801   3.384085
    21  H    8.356746   7.206697   6.112385   4.512035   3.847736
    22  H    9.416100   8.628335   7.970665   6.200408   6.340149
    23  H   11.849337  11.055995  10.362618   8.595654   8.409547
    24  H   12.339094  11.195527  10.094014   8.834545   7.387081
    25  H   11.041045   9.907373   8.825930   7.757047   6.186603
    26  H   12.000882  10.788831   9.603813   8.538327   6.939355
                    6          7          8          9         10
     6  C    0.000000
     7  C    1.502300   0.000000
     8  S    2.828000   1.851670   0.000000
     9  S    5.232945   3.790384   3.262262   0.000000
    10  O    6.806748   5.349448   4.929712   1.685201   0.000000
    11  S    1.777768   2.832270   4.098012   6.041016   7.527569
    12  S    3.112478   3.664676   4.075426   5.872508   7.360090
    13  S    4.194801   4.041688   4.337958   4.848140   6.056291
    14  C    5.311505   5.385954   6.037377   6.276366   7.256973
    15  H    6.726104   7.221044   8.084264  10.216205  11.429129
    16  H    7.064166   7.473833   7.922097  10.270094  11.531874
    17  H    4.159346   5.204828   5.848322   8.766244  10.320653
    18  H    2.114693   3.501578   4.479163   7.257375   8.847410
    19  H    2.146757   1.095532   2.357845   3.920257   5.340968
    20  H    2.154588   1.089047   2.425664   3.362836   4.812765
    21  H    2.970233   2.411082   1.345740   3.697114   5.351326
    22  H    5.531484   4.093005   3.107508   1.351522   2.321099
    23  H    7.339140   5.924675   5.322148   2.165296   0.964301
    24  H    6.121699   5.980590   6.544324   6.240674   6.992816
    25  H    5.019353   5.208140   6.178323   6.496987   7.483998
    26  H    5.835018   6.099752   6.651414   7.171057   8.203500
                   11         12         13         14         15
    11  S    0.000000
    12  S    2.107038   0.000000
    13  S    3.385797   2.068287   0.000000
    14  C    4.012498   3.052738   1.826499   0.000000
    15  H    7.930783   9.667126  10.898550  11.810723   0.000000
    16  H    8.459445   9.920323  11.219694  12.348209   1.852210
    17  H    5.134024   6.471950   8.126841   9.106357   3.975293
    18  H    2.765880   4.217993   5.857239   6.740699   5.638174
    19  H    3.645446   4.734553   5.055934   6.323712   6.524929
    20  H    2.838049   3.520541   3.391315   4.619385   8.052132
    21  H    3.699402   3.047974   3.333548   5.107194   8.985833
    22  H    6.631824   6.482556   5.767659   7.349164   9.921652
    23  H    7.958486   7.541783   6.110753   7.308612  12.239365
    24  H    4.961233   4.014910   2.372602   1.093579  12.604495
    25  H    3.600660   3.249304   2.431578   1.090882  11.239938
    26  H    4.398189   3.167959   2.434789   1.090459  12.319681
                   16         17         18         19         20
    16  H    0.000000
    17  H    3.964324   0.000000
    18  H    5.969477   2.374009   0.000000
    19  H    6.821509   5.105410   3.789571   0.000000
    20  H    8.439201   6.145805   4.252909   1.770109   0.000000
    21  H    8.856431   6.277884   4.600901   3.297249   2.675188
    22  H    9.756258   8.586492   7.381246   4.062400   4.016245
    23  H   12.279002  10.928841   9.393382   6.044827   5.369967
    24  H   13.153861  10.050117   7.695578   6.861198   5.101488
    25  H   11.920218   8.727051   6.359538   6.056313   4.425198
    26  H   12.816990   9.374499   7.024157   7.092174   5.451306
                   21         22         23         24         25
    21  H    0.000000
    22  H    3.818886   0.000000
    23  H    5.561243   2.724182   0.000000
    24  H    5.657561   7.407683   6.961882   0.000000
    25  H    5.412674   7.591617   7.663808   1.782781   0.000000
    26  H    5.594572   8.172634   8.199919   1.785751   1.794522
                   26
    26  H    0.000000
 Stoichiometry    C7H12OS6
 Framework group  C1[X(C7H12OS6)]
 Deg. of freedom    72
 Full point group                 C1      NOp   1
 Largest Abelian subgroup         C1      NOp   1
 Largest concise Abelian subgroup C1      NOp   1
                         Standard orientation:                         
 ---------------------------------------------------------------------
 Center     Atomic      Atomic             Coordinates (Angstroms)
 Number     Number       Type             X           Y           Z
 ---------------------------------------------------------------------
      1          6           0        6.901033    0.824304    0.755797
      2          6           0        5.843466    0.220194    0.298879
      3          6           0        4.785952   -0.375843   -0.173882
      4         16           0        3.215347    0.455032   -0.309311
      5          6           0        2.119423   -0.878957   -0.002940
      6          6           0        0.810966   -0.733286    0.280322
      7          6           0        0.112322    0.591486    0.397721
      8         16           0       -0.275637    1.402925   -1.220838
      9         16           0       -2.572912    3.256753    0.167759
     10          8           0       -3.575410    4.443528    0.820801
     11         16           0       -0.076312   -2.219948    0.684093
     12         16           0       -1.552744   -2.444530   -0.802285
     13         16           0       -3.285955   -1.528594   -0.142852
     14          6           0       -4.039165   -2.797738    0.933274
     15          1           0        7.194370    0.744974    1.799330
     16          1           0        7.533402    1.430770    0.112492
     17          1           0        4.827591   -1.381667   -0.583674
     18          1           0        2.561044   -1.867213   -0.070907
     19          1           0        0.758002    1.322359    0.896833
     20          1           0       -0.811238    0.506495    0.968543
     21          1           0       -1.079507    0.431995   -1.692117
     22          1           0       -1.838231    4.030219   -0.662063
     23          1           0       -4.361814    4.472964    0.263505
     24          1           0       -5.002095   -2.388637    1.251578
     25          1           0       -3.412779   -2.973159    1.808998
     26          1           0       -4.198034   -3.724477    0.380991
 ---------------------------------------------------------------------
 Rotational constants (GHZ):           0.3411795           0.1663208           0.1188526
 Standard basis: 6-31G(2df,p) (6D, 7F)
 There are   518 symmetry adapted cartesian basis functions of A   symmetry.
 There are   476 symmetry adapted basis functions of A   symmetry.
   476 basis functions,   844 primitive gaussians,   518 cartesian basis functions
    79 alpha electrons       79 beta electrons
       nuclear repulsion energy      1527.2290054817 Hartrees.
 NAtoms=   26 NActive=   26 NUniq=   26 SFac= 1.00D+00 NAtFMM=   60 NAOKFM=F Big=F
 Integral buffers will be    131072 words long.
 Raffenetti 2 integral format.
 Two-electron integral symmetry is turned on.
 One-electron integrals computed using PRISM.
 PrsmSu:  requested number of processors reduced to:  12 ShMem   1 Linda.
 NBasis=   476 RedAO= T EigKep=  4.26D-04  NBF=   476
 NBsUse=   476 1.00D-06 EigRej= -1.00D+00 NBFU=   476
 Initial guess from the checkpoint file:  "CdCdCSCdCqC[SH]d[SH]OrSSSC.chk"
 B after Tr=    -0.000000   -0.000000    0.000000
         Rot=    0.999999    0.000907   -0.000200    0.001348 Ang=   0.19 deg.
 ExpMin= 1.17D-01 ExpMax= 2.19D+04 ExpMxC= 3.30D+03 IAcc=2 IRadAn=         4 AccDes= 0.00D+00
 Harris functional with IExCor=  402 and IRadAn=       4 diagonalized for initial guess.
 HarFok:  IExCor=  402 AccDes= 0.00D+00 IRadAn=         4 IDoV= 1 UseB2=F ITyADJ=14
 ICtDFT=  3500011 ScaDFX=  1.000000  1.000000  1.000000  1.000000
 FoFCou: FMM=F IPFlag=           0 FMFlag=      100000 FMFlg1=           0
         NFxFlg=           0 DoJE=T BraDBF=F KetDBF=T FulRan=T
         wScrn=  0.000000 ICntrl=       500 IOpCl=  0 I1Cent=   200000004 NGrid=           0
         NMat0=    1 NMatS0=      1 NMatT0=    0 NMatD0=    1 NMtDS0=    0 NMtDT0=    0
 Petite list used in FoFCou.
 Requested convergence on RMS density matrix=1.00D-08 within 128 cycles.
 Requested convergence on MAX density matrix=1.00D-06.
 Requested convergence on             energy=1.00D-06.
 No special actions if energy rises.
 Integral accuracy reduced to 1.0D-05 until final iterations.
 Initial convergence to 1.0D-05 achieved.  Increase integral accuracy.
slurmstepd: error: *** JOB 27446630 ON lewis4-r630-hpc4-node224 CANCELLED AT 2023-05-17T06:35:16 DUE TO TIME LIMIT ***
