### Starting Gaussian ###
 Entering Gaussian System, Link 0=g16
 Initial command:
 /cluster/software/gaussian/gaussian-16-A.03/avx2/g16/l1.exe "/local/scratch/linjian/Gau-28852.inp" -scrdir="/local/scratch/linjian/"
 Entering Link 1 = /cluster/software/gaussian/gaussian-16-A.03/avx2/g16/l1.exe PID=     28873.
  
 Copyright (c) 1988,1990,1992,1993,1995,1998,2003,2009,2016,
            Gaussian, Inc.  All Rights Reserved.
  
 This is part of the Gaussian(R) 16 program.  It is based on
 the Gaussian(R) 09 system (copyright 2009, Gaussian, Inc.),
 the Gaussian(R) 03 system (copyright 2003, Gaussian, Inc.),
 the Gaussian(R) 98 system (copyright 1998, Gaussian, Inc.),
 the Gaussian(R) 94 system (copyright 1995, Gaussian, Inc.),
 the Gaussian 92(TM) system (copyright 1992, Gaussian, Inc.),
 the Gaussian 90(TM) system (copyright 1990, Gaussian, Inc.),
 the Gaussian 88(TM) system (copyright 1988, Gaussian, Inc.),
 the Gaussian 86(TM) system (copyright 1986, Carnegie Mellon
 University), and the Gaussian 82(TM) system (copyright 1983,
 Carnegie Mellon University). Gaussian is a federally registered
 trademark of Gaussian, Inc.
  
 This software contains proprietary and confidential information,
 including trade secrets, belonging to Gaussian, Inc.
  
 This software is provided under written license and may be
 used, copied, transmitted, or stored only in accord with that
 written license.
  
 The following legend is applicable only to US Government
 contracts under FAR:
  
                    RESTRICTED RIGHTS LEGEND
  
 Use, reproduction and disclosure by the US Government is
 subject to restrictions as set forth in subparagraphs (a)
 and (c) of the Commercial Computer Software - Restricted
 Rights clause in FAR 52.227-19.
  
 Gaussian, Inc.
 340 Quinnipiac St., Bldg. 40, Wallingford CT 06492
  
  
 ---------------------------------------------------------------
 Warning -- This program may not be used in any manner that
 competes with the business of Gaussian, Inc. or will provide
 assistance to any competitor of Gaussian, Inc.  The licensee
 of this program is prohibited from giving any competitor of
 Gaussian, Inc. access to this program.  By using this program,
 the user acknowledges that Gaussian, Inc. is engaged in the
 business of creating and licensing software in the field of
 computational chemistry and represents and warrants to the
 licensee that it is not a competitor of Gaussian, Inc. and that
 it will not use this program in any manner prohibited above.
 ---------------------------------------------------------------
  

 Cite this work as:
 Gaussian 16, Revision A.03,
 M. J. Frisch, G. W. Trucks, H. B. Schlegel, G. E. Scuseria, 
 M. A. Robb, J. R. Cheeseman, G. Scalmani, V. Barone, 
 G. A. Petersson, H. Nakatsuji, X. Li, M. Caricato, A. V. Marenich, 
 J. Bloino, B. G. Janesko, R. Gomperts, B. Mennucci, H. P. Hratchian, 
 J. V. Ortiz, A. F. Izmaylov, J. L. Sonnenberg, D. Williams-Young, 
 F. Ding, F. Lipparini, F. Egidi, J. Goings, B. Peng, A. Petrone, 
 T. Henderson, D. Ranasinghe, V. G. Zakrzewski, J. Gao, N. Rega, 
 G. Zheng, W. Liang, M. Hada, M. Ehara, K. Toyota, R. Fukuda, 
 J. Hasegawa, M. Ishida, T. Nakajima, Y. Honda, O. Kitao, H. Nakai, 
 T. Vreven, K. Throssell, J. A. Montgomery, Jr., J. E. Peralta, 
 F. Ogliaro, M. J. Bearpark, J. J. Heyd, E. N. Brothers, K. N. Kudin, 
 V. N. Staroverov, T. A. Keith, R. Kobayashi, J. Normand, 
 K. Raghavachari, A. P. Rendell, J. C. Burant, S. S. Iyengar, 
 J. Tomasi, M. Cossi, J. M. Millam, M. Klene, C. Adamo, R. Cammi, 
 J. W. Ochterski, R. L. Martin, K. Morokuma, O. Farkas, 
 J. B. Foresman, and D. J. Fox, Gaussian, Inc., Wallingford CT, 2016.
 
 ******************************************
 Gaussian 16:  ES64L-G16RevA.03 25-Dec-2016
                17-May-2023 
 ******************************************
 %chk=CdCqCCCrNC1dCqCqCrdSrCdCdCdC1.chk
 %NProcShared=20
 Will use up to   20 processors via shared memory.
 -----------------------------
 # opt freq b3lyp/6-31g(2df,p)
 -----------------------------
 1/18=20,19=15,26=3,38=1/1,3;
 2/9=110,12=2,17=6,18=5,40=1/2;
 3/5=1,6=6,7=104,11=2,25=1,30=1,71=1,74=-5/1,2,3;
 4//1;
 5/5=2,38=5/2;
 6/7=2,8=2,9=2,10=2,28=1/1;
 7//1,2,3,16;
 1/18=20,19=15,26=3/3(2);
 2/9=110/2;
 99//99;
 2/9=110/2;
 3/5=1,6=6,7=104,11=2,25=1,30=1,71=1,74=-5/1,2,3;
 4/5=5,16=3,69=1/1;
 5/5=2,38=5/2;
 7//1,2,3,16;
 1/18=20,19=15,26=3/3(-5);
 2/9=110/2;
 6/7=2,8=2,9=2,10=2,19=2,28=1/1;
 99/9=1/99;
 -------------------
 Title Card Required
 -------------------
 Symbolic Z-matrix:
 Charge =  0 Multiplicity = 1
 C                     1.19639   0.02455  -0.1528 
 C                     2.55222   0.00628  -0.07973 
 C                     3.22016  -0.31439   1.23949 
 C                     2.25974  -0.60822   2.40486 
 C                     3.01102  -0.92734   3.67543 
 N                     3.35128   0.2981   -1.2028 
 C                     4.72494   0.54564  -1.48742 
 C                     5.29281   1.2302   -2.55859 
 C                     4.47731   1.18527  -3.88018 
 C                     5.26554   1.32572  -5.1592 
 S                     2.79268   1.00672  -4.115 
 C                     6.96048   1.1499   -2.62785 
 C                     7.27833  -0.10679  -2.80512 
 C                     6.71849  -0.65171  -1.87591 
 C                     5.79922  -0.37029  -0.95869 
 H                     0.53664  -0.18506   0.69225 
 H                     0.64317   0.25547  -1.05623 
 H                     3.86093   0.52983   1.51921 
 H                     3.85914  -1.19118   1.08894 
 H                     1.61367  -1.46205   2.16043 
 H                     1.61138   0.25794   2.59287 
 H                     3.64047  -1.80967   3.53284 
 H                     2.30142  -1.1299    4.48291 
 H                     3.64078  -0.08251   3.96613 
 H                     2.73916   0.52158  -1.99433 
 H                     6.3352    1.28941  -4.98126 
 H                     5.02393   2.31593  -5.5471 
 H                     5.02751   0.5457   -5.89447 
 H                     7.59505   1.40039  -1.70367 
 H                     6.12765  -0.11488   0.04907 
 

 GradGradGradGradGradGradGradGradGradGradGradGradGradGradGradGradGradGrad
 Berny optimization.
 Initialization pass.
                           ----------------------------
                           !    Initial Parameters    !
                           ! (Angstroms and Degrees)  !
 --------------------------                            --------------------------
 ! Name  Definition              Value          Derivative Info.                !
 --------------------------------------------------------------------------------
 ! R1    R(1,2)                  1.3579         estimate D2E/DX2                !
 ! R2    R(1,16)                 1.0924         estimate D2E/DX2                !
 ! R3    R(1,17)                 1.0842         estimate D2E/DX2                !
 ! R4    R(2,3)                  1.513          estimate D2E/DX2                !
 ! R5    R(2,6)                  1.4089         estimate D2E/DX2                !
 ! R6    R(3,4)                  1.5385         estimate D2E/DX2                !
 ! R7    R(3,18)                 1.0961         estimate D2E/DX2                !
 ! R8    R(3,19)                 1.0953         estimate D2E/DX2                !
 ! R9    R(4,5)                  1.5102         estimate D2E/DX2                !
 ! R10   R(4,20)                 1.0983         estimate D2E/DX2                !
 ! R11   R(4,21)                 1.0982         estimate D2E/DX2                !
 ! R12   R(5,22)                 1.0932         estimate D2E/DX2                !
 ! R13   R(5,23)                 1.0939         estimate D2E/DX2                !
 ! R14   R(5,24)                 1.0931         estimate D2E/DX2                !
 ! R15   R(6,7)                  1.4245         estimate D2E/DX2                !
 ! R16   R(6,25)                 1.0253         estimate D2E/DX2                !
 ! R17   R(7,8)                  1.3923         estimate D2E/DX2                !
 ! R18   R(7,15)                 1.5075         estimate D2E/DX2                !
 ! R19   R(8,9)                  1.5536         estimate D2E/DX2                !
 ! R20   R(8,12)                 1.671          estimate D2E/DX2                !
 ! R21   R(9,10)                 1.5089         estimate D2E/DX2                !
 ! R22   R(9,11)                 1.7103         estimate D2E/DX2                !
 ! R23   R(10,26)                1.085          estimate D2E/DX2                !
 ! R24   R(10,27)                1.0906         estimate D2E/DX2                !
 ! R25   R(10,28)                1.098          estimate D2E/DX2                !
 ! R26   R(12,13)                1.3083         estimate D2E/DX2                !
 ! R27   R(12,29)                1.1487         estimate D2E/DX2                !
 ! R28   R(13,14)                1.214          estimate D2E/DX2                !
 ! R29   R(14,15)                1.3287         estimate D2E/DX2                !
 ! R30   R(15,30)                1.0903         estimate D2E/DX2                !
 ! A1    A(2,1,16)             123.9738         estimate D2E/DX2                !
 ! A2    A(2,1,17)             123.8595         estimate D2E/DX2                !
 ! A3    A(16,1,17)            112.1657         estimate D2E/DX2                !
 ! A4    A(1,2,3)              119.3762         estimate D2E/DX2                !
 ! A5    A(1,2,6)              121.3729         estimate D2E/DX2                !
 ! A6    A(3,2,6)              119.2449         estimate D2E/DX2                !
 ! A7    A(2,3,4)              115.1726         estimate D2E/DX2                !
 ! A8    A(2,3,18)             108.5013         estimate D2E/DX2                !
 ! A9    A(2,3,19)             107.8993         estimate D2E/DX2                !
 ! A10   A(4,3,18)             108.5859         estimate D2E/DX2                !
 ! A11   A(4,3,19)             108.386          estimate D2E/DX2                !
 ! A12   A(18,3,19)            108.0934         estimate D2E/DX2                !
 ! A13   A(3,4,5)              111.5373         estimate D2E/DX2                !
 ! A14   A(3,4,20)             110.3122         estimate D2E/DX2                !
 ! A15   A(3,4,21)             110.342          estimate D2E/DX2                !
 ! A16   A(5,4,20)             108.3981         estimate D2E/DX2                !
 ! A17   A(5,4,21)             108.4421         estimate D2E/DX2                !
 ! A18   A(20,4,21)            107.697          estimate D2E/DX2                !
 ! A19   A(4,5,22)             110.32           estimate D2E/DX2                !
 ! A20   A(4,5,23)             109.7231         estimate D2E/DX2                !
 ! A21   A(4,5,24)             110.3065         estimate D2E/DX2                !
 ! A22   A(22,5,23)            108.6837         estimate D2E/DX2                !
 ! A23   A(22,5,24)            109.0726         estimate D2E/DX2                !
 ! A24   A(23,5,24)            108.6955         estimate D2E/DX2                !
 ! A25   A(2,6,7)              137.9172         estimate D2E/DX2                !
 ! A26   A(2,6,25)             108.7806         estimate D2E/DX2                !
 ! A27   A(7,6,25)             112.5567         estimate D2E/DX2                !
 ! A28   A(6,7,8)              129.2321         estimate D2E/DX2                !
 ! A29   A(6,7,15)             120.7656         estimate D2E/DX2                !
 ! A30   A(8,7,15)             106.1359         estimate D2E/DX2                !
 ! A31   A(7,8,9)              115.2234         estimate D2E/DX2                !
 ! A32   A(7,8,12)             114.5384         estimate D2E/DX2                !
 ! A33   A(9,8,12)             119.1571         estimate D2E/DX2                !
 ! A34   A(8,9,10)             116.3692         estimate D2E/DX2                !
 ! A35   A(8,9,11)             129.5581         estimate D2E/DX2                !
 ! A36   A(10,9,11)            114.0717         estimate D2E/DX2                !
 ! A37   A(9,10,26)            111.8928         estimate D2E/DX2                !
 ! A38   A(9,10,27)            105.6803         estimate D2E/DX2                !
 ! A39   A(9,10,28)            112.8441         estimate D2E/DX2                !
 ! A40   A(26,10,27)           107.8868         estimate D2E/DX2                !
 ! A41   A(26,10,28)           107.4434         estimate D2E/DX2                !
 ! A42   A(27,10,28)           111.0263         estimate D2E/DX2                !
 ! A43   A(8,12,13)            107.1112         estimate D2E/DX2                !
 ! A44   A(8,12,29)            120.4962         estimate D2E/DX2                !
 ! A45   A(13,12,29)           100.6179         estimate D2E/DX2                !
 ! A46   A(12,13,14)           102.4393         estimate D2E/DX2                !
 ! A47   A(13,14,15)           138.7932         estimate D2E/DX2                !
 ! A48   A(7,15,14)            112.3084         estimate D2E/DX2                !
 ! A49   A(7,15,30)            113.3612         estimate D2E/DX2                !
 ! A50   A(14,15,30)           118.6373         estimate D2E/DX2                !
 ! D1    D(16,1,2,3)            -0.2838         estimate D2E/DX2                !
 ! D2    D(16,1,2,6)          -179.3879         estimate D2E/DX2                !
 ! D3    D(17,1,2,3)           179.3024         estimate D2E/DX2                !
 ! D4    D(17,1,2,6)             0.1983         estimate D2E/DX2                !
 ! D5    D(1,2,3,4)              0.4461         estimate D2E/DX2                !
 ! D6    D(1,2,3,18)          -121.4668         estimate D2E/DX2                !
 ! D7    D(1,2,3,19)           121.6466         estimate D2E/DX2                !
 ! D8    D(6,2,3,4)            179.5693         estimate D2E/DX2                !
 ! D9    D(6,2,3,18)            57.6565         estimate D2E/DX2                !
 ! D10   D(6,2,3,19)           -59.2301         estimate D2E/DX2                !
 ! D11   D(1,2,6,7)            169.8989         estimate D2E/DX2                !
 ! D12   D(1,2,6,25)             1.0517         estimate D2E/DX2                !
 ! D13   D(3,2,6,7)             -9.2063         estimate D2E/DX2                !
 ! D14   D(3,2,6,25)          -178.0535         estimate D2E/DX2                !
 ! D15   D(2,3,4,5)            179.564          estimate D2E/DX2                !
 ! D16   D(2,3,4,20)            59.0403         estimate D2E/DX2                !
 ! D17   D(2,3,4,21)           -59.8367         estimate D2E/DX2                !
 ! D18   D(18,3,4,5)           -58.5688         estimate D2E/DX2                !
 ! D19   D(18,3,4,20)         -179.0924         estimate D2E/DX2                !
 ! D20   D(18,3,4,21)           62.0305         estimate D2E/DX2                !
 ! D21   D(19,3,4,5)            58.6281         estimate D2E/DX2                !
 ! D22   D(19,3,4,20)          -61.8955         estimate D2E/DX2                !
 ! D23   D(19,3,4,21)          179.2275         estimate D2E/DX2                !
 ! D24   D(3,4,5,22)           -60.3448         estimate D2E/DX2                !
 ! D25   D(3,4,5,23)           179.9426         estimate D2E/DX2                !
 ! D26   D(3,4,5,24)            60.2239         estimate D2E/DX2                !
 ! D27   D(20,4,5,22)           61.2943         estimate D2E/DX2                !
 ! D28   D(20,4,5,23)          -58.4182         estimate D2E/DX2                !
 ! D29   D(20,4,5,24)         -178.137          estimate D2E/DX2                !
 ! D30   D(21,4,5,22)          177.9494         estimate D2E/DX2                !
 ! D31   D(21,4,5,23)           58.2369         estimate D2E/DX2                !
 ! D32   D(21,4,5,24)          -61.4818         estimate D2E/DX2                !
 ! D33   D(2,6,7,8)           -156.7692         estimate D2E/DX2                !
 ! D34   D(2,6,7,15)            48.5915         estimate D2E/DX2                !
 ! D35   D(25,6,7,8)            11.7934         estimate D2E/DX2                !
 ! D36   D(25,6,7,15)         -142.8459         estimate D2E/DX2                !
 ! D37   D(6,7,8,9)            -29.3554         estimate D2E/DX2                !
 ! D38   D(6,7,8,12)          -173.1673         estimate D2E/DX2                !
 ! D39   D(15,7,8,9)           128.1169         estimate D2E/DX2                !
 ! D40   D(15,7,8,12)          -15.695          estimate D2E/DX2                !
 ! D41   D(6,7,15,14)          136.2334         estimate D2E/DX2                !
 ! D42   D(6,7,15,30)          -85.9056         estimate D2E/DX2                !
 ! D43   D(8,7,15,14)          -23.5619         estimate D2E/DX2                !
 ! D44   D(8,7,15,30)          114.299          estimate D2E/DX2                !
 ! D45   D(7,8,9,10)          -152.9196         estimate D2E/DX2                !
 ! D46   D(7,8,9,11)            27.4671         estimate D2E/DX2                !
 ! D47   D(12,8,9,10)          -10.8749         estimate D2E/DX2                !
 ! D48   D(12,8,9,11)          169.5119         estimate D2E/DX2                !
 ! D49   D(7,8,12,13)           63.2641         estimate D2E/DX2                !
 ! D50   D(7,8,12,29)          -50.6306         estimate D2E/DX2                !
 ! D51   D(9,8,12,13)          -79.0274         estimate D2E/DX2                !
 ! D52   D(9,8,12,29)          167.0779         estimate D2E/DX2                !
 ! D53   D(8,9,10,26)            8.7492         estimate D2E/DX2                !
 ! D54   D(8,9,10,27)         -108.4194         estimate D2E/DX2                !
 ! D55   D(8,9,10,28)          130.0711         estimate D2E/DX2                !
 ! D56   D(11,9,10,26)        -171.5773         estimate D2E/DX2                !
 ! D57   D(11,9,10,27)          71.254          estimate D2E/DX2                !
 ! D58   D(11,9,10,28)         -50.2555         estimate D2E/DX2                !
 ! D59   D(8,12,13,14)         -55.1169         estimate D2E/DX2                !
 ! D60   D(29,12,13,14)         71.6062         estimate D2E/DX2                !
 ! D61   D(12,13,14,15)         12.8912         estimate D2E/DX2                !
 ! D62   D(13,14,15,7)          35.1833         estimate D2E/DX2                !
 ! D63   D(13,14,15,30)       -100.2467         estimate D2E/DX2                !
 --------------------------------------------------------------------------------
 Trust Radius=3.00D-01 FncErr=1.00D-07 GrdErr=1.00D-06 EigMax=2.50D+02 EigMin=1.00D-04
 Number of steps in this run=    153 maximum allowed number of steps=    180.
 GradGradGradGradGradGradGradGradGradGradGradGradGradGradGradGradGradGrad

                          Input orientation:                          
 ---------------------------------------------------------------------
 Center     Atomic      Atomic             Coordinates (Angstroms)
 Number     Number       Type             X           Y           Z
 ---------------------------------------------------------------------
      1          6           0        1.196390    0.024550   -0.152800
      2          6           0        2.552220    0.006280   -0.079730
      3          6           0        3.220160   -0.314390    1.239490
      4          6           0        2.259740   -0.608220    2.404860
      5          6           0        3.011020   -0.927340    3.675430
      6          7           0        3.351280    0.298100   -1.202800
      7          6           0        4.724940    0.545640   -1.487420
      8          6           0        5.292810    1.230200   -2.558590
      9          6           0        4.477310    1.185270   -3.880180
     10          6           0        5.265540    1.325720   -5.159200
     11         16           0        2.792680    1.006720   -4.115000
     12          6           0        6.960480    1.149900   -2.627850
     13          6           0        7.278330   -0.106790   -2.805120
     14          6           0        6.718490   -0.651710   -1.875910
     15          6           0        5.799220   -0.370290   -0.958690
     16          1           0        0.536640   -0.185060    0.692250
     17          1           0        0.643170    0.255470   -1.056230
     18          1           0        3.860930    0.529830    1.519210
     19          1           0        3.859140   -1.191180    1.088940
     20          1           0        1.613670   -1.462050    2.160430
     21          1           0        1.611380    0.257940    2.592870
     22          1           0        3.640470   -1.809670    3.532840
     23          1           0        2.301420   -1.129900    4.482910
     24          1           0        3.640780   -0.082510    3.966130
     25          1           0        2.739160    0.521580   -1.994330
     26          1           0        6.335200    1.289410   -4.981260
     27          1           0        5.023930    2.315930   -5.547100
     28          1           0        5.027510    0.545700   -5.894470
     29          1           0        7.595050    1.400390   -1.703670
     30          1           0        6.127650   -0.114880    0.049070
 ---------------------------------------------------------------------
                    Distance matrix (angstroms):
                    1          2          3          4          5
     1  C    0.000000
     2  C    1.357920   0.000000
     3  C    2.479717   1.513048   0.000000
     4  C    2.841256   2.576110   1.538450   0.000000
     5  C    4.342156   3.896584   2.520566   1.510168   0.000000
     6  N    2.412650   1.408880   2.521332   3.876608   5.041290
     7  C    3.808334   2.644468   3.231107   4.749573   5.635797
     8  C    4.901232   3.892757   4.594241   6.100421   6.980297
     9  C    5.099517   4.420340   5.480915   6.901880   7.981251
    10  C    6.581418   5.907964   6.914967   8.366000   9.392009
    11  S    4.383130   4.164385   5.531603   6.737999   8.029885
    12  C    6.373148   5.218576   5.575882   7.107469   7.722985
    13  C    6.636418   5.456799   5.733298   7.251315   7.802613
    14  C    5.824090   4.584432   4.696575   6.181208   6.681219
    15  C    4.689499   3.384876   3.389199   4.888558   5.436859
    16  H    1.092390   2.166824   2.741802   2.466003   3.946251
    17  H    1.084233   2.158731   3.497992   3.916427   5.421657
    18  H    3.186016   2.131534   1.096146   2.154842   2.737695
    19  H    3.179647   2.123144   1.095318   2.151643   2.734749
    20  H    2.781211   2.838166   2.178546   1.098261   2.129255
    21  H    2.786645   2.844522   2.178847   1.098158   2.129746
    22  H    4.787675   4.187198   2.769833   2.149939   1.093181
    23  H    4.903433   4.708661   3.468272   2.142937   1.093886
    24  H    4.790834   4.190684   2.768620   2.149699   1.093088
    25  H    2.453245   1.991525   3.374581   4.567183   5.858281
    26  H    7.163886   6.323160   7.139564   8.646684   9.534277
    27  H    6.999926   6.429305   7.498665   8.912074   9.981266
    28  H    6.922128   6.342652   7.409430   8.824452   9.890352
    29  H    6.726142   5.478217   5.544576   7.027095   7.440858
    30  H    4.937359   3.579800   3.148079   4.555640   4.850151
                    6          7          8          9         10
     6  N    0.000000
     7  C    1.424509   0.000000
     8  C    2.544900   1.392302   0.000000
     9  C    3.037001   2.489126   1.553596   0.000000
    10  C    4.513701   3.792459   2.602507   1.508948   0.000000
    11  S    3.048784   3.293995   2.953473   1.710263   2.703174
    12  C    3.972739   2.581347   1.671038   2.781315   3.051470
    13  C    4.260644   2.946489   2.406368   3.266632   3.412492
    14  C    3.562768   2.357714   2.457682   3.523419   4.098937
    15  C    2.549264   1.507501   2.318987   3.564031   4.561310
    16  H    3.427369   4.777734   5.932291   6.189814   7.673618
    17  H    2.712408   4.114726   4.982603   4.851788   6.272647
    18  H    2.778989   3.128352   4.378270   5.473841   6.870774
    19  H    2.779919   3.225490   4.606839   5.542725   6.881279
    20  H    4.174773   5.197849   6.561511   7.190112   8.642037
    21  H    4.175641   5.140602   6.405916   7.139599   8.636413
    22  H    5.191590   5.650360   7.005466   8.038833   9.382062
    23  H    5.955559   6.657757   8.006323   8.946272  10.382021
    24  H    5.191003   5.595640   6.857433   7.991973   9.375212
    25  H    1.025258   2.049600   2.709550   2.649166   4.128636
    26  H    4.915611   3.918297   2.638070   2.162170   1.084967
    27  H    5.073691   4.438955   3.190971   2.087057   1.090577
    28  H    4.988268   4.417424   3.415702   2.183835   1.098049
    29  H    4.413105   3.002481   2.461740   3.808382   4.168079
    30  H    3.073428   2.182816   3.050588   4.455673   5.472169
                   11         12         13         14         15
    11  S    0.000000
    12  C    4.427491   0.000000
    13  C    4.803826   1.308328   0.000000
    14  C    4.814135   1.967173   1.213997   0.000000
    15  C    4.571404   2.538818   2.380442   1.328739   0.000000
    16  H    5.442399   7.353292   7.595269   6.710326   5.518574
    17  H    3.813246   6.571027   6.871332   6.197125   5.194799
    18  H    5.754381   5.214384   5.548309   4.592224   3.272182
    19  H    5.748834   5.377127   5.294381   4.154184   2.937781
    20  H    6.845868   7.637950   7.653874   6.558039   5.332886
    21  H    6.852128   7.527575   7.834899   6.846899   5.526867
    22  H    8.193916   7.598396   7.503570   6.330060   5.187086
    23  H    8.873023   8.801547   8.884355   7.757175   6.513265
    24  H    8.198192   7.484639   7.686494   6.627648   5.384750
    25  H    2.176113   4.314589   4.653632   4.150386   3.351410
    26  H    3.657837   2.439052   2.752173   3.682127   4.384398
    27  H    2.956927   3.692137   4.297714   5.015581   5.373114
    28  H    2.893703   3.843467   3.877630   4.521286   5.079025
    29  H    5.388158   1.148709   1.893435   2.238110   2.629697
    30  H    5.451559   3.075577   3.077423   2.083945   1.090266
                   16         17         18         19         20
    16  H    0.000000
    17  H    1.806266   0.000000
    18  H    3.499405   4.130635   0.000000
    19  H    3.494087   4.127592   1.773982   0.000000
    20  H    2.224017   3.773413   3.070656   2.502718   0.000000
    21  H    2.227930   3.775363   2.507418   3.068253   1.773521
    22  H    4.510218   5.857318   3.094603   2.530414   2.472300
    23  H    4.286756   5.945680   3.737685   3.734873   2.444839
    24  H    4.512703   5.858668   2.531964   3.091125   3.045137
    25  H    3.545158   2.311714   3.688279   3.700602   4.739572
    26  H    8.245367   6.991001   6.996791   7.009389   8.992614
    27  H    8.082092   6.603368   7.380749   7.595629   9.236288
    28  H    8.005423   6.535689   7.504919   7.290395   8.975900
    29  H    7.620711   7.075214   5.008840   5.335909   7.674747
    30  H    5.628321   5.606993   2.777586   2.717699   5.162240
                   21         22         23         24         25
    21  H    0.000000
    22  H    3.045613   0.000000
    23  H    2.444280   1.777013   0.000000
    24  H    2.473907   1.780680   1.777069   0.000000
    25  H    4.731152   6.066028   6.698779   6.058459   0.000000
    26  H    8.985870   9.452818  10.568583   9.444461   4.737385
    27  H    9.063108  10.068756  10.949288   9.907934   4.589340
    28  H    9.153562   9.815591  10.859522   9.977430   4.521971
    29  H    7.454512   7.305082   8.526351   7.069786   4.943325
    30  H    5.196788   4.603806   5.943840   4.639928   4.007796
                   26         27         28         29         30
    26  H    0.000000
    27  H    1.758791   0.000000
    28  H    1.759861   1.803994   0.000000
    29  H    3.513137   4.713897   4.988543   0.000000
    30  H    5.226789   6.200335   6.080489   2.742518   0.000000
 Stoichiometry    C13H15NS
 Framework group  C1[X(C13H15NS)]
 Deg. of freedom    84
 Full point group                 C1      NOp   1
 Largest Abelian subgroup         C1      NOp   1
 Largest concise Abelian subgroup C1      NOp   1
                         Standard orientation:                         
 ---------------------------------------------------------------------
 Center     Atomic      Atomic             Coordinates (Angstroms)
 Number     Number       Type             X           Y           Z
 ---------------------------------------------------------------------
      1          6           0        2.282660   -2.186396   -0.140489
      2          6           0        1.830256   -0.910240   -0.037027
      3          6           0        2.826124    0.224391    0.063835
      4          6           0        4.305058   -0.197795    0.027167
      5          6           0        5.224937    0.996081    0.122504
      6          7           0        0.451762   -0.621232   -0.002821
      7          6           0       -0.387273    0.499620    0.259738
      8          6           0       -1.718210    0.526918    0.667620
      9          6           0       -2.577564   -0.681610    0.204341
     10          6           0       -4.057643   -0.431605    0.050107
     11         16           0       -2.099364   -2.283530   -0.156459
     12          6           0       -2.404211    2.050388    0.696126
     13          6           0       -2.404002    2.495733   -0.534074
     14          6           0       -1.234522    2.401820   -0.845982
     15          6           0       -0.122379    1.831357   -0.395143
     16          1           0        3.340191   -2.459384   -0.161026
     17          1           0        1.635013   -3.053485   -0.205847
     18          1           0        2.640957    0.767746    0.997653
     19          1           0        2.641606    0.909439   -0.770661
     20          1           0        4.526014   -0.731933   -0.906670
     21          1           0        4.529107   -0.876439    0.860950
     22          1           0        5.052455    1.676119   -0.715854
     23          1           0        6.266440    0.662778    0.094797
     24          1           0        5.053703    1.533075    1.059071
     25          1           0       -0.071353   -1.501769   -0.049284
     26          1           0       -4.301951    0.621371    0.143432
     27          1           0       -4.533598   -0.960425    0.876650
     28          1           0       -4.449772   -0.776120   -0.915945
     29          1           0       -1.877055    2.917092    1.235072
     30          1           0        0.596359    2.445066    0.148417
 ---------------------------------------------------------------------
 Rotational constants (GHZ):           0.8719360           0.3116978           0.2373130
 Standard basis: 6-31G(2df,p) (6D, 7F)
 There are   544 symmetry adapted cartesian basis functions of A   symmetry.
 There are   499 symmetry adapted basis functions of A   symmetry.
   499 basis functions,   789 primitive gaussians,   544 cartesian basis functions
    58 alpha electrons       58 beta electrons
       nuclear repulsion energy      1012.3606204764 Hartrees.
 NAtoms=   30 NActive=   30 NUniq=   30 SFac= 1.00D+00 NAtFMM=   60 NAOKFM=F Big=F
 Integral buffers will be    131072 words long.
 Raffenetti 2 integral format.
 Two-electron integral symmetry is turned on.
 One-electron integrals computed using PRISM.
 PrsmSu:  requested number of processors reduced to:  12 ShMem   1 Linda.
 NBasis=   499 RedAO= T EigKep=  2.03D-04  NBF=   499
 NBsUse=   499 1.00D-06 EigRej= -1.00D+00 NBFU=   499
 ExpMin= 1.17D-01 ExpMax= 2.19D+04 ExpMxC= 3.30D+03 IAcc=3 IRadAn=         5 AccDes= 0.00D+00
 Harris functional with IExCor=  402 and IRadAn=       5 diagonalized for initial guess.
 HarFok:  IExCor=  402 AccDes= 0.00D+00 IRadAn=         5 IDoV= 1 UseB2=F ITyADJ=14
 ICtDFT=  3500011 ScaDFX=  1.000000  1.000000  1.000000  1.000000
 FoFCou: FMM=F IPFlag=           0 FMFlag=      100000 FMFlg1=           0
         NFxFlg=           0 DoJE=T BraDBF=F KetDBF=T FulRan=T
         wScrn=  0.000000 ICntrl=       500 IOpCl=  0 I1Cent=   200000004 NGrid=           0
         NMat0=    1 NMatS0=      1 NMatT0=    0 NMatD0=    1 NMtDS0=    0 NMtDT0=    0
 Petite list used in FoFCou.
 Requested convergence on RMS density matrix=1.00D-08 within 128 cycles.
 Requested convergence on MAX density matrix=1.00D-06.
 Requested convergence on             energy=1.00D-06.
 No special actions if energy rises.
 Integral accuracy reduced to 1.0D-05 until final iterations.
 EnCoef did     1 forward-backward iterations
 Initial convergence to 1.0D-05 achieved.  Increase integral accuracy.
 SCF Done:  E(RB3LYP) =  -956.999275264     A.U. after   21 cycles
            NFock= 21  Conv=0.42D-08     -V/T= 2.0061

 **********************************************************************

            Population analysis using the SCF density.

 **********************************************************************

 Orbital symmetries:
       Occupied  (A) (A) (A) (A) (A) (A) (A) (A) (A) (A) (A) (A)
                 (A) (A) (A) (A) (A) (A) (A) (A) (A) (A) (A) (A)
                 (A) (A) (A) (A) (A) (A) (A) (A) (A) (A) (A) (A)
                 (A) (A) (A) (A) (A) (A) (A) (A) (A) (A) (A) (A)
                 (A) (A) (A) (A) (A) (A) (A) (A) (A) (A)
       Virtual   (A) (A) (A) (A) (A) (A) (A) (A) (A) (A) (A) (A)
                 (A) (A) (A) (A) (A) (A) (A) (A) (A) (A) (A) (A)
                 (A) (A) (A) (A) (A) (A) (A) (A) (A) (A) (A) (A)
                 (A) (A) (A) (A) (A) (A) (A) (A) (A) (A) (A) (A)
                 (A) (A) (A) (A) (A) (A) (A) (A) (A) (A) (A) (A)
                 (A) (A) (A) (A) (A) (A) (A) (A) (A) (A) (A) (A)
                 (A) (A) (A) (A) (A) (A) (A) (A) (A) (A) (A) (A)
                 (A) (A) (A) (A) (A) (A) (A) (A) (A) (A) (A) (A)
                 (A) (A) (A) (A) (A) (A) (A) (A) (A) (A) (A) (A)
                 (A) (A) (A) (A) (A) (A) (A) (A) (A) (A) (A) (A)
                 (A) (A) (A) (A) (A) (A) (A) (A) (A) (A) (A) (A)
                 (A) (A) (A) (A) (A) (A) (A) (A) (A) (A) (A) (A)
                 (A) (A) (A) (A) (A) (A) (A) (A) (A) (A) (A) (A)
                 (A) (A) (A) (A) (A) (A) (A) (A) (A) (A) (A) (A)
                 (A) (A) (A) (A) (A) (A) (A) (A) (A) (A) (A) (A)
                 (A) (A) (A) (A) (A) (A) (A) (A) (A) (A) (A) (A)
                 (A) (A) (A) (A) (A) (A) (A) (A) (A) (A) (A) (A)
                 (A) (A) (A) (A) (A) (A) (A) (A) (A) (A) (A) (A)
                 (A) (A) (A) (A) (A) (A) (A) (A) (A) (A) (A) (A)
                 (A) (A) (A) (A) (A) (A) (A) (A) (A) (A) (A) (A)
                 (A) (A) (A) (A) (A) (A) (A) (A) (A) (A) (A) (A)
                 (A) (A) (A) (A) (A) (A) (A) (A) (A) (A) (A) (A)
                 (A) (A) (A) (A) (A) (A) (A) (A) (A) (A) (A) (A)
                 (A) (A) (A) (A) (A) (A) (A) (A) (A) (A) (A) (A)
                 (A) (A) (A) (A) (A) (A) (A) (A) (A) (A) (A) (A)
                 (A) (A) (A) (A) (A) (A) (A) (A) (A) (A) (A) (A)
                 (A) (A) (A) (A) (A) (A) (A) (A) (A) (A) (A) (A)
                 (A) (A) (A) (A) (A) (A) (A) (A) (A) (A) (A) (A)
                 (A) (A) (A) (A) (A) (A) (A) (A) (A) (A) (A) (A)
                 (A) (A) (A) (A) (A) (A) (A) (A) (A) (A) (A) (A)
                 (A) (A) (A) (A) (A) (A) (A) (A) (A) (A) (A) (A)
                 (A) (A) (A) (A) (A) (A) (A) (A) (A) (A) (A) (A)
                 (A) (A) (A) (A) (A) (A) (A) (A) (A) (A) (A) (A)
                 (A) (A) (A) (A) (A) (A) (A) (A) (A) (A) (A) (A)
                 (A) (A) (A) (A) (A) (A) (A) (A) (A) (A) (A) (A)
                 (A) (A) (A) (A) (A) (A) (A) (A) (A) (A) (A) (A)
                 (A) (A) (A) (A) (A) (A) (A) (A) (A)
 The electronic state is 1-A.
 Alpha  occ. eigenvalues --  -88.83680 -14.37375 -10.28956 -10.27611 -10.26603
 Alpha  occ. eigenvalues --  -10.23957 -10.23583 -10.22325 -10.21092 -10.19256
 Alpha  occ. eigenvalues --  -10.18985 -10.18498 -10.18260 -10.17549 -10.17266
 Alpha  occ. eigenvalues --   -7.90169  -5.86556  -5.86287  -5.85774  -0.95118
 Alpha  occ. eigenvalues --   -0.92028  -0.82289  -0.80315  -0.78254  -0.74109
 Alpha  occ. eigenvalues --   -0.72069  -0.68725  -0.68307  -0.63216  -0.61789
 Alpha  occ. eigenvalues --   -0.59523  -0.55031  -0.54381  -0.50372  -0.48917
 Alpha  occ. eigenvalues --   -0.48107  -0.47546  -0.46364  -0.45167  -0.43496
 Alpha  occ. eigenvalues --   -0.43078  -0.42408  -0.40933  -0.40524  -0.38746
 Alpha  occ. eigenvalues --   -0.38038  -0.36704  -0.35555  -0.34679  -0.34376
 Alpha  occ. eigenvalues --   -0.33900  -0.33217  -0.30202  -0.27437  -0.24997
 Alpha  occ. eigenvalues --   -0.21492  -0.21056  -0.20158
 Alpha virt. eigenvalues --   -0.13213  -0.09202  -0.04780   0.01712   0.02365
 Alpha virt. eigenvalues --    0.04889   0.06196   0.08646   0.09805   0.11704
 Alpha virt. eigenvalues --    0.11947   0.12261   0.13229   0.14042   0.14901
 Alpha virt. eigenvalues --    0.15926   0.16740   0.17297   0.17501   0.18501
 Alpha virt. eigenvalues --    0.18663   0.19457   0.19936   0.21069   0.22745
 Alpha virt. eigenvalues --    0.23162   0.24046   0.25941   0.26825   0.28093
 Alpha virt. eigenvalues --    0.29713   0.30574   0.33219   0.34174   0.34962
 Alpha virt. eigenvalues --    0.36058   0.37153   0.38639   0.39610   0.40062
 Alpha virt. eigenvalues --    0.40559   0.41664   0.42674   0.42995   0.43117
 Alpha virt. eigenvalues --    0.45405   0.46569   0.46866   0.47503   0.48263
 Alpha virt. eigenvalues --    0.49411   0.50397   0.50975   0.51482   0.51894
 Alpha virt. eigenvalues --    0.52971   0.53661   0.55226   0.55610   0.56387
 Alpha virt. eigenvalues --    0.57461   0.57599   0.58045   0.58938   0.59713
 Alpha virt. eigenvalues --    0.61001   0.61840   0.62334   0.62770   0.63915
 Alpha virt. eigenvalues --    0.64954   0.65534   0.66268   0.68024   0.68955
 Alpha virt. eigenvalues --    0.70064   0.71190   0.72010   0.72324   0.72931
 Alpha virt. eigenvalues --    0.73774   0.74442   0.74558   0.75105   0.75483
 Alpha virt. eigenvalues --    0.76170   0.76382   0.76633   0.77208   0.77610
 Alpha virt. eigenvalues --    0.79393   0.80505   0.80933   0.81686   0.82492
 Alpha virt. eigenvalues --    0.84047   0.84861   0.85925   0.87122   0.87695
 Alpha virt. eigenvalues --    0.88034   0.88894   0.89503   0.91229   0.92080
 Alpha virt. eigenvalues --    0.93158   0.94834   0.95325   0.97777   0.99092
 Alpha virt. eigenvalues --    1.00628   1.01515   1.03775   1.04856   1.05743
 Alpha virt. eigenvalues --    1.06954   1.08342   1.11516   1.12016   1.16754
 Alpha virt. eigenvalues --    1.17856   1.19064   1.20206   1.20817   1.21342
 Alpha virt. eigenvalues --    1.22747   1.22981   1.24304   1.24537   1.26854
 Alpha virt. eigenvalues --    1.28789   1.30299   1.31684   1.34386   1.35928
 Alpha virt. eigenvalues --    1.36881   1.38534   1.39316   1.40534   1.41568
 Alpha virt. eigenvalues --    1.42545   1.43831   1.44091   1.46614   1.48576
 Alpha virt. eigenvalues --    1.48939   1.49852   1.50695   1.51540   1.52732
 Alpha virt. eigenvalues --    1.53593   1.55681   1.56801   1.57536   1.59656
 Alpha virt. eigenvalues --    1.60854   1.62147   1.62727   1.63669   1.63900
 Alpha virt. eigenvalues --    1.65279   1.67693   1.69293   1.69592   1.71400
 Alpha virt. eigenvalues --    1.72805   1.73685   1.74779   1.75068   1.76490
 Alpha virt. eigenvalues --    1.77877   1.79359   1.82444   1.83497   1.84125
 Alpha virt. eigenvalues --    1.86142   1.87302   1.87997   1.89139   1.91156
 Alpha virt. eigenvalues --    1.91787   1.92814   1.93994   1.94325   1.95762
 Alpha virt. eigenvalues --    1.97502   1.98250   1.99768   2.01270   2.01389
 Alpha virt. eigenvalues --    2.03250   2.03824   2.07011   2.13094   2.14551
 Alpha virt. eigenvalues --    2.15868   2.18408   2.18450   2.19491   2.22768
 Alpha virt. eigenvalues --    2.25066   2.25278   2.26090   2.26460   2.27745
 Alpha virt. eigenvalues --    2.31449   2.32081   2.35000   2.35450   2.37756
 Alpha virt. eigenvalues --    2.38709   2.40630   2.41244   2.44095   2.44348
 Alpha virt. eigenvalues --    2.45432   2.47255   2.50735   2.51405   2.52696
 Alpha virt. eigenvalues --    2.55298   2.58226   2.58951   2.60575   2.62663
 Alpha virt. eigenvalues --    2.64669   2.69732   2.70361   2.71524   2.73465
 Alpha virt. eigenvalues --    2.74339   2.74739   2.76944   2.77347   2.79587
 Alpha virt. eigenvalues --    2.81336   2.82396   2.83291   2.84197   2.85230
 Alpha virt. eigenvalues --    2.85881   2.87542   2.88585   2.89958   2.90245
 Alpha virt. eigenvalues --    2.91721   2.92044   2.93049   2.93361   2.94562
 Alpha virt. eigenvalues --    2.96065   2.96504   2.97278   2.98531   2.99803
 Alpha virt. eigenvalues --    3.01503   3.01992   3.02421   3.03824   3.04694
 Alpha virt. eigenvalues --    3.08220   3.08811   3.09738   3.10652   3.11587
 Alpha virt. eigenvalues --    3.13442   3.15620   3.16924   3.18356   3.19889
 Alpha virt. eigenvalues --    3.21015   3.22783   3.23022   3.25023   3.25541
 Alpha virt. eigenvalues --    3.26682   3.29665   3.29799   3.32358   3.35126
 Alpha virt. eigenvalues --    3.35836   3.36455   3.37477   3.39130   3.39338
 Alpha virt. eigenvalues --    3.40043   3.42470   3.44695   3.45158   3.46243
 Alpha virt. eigenvalues --    3.48677   3.49420   3.51573   3.52856   3.54244
 Alpha virt. eigenvalues --    3.56085   3.56782   3.58677   3.59649   3.61931
 Alpha virt. eigenvalues --    3.62408   3.62852   3.65642   3.66551   3.68885
 Alpha virt. eigenvalues --    3.69611   3.70767   3.71973   3.74216   3.75823
 Alpha virt. eigenvalues --    3.76092   3.78645   3.80443   3.81395   3.81713
 Alpha virt. eigenvalues --    3.82616   3.84926   3.86475   3.87923   3.88082
 Alpha virt. eigenvalues --    3.90056   3.93335   3.94366   3.97549   3.99106
 Alpha virt. eigenvalues --    4.00562   4.02813   4.05491   4.06926   4.10361
 Alpha virt. eigenvalues --    4.12563   4.14988   4.16443   4.19212   4.21284
 Alpha virt. eigenvalues --    4.23581   4.25485   4.26877   4.27985   4.30439
 Alpha virt. eigenvalues --    4.32667   4.35546   4.37214   4.39771   4.39863
 Alpha virt. eigenvalues --    4.41014   4.41778   4.42271   4.43821   4.45017
 Alpha virt. eigenvalues --    4.47673   4.49100   4.49345   4.49887   4.51311
 Alpha virt. eigenvalues --    4.52599   4.53847   4.55279   4.56164   4.57979
 Alpha virt. eigenvalues --    4.58960   4.59390   4.60911   4.61529   4.63392
 Alpha virt. eigenvalues --    4.63941   4.65161   4.65800   4.67176   4.68393
 Alpha virt. eigenvalues --    4.69365   4.70290   4.71597   4.73578   4.74614
 Alpha virt. eigenvalues --    4.75781   4.77662   4.77928   4.78827   4.79540
 Alpha virt. eigenvalues --    4.80113   4.81710   4.82247   4.84535   4.86073
 Alpha virt. eigenvalues --    4.86527   4.87082   4.89022   4.91430   4.92892
 Alpha virt. eigenvalues --    4.94273   4.94517   4.95378   5.01184   5.03018
 Alpha virt. eigenvalues --    5.04093   5.04546   5.06568   5.07437   5.10190
 Alpha virt. eigenvalues --    5.13926   5.15282   5.18025   5.23915   5.24345
 Alpha virt. eigenvalues --    5.28113   5.31803   5.34913   5.36607   5.39069
 Alpha virt. eigenvalues --    5.43221   5.43760   5.45046   5.50682   5.52823
 Alpha virt. eigenvalues --    5.56990   5.60251   5.65823   5.71170   5.77518
 Alpha virt. eigenvalues --    5.84927   5.85735   5.94513   6.00729   6.53402
 Alpha virt. eigenvalues --    6.73121  10.01104  10.35491  10.74458  10.91517
 Alpha virt. eigenvalues --   11.25083  11.31603  11.40926  11.51153  11.61124
 Alpha virt. eigenvalues --   11.80091  11.99494  12.09332  12.39368  12.55232
 Alpha virt. eigenvalues --   20.87346
          Condensed to atoms (all electrons):
               1          2          3          4          5          6
     1  C    5.185904   0.603651  -0.068963  -0.011745   0.000294  -0.003443
     2  C    0.603651   4.321957   0.415624  -0.033637   0.002352   0.406785
     3  C   -0.068963   0.415624   4.960657   0.418379  -0.036840  -0.053504
     4  C   -0.011745  -0.033637   0.418379   4.788550   0.408295   0.001977
     5  C    0.000294   0.002352  -0.036840   0.408295   4.963510  -0.000060
     6  N   -0.003443   0.406785  -0.053504   0.001977  -0.000060   6.459560
     7  C    0.005496  -0.045116  -0.008464  -0.000027   0.000000   0.447792
     8  C   -0.000309   0.004069   0.000115  -0.000001   0.000000  -0.012058
     9  C    0.000039  -0.000023  -0.000015  -0.000000  -0.000000  -0.010113
    10  C   -0.000000  -0.000002   0.000000  -0.000000   0.000000   0.000142
    11  S   -0.000637   0.003175  -0.000170   0.000002  -0.000000  -0.041716
    12  C    0.000001   0.000019  -0.000000   0.000000  -0.000000   0.000527
    13  C    0.000000   0.000006   0.000001   0.000000   0.000000  -0.000367
    14  C    0.000007   0.000148   0.000055  -0.000004   0.000000  -0.003966
    15  C    0.000081  -0.004257  -0.000383   0.000066   0.000006  -0.040598
    16  H    0.372939  -0.004361  -0.017248   0.006236  -0.000016   0.001906
    17  H    0.348092  -0.003087   0.006870   0.000053  -0.000014  -0.013260
    18  H    0.001647  -0.020527   0.346403  -0.035289  -0.003109  -0.002099
    19  H    0.001195  -0.014928   0.346642  -0.032008  -0.003230  -0.001618
    20  H    0.002198  -0.002684  -0.027842   0.372352  -0.037597   0.000021
    21  H    0.002559  -0.002318  -0.027188   0.369596  -0.038089   0.000009
    22  H    0.000010   0.000247  -0.004079  -0.027994   0.377158   0.000001
    23  H    0.000014  -0.000147   0.003249  -0.022103   0.375050   0.000001
    24  H    0.000014   0.000250  -0.004127  -0.028508   0.376499   0.000001
    25  H   -0.005775  -0.023841   0.004825  -0.000075   0.000001   0.301033
    26  H   -0.000000  -0.000000   0.000000  -0.000000   0.000000   0.000019
    27  H   -0.000000  -0.000000  -0.000000   0.000000  -0.000000  -0.000002
    28  H    0.000000  -0.000000   0.000000  -0.000000   0.000000  -0.000003
    29  H   -0.000000  -0.000002  -0.000000  -0.000000  -0.000000   0.000047
    30  H   -0.000007   0.000318  -0.000015   0.000006   0.000000   0.001731
               7          8          9         10         11         12
     1  C    0.005496  -0.000309   0.000039  -0.000000  -0.000637   0.000001
     2  C   -0.045116   0.004069  -0.000023  -0.000002   0.003175   0.000019
     3  C   -0.008464   0.000115  -0.000015   0.000000  -0.000170  -0.000000
     4  C   -0.000027  -0.000001  -0.000000  -0.000000   0.000002   0.000000
     5  C    0.000000   0.000000  -0.000000   0.000000  -0.000000  -0.000000
     6  N    0.447792  -0.012058  -0.010113   0.000142  -0.041716   0.000527
     7  C    4.578349   0.533430  -0.021522   0.001622  -0.021995  -0.007884
     8  C    0.533430   5.061608   0.440183  -0.035910  -0.040191   0.339306
     9  C   -0.021522   0.440183   4.635811   0.390317   0.451324  -0.036759
    10  C    0.001622  -0.035910   0.390317   5.075635  -0.082201  -0.007157
    11  S   -0.021995  -0.040191   0.451324  -0.082201  16.059016   0.002746
    12  C   -0.007884   0.339306  -0.036759  -0.007157   0.002746   5.191872
    13  C   -0.012977  -0.068568   0.001725  -0.003778   0.000251   0.563612
    14  C   -0.031011  -0.044386   0.005609  -0.000491   0.000106  -0.166645
    15  C    0.335840  -0.041238   0.005165  -0.000292  -0.000504  -0.138422
    16  H   -0.000070   0.000001  -0.000000   0.000000   0.000009  -0.000000
    17  H   -0.000213   0.000027  -0.000016   0.000000   0.001296   0.000000
    18  H    0.004133  -0.000085   0.000003  -0.000000  -0.000001  -0.000001
    19  H    0.000138  -0.000000  -0.000003   0.000000   0.000005   0.000015
    20  H    0.000012   0.000000   0.000000  -0.000000  -0.000000   0.000000
    21  H   -0.000006  -0.000000   0.000000   0.000000   0.000000  -0.000000
    22  H    0.000001  -0.000000   0.000000  -0.000000  -0.000000  -0.000000
    23  H   -0.000000  -0.000000  -0.000000  -0.000000   0.000000   0.000000
    24  H   -0.000001  -0.000000   0.000000   0.000000  -0.000000  -0.000000
    25  H   -0.039643  -0.003364  -0.003110   0.000463   0.061479   0.000093
    26  H    0.000275  -0.012090  -0.022972   0.346121   0.007756   0.011678
    27  H   -0.000042   0.000795  -0.021959   0.366896  -0.005276   0.000534
    28  H   -0.000161   0.001555  -0.016173   0.372986  -0.001322  -0.000336
    29  H   -0.006386  -0.024115   0.001260   0.000110  -0.000052   0.346656
    30  H   -0.043657   0.003185   0.000040   0.000005  -0.000022   0.001614
              13         14         15         16         17         18
     1  C    0.000000   0.000007   0.000081   0.372939   0.348092   0.001647
     2  C    0.000006   0.000148  -0.004257  -0.004361  -0.003087  -0.020527
     3  C    0.000001   0.000055  -0.000383  -0.017248   0.006870   0.346403
     4  C    0.000000  -0.000004   0.000066   0.006236   0.000053  -0.035289
     5  C    0.000000   0.000000   0.000006  -0.000016  -0.000014  -0.003109
     6  N   -0.000367  -0.003966  -0.040598   0.001906  -0.013260  -0.002099
     7  C   -0.012977  -0.031011   0.335840  -0.000070  -0.000213   0.004133
     8  C   -0.068568  -0.044386  -0.041238   0.000001   0.000027  -0.000085
     9  C    0.001725   0.005609   0.005165  -0.000000  -0.000016   0.000003
    10  C   -0.003778  -0.000491  -0.000292   0.000000   0.000000  -0.000000
    11  S    0.000251   0.000106  -0.000504   0.000009   0.001296  -0.000001
    12  C    0.563612  -0.166645  -0.138422  -0.000000   0.000000  -0.000001
    13  C    5.088452   0.705008  -0.115668  -0.000000   0.000000   0.000001
    14  C    0.705008   4.666354   0.745240   0.000000  -0.000000   0.000135
    15  C   -0.115668   0.745240   5.213743   0.000002  -0.000005   0.000085
    16  H   -0.000000   0.000000   0.000002   0.549230  -0.043934   0.000382
    17  H    0.000000  -0.000000  -0.000005  -0.043934   0.581668  -0.000174
    18  H    0.000001   0.000135   0.000085   0.000382  -0.000174   0.638622
    19  H    0.000016   0.000405   0.006120   0.000376  -0.000169  -0.041501
    20  H    0.000000   0.000000   0.000002   0.003143   0.000039   0.006112
    21  H   -0.000000   0.000000   0.000001   0.003088   0.000027  -0.006139
    22  H   -0.000000  -0.000000  -0.000007   0.000017   0.000000  -0.000296
    23  H    0.000000  -0.000000  -0.000000   0.000006  -0.000000  -0.000069
    24  H   -0.000000   0.000000   0.000000   0.000016   0.000000   0.004945
    25  H   -0.000008  -0.000117   0.004907  -0.000183   0.006338  -0.000035
    26  H    0.003575   0.001828   0.000265  -0.000000  -0.000000  -0.000000
    27  H    0.000045   0.000019   0.000006   0.000000  -0.000000   0.000000
    28  H    0.000427   0.000064   0.000027  -0.000000   0.000000  -0.000000
    29  H   -0.059351  -0.005417   0.019586   0.000000  -0.000000   0.000001
    30  H   -0.002415  -0.038009   0.350867  -0.000000  -0.000000   0.000873
              19         20         21         22         23         24
     1  C    0.001195   0.002198   0.002559   0.000010   0.000014   0.000014
     2  C   -0.014928  -0.002684  -0.002318   0.000247  -0.000147   0.000250
     3  C    0.346642  -0.027842  -0.027188  -0.004079   0.003249  -0.004127
     4  C   -0.032008   0.372352   0.369596  -0.027994  -0.022103  -0.028508
     5  C   -0.003230  -0.037597  -0.038089   0.377158   0.375050   0.376499
     6  N   -0.001618   0.000021   0.000009   0.000001   0.000001   0.000001
     7  C    0.000138   0.000012  -0.000006   0.000001  -0.000000  -0.000001
     8  C   -0.000000   0.000000  -0.000000  -0.000000  -0.000000  -0.000000
     9  C   -0.000003   0.000000   0.000000   0.000000  -0.000000   0.000000
    10  C    0.000000  -0.000000   0.000000  -0.000000  -0.000000   0.000000
    11  S    0.000005  -0.000000   0.000000  -0.000000   0.000000  -0.000000
    12  C    0.000015   0.000000  -0.000000  -0.000000   0.000000  -0.000000
    13  C    0.000016   0.000000  -0.000000  -0.000000   0.000000  -0.000000
    14  C    0.000405   0.000000   0.000000  -0.000000  -0.000000   0.000000
    15  C    0.006120   0.000002   0.000001  -0.000007  -0.000000   0.000000
    16  H    0.000376   0.003143   0.003088   0.000017   0.000006   0.000016
    17  H   -0.000169   0.000039   0.000027   0.000000  -0.000000   0.000000
    18  H   -0.041501   0.006112  -0.006139  -0.000296  -0.000069   0.004945
    19  H    0.604367  -0.006151   0.005802   0.004838  -0.000047  -0.000319
    20  H   -0.006151   0.626463  -0.043524  -0.004846  -0.002693   0.005794
    21  H    0.005802  -0.043524   0.631426   0.005830  -0.002708  -0.004798
    22  H    0.004838  -0.004846   0.005830   0.597119  -0.031058  -0.032431
    23  H   -0.000047  -0.002693  -0.002708  -0.031058   0.599105  -0.031174
    24  H   -0.000319   0.005794  -0.004798  -0.032431  -0.031174   0.601611
    25  H   -0.000056  -0.000001  -0.000002   0.000000  -0.000000  -0.000000
    26  H   -0.000000  -0.000000   0.000000   0.000000  -0.000000   0.000000
    27  H   -0.000000   0.000000  -0.000000   0.000000   0.000000  -0.000000
    28  H   -0.000000  -0.000000   0.000000  -0.000000  -0.000000   0.000000
    29  H   -0.000002  -0.000000   0.000000   0.000000   0.000000  -0.000000
    30  H    0.000966   0.000002   0.000000   0.000002   0.000000   0.000005
              25         26         27         28         29         30
     1  C   -0.005775  -0.000000  -0.000000   0.000000  -0.000000  -0.000007
     2  C   -0.023841  -0.000000  -0.000000  -0.000000  -0.000002   0.000318
     3  C    0.004825   0.000000  -0.000000   0.000000  -0.000000  -0.000015
     4  C   -0.000075  -0.000000   0.000000  -0.000000  -0.000000   0.000006
     5  C    0.000001   0.000000  -0.000000   0.000000  -0.000000   0.000000
     6  N    0.301033   0.000019  -0.000002  -0.000003   0.000047   0.001731
     7  C   -0.039643   0.000275  -0.000042  -0.000161  -0.006386  -0.043657
     8  C   -0.003364  -0.012090   0.000795   0.001555  -0.024115   0.003185
     9  C   -0.003110  -0.022972  -0.021959  -0.016173   0.001260   0.000040
    10  C    0.000463   0.346121   0.366896   0.372986   0.000110   0.000005
    11  S    0.061479   0.007756  -0.005276  -0.001322  -0.000052  -0.000022
    12  C    0.000093   0.011678   0.000534  -0.000336   0.346656   0.001614
    13  C   -0.000008   0.003575   0.000045   0.000427  -0.059351  -0.002415
    14  C   -0.000117   0.001828   0.000019   0.000064  -0.005417  -0.038009
    15  C    0.004907   0.000265   0.000006   0.000027   0.019586   0.350867
    16  H   -0.000183  -0.000000   0.000000  -0.000000   0.000000  -0.000000
    17  H    0.006338  -0.000000  -0.000000   0.000000  -0.000000  -0.000000
    18  H   -0.000035  -0.000000   0.000000  -0.000000   0.000001   0.000873
    19  H   -0.000056  -0.000000  -0.000000  -0.000000  -0.000002   0.000966
    20  H   -0.000001  -0.000000   0.000000  -0.000000  -0.000000   0.000002
    21  H   -0.000002   0.000000  -0.000000   0.000000   0.000000   0.000000
    22  H    0.000000   0.000000   0.000000  -0.000000   0.000000   0.000002
    23  H   -0.000000  -0.000000   0.000000  -0.000000   0.000000   0.000000
    24  H   -0.000000   0.000000  -0.000000   0.000000  -0.000000   0.000005
    25  H    0.406503  -0.000038  -0.000009   0.000005  -0.000009  -0.000172
    26  H   -0.000038   0.607050  -0.029168  -0.030487   0.000214  -0.000000
    27  H   -0.000009  -0.029168   0.552792  -0.022098   0.000010   0.000000
    28  H    0.000005  -0.030487  -0.022098   0.535979  -0.000002  -0.000000
    29  H   -0.000009   0.000214   0.000010  -0.000002   0.535836   0.005387
    30  H   -0.000172  -0.000000   0.000000  -0.000000   0.005387   0.614020
 Mulliken charges:
               1
     1  C   -0.433264
     2  C    0.396330
     3  C   -0.253983
     4  C   -0.174120
     5  C   -0.384209
     6  N   -0.438743
     7  C    0.332088
     8  C   -0.101960
     9  C    0.201189
    10  C   -0.424466
    11  S   -0.393079
    12  C   -0.101469
    13  C   -0.099987
    14  C    0.165069
    15  C   -0.340635
    16  H    0.128460
    17  H    0.116463
    18  H    0.105982
    19  H    0.129148
    20  H    0.109202
    21  H    0.106434
    22  H    0.115487
    23  H    0.112573
    24  H    0.112221
    25  H    0.290791
    26  H    0.115975
    27  H    0.157455
    28  H    0.159538
    29  H    0.186231
    30  H    0.105277
 Sum of Mulliken charges =  -0.00000
 Mulliken charges with hydrogens summed into heavy atoms:
               1
     1  C   -0.188341
     2  C    0.396330
     3  C   -0.018853
     4  C    0.041516
     5  C   -0.043927
     6  N   -0.147951
     7  C    0.332088
     8  C   -0.101960
     9  C    0.201189
    10  C    0.008502
    11  S   -0.393079
    12  C    0.084762
    13  C   -0.099987
    14  C    0.165069
    15  C   -0.235357
 Electronic spatial extent (au):  <R**2>=           4566.0809
 Charge=             -0.0000 electrons
 Dipole moment (field-independent basis, Debye):
    X=              0.8824    Y=              3.1998    Z=              1.5532  Tot=              3.6647
 Quadrupole moment (field-independent basis, Debye-Ang):
   XX=            -88.7444   YY=            -99.3486   ZZ=            -99.0901
   XY=             -7.8191   XZ=             -2.3883   YZ=              3.6741
 Traceless Quadrupole moment (field-independent basis, Debye-Ang):
   XX=              6.9833   YY=             -3.6209   ZZ=             -3.3624
   XY=             -7.8191   XZ=             -2.3883   YZ=              3.6741
 Octapole moment (field-independent basis, Debye-Ang**2):
  XXX=              5.5916  YYY=             10.4245  ZZZ=              0.9900  XYY=             15.3986
  XXY=              5.4106  XXZ=              6.9771  XZZ=              2.0607  YZZ=              2.2556
  YYZ=             10.6417  XYZ=             -2.8475
 Hexadecapole moment (field-independent basis, Debye-Ang**3):
 XXXX=          -4410.8575 YYYY=          -1565.2432 ZZZZ=           -217.6530 XXXY=            -47.9886
 XXXZ=            -28.0853 YYYX=            -53.5449 YYYZ=             36.3647 ZZZX=              4.0364
 ZZZY=              4.4345 XXYY=          -1068.7830 XXZZ=           -792.0173 YYZZ=           -301.8297
 XXYZ=              6.7256 YYXZ=            -22.8310 ZZXY=              8.6452
 N-N= 1.012360620476D+03 E-N=-4.265199727693D+03  KE= 9.511696148573D+02
 PrsmSu:  requested number of processors reduced to:  13 ShMem   1 Linda.
 Calling FoFJK, ICntrl=      2127 FMM=F ISym2X=0 I1Cent= 0 IOpClX= 0 NMat=1 NMatS=1 NMatT=0.
 ***** Axes restored to original set *****
 -------------------------------------------------------------------
 Center     Atomic                   Forces (Hartrees/Bohr)
 Number     Number              X              Y              Z
 -------------------------------------------------------------------
      1        6           0.004592548    0.001984142   -0.008059872
      2        6          -0.004781526   -0.005836677    0.015303036
      3        6          -0.004333063   -0.002093715   -0.003267990
      4        6          -0.001600071    0.002015096   -0.005965763
      5        6           0.001292238   -0.001319854    0.005038385
      6        7           0.023389072    0.019957390   -0.018899214
      7        6          -0.012007720   -0.050498368    0.012799536
      8        6          -0.043970530    0.021413860   -0.081535277
      9        6           0.011939183    0.012989827    0.031060493
     10        6           0.006209383    0.000912523    0.004286120
     11       16           0.023651763    0.001684186    0.011368028
     12        6          -0.033684821    0.017284853    0.057844145
     13        6           0.068653484   -0.003408569   -0.125458186
     14        6          -0.056943102   -0.058666865    0.107915640
     15        6          -0.005661482    0.000273319    0.044590838
     16        1           0.011934411    0.000261302   -0.003708963
     17        1           0.004992297    0.000899705   -0.004346691
     18        1           0.004121139   -0.000733427    0.000020687
     19        1           0.004687904    0.001392808    0.000661224
     20        1           0.000037581    0.002974621   -0.002147847
     21        1          -0.000303060   -0.001490904   -0.003091649
     22        1           0.002216487   -0.000540226    0.002899511
     23        1           0.002459878   -0.000512120    0.002234692
     24        1           0.002299775   -0.000788382    0.002984512
     25        1           0.005458738    0.011697302   -0.006329014
     26        1           0.005676807    0.001108015   -0.000670800
     27        1          -0.000260657    0.000163691   -0.008155761
     28        1          -0.004082278    0.005649388    0.002734869
     29        1          -0.014413475    0.040185200   -0.036091945
     30        1          -0.001570903   -0.016958122    0.005987253
 -------------------------------------------------------------------
 Cartesian Forces:  Max     0.125458186 RMS     0.026962657

 GradGradGradGradGradGradGradGradGradGradGradGradGradGradGradGradGradGrad
 Berny optimization.
 FormGI is forming the generalized inverse of G from B-inverse, IUseBI=4.
 Internal  Forces:  Max     0.138036905 RMS     0.018999412
 Search for a local minimum.
 Step number   1 out of a maximum of  153
 All quantities printed in internal units (Hartrees-Bohrs-Radians)
 Mixed Optimization -- RFO/linear search
 Second derivative matrix not updated -- first step.
 ITU=  0
     Eigenvalues ---    0.00230   0.00257   0.00446   0.00593   0.00631
     Eigenvalues ---    0.00648   0.01086   0.01368   0.01469   0.01476
     Eigenvalues ---    0.01517   0.01574   0.01952   0.02645   0.02646
     Eigenvalues ---    0.02836   0.03453   0.03736   0.03845   0.04084
     Eigenvalues ---    0.04915   0.05355   0.05818   0.05902   0.06947
     Eigenvalues ---    0.06957   0.07678   0.08177   0.09688   0.11547
     Eigenvalues ---    0.12059   0.13057   0.13416   0.15918   0.16000
     Eigenvalues ---    0.16000   0.16000   0.16000   0.16000   0.16000
     Eigenvalues ---    0.16000   0.16000   0.18796   0.19353   0.21379
     Eigenvalues ---    0.21925   0.22058   0.22060   0.22681   0.23187
     Eigenvalues ---    0.23868   0.24997   0.24998   0.25000   0.25000
     Eigenvalues ---    0.27348   0.28657   0.28823   0.30825   0.31046
     Eigenvalues ---    0.31334   0.31456   0.33875   0.33887   0.33899
     Eigenvalues ---    0.34112   0.34205   0.34367   0.34448   0.34458
     Eigenvalues ---    0.34538   0.34683   0.34746   0.34782   0.35401
     Eigenvalues ---    0.35488   0.41788   0.43510   0.44180   0.44642
     Eigenvalues ---    0.53370   0.56507   0.61955   0.93360
 RFO step:  Lambda=-1.13035254D-01 EMin= 2.30000000D-03
 Linear search not attempted -- first point.
 Maximum step size (   0.300) exceeded in Quadratic search.
    -- Step size scaled by   0.662
 Iteration  1 RMS(Cart)=  0.10779991 RMS(Int)=  0.00269029
 Iteration  2 RMS(Cart)=  0.00417361 RMS(Int)=  0.00043349
 Iteration  3 RMS(Cart)=  0.00001036 RMS(Int)=  0.00043343
 Iteration  4 RMS(Cart)=  0.00000001 RMS(Int)=  0.00043343
 Variable       Old X    -DE/DX   Delta X   Delta X   Delta X     New X
                                 (Linear)    (Quad)   (Total)
    R1        2.56610  -0.02058   0.00000  -0.02107  -0.02107   2.54503
    R2        2.06432  -0.01013   0.00000  -0.01463  -0.01463   2.04969
    R3        2.04890   0.00127   0.00000   0.00179   0.00179   2.05070
    R4        2.85925   0.00448   0.00000   0.00701   0.00701   2.86625
    R5        2.66240  -0.01603   0.00000  -0.01913  -0.01913   2.64326
    R6        2.90725  -0.00258   0.00000  -0.00428  -0.00428   2.90297
    R7        2.07142   0.00185   0.00000   0.00270   0.00270   2.07411
    R8        2.06985   0.00153   0.00000   0.00222   0.00222   2.07208
    R9        2.85380   0.01585   0.00000   0.02462   0.02462   2.87842
   R10        2.07541  -0.00186   0.00000  -0.00272  -0.00272   2.07269
   R11        2.07522  -0.00153   0.00000  -0.00224  -0.00224   2.07298
   R12        2.06581   0.00133   0.00000   0.00193   0.00193   2.06774
   R13        2.06715   0.00015   0.00000   0.00022   0.00022   2.06736
   R14        2.06564   0.00151   0.00000   0.00218   0.00218   2.06782
   R15        2.69193  -0.06462   0.00000  -0.08060  -0.08060   2.61133
   R16        1.93746   0.00418   0.00000   0.00505   0.00505   1.94250
   R17        2.63107   0.02921   0.00000   0.02782   0.02807   2.65914
   R18        2.84876   0.01633   0.00000   0.02486   0.02526   2.87402
   R19        2.93587  -0.05785   0.00000  -0.09911  -0.09911   2.83676
   R20        3.15780  -0.03133   0.00000  -0.07734  -0.07759   3.08021
   R21        2.85150   0.00620   0.00000   0.00960   0.00960   2.86110
   R22        3.23193  -0.02503   0.00000  -0.03605  -0.03605   3.19588
   R23        2.05029   0.00545   0.00000   0.00773   0.00773   2.05802
   R24        2.06089   0.00311   0.00000   0.00447   0.00447   2.06536
   R25        2.07501  -0.00496   0.00000  -0.00727  -0.00727   2.06775
   R26        2.47238   0.06598   0.00000   0.06182   0.06168   2.53406
   R27        2.17075  -0.02824   0.00000  -0.04660  -0.04660   2.12415
   R28        2.29412   0.13804   0.00000   0.08642   0.08619   2.38031
   R29        2.51095   0.00066   0.00000   0.00210   0.00204   2.51299
   R30        2.06030   0.00109   0.00000   0.00156   0.00156   2.06187
    A1        2.16375  -0.00557   0.00000  -0.01350  -0.01350   2.15025
    A2        2.16176  -0.00393   0.00000  -0.00953  -0.00953   2.15222
    A3        1.95766   0.00950   0.00000   0.02305   0.02305   1.98071
    A4        2.08351   0.02838   0.00000   0.05178   0.05178   2.13529
    A5        2.11836  -0.01504   0.00000  -0.02743  -0.02743   2.09093
    A6        2.08122  -0.01333   0.00000  -0.02431  -0.02431   2.05690
    A7        2.01014   0.00851   0.00000   0.01864   0.01861   2.02875
    A8        1.89370  -0.00263   0.00000  -0.00499  -0.00502   1.88869
    A9        1.88320  -0.00202   0.00000  -0.00250  -0.00256   1.88064
   A10        1.89518  -0.00167   0.00000  -0.00271  -0.00271   1.89247
   A11        1.89169  -0.00113   0.00000  -0.00052  -0.00056   1.89113
   A12        1.88659  -0.00158   0.00000  -0.00957  -0.00959   1.87699
   A13        1.94669   0.00071   0.00000   0.00207   0.00208   1.94877
   A14        1.92531  -0.00169   0.00000  -0.00543  -0.00545   1.91986
   A15        1.92583  -0.00142   0.00000  -0.00463  -0.00465   1.92119
   A16        1.89190   0.00166   0.00000   0.00593   0.00593   1.89784
   A17        1.89267   0.00147   0.00000   0.00543   0.00543   1.89810
   A18        1.87967  -0.00068   0.00000  -0.00320  -0.00325   1.87642
   A19        1.92545   0.00335   0.00000   0.00805   0.00801   1.93346
   A20        1.91503   0.00349   0.00000   0.00864   0.00860   1.92363
   A21        1.92521   0.00353   0.00000   0.00847   0.00843   1.93364
   A22        1.89689  -0.00333   0.00000  -0.00790  -0.00793   1.88896
   A23        1.90368  -0.00385   0.00000  -0.00967  -0.00969   1.89398
   A24        1.89709  -0.00343   0.00000  -0.00817  -0.00821   1.88888
   A25        2.40711  -0.02995   0.00000  -0.05954  -0.05955   2.34756
   A26        1.89858   0.02526   0.00000   0.05470   0.05466   1.95324
   A27        1.96448   0.00407   0.00000   0.00317   0.00318   1.96766
   A28        2.25552  -0.03966   0.00000  -0.07165  -0.07208   2.18345
   A29        2.10776  -0.01573   0.00000  -0.01492  -0.01494   2.09281
   A30        1.85242   0.05631   0.00000   0.09520   0.09577   1.94819
   A31        2.01103   0.02049   0.00000   0.05336   0.05378   2.06480
   A32        1.99907  -0.01523   0.00000  -0.04431  -0.04483   1.95424
   A33        2.07968  -0.00203   0.00000  -0.00194  -0.00152   2.07816
   A34        2.03103   0.00233   0.00000   0.00425   0.00424   2.03527
   A35        2.26122  -0.01414   0.00000  -0.02580  -0.02580   2.23541
   A36        1.99093   0.01180   0.00000   0.02152   0.02151   2.01244
   A37        1.95290   0.00363   0.00000   0.01048   0.01041   1.96331
   A38        1.84447   0.00842   0.00000   0.01996   0.01989   1.86436
   A39        1.96950  -0.00603   0.00000  -0.01586  -0.01581   1.95369
   A40        1.88298  -0.00254   0.00000  -0.00329  -0.00348   1.87951
   A41        1.87524   0.00210   0.00000   0.00586   0.00590   1.88114
   A42        1.93778  -0.00566   0.00000  -0.01724  -0.01718   1.92059
   A43        1.86944   0.00257   0.00000   0.01466   0.01357   1.88301
   A44        2.10306   0.00150   0.00000   0.01250   0.00961   2.11266
   A45        1.75611   0.02116   0.00000   0.08528   0.08401   1.84012
   A46        1.78790  -0.00328   0.00000   0.01843   0.01848   1.80638
   A47        2.42240  -0.01005   0.00000  -0.00867  -0.00869   2.41371
   A48        1.96015  -0.03495   0.00000  -0.06340  -0.06304   1.89711
   A49        1.97853   0.01925   0.00000   0.04777   0.04802   2.02654
   A50        2.07061   0.01458   0.00000   0.02162   0.02214   2.09275
    D1       -0.00495  -0.00026   0.00000  -0.00098  -0.00097  -0.00592
    D2       -3.13091  -0.00078   0.00000  -0.00397  -0.00398  -3.13489
    D3        3.12942   0.00041   0.00000   0.00221   0.00222   3.13164
    D4        0.00346  -0.00011   0.00000  -0.00078  -0.00079   0.00267
    D5        0.00779  -0.00055   0.00000  -0.00276  -0.00279   0.00500
    D6       -2.12000  -0.00223   0.00000  -0.00824  -0.00825  -2.12824
    D7        2.12313   0.00212   0.00000   0.00706   0.00703   2.13016
    D8        3.13408  -0.00007   0.00000   0.00011   0.00012   3.13420
    D9        1.00630  -0.00175   0.00000  -0.00537  -0.00533   1.00096
   D10       -1.03376   0.00260   0.00000   0.00993   0.00994  -1.02382
   D11        2.96530  -0.00031   0.00000  -0.00069  -0.00085   2.96445
   D12        0.01836   0.00172   0.00000   0.00704   0.00711   0.02546
   D13       -0.16068  -0.00119   0.00000  -0.00434  -0.00440  -0.16508
   D14       -3.10762   0.00084   0.00000   0.00339   0.00355  -3.10407
   D15        3.13398   0.00042   0.00000   0.00179   0.00180   3.13578
   D16        1.03045  -0.00101   0.00000  -0.00339  -0.00337   1.02708
   D17       -1.04435   0.00178   0.00000   0.00689   0.00688  -1.03747
   D18       -1.02222   0.00159   0.00000   0.00606   0.00606  -1.01616
   D19       -3.12575   0.00016   0.00000   0.00088   0.00089  -3.12486
   D20        1.08264   0.00295   0.00000   0.01115   0.01114   1.09378
   D21        1.02325  -0.00182   0.00000  -0.00707  -0.00708   1.01617
   D22       -1.08028  -0.00325   0.00000  -0.01225  -0.01225  -1.09253
   D23        3.12811  -0.00045   0.00000  -0.00198  -0.00200   3.12611
   D24       -1.05322   0.00025   0.00000   0.00094   0.00095  -1.05227
   D25        3.14059   0.00007   0.00000   0.00023   0.00023   3.14082
   D26        1.05110  -0.00010   0.00000  -0.00041  -0.00041   1.05069
   D27        1.06979  -0.00029   0.00000  -0.00056  -0.00056   1.06922
   D28       -1.01959  -0.00048   0.00000  -0.00128  -0.00128  -1.02087
   D29       -3.10908  -0.00064   0.00000  -0.00192  -0.00192  -3.11100
   D30        3.10580   0.00059   0.00000   0.00177   0.00178   3.10758
   D31        1.01643   0.00040   0.00000   0.00105   0.00106   1.01748
   D32       -1.07306   0.00024   0.00000   0.00042   0.00042  -1.07264
   D33       -2.73614   0.00118   0.00000  -0.01138  -0.01174  -2.74788
   D34        0.84808  -0.01537   0.00000  -0.06196  -0.06183   0.78625
   D35        0.20583   0.00049   0.00000  -0.01582  -0.01595   0.18989
   D36       -2.49313  -0.01606   0.00000  -0.06639  -0.06604  -2.55917
   D37       -0.51235  -0.00709   0.00000  -0.01808  -0.01792  -0.53027
   D38       -3.02234  -0.01083   0.00000  -0.02721  -0.02686  -3.04920
   D39        2.23606  -0.00325   0.00000   0.01106   0.01055   2.24661
   D40       -0.27393  -0.00699   0.00000   0.00194   0.00160  -0.27233
   D41        2.37772  -0.00656   0.00000   0.01537   0.01590   2.39362
   D42       -1.49934  -0.00148   0.00000   0.03112   0.03174  -1.46759
   D43       -0.41123  -0.00149   0.00000   0.00777   0.00662  -0.40461
   D44        1.99489   0.00359   0.00000   0.02352   0.02246   2.01736
   D45       -2.66895  -0.00234   0.00000  -0.01248  -0.01264  -2.68159
   D46        0.47939  -0.00121   0.00000  -0.00585  -0.00612   0.47327
   D47       -0.18980  -0.00289   0.00000  -0.01768  -0.01741  -0.20721
   D48        2.95854  -0.00175   0.00000  -0.01105  -0.01089   2.94765
   D49        1.10417   0.00121   0.00000  -0.02416  -0.02355   1.08062
   D50       -0.88367  -0.02932   0.00000  -0.15440  -0.15411  -1.03778
   D51       -1.37929  -0.01109   0.00000  -0.05408  -0.05375  -1.43304
   D52        2.91606  -0.04162   0.00000  -0.18431  -0.18431   2.73175
   D53        0.15270   0.00134   0.00000   0.00534   0.00548   0.15818
   D54       -1.89228  -0.00253   0.00000  -0.00808  -0.00814  -1.90042
   D55        2.27017   0.00238   0.00000   0.00921   0.00926   2.27942
   D56       -2.99459   0.00029   0.00000  -0.00043  -0.00038  -2.99497
   D57        1.24362  -0.00359   0.00000  -0.01386  -0.01400   1.22962
   D58       -0.87712   0.00132   0.00000   0.00343   0.00340  -0.87372
   D59       -0.96197  -0.00631   0.00000  -0.01711  -0.01716  -0.97913
   D60        1.24976   0.00769   0.00000   0.04867   0.05119   1.30096
   D61        0.22499  -0.01094   0.00000  -0.01188  -0.01037   0.21462
   D62        0.61407  -0.01326   0.00000  -0.03701  -0.03658   0.57748
   D63       -1.74964  -0.01913   0.00000  -0.06284  -0.06297  -1.81261
         Item               Value     Threshold  Converged?
 Maximum Force            0.138037     0.000450     NO 
 RMS     Force            0.018999     0.000300     NO 
 Maximum Displacement     0.343877     0.001800     NO 
 RMS     Displacement     0.109006     0.001200     NO 
 Predicted change in Energy=-5.978461D-02
 GradGradGradGradGradGradGradGradGradGradGradGradGradGradGradGradGradGrad

                          Input orientation:                          
 ---------------------------------------------------------------------
 Center     Atomic      Atomic             Coordinates (Angstroms)
 Number     Number       Type             X           Y           Z
 ---------------------------------------------------------------------
      1          6           0        1.175068    0.071078   -0.223471
      2          6           0        2.517548    0.020032   -0.128946
      3          6           0        3.227518   -0.312608    1.169455
      4          6           0        2.327991   -0.597773    2.381641
      5          6           0        3.146063   -0.926708    3.623689
      6          7           0        3.304473    0.294479   -1.252308
      7          6           0        4.654562    0.501269   -1.462148
      8          6           0        5.206892    1.191465   -2.556978
      9          6           0        4.473518    1.152723   -3.866219
     10          6           0        5.307740    1.334695   -5.116516
     11         16           0        2.815290    0.947118   -4.127218
     12          6           0        6.835614    1.127558   -2.559363
     13          6           0        7.197189   -0.158999   -2.669979
     14          6           0        6.616678   -0.712108   -1.698543
     15          6           0        5.673394   -0.419205   -0.808128
     16          1           0        0.512897   -0.125435    0.612816
     17          1           0        0.651128    0.316063   -1.141670
     18          1           0        3.893226    0.523194    1.420325
     19          1           0        3.855711   -1.193391    0.990860
     20          1           0        1.662278   -1.441969    2.164441
     21          1           0        1.696948    0.273649    2.595562
     22          1           0        3.763908   -1.814403    3.457713
     23          1           0        2.483392   -1.124589    4.471360
     24          1           0        3.801565   -0.091780    3.889363
     25          1           0        2.732797    0.542029   -2.069952
     26          1           0        6.376926    1.316566   -4.910223
     27          1           0        5.063819    2.321262   -5.518647
     28          1           0        5.098420    0.563035   -5.863515
     29          1           0        7.432950    1.533096   -1.697842
     30          1           0        5.951210   -0.175703    0.218522
 ---------------------------------------------------------------------
                    Distance matrix (angstroms):
                    1          2          3          4          5
     1  C    0.000000
     2  C    1.346772   0.000000
     3  C    2.509982   1.516757   0.000000
     4  C    2.926296   2.592424   1.536185   0.000000
     5  C    4.436332   3.920921   2.531209   1.523195   0.000000
     6  N    2.375454   1.398755   2.497882   3.867198   5.029090
     7  C    3.718368   2.564341   3.102287   4.625532   5.493672
     8  C    4.791255   3.807908   4.479560   5.989942   6.850863
     9  C    5.031832   4.367609   5.390521   6.833980   7.885740
    10  C    6.528215   5.864244   6.823075   8.296728   9.283209
    11  S    4.324005   4.115133   5.459999   6.707414   7.981053
    12  C    6.214043   5.077326   5.384842   6.907167   7.487518
    13  C    6.504174   5.328033   5.524774   7.029970   7.524045
    14  C    5.692129   4.450003   4.457736   5.920626   6.357466
    15  C    4.562581   3.257849   3.147143   4.625823   5.126984
    16  H    1.084649   2.142428   2.777418   2.578064   4.079334
    17  H    1.085182   2.144007   3.517713   4.007579   5.520673
    18  H    3.208560   2.132112   1.097573   2.151896   2.741401
    19  H    3.203019   2.125333   1.096495   2.150108   2.739801
    20  H    2.868591   2.851063   2.171505   1.096821   2.143949
    21  H    2.874081   2.856685   2.172584   1.096975   2.144257
    22  H    4.879370   4.216953   2.789127   2.167943   1.094203
    23  H    5.018244   4.740690   3.480749   2.160696   1.094000
    24  H    4.882665   4.219954   2.788583   2.168103   1.094244
    25  H    2.461261   2.021464   3.386578   4.612993   5.894534
    26  H    7.111695   6.279841   7.038143   8.557444   9.396723
    27  H    6.944393   6.389681   7.418893   8.855511   9.889863
    28  H    6.888019   6.311975   7.330053   8.775269   9.799901
    29  H    6.593357   5.376985   5.414210   6.873383   7.262694
    30  H    4.802894   3.456744   2.888168   4.240866   4.475267
                    6          7          8          9         10
     6  N    0.000000
     7  C    1.381859   0.000000
     8  C    2.475065   1.407157   0.000000
     9  C    2.989277   2.497344   1.501150   0.000000
    10  C    4.475179   3.804687   2.565525   1.514029   0.000000
    11  S    2.988369   3.268685   2.871432   1.691187   2.709471
    12  C    3.856342   2.520538   1.629977   2.699631   2.986023
    13  C    4.167573   2.891325   2.407862   3.251152   3.433173
    14  C    3.490421   2.319065   2.519522   3.573450   4.193478
    15  C    2.513648   1.520866   2.422882   3.641782   4.666055
    16  H    3.383476   4.674572   5.815102   6.114078   7.612341
    17  H    2.655738   4.020508   4.850197   4.768000   6.206533
    18  H    2.746254   2.981403   4.241609   5.355426   6.737186
    19  H    2.747621   3.086630   4.483345   5.429286   6.767543
    20  H    4.169681   5.087444   6.464601   7.141733   8.602999
    21  H    4.170213   5.026361   6.301648   7.087787   8.581362
    22  H    5.181001   5.510049   6.877060   7.933938   9.263781
    23  H    5.953848   6.524102   7.885372   8.869158  10.293317
    24  H    5.180066   5.451420   6.721382   7.883487   9.241712
    25  H    1.027928   2.016003   2.603864   2.574807   4.066965
    26  H    4.885178   3.939602   2.631043   2.177097   1.089056
    27  H    5.040316   4.464868   3.173073   2.108188   1.092941
    28  H    4.955158   4.424122   3.367473   2.174265   1.094204
[...]
 0,0.00002816,0.00000158,0.00002644,-0.00001539,0.00000020,-0.00001744,
 0.00001023,-0.00001543,0.00017725,-0.00022975,-0.00054887,-0.00006491,
 -0.00009618,-0.00004976,0.00151832,-0.00337355,0.00348970,-0.00021817,
 0.00093624,-0.00096264,0.00030386,-0.00172888,-0.00264479,0.00877895,-
 0.00599154,-0.02637771,-0.01818567,0.06390272,0.00001246,0.00005317,-0
 .00004906,-0.00015631,0.00000559,0.00010862,0.00007874,-0.00135785,0.0
 0065992,0.00539982,-0.00434302,-0.02089054,0.06375805,-0.05503756,-0.2
 7427268,0.00012255,0.00019902,0.00020236,-0.00019568,-0.00006963,0.000
 06399,0.00003027,0.00002042,-0.00000105,-0.00009403,-0.00000633,-0.000
 00946,0.00001479,-0.00001392,0.00000831,0.00007398,0.00005807,-0.00002
 464,-0.00005081,0.00000588,-0.00001325,0.00002385,-0.00000215,0.000014
 07,0.00001821,0.00001642,0.00002574,0.00003620,-0.00000125,-0.00000683
 ,-0.00000827,0.00002903,0.00001187,-0.00003137,-0.00002002,0.00000719,
 0.00019782,0.00104668,0.00048824,0.00004108,0.00008639,-0.00000531,-0.
 00190791,0.00368083,-0.00120778,-0.00038908,-0.00026207,0.00079149,0.0
 0012774,-0.00021700,-0.00046752,0.00212660,-0.00159903,-0.00711042,-0.
 06921089,0.05787854,0.30160630,-0.00121358,-0.00010975,0.00228089,0.01
 565780,0.00223120,0.01068022,-0.00099105,0.00066870,0.00202648,0.00031
 474,-0.00005388,0.00008372,-0.00020791,-0.00005804,-0.00009618,-0.1910
 1027,-0.02563552,-0.14443815,-0.03169439,-0.00556083,-0.02202555,-0.00
 199971,-0.00158050,-0.00376652,0.00538418,0.00347879,0.00754652,-0.001
 81823,0.00043831,-0.00008940,-0.00748983,-0.00015097,0.00078743,0.0011
 3706,0.00020866,-0.00047245,-0.00027316,-0.00139559,-0.00246212,-0.002
 93567,0.00019244,0.00197616,0.00031739,0.00153153,0.00392367,-0.000659
 32,-0.00024312,-0.00041083,0.00022594,0.00065230,-0.00004926,-0.000018
 64,-0.00070435,0.00052734,0.00000384,0.00002025,-0.00014140,0.00008682
 ,-0.00003037,0.00005297,-0.00014064,-0.00001084,0.00012690,0.00000109,
 0.00002920,-0.00001303,0.00000938,-0.00011299,0.00003803,0.00001240,0.
 00002903,-0.00000947,0.21790105,0.00203481,-0.00087555,-0.00190709,-0.
 00223278,-0.00101687,0.00512134,-0.00138539,-0.00008430,0.00212193,0.0
 0009043,0.00044529,0.00073651,0.00001962,-0.00033023,-0.00025337,-0.01
 566575,-0.01275892,-0.03866757,-0.01254671,-0.00004569,0.00433082,-0.0
 0307831,-0.00405697,-0.00326329,0.00692725,0.00165362,0.00266169,-0.00
 058685,0.00226858,-0.00121670,-0.00352059,-0.00471590,0.00028678,0.003
 28388,-0.00163391,0.00169406,-0.00081422,0.00100745,-0.00376884,-0.002
 67982,0.00046073,0.00155615,0.00327824,0.00384127,0.00101446,0.0006496
 3,0.00041096,0.00085284,0.00034206,-0.00077915,-0.00039672,-0.00014633
 ,-0.00064185,0.00056262,0.00007199,0.00029325,-0.00038954,0.00022191,-
 0.00046042,-0.00027010,-0.00012135,-0.00002946,0.00003095,-0.00004602,
 0.00004663,-0.00001648,0.00001193,-0.00006942,0.00003645,-0.00002555,0
 .00010174,-0.00014343,0.02601622,0.01784610,-0.00236939,0.00207847,0.0
 0218593,-0.00620616,-0.00135437,-0.02294749,0.00039672,-0.00172065,-0.
 00181571,0.00011570,-0.00003867,0.00013693,-0.00010745,0.00008503,0.00
 000285,-0.13718559,-0.03313491,-0.22330685,-0.01216268,0.00135007,0.01
 890891,-0.00664419,-0.00384388,-0.00975641,0.01923784,0.00288615,0.006
 06023,-0.00163751,0.00025654,0.00018819,-0.00782269,0.00283057,0.00309
 241,0.00452480,0.00089317,0.00141995,0.00205169,-0.00273678,-0.0086056
 0,-0.00655402,0.00095585,0.00527588,0.01115026,0.00197041,0.00368302,0
 .00070495,0.00068742,0.00044619,-0.00025878,-0.00087064,-0.00007280,-0
 .00015657,0.00045543,-0.00022458,0.00005863,-0.00000885,0.00009367,-0.
 00001947,0.00034983,0.00014798,0.00002860,0.00004914,-0.00002397,0.000
 04540,-0.00001450,0.00002898,-0.00001060,-0.00009508,0.00003971,0.0000
 2066,-0.00005214,0.00007844,0.14416347,0.02902521,0.22595113,-0.000030
 82,0.00002095,0.00004896,0.00013611,0.00013631,-0.00018511,-0.00001381
 ,-0.00001851,-0.00002685,0.00000428,0.00000662,0.00002805,-0.00001010,
 0.00000572,-0.00000644,0.00077524,0.00000304,0.00048036,-0.00042204,0.
 00023618,0.00111970,-0.00037300,-0.00140382,-0.00127773,-0.01133932,0.
 00927210,-0.00065238,-0.15987628,0.12700366,-0.04219243,-0.00129517,0.
 00059589,0.00331126,-0.00010871,-0.00096887,-0.00054638,0.00020574,-0.
 00023449,0.00009743,0.00027054,0.00005167,-0.00029275,-0.00029934,0.00
 000499,-0.00012255,-0.00001908,-0.00001206,-0.00000098,0.00001084,-0.0
 0000774,0.00000526,-0.00000463,-0.00000363,0.00000131,0.00000640,0.000
 00131,0.00000614,-0.00002104,0.00002342,-0.00001070,0.00001307,-0.0000
 0439,-0.00001358,0.00001142,0.,0.00001079,-0.00000624,-0.00001313,0.00
 000713,0.00000529,-0.00000593,-0.00000003,-0.00050347,-0.00056662,-0.0
 0080736,0.17575484,-0.00000991,-0.00001466,-0.00002655,-0.00004702,-0.
 00003375,0.00004341,0.00004721,-0.00001486,0.00000945,-0.00001378,0.00
 001282,0.00000868,0.00000840,-0.00000362,-0.00000065,-0.00020646,-0.00
 007081,-0.00012786,0.00005869,0.00031226,0.00002479,-0.00018263,0.0007
 8041,-0.00072331,0.00645763,-0.00719476,0.00379004,0.12434013,-0.17795
 255,0.03844725,0.00032086,0.00003045,-0.00104159,0.00103874,0.00012436
 ,-0.00097843,-0.00078062,0.00010368,0.00008246,0.00007502,0.00007811,0
 .00046266,-0.00002767,-0.00010068,0.00001051,0.00001389,0.00001018,0.0
 0000118,-0.00000208,0.00000790,0.00000172,-0.00000819,0.00000212,-0.00
 000819,-0.00001899,0.00001411,-0.00001181,0.00001181,-0.00000790,-0.00
 000060,-0.00000950,-0.00000399,0.00000345,-0.00000547,0.00000383,-0.00
 000207,-0.00000184,-0.00000018,0.00000080,-0.00000144,0.00000155,-0.00
 000456,0.00010527,0.00012977,0.00024044,-0.13765594,0.19178251,0.00003
 881,-0.00001114,-0.00007671,-0.00005493,-0.00015402,0.00019597,0.00002
 736,-0.00001170,0.00002625,-0.00000834,-0.00000384,-0.00002195,0.00001
 169,-0.00000012,0.00000626,-0.00013579,0.00003912,-0.00023714,-0.00006
 909,0.00096834,0.00025717,-0.00038753,0.00054685,-0.00096771,0.0180524
 7,-0.02000811,0.00656036,-0.03972885,0.03820969,-0.05800919,0.00212492
 ,0.00041575,-0.00214000,-0.00024520,-0.00084668,0.00040823,-0.00025508
 ,-0.00032380,-0.00054345,-0.00004132,0.00008695,0.00005506,-0.00006018
 ,-0.00023350,0.00008979,0.00003616,0.00001661,0.00000729,-0.00001389,0
 .00000221,-0.00000737,-0.00000226,0.00000513,-0.00000377,-0.00001462,0
 .00000388,-0.00000781,0.00001801,-0.00001420,0.00000663,-0.00001194,0.
 00000141,0.00001062,-0.00000922,0.00000151,-0.00000893,0.00000197,0.00
 000710,-0.00000443,-0.00000458,0.00000298,0.00000060,0.00027679,0.0002
 9633,0.00014449,0.04296691,-0.04331098,0.06259683,0.00001005,0.0000121
 2,-0.00000008,0.00008223,-0.00008015,-0.00001836,-0.00002626,0.0000096
 0,0.00001678,0.00000527,0.00000608,0.00000479,-0.00000621,0.00000023,-
 0.00000533,0.00036100,0.00008404,0.00013444,-0.00033612,0.00031822,0.0
 0075950,-0.00069311,-0.00034454,-0.00130130,-0.00920069,-0.00790655,0.
 00840888,-0.09973155,-0.09380265,0.06132445,-0.00089463,0.00220117,0.0
 0181065,-0.00009264,-0.00006616,-0.00128272,0.00011955,0.00026547,0.00
 007932,0.00025567,-0.00010981,-0.00016990,-0.00029472,-0.00013440,-0.0
 0004248,0.00000438,0.00000498,0.00001108,-0.00000284,-0.00001537,-0.00
 000784,0.00000086,-0.00001070,0.00001367,0.00000127,0.00000326,-0.0000
 0263,-0.00000485,0.00000459,0.00000146,0.00000055,-0.00000292,-0.00000
 298,0.00000338,0.00000034,0.00000228,-0.00000095,-0.00000522,0.0000008
 7,0.00000146,-0.00000045,0.00000308,-0.00031363,0.00016162,-0.00062893
 ,0.01043107,0.01604907,-0.01168738,0.11065490,-0.00001608,0.00000971,-
 0.00001745,-0.00000613,0.00009344,0.00003457,0.00001425,-0.00002111,-0
 .00002075,-0.00000264,-0.00001254,-0.00001993,0.00000425,0.00000344,0.
 00000542,0.00030540,-0.00006713,0.00001198,0.00007651,-0.00031257,0.00
 045745,-0.00079967,-0.00043903,-0.00029370,0.00584391,0.01023885,-0.00
 584439,-0.08968442,-0.17946607,0.09218338,0.00113966,-0.00065761,0.000
 07672,-0.00107072,0.00047600,-0.00000628,0.00033310,-0.00000399,-0.000
 78961,-0.00025526,-0.00010670,-0.00005556,-0.00001588,0.00018382,0.000
 06713,0.00000078,-0.00000471,-0.00000478,0.00000032,0.00000507,0.00000
 371,-0.00000081,0.00001270,-0.00001050,0.00000170,-0.00000454,0.000005
 25,-0.00000290,-0.00000546,0.00000572,0.00000214,0.00000303,0.00000095
 ,-0.00000225,-0.00000250,-0.00000378,0.00000314,0.00000790,-0.00000470
 ,-0.00000204,0.00000130,0.00000428,-0.00004052,-0.00020137,-0.00017747
 ,-0.01207098,-0.01681199,0.01106762,0.10007102,0.19613659,-0.00003003,
 -0.00001397,-0.00004934,-0.00009201,0.00011621,0.00007825,0.00007081,-
 0.00004601,-0.00001826,-0.00001967,0.00000125,-0.00000117,0.00001004,0
 .00000052,0.00000486,0.00008331,-0.00014150,-0.00017531,0.00018602,-0.
 00046414,0.00057974,-0.00039597,-0.00194374,-0.00005240,0.01305538,0.0
 1974467,-0.01300295,0.06144169,0.09502294,-0.10990751,0.00045255,-0.00
 173360,-0.00082686,0.00091200,-0.00012618,-0.00093189,-0.00072621,-0.0
 0020477,-0.00011027,-0.00010439,0.00029235,0.00051278,-0.00003334,0.00
 015017,-0.00000419,0.00001707,0.00000526,-0.00000529,0.00000025,0.0000
 1496,0.00000831,-0.00000947,0.00001738,-0.00002545,-0.00001739,0.00001
 418,-0.00000484,-0.00000069,-0.00000992,-0.00000309,-0.00000173,-0.000
 00358,-0.00000252,-0.00000391,0.00000129,-0.00000079,-0.00000050,0.000
 00729,-0.00000220,-0.00000091,0.00000125,-0.00000347,0.00010134,-0.000
 17480,0.00014355,0.00315043,0.00513556,-0.00363557,-0.06809033,-0.1018
 6451,0.11818640,0.00001093,0.00000023,-0.00001770,-0.00002402,-0.00002
 774,0.00004720,-0.00001919,0.00000777,-0.00000273,0.00000059,-0.000006
 28,0.00000126,-0.00000059,-0.00000226,0.00000248,0.00042690,0.00011360
 ,0.00009117,0.00028580,0.00006304,0.00048729,-0.00169197,0.00066306,0.
 00194955,0.00842258,0.00678991,0.01077862,-0.18889530,-0.07714004,-0.1
 2201923,-0.00002945,0.00147794,0.00306814,-0.00100275,-0.00000847,0.00
 074396,0.00062679,-0.00007343,-0.00027934,-0.00029866,-0.00009043,-0.0
 0023442,-0.00009346,0.00007576,0.00024732,0.00000935,0.00000464,0.0000
 0097,-0.00000466,-0.00000203,-0.00000169,0.00000494,-0.00000143,-0.000
 00214,0.00000812,-0.00000406,0.00000642,0.00000012,-0.00000505,-0.0000
 0067,0.00000231,0.00000312,0.00000020,-0.00000038,-0.00000181,-0.00000
 010,0.00000243,0.00000508,-0.00000099,-0.00000002,0.00000060,-0.000002
 45,-0.00005364,0.00003973,-0.00014645,-0.01295119,-0.00848164,-0.01013
 698,-0.00966247,-0.00394972,-0.00818533,0.20451061,-0.00001541,0.00001
 560,-0.00001894,0.00007140,-0.00000258,0.00001513,-0.00000634,-0.00001
 019,-0.00000876,-0.00000056,-0.00000387,0.00000612,0.00000268,0.000001
 88,0.00000087,0.00042425,0.00006177,0.00031150,-0.00086010,0.00041788,
 -0.00014920,0.00118343,0.00059786,-0.00187082,-0.00864432,-0.00597591,
 -0.00662205,-0.07336755,-0.08721653,-0.06183827,-0.00016202,0.00031214
 ,0.00116009,0.00032811,0.00040606,0.00004931,0.00000959,0.00021687,-0.
 00029808,-0.00012136,-0.00012084,0.00011506,0.00019667,-0.00010336,-0.
 00006793,0.00000387,-0.00000390,-0.00000112,0.00000090,-0.00000139,0.0
 0000233,-0.00000034,0.00000073,-0.00000373,0.00000518,-0.00000373,0.00
 000418,-0.00000099,0.00000403,-0.00000415,0.00000248,0.00000266,-0.000
 00117,0.00000036,-0.00000056,0.00000050,-0.00000107,-0.00000124,0.0000
 0160,-0.00000034,-0.00000126,-0.00000143,-0.00024927,-0.00016212,-0.00
 049919,0.01688110,0.01008334,0.01409996,-0.01647914,-0.00876732,-0.013
 90607,0.08066761,0.09067651,-0.00000991,0.00002844,-0.00002909,0.00013
 962,-0.00001535,0.00005322,-0.00003359,-0.00001332,0.00000380,0.000004
 98,-0.00001058,-0.00000808,-0.00000245,0.00000187,0.00000181,0.0004977
 6,0.00013489,0.00048622,-0.00140281,-0.00048331,-0.00003714,0.00324993
 ,-0.00166948,-0.00297925,-0.01918987,-0.01117988,-0.01981824,-0.115592
 14,-0.06100057,-0.14047426,-0.00078128,0.00106774,0.00160826,0.0008980
 2,0.00001309,-0.00017140,0.00000385,-0.00012627,0.00029541,0.00003533,
 0.00002468,-0.00006109,0.00017759,-0.00003790,-0.00037347,0.00000451,-
 0.00000648,-0.00000030,0.,-0.00000572,0.00000035,0.00000197,0.00000061
 ,0.00000235,0.00000915,-0.00000623,0.00000784,-0.00001092,-0.00000169,
 0.00000135,0.00000648,0.00000303,-0.00000333,0.00000211,-0.00000298,0.
 00000008,0.00000240,0.00000446,-0.00000326,0.00000016,0.00000027,0.000
 00393,-0.00041969,-0.00017923,-0.00085160,-0.00397537,-0.00205961,-0.0
 0396224,0.01233566,0.00589952,0.01041717,0.12434161,0.06936125,0.15592
 830,-0.00004436,-0.00004990,0.00015304,-0.00028215,0.00020080,-0.00022
 376,0.00000158,0.00003531,-0.00000392,0.00001003,0.00001187,0.00001295
 ,-0.00000463,-0.00000333,-0.00000520,-0.00003918,0.00027756,0.00145333
 ,-0.00402421,-0.00198204,-0.00099217,-0.00603978,0.00655011,0.02372060
 ,0.00099118,0.00147949,0.00221919,-0.00097906,-0.00109625,-0.00059499,
 0.00005620,-0.00016298,-0.00042148,-0.08829995,0.02338664,0.09420470,0
 .00533690,-0.00595742,-0.02139176,0.00244565,-0.00119015,-0.00173964,-
 0.00090207,-0.00048144,-0.00049214,-0.00001670,0.00004443,0.00002031,-
 0.00000134,-0.00000015,-0.00000585,-0.00000248,-0.00000927,0.00000913,
 0.00000398,-0.00000307,-0.00000980,0.00000574,0.00000509,-0.00000100,-
 0.00000484,-0.00000061,0.00000197,0.00000014,0.00000197,0.00000170,-0.
 00000166,-0.00000791,0.00000352,0.00000134,-0.00000010,-0.00000158,0.0
 0027194,0.00000374,0.00041360,-0.00034315,-0.00107572,-0.00071010,-0.0
 0067187,0.00009970,-0.00178702,0.00034683,0.00016751,-0.00019824,0.091
 93201,-0.00001438,-0.00002296,0.00006615,0.00000034,0.00044437,-0.0001
 0676,0.00005919,-0.00010886,0.00000545,-0.00002383,0.00001638,0.000028
 24,-0.00000247,-0.00000438,-0.00000725,-0.00060053,0.00002853,0.000129
 84,-0.00084905,0.00642998,-0.00281041,-0.00016880,0.00377585,0.0024877
 5,0.00003816,-0.00235399,0.00035423,-0.00156200,0.00079099,-0.00209593
 ,0.00064821,-0.00007379,-0.00016697,0.02291932,-0.05442723,-0.06771065
 ,0.00233044,-0.00154940,-0.00727097,-0.00063224,0.00659229,-0.00351362
 ,-0.00040316,0.00039973,-0.00024300,-0.00003765,-0.00001037,0.00000116
 ,0.00001187,0.00001579,0.00001047,-0.00002766,-0.00000344,-0.00000334,
 -0.00006534,0.00000795,0.00001296,0.00000425,-0.00000089,-0.00000498,-
 0.00000479,-0.00001229,-0.00000150,0.00000152,0.00000362,0.00000362,-0
 .00000278,-0.00000613,0.00000390,0.00000167,0.00000020,-0.00000464,0.0
 0020047,-0.00020904,0.00033241,-0.00128783,-0.00127710,-0.00083820,-0.
 00022610,-0.00026790,0.00012731,-0.00012519,-0.00039750,0.00027262,-0.
 02055766,0.04479729,0.00002299,0.00001053,-0.00006786,-0.00000340,-0.0
 0013513,0.00020856,0.00000101,0.00001973,-0.00000096,-0.00000392,-0.00
 000627,-0.00000921,0.00000700,0.00000059,0.00000389,0.00000009,-0.0000
 7047,-0.00018042,0.00054453,-0.00128732,0.00236985,0.00027330,-0.00181
 425,-0.00227403,-0.00003924,0.00045384,-0.00089510,-0.00301323,-0.0025
 6753,-0.00176591,0.00015874,0.00006805,0.00009722,0.09763174,-0.066119
 89,-0.29260111,0.00244633,-0.00580692,-0.01881869,0.00019932,-0.002610
 99,-0.00086323,-0.00135453,-0.00032282,0.00021110,0.00001553,-0.000002
 19,-0.00000276,-0.00000543,0.00000210,-0.00000045,0.00000386,0.0000054
 6,-0.00000591,0.00000742,-0.00000173,-0.00000564,0.00000294,-0.0000063
 2,0.00000199,0.00000005,0.00000265,0.00000101,-0.00000354,-0.00000158,
 -0.00000332,0.00000194,0.00000624,-0.00000216,-0.00000245,0.00000119,-
 0.00000043,0.00003270,0.00009645,-0.00000968,-0.00111477,0.00003356,-0
 .00073527,-0.00167311,-0.00071327,-0.00117653,-0.00077627,0.00018910,0
 .00004133,-0.09354871,0.07983110,0.31702669,-0.00066928,0.00070213,0.0
 0041966,0.00009910,-0.00118360,-0.00066869,-0.00052185,-0.00118177,0.0
 0051807,-0.00020945,0.00002484,-0.00003714,0.00004077,0.00002979,0.000
 04308,0.00075412,0.00028008,0.00056530,0.00808566,-0.00775897,-0.01813
 103,-0.00212327,-0.00096930,-0.00042191,0.00056112,-0.00029127,-0.0009
 5247,-0.00030075,-0.00011546,-0.00013650,0.00015971,0.00006253,0.00010
 573,-0.00207039,-0.00040325,-0.00053866,0.00047456,-0.00012521,0.00276
 059,-0.01336982,0.01047367,0.02567309,-0.07910851,0.03274548,0.0815129
 4,-0.00009518,-0.00005252,-0.00001522,0.00002983,0.00001270,-0.0000109
 6,-0.00006801,-0.00004167,0.00010690,-0.00047730,-0.00036009,0.0000746
 5,0.00002218,0.00003000,0.00001316,-0.00002470,-0.00007419,-0.00000658
 ,-0.00001741,0.00001454,-0.00000307,-0.00000763,0.00002656,-0.00001781
 ,0.00000164,-0.00000508,-0.00000731,-0.00000048,0.00026324,-0.00019448
 ,-0.00000744,0.00000217,0.00002220,0.00000088,0.00002411,0.00001802,0.
 00006944,-0.00003636,-0.00009485,0.00025390,0.00037604,0.00018909,0.08
 851853,0.00039662,-0.00021724,0.00023711,-0.00086836,0.00008974,-0.000
 89733,-0.00102004,0.00001366,0.00043995,0.00029224,-0.00035240,-0.0000
 0925,-0.00001028,-0.00000675,0.00006501,-0.00085627,-0.00177113,0.0007
 6255,0.00434299,0.00037013,-0.00811981,-0.00240746,0.00575977,-0.00111
 483,0.00041973,0.00011570,-0.00036799,-0.00009246,0.00004696,-0.000075
 11,-0.00000668,-0.00011728,0.00007415,0.00048360,-0.00036526,0.0001075
 9,-0.00164567,0.00907833,-0.00251701,0.00107848,-0.00278073,0.00360383
 ,0.03206536,-0.07488670,-0.10408534,0.00003431,0.00009198,0.00005405,0
 .00001426,-0.00009016,-0.00001220,0.00007693,-0.00008835,0.00007792,-0
 .00040438,-0.00141593,0.00053419,-0.00001094,0.00010208,0.00002258,0.0
 0010431,0.00018729,0.00004083,0.00000792,-0.00004009,-0.00000842,0.000
 02034,0.00003570,-0.00001257,-0.00000425,-0.00001553,-0.00000044,0.000
 13418,-0.00043418,0.00010099,0.00001099,0.00000944,-0.00001513,-0.0000
 0765,-0.00001930,-0.00001980,0.00000751,-0.00002504,-0.00001387,0.0003
 1379,-0.00257769,0.00074610,-0.03246913,0.06930298,-0.00003751,0.00036
 478,0.00016081,0.00007328,0.00014175,0.00024690,0.00036140,0.00089857,
 0.00010473,0.00021816,-0.00009353,-0.00022655,0.00003187,0.00001438,0.
 00003967,0.00202068,0.00123393,0.00028484,0.00703727,-0.00691049,-0.01
 378271,-0.00217748,-0.00292332,0.00035116,0.00090711,-0.00012265,-0.00
 036346,-0.00025628,-0.00009772,-0.00007853,-0.00018140,0.00008957,0.00
 007563,-0.00112234,0.00015209,0.00047031,0.00210148,-0.00311681,0.0036
 2097,0.00273842,0.00069376,-0.00469127,0.07829898,-0.10254557,-0.27129
 652,0.00000632,0.00001436,-0.00001391,-0.00004785,-0.00001643,-0.00003
 259,0.00019756,0.00001306,-0.00017680,0.00092018,0.00040009,0.00008634
 ,-0.00001598,-0.00003309,0.00001585,0.00000898,0.00010189,0.00002073,-
 0.00001430,0.00000043,-0.00000379,-0.00000728,0.00002566,-0.00001492,0
 .00000330,0.00000232,-0.00000863,-0.00023058,0.00022259,-0.00041375,-0
 .00000833,0.00000025,-0.00000400,0.00000645,0.00000297,0.00000887,0.00
 004032,-0.00002610,-0.00007865,-0.00008666,0.00111102,-0.00054300,-0.0
 9078578,0.11040226,0.28624231\\-0.00000241,0.,0.00000336,0.00000329,0.
 00000141,-0.00000280,-0.00000508,-0.00000270,0.00000011,0.00000179,-0.
 00000074,0.00000105,0.00000049,0.00000015,-0.00000060,-0.00000113,0.00
 000117,0.00000363,0.00000591,-0.00000143,-0.00000150,0.00001356,-0.000
 00104,-0.00000193,0.00000031,0.00000168,0.00000166,-0.00000060,-0.0000
 0457,0.00000147,0.00000139,-0.00000231,-0.00000187,-0.00000493,0.00000
 191,0.00000329,-0.00001487,-0.00000301,-0.00000165,0.00000292,0.000003
 02,0.00000270,-0.00000193,-0.00000092,-0.00000574,-0.00000072,0.000000
 02,-0.00000143,-0.00000055,-0.00000091,-0.00000177,0.00000072,0.,-0.00
 000173,0.00000111,0.00000054,0.00000032,0.00000094,0.00000028,0.000000
 40,-0.00000082,-0.00000052,0.00000078,0.00000032,0.00000017,0.00000071
 ,0.00000042,-0.00000004,0.00000026,0.00000028,0.00000070,-0.00000024,0
 .00000097,0.00000177,-0.00000019,0.00000113,0.00000133,-0.00000052,0.0
 0000095,0.00000065,0.00000035,0.00000097,0.00000007,-0.00000039,-0.000
 00192,0.00000143,0.00000167,-0.00000249,0.00000186,0.00000063\\\@


 THE MORE POWERFUL THE METHOD, THE MORE CATASTROPHIC THE ERRORS.
     -- M.D. KAMEN
 Job cpu time:       0 days  9 hours  6 minutes 49.2 seconds.
 Elapsed time:       0 days  2 hours 16 minutes 46.0 seconds.
 File lengths (MBytes):  RWF=    554 Int=      0 D2E=      0 Chk=     21 Scr=      1
 Normal termination of Gaussian 16 at Thu May 18 03:14:46 2023.
### All Done ###
