### Starting Gaussian ###
 Entering Gaussian System, Link 0=g16
 Initial command:
 /cluster/software/gaussian/gaussian-16-A.03/avx2/g16/l1.exe "/local/scratch/ks29c/Gau-14318.inp" -scrdir="/local/scratch/ks29c/"
 Entering Link 1 = /cluster/software/gaussian/gaussian-16-A.03/avx2/g16/l1.exe PID=     14319.
  
 Copyright (c) 1988,1990,1992,1993,1995,1998,2003,2009,2016,
            Gaussian, Inc.  All Rights Reserved.
  
 This is part of the Gaussian(R) 16 program.  It is based on
 the Gaussian(R) 09 system (copyright 2009, Gaussian, Inc.),
 the Gaussian(R) 03 system (copyright 2003, Gaussian, Inc.),
 the Gaussian(R) 98 system (copyright 1998, Gaussian, Inc.),
 the Gaussian(R) 94 system (copyright 1995, Gaussian, Inc.),
 the Gaussian 92(TM) system (copyright 1992, Gaussian, Inc.),
 the Gaussian 90(TM) system (copyright 1990, Gaussian, Inc.),
 the Gaussian 88(TM) system (copyright 1988, Gaussian, Inc.),
 the Gaussian 86(TM) system (copyright 1986, Carnegie Mellon
 University), and the Gaussian 82(TM) system (copyright 1983,
 Carnegie Mellon University). Gaussian is a federally registered
 trademark of Gaussian, Inc.
  
 This software contains proprietary and confidential information,
 including trade secrets, belonging to Gaussian, Inc.
  
 This software is provided under written license and may be
 used, copied, transmitted, or stored only in accord with that
 written license.
  
 The following legend is applicable only to US Government
 contracts under FAR:
  
                    RESTRICTED RIGHTS LEGEND
  
 Use, reproduction and disclosure by the US Government is
 subject to restrictions as set forth in subparagraphs (a)
 and (c) of the Commercial Computer Software - Restricted
 Rights clause in FAR 52.227-19.
  
 Gaussian, Inc.
 340 Quinnipiac St., Bldg. 40, Wallingford CT 06492
  
  
 ---------------------------------------------------------------
 Warning -- This program may not be used in any manner that
 competes with the business of Gaussian, Inc. or will provide
 assistance to any competitor of Gaussian, Inc.  The licensee
 of this program is prohibited from giving any competitor of
 Gaussian, Inc. access to this program.  By using this program,
 the user acknowledges that Gaussian, Inc. is engaged in the
 business of creating and licensing software in the field of
 computational chemistry and represents and warrants to the
 licensee that it is not a competitor of Gaussian, Inc. and that
 it will not use this program in any manner prohibited above.
 ---------------------------------------------------------------
  

 Cite this work as:
 Gaussian 16, Revision A.03,
 M. J. Frisch, G. W. Trucks, H. B. Schlegel, G. E. Scuseria, 
 M. A. Robb, J. R. Cheeseman, G. Scalmani, V. Barone, 
 G. A. Petersson, H. Nakatsuji, X. Li, M. Caricato, A. V. Marenich, 
 J. Bloino, B. G. Janesko, R. Gomperts, B. Mennucci, H. P. Hratchian, 
 J. V. Ortiz, A. F. Izmaylov, J. L. Sonnenberg, D. Williams-Young, 
 F. Ding, F. Lipparini, F. Egidi, J. Goings, B. Peng, A. Petrone, 
 T. Henderson, D. Ranasinghe, V. G. Zakrzewski, J. Gao, N. Rega, 
 G. Zheng, W. Liang, M. Hada, M. Ehara, K. Toyota, R. Fukuda, 
 J. Hasegawa, M. Ishida, T. Nakajima, Y. Honda, O. Kitao, H. Nakai, 
 T. Vreven, K. Throssell, J. A. Montgomery, Jr., J. E. Peralta, 
 F. Ogliaro, M. J. Bearpark, J. J. Heyd, E. N. Brothers, K. N. Kudin, 
 V. N. Staroverov, T. A. Keith, R. Kobayashi, J. Normand, 
 K. Raghavachari, A. P. Rendell, J. C. Burant, S. S. Iyengar, 
 J. Tomasi, M. Cossi, J. M. Millam, M. Klene, C. Adamo, R. Cammi, 
 J. W. Ochterski, R. L. Martin, K. Morokuma, O. Farkas, 
 J. B. Foresman, and D. J. Fox, Gaussian, Inc., Wallingford CT, 2016.
 
 ******************************************
 Gaussian 16:  ES64L-G16RevA.03 25-Dec-2016
                19-May-2023 
 ******************************************
 %chk=CdCqCrCqdOrC1dCCdCCdCqCrNOCqCrC1CC.chk
 %NProcShared=20
 Will use up to   20 processors via shared memory.
 -----------------------------
 # opt freq b3lyp/6-31g(2df,p)
 -----------------------------
 1/18=20,19=15,26=3,38=1/1,3;
 2/9=110,12=2,17=6,18=5,40=1/2;
 3/5=1,6=6,7=104,11=2,25=1,30=1,71=1,74=-5/1,2,3;
 4//1;
 5/5=2,38=5/2;
 6/7=2,8=2,9=2,10=2,28=1/1;
 7//1,2,3,16;
 1/18=20,19=15,26=3/3(2);
 2/9=110/2;
 99//99;
 2/9=110/2;
 3/5=1,6=6,7=104,11=2,25=1,30=1,71=1,74=-5/1,2,3;
 4/5=5,16=3,69=1/1;
 5/5=2,38=5/2;
 7//1,2,3,16;
 1/18=20,19=15,26=3/3(-5);
 2/9=110/2;
 6/7=2,8=2,9=2,10=2,19=2,28=1/1;
 99/9=1/99;
 -------------------
 Title Card Required
 -------------------
 Symbolic Z-matrix:
 Charge =  0 Multiplicity = 1
 C                     1.0698    0.03303   0.04866 
 C                     2.55272   0.0673    0.0856 
 C                     3.09083   1.23028   1.34587 
 C                     3.89614  -0.94661  -1.0141 
 O                     2.79505  -1.54102  -1.65674 
 C                     6.08385  -1.04295  -1.11651 
 C                     5.27443  -1.77631  -1.90614 
 C                     6.41331  -2.09765  -2.25967 
 C                     7.3003   -2.66205  -2.87154 
 C                     8.59925  -2.61984  -2.82583 
 C                     9.25572  -3.353    -3.62 
 C                     8.83851  -4.23675  -4.57769 
 N                     10.41219  -2.97339  -3.20765 
 O                     11.28353  -3.54822  -3.832 
 C                     10.47721  -2.3032   -2.51036 
 C                     12.14333  -3.48946  -3.76788 
 C                     8.36098  -1.24006  -1.27818 
 C                     6.46079  -0.25519  -0.28981 
 C                     5.67889   1.13833   1.24611 
 H                     0.41534   0.65483   0.72239 
 H                     0.42778  -0.58069  -0.61632 
 H                     2.11213   1.48182   1.61843 
 H                     3.24346   2.4537    1.3789 
 H                     3.24346   1.16528   2.56802 
 H                     4.58354  -2.29219  -2.47359 
 H                     7.23268  -1.81993  -1.95964 
 H                     6.80536  -3.21129  -3.46657 
 H                     9.25379  -1.91479  -2.06237 
 H                     7.80431  -4.09274  -4.42165 
 H                     9.15595  -5.21257  -4.30058 
 H                     9.15596  -3.88243  -5.5282 
 H                     11.64935  -2.21291  -2.38416 
 H                     12.04741  -2.8561   -3.08141 
 H                     12.58124  -4.57126  -4.94026 
 H                     13.39292  -4.53186  -4.00593 
 H                     13.39291  -3.64322  -4.82611 
 H                     7.75348  -0.32316  -0.33752 
 H                     5.07587  -0.75326   0.33105 
 H                     5.07489   0.37804  -0.71309 
 H                     5.81332   0.98701   2.4241 
 H                     4.70009   1.98302   2.16136 
 H                     5.81329   2.32452   1.18974 
 
 Add virtual bond connecting atoms H36        and H35        Dist= 2.29D+00.
 Add virtual bond connecting atoms H35        and H34        Dist= 2.34D+00.
 Add virtual bond connecting atoms H36        and H34        Dist= 2.34D+00.
 Add virtual bond connecting atoms H26        and C17        Dist= 2.72D+00.
 Add virtual bond connecting atoms H28        and C17        Dist= 2.58D+00.
 Add virtual bond connecting atoms H37        and C17        Dist= 2.73D+00.
 Add virtual bond connecting atoms C19        and H41        Dist= 2.99D+00.
 Add virtual bond connecting atoms H40        and H41        Dist= 2.87D+00.
 Add virtual bond connecting atoms H42        and H41        Dist= 2.87D+00.
 Add virtual bond connecting atoms H39        and H38        Dist= 2.91D+00.
 Add virtual bond connecting atoms H38        and C18        Dist= 3.02D+00.
 Add virtual bond connecting atoms H39        and C18        Dist= 2.99D+00.
 Add virtual bond connecting atoms H34        and C16        Dist= 3.13D+00.
 Add virtual bond connecting atoms H35        and C16        Dist= 3.11D+00.
 Add virtual bond connecting atoms H36        and C16        Dist= 3.11D+00.
 Add virtual bond connecting atoms H41        and H23        Dist= 3.25D+00.
 Add virtual bond connecting atoms H41        and H24        Dist= 3.25D+00.
 Add virtual bond connecting atoms C7         and C4         Dist= 3.48D+00.
 Add virtual bond connecting atoms H38        and C4         Dist= 3.40D+00.
 Add virtual bond connecting atoms H39        and C4         Dist= 3.40D+00.
 Add virtual bond connecting atoms C4         and C2         Dist= 3.80D+00.

 GradGradGradGradGradGradGradGradGradGradGradGradGradGradGradGradGradGrad
 Berny optimization.
 Initialization pass.
                           ----------------------------
                           !    Initial Parameters    !
                           ! (Angstroms and Degrees)  !
 --------------------------                            --------------------------
 ! Name  Definition              Value          Derivative Info.                !
 --------------------------------------------------------------------------------
 ! R1    R(1,2)                  1.4838         estimate D2E/DX2                !
 ! R2    R(1,20)                 1.1264         estimate D2E/DX2                !
 ! R3    R(1,21)                 1.1095         estimate D2E/DX2                !
 ! R4    R(2,3)                  1.7973         estimate D2E/DX2                !
 ! R5    R(2,4)                  2.0105         estimate D2E/DX2                !
 ! R6    R(3,22)                 1.0466         estimate D2E/DX2                !
 ! R7    R(3,23)                 1.2333         estimate D2E/DX2                !
 ! R8    R(3,24)                 1.2334         estimate D2E/DX2                !
 ! R9    R(4,5)                  1.4067         estimate D2E/DX2                !
 ! R10   R(4,7)                  1.8395         estimate D2E/DX2                !
 ! R11   R(4,38)                 1.7996         estimate D2E/DX2                !
 ! R12   R(4,39)                 1.7985         estimate D2E/DX2                !
 ! R13   R(6,7)                  1.3478         estimate D2E/DX2                !
 ! R14   R(6,8)                  1.5899         estimate D2E/DX2                !
 ! R15   R(6,18)                 1.2025         estimate D2E/DX2                !
 ! R16   R(7,8)                  1.235          estimate D2E/DX2                !
 ! R17   R(7,25)                 1.0322         estimate D2E/DX2                !
 ! R18   R(8,9)                  1.2164         estimate D2E/DX2                !
 ! R19   R(8,26)                 0.9157         estimate D2E/DX2                !
 ! R20   R(9,10)                 1.3004         estimate D2E/DX2                !
 ! R21   R(9,26)                 1.2431         estimate D2E/DX2                !
 ! R22   R(9,27)                 0.949          estimate D2E/DX2                !
 ! R23   R(10,11)                1.2646         estimate D2E/DX2                !
 ! R24   R(10,28)                1.2282         estimate D2E/DX2                !
 ! R25   R(11,12)                1.3683         estimate D2E/DX2                !
 ! R26   R(11,13)                1.2851         estimate D2E/DX2                !
 ! R27   R(12,29)                1.0558         estimate D2E/DX2                !
 ! R28   R(12,30)                1.0629         estimate D2E/DX2                !
 ! R29   R(12,31)                1.0629         estimate D2E/DX2                !
 ! R30   R(13,14)                1.2163         estimate D2E/DX2                !
 ! R31   R(13,15)                0.9693         estimate D2E/DX2                !
 ! R32   R(14,16)                0.8642         estimate D2E/DX2                !
 ! R33   R(15,32)                1.1824         estimate D2E/DX2                !
 ! R34   R(16,33)                0.9389         estimate D2E/DX2                !
 ! R35   R(16,34)                1.6542         estimate D2E/DX2                !
 ! R36   R(16,35)                1.6446         estimate D2E/DX2                !
 ! R37   R(16,36)                1.6447         estimate D2E/DX2                !
 ! R38   R(17,26)                1.44           estimate D2E/DX2                !
 ! R39   R(17,28)                1.3665         estimate D2E/DX2                !
 ! R40   R(17,37)                1.4473         estimate D2E/DX2                !
 ! R41   R(18,37)                1.2954         estimate D2E/DX2                !
 ! R42   R(18,38)                1.5974         estimate D2E/DX2                !
 ! R43   R(18,39)                1.5814         estimate D2E/DX2                !
 ! R44   R(19,40)                1.1953         estimate D2E/DX2                !
 ! R45   R(19,41)                1.5841         estimate D2E/DX2                !
 ! R46   R(19,42)                1.1951         estimate D2E/DX2                !
 ! R47   R(23,41)                1.7192         estimate D2E/DX2                !
 ! R48   R(24,41)                1.7193         estimate D2E/DX2                !
 ! R49   R(34,35)                1.2383         estimate D2E/DX2                !
 ! R50   R(34,36)                1.2382         estimate D2E/DX2                !
 ! R51   R(35,36)                1.2093         estimate D2E/DX2                !
 ! R52   R(38,39)                1.5395         estimate D2E/DX2                !
 ! R53   R(40,41)                1.5167         estimate D2E/DX2                !
 ! R54   R(41,42)                1.5165         estimate D2E/DX2                !
 ! A1    A(2,1,20)             123.5747         estimate D2E/DX2                !
 ! A2    A(2,1,21)             127.3014         estimate D2E/DX2                !
 ! A3    A(20,1,21)            109.1238         estimate D2E/DX2                !
 ! A4    A(1,2,3)              109.3674         estimate D2E/DX2                !
 ! A5    A(1,2,4)              129.9822         estimate D2E/DX2                !
 ! A6    A(3,2,4)              120.6504         estimate D2E/DX2                !
 ! A7    A(2,3,22)              93.3336         estimate D2E/DX2                !
 ! A8    A(2,3,23)             134.2415         estimate D2E/DX2                !
 ! A9    A(2,3,24)             134.2484         estimate D2E/DX2                !
 ! A10   A(22,3,23)             82.5504         estimate D2E/DX2                !
 ! A11   A(22,3,24)             82.5497         estimate D2E/DX2                !
 ! A12   A(23,3,24)             90.5973         estimate D2E/DX2                !
 ! A13   A(2,4,5)               86.5571         estimate D2E/DX2                !
 ! A14   A(2,4,38)              88.5678         estimate D2E/DX2                !
 ! A15   A(2,4,39)              88.5652         estimate D2E/DX2                !
 ! A16   A(5,4,7)              100.0416         estimate D2E/DX2                !
 ! A17   A(5,4,38)             154.1616         estimate D2E/DX2                !
 ! A18   A(5,4,39)             154.2508         estimate D2E/DX2                !
 ! A19   A(7,4,38)              85.3971         estimate D2E/DX2                !
 ! A20   A(7,4,39)              85.5433         estimate D2E/DX2                !
 ! A21   A(7,6,18)             161.3463         estimate D2E/DX2                !
 ! A22   A(8,6,18)             149.7591         estimate D2E/DX2                !
 ! A23   A(4,7,6)               85.4371         estimate D2E/DX2                !
 ! A24   A(4,7,8)              161.2815         estimate D2E/DX2                !
 ! A25   A(4,7,25)              89.4558         estimate D2E/DX2                !
 ! A26   A(8,7,25)             109.2578         estimate D2E/DX2                !
 ! A27   A(6,8,9)              145.142          estimate D2E/DX2                !
 ! A28   A(6,8,26)              75.4421         estimate D2E/DX2                !
 ! A29   A(7,8,9)              159.574          estimate D2E/DX2                !
 ! A30   A(7,8,26)             130.7255         estimate D2E/DX2                !
 ! A31   A(8,9,10)             134.0753         estimate D2E/DX2                !
 ! A32   A(8,9,27)             101.7486         estimate D2E/DX2                !
 ! A33   A(10,9,26)             90.3759         estimate D2E/DX2                !
 ! A34   A(10,9,27)            124.1761         estimate D2E/DX2                !
 ! A35   A(26,9,27)            145.448          estimate D2E/DX2                !
 ! A36   A(9,10,11)            118.5308         estimate D2E/DX2                !
 ! A37   A(9,10,28)            124.9467         estimate D2E/DX2                !
 ! A38   A(11,10,28)           116.5225         estimate D2E/DX2                !
 ! A39   A(10,11,12)           130.9741         estimate D2E/DX2                !
 ! A40   A(10,11,13)            95.4161         estimate D2E/DX2                !
 ! A41   A(12,11,13)           133.6097         estimate D2E/DX2                !
 ! A42   A(11,12,29)            96.1503         estimate D2E/DX2                !
 ! A43   A(11,12,30)           108.6277         estimate D2E/DX2                !
 ! A44   A(11,12,31)           108.6345         estimate D2E/DX2                !
 ! A45   A(29,12,30)           112.2868         estimate D2E/DX2                !
 ! A46   A(29,12,31)           112.2876         estimate D2E/DX2                !
 ! A47   A(30,12,31)           116.7422         estimate D2E/DX2                !
 ! A48   A(11,13,14)           109.8981         estimate D2E/DX2                !
 ! A49   A(11,13,15)           119.6965         estimate D2E/DX2                !
 ! A50   A(14,13,15)           130.3867         estimate D2E/DX2                !
 ! A51   A(13,14,16)           129.9791         estimate D2E/DX2                !
 ! A52   A(13,15,32)           101.3075         estimate D2E/DX2                !
 ! A53   A(14,16,33)            89.9125         estimate D2E/DX2                !
 ! A54   A(14,16,34)            99.5742         estimate D2E/DX2                !
 ! A55   A(14,16,35)           134.597          estimate D2E/DX2                !
 ! A56   A(14,16,36)           134.5732         estimate D2E/DX2                !
 ! A57   A(33,16,35)           127.6619         estimate D2E/DX2                !
 ! A58   A(33,16,36)           127.6696         estimate D2E/DX2                !
 ! A59   A(26,17,28)            92.3797         estimate D2E/DX2                !
 ! A60   A(26,17,37)           103.5207         estimate D2E/DX2                !
 ! A61   A(28,17,37)           163.7506         estimate D2E/DX2                !
 ! A62   A(6,18,37)            104.662          estimate D2E/DX2                !
 ! A63   A(6,18,38)             77.9465         estimate D2E/DX2                !
 ! A64   A(6,18,39)             78.6735         estimate D2E/DX2                !
 ! A65   A(37,18,38)           149.6754         estimate D2E/DX2                !
 ! A66   A(37,18,39)           152.3401         estimate D2E/DX2                !
 ! A67   A(40,19,42)            99.1775         estimate D2E/DX2                !
 ! A68   A(3,23,41)             81.1101         estimate D2E/DX2                !
 ! A69   A(3,24,41)             81.1063         estimate D2E/DX2                !
 ! A70   A(9,26,17)            125.2616         estimate D2E/DX2                !
 ! A71   A(10,28,17)           106.9769         estimate D2E/DX2                !
 ! A72   A(17,37,18)           118.4292         estimate D2E/DX2                !
 ! A73   A(4,38,18)            108.1401         estimate D2E/DX2                !
 ! A74   A(4,39,18)            108.9199         estimate D2E/DX2                !
 ! A75   A(19,41,23)           113.9892         estimate D2E/DX2                !
 ! A76   A(19,41,24)           113.9885         estimate D2E/DX2                !
 ! A77   A(23,41,24)            61.3158         estimate D2E/DX2                !
 ! A78   A(23,41,40)           151.7068         estimate D2E/DX2                !
 ! A79   A(23,41,42)           105.5864         estimate D2E/DX2                !
 ! A80   A(24,41,40)           105.5774         estimate D2E/DX2                !
 ! A81   A(24,41,42)           151.71           estimate D2E/DX2                !
 ! A82   A(40,41,42)            73.7451         estimate D2E/DX2                !
 ! A83   L(2,4,7,5,-1)         186.5987         estimate D2E/DX2                !
 ! A84   L(6,7,25,4,-1)        174.8929         estimate D2E/DX2                !
 ! A85   L(33,16,34,14,-1)     189.4867         estimate D2E/DX2                !
 ! A86   L(8,26,17,6,-1)       168.1216         estimate D2E/DX2                !
 ! A87   L(2,4,7,5,-2)         180.1753         estimate D2E/DX2                !
 ! A88   L(6,7,25,4,-2)        179.5497         estimate D2E/DX2                !
 ! A89   L(33,16,34,14,-2)     179.9999         estimate D2E/DX2                !
 ! A90   L(8,26,17,6,-2)       178.5226         estimate D2E/DX2                !
 ! D1    D(20,1,2,3)             0.0088         estimate D2E/DX2                !
 ! D2    D(20,1,2,4)          -179.9728         estimate D2E/DX2                !
 ! D3    D(21,1,2,3)          -179.9985         estimate D2E/DX2                !
 ! D4    D(21,1,2,4)             0.0198         estimate D2E/DX2                !
 ! D5    D(1,2,3,22)            -0.0063         estimate D2E/DX2                !
 ! D6    D(1,2,3,23)           -82.8511         estimate D2E/DX2                !
 ! D7    D(1,2,3,24)            82.837          estimate D2E/DX2                !
 ! D8    D(4,2,3,22)           179.9773         estimate D2E/DX2                !
 ! D9    D(4,2,3,23)            97.1326         estimate D2E/DX2                !
 ! D10   D(4,2,3,24)           -97.1793         estimate D2E/DX2                !
 ! D11   D(1,2,4,5)             -0.0493         estimate D2E/DX2                !
 ! D12   D(1,2,4,38)          -154.6632         estimate D2E/DX2                !
 ! D13   D(1,2,4,39)           154.6561         estimate D2E/DX2                !
 ! D14   D(3,2,4,5)            179.9709         estimate D2E/DX2                !
 ! D15   D(3,2,4,38)            25.3569         estimate D2E/DX2                !
 ! D16   D(3,2,4,39)           -25.3237         estimate D2E/DX2                !
 ! D17   D(1,2,7,6)            179.9256         estimate D2E/DX2                !
 ! D18   D(1,2,7,8)            179.4708         estimate D2E/DX2                !
 ! D19   D(1,2,7,25)             0.3851         estimate D2E/DX2                !
 ! D20   D(3,2,7,6)             -0.1713         estimate D2E/DX2                !
 ! D21   D(3,2,7,8)             -0.6261         estimate D2E/DX2                !
 ! D22   D(3,2,7,25)          -179.7118         estimate D2E/DX2                !
 ! D23   D(2,3,23,41)         -135.3429         estimate D2E/DX2                !
 ! D24   D(22,3,23,41)         137.2638         estimate D2E/DX2                !
 ! D25   D(24,3,23,41)          54.8571         estimate D2E/DX2                !
 ! D26   D(2,3,24,41)          135.3472         estimate D2E/DX2                !
 ! D27   D(22,3,24,41)        -137.2614         estimate D2E/DX2                !
 ! D28   D(23,3,24,41)         -54.854          estimate D2E/DX2                !
 ! D29   D(5,4,7,6)            179.9334         estimate D2E/DX2                !
 ! D30   D(5,4,7,8)            179.1073         estimate D2E/DX2                !
 ! D31   D(5,4,7,25)             0.3837         estimate D2E/DX2                !
 ! D32   D(38,4,7,6)           -25.5474         estimate D2E/DX2                !
 ! D33   D(38,4,7,8)           -26.3735         estimate D2E/DX2                !
 ! D34   D(38,4,7,25)          154.9029         estimate D2E/DX2                !
 ! D35   D(39,4,7,6)            25.2861         estimate D2E/DX2                !
 ! D36   D(39,4,7,8)            24.4599         estimate D2E/DX2                !
 ! D37   D(39,4,7,25)         -154.2636         estimate D2E/DX2                !
 ! D38   D(2,4,38,18)         -132.5537         estimate D2E/DX2                !
 ! D39   D(5,4,38,18)          148.3676         estimate D2E/DX2                !
 ! D40   D(7,4,38,18)           44.7699         estimate D2E/DX2                !
 ! D41   D(2,4,39,18)          133.3564         estimate D2E/DX2                !
 ! D42   D(5,4,39,18)         -147.6084         estimate D2E/DX2                !
 ! D43   D(7,4,39,18)          -43.664          estimate D2E/DX2                !
 ! D44   D(18,6,7,4)            -2.1523         estimate D2E/DX2                !
 ! D45   D(18,6,8,9)             1.7333         estimate D2E/DX2                !
 ! D46   D(18,6,8,26)            1.6977         estimate D2E/DX2                !
 ! D47   D(7,6,18,37)         -178.9092         estimate D2E/DX2                !
 ! D48   D(7,6,18,38)           32.1672         estimate D2E/DX2                !
 ! D49   D(7,6,18,39)          -27.1082         estimate D2E/DX2                !
 ! D50   D(8,6,18,37)           -2.5384         estimate D2E/DX2                !
 ! D51   D(8,6,18,38)         -151.462          estimate D2E/DX2                !
 ! D52   D(8,6,18,39)          149.2626         estimate D2E/DX2                !
 ! D53   D(4,7,8,9)           -179.4669         estimate D2E/DX2                !
 ! D54   D(4,7,8,26)             1.0503         estimate D2E/DX2                !
 ! D55   D(25,7,8,9)            -0.819          estimate D2E/DX2                !
 ! D56   D(25,7,8,26)          179.6983         estimate D2E/DX2                !
 ! D57   D(6,8,9,10)             0.0085         estimate D2E/DX2                !
 ! D58   D(6,8,9,27)           179.9937         estimate D2E/DX2                !
 ! D59   D(7,8,9,10)          -179.5367         estimate D2E/DX2                !
 ! D60   D(7,8,9,27)             0.4484         estimate D2E/DX2                !
 ! D61   D(6,8,17,28)         -178.0343         estimate D2E/DX2                !
 ! D62   D(6,8,17,37)           -1.2349         estimate D2E/DX2                !
 ! D63   D(7,8,17,28)         -179.1462         estimate D2E/DX2                !
 ! D64   D(7,8,17,37)           -2.3468         estimate D2E/DX2                !
 ! D65   D(8,9,10,11)          179.9778         estimate D2E/DX2                !
 ! D66   D(8,9,10,28)           -0.0318         estimate D2E/DX2                !
 ! D67   D(26,9,10,11)        -179.9909         estimate D2E/DX2                !
 ! D68   D(26,9,10,28)          -0.0005         estimate D2E/DX2                !
 ! D69   D(27,9,10,11)          -0.0047         estimate D2E/DX2                !
 ! D70   D(27,9,10,28)         179.9857         estimate D2E/DX2                !
 ! D71   D(10,9,26,17)          -1.7702         estimate D2E/DX2                !
 ! D72   D(27,9,26,17)         178.2498         estimate D2E/DX2                !
 ! D73   D(9,10,11,12)           0.0154         estimate D2E/DX2                !
 ! D74   D(9,10,11,13)        -179.9646         estimate D2E/DX2                !
 ! D75   D(28,10,11,12)       -179.9758         estimate D2E/DX2                !
 ! D76   D(28,10,11,13)          0.0442         estimate D2E/DX2                !
 ! D77   D(9,10,28,17)           1.5934         estimate D2E/DX2                !
 ! D78   D(11,10,28,17)       -178.416          estimate D2E/DX2                !
 ! D79   D(10,11,12,29)         -0.0128         estimate D2E/DX2                !
 ! D80   D(10,11,12,30)       -116.0431         estimate D2E/DX2                !
 ! D81   D(10,11,12,31)        116.0204         estimate D2E/DX2                !
 ! D82   D(13,11,12,29)        179.9598         estimate D2E/DX2                !
 ! D83   D(13,11,12,30)         63.9294         estimate D2E/DX2                !
 ! D84   D(13,11,12,31)        -64.0071         estimate D2E/DX2                !
 ! D85   D(10,11,13,14)       -179.9334         estimate D2E/DX2                !
 ! D86   D(10,11,13,15)         -1.3466         estimate D2E/DX2                !
 ! D87   D(12,11,13,14)          0.0874         estimate D2E/DX2                !
 ! D88   D(12,11,13,15)        178.6742         estimate D2E/DX2                !
 ! D89   D(11,13,14,16)       -179.9837         estimate D2E/DX2                !
 ! D90   D(15,13,14,16)          1.6279         estimate D2E/DX2                !
 ! D91   D(11,13,15,32)        179.5137         estimate D2E/DX2                !
 ! D92   D(14,13,15,32)         -2.2309         estimate D2E/DX2                !
 ! D93   D(13,14,16,33)         -0.0712         estimate D2E/DX2                !
 ! D94   D(13,14,16,34)        179.9288         estimate D2E/DX2                !
 ! D95   D(13,14,16,35)        148.8619         estimate D2E/DX2                !
 ! D96   D(13,14,16,36)       -148.9821         estimate D2E/DX2                !
 ! D97   D(28,17,26,9)           2.6076         estimate D2E/DX2                !
 ! D98   D(37,17,26,9)         179.2314         estimate D2E/DX2                !
 ! D99   D(26,17,28,10)         -1.9761         estimate D2E/DX2                !
 ! D100  D(37,17,28,10)       -170.1682         estimate D2E/DX2                !
 ! D101  D(26,17,37,18)          1.7002         estimate D2E/DX2                !
 ! D102  D(28,17,37,18)        169.5613         estimate D2E/DX2                !
 ! D103  D(6,18,37,17)          -0.0909         estimate D2E/DX2                !
 ! D104  D(38,18,37,17)         91.0422         estimate D2E/DX2                !
 ! D105  D(39,18,37,17)        -93.6386         estimate D2E/DX2                !
 ! D106  D(6,18,38,4)          -38.757          estimate D2E/DX2                !
 ! D107  D(37,18,38,4)        -137.2428         estimate D2E/DX2                !
 ! D108  D(6,18,39,4)           37.1521         estimate D2E/DX2                !
 ! D109  D(37,18,39,4)         137.1674         estimate D2E/DX2                !
 ! D110  D(40,19,41,42)        115.2305         estimate D2E/DX2                !
 ! D111  D(3,23,41,19)          63.3317         estimate D2E/DX2                !
 ! D112  D(3,23,41,24)         -41.9621         estimate D2E/DX2                !
 ! D113  D(3,23,41,40)          26.2855         estimate D2E/DX2                !
 ! D114  D(3,23,41,42)         110.841          estimate D2E/DX2                !
 ! D115  D(3,24,41,19)         -63.3327         estimate D2E/DX2                !
 ! D116  D(3,24,41,23)          41.9621         estimate D2E/DX2                !
 ! D117  D(3,24,41,40)        -110.8429         estimate D2E/DX2                !
 ! D118  D(3,24,41,42)         -26.3036         estimate D2E/DX2                !
 ! D119  D(16,34,35,36)        -76.6313         estimate D2E/DX2                !
 --------------------------------------------------------------------------------
 Trust Radius=3.00D-01 FncErr=1.00D-07 GrdErr=1.00D-06 EigMax=2.50D+02 EigMin=1.00D-04
 Number of steps in this run=    252 maximum allowed number of steps=    252.
 GradGradGradGradGradGradGradGradGradGradGradGradGradGradGradGradGradGrad

                          Input orientation:                          
 ---------------------------------------------------------------------
 Center     Atomic      Atomic             Coordinates (Angstroms)
 Number     Number       Type             X           Y           Z
 ---------------------------------------------------------------------
      1          6           0        1.069800    0.033030    0.048660
      2          6           0        2.552720    0.067300    0.085600
      3          6           0        3.090830    1.230280    1.345870
      4          6           0        3.896140   -0.946610   -1.014100
      5          8           0        2.795050   -1.541020   -1.656740
      6          6           0        6.083850   -1.042950   -1.116510
      7          6           0        5.274430   -1.776310   -1.906140
      8          6           0        6.413310   -2.097650   -2.259670
      9          6           0        7.300300   -2.662050   -2.871540
     10          6           0        8.599250   -2.619840   -2.825830
     11          6           0        9.255720   -3.353000   -3.620000
     12          6           0        8.838510   -4.236750   -4.577690
     13          7           0       10.412190   -2.973390   -3.207650
     14          8           0       11.283530   -3.548220   -3.832000
     15          6           0       10.477210   -2.303200   -2.510360
     16          6           0       12.143330   -3.489460   -3.767880
     17          6           0        8.360980   -1.240060   -1.278180
     18          6           0        6.460790   -0.255190   -0.289810
     19          6           0        5.678890    1.138330    1.246110
     20          1           0        0.415340    0.654830    0.722390
     21          1           0        0.427780   -0.580690   -0.616320
     22          1           0        2.112130    1.481820    1.618430
     23          1           0        3.243460    2.453700    1.378900
     24          1           0        3.243460    1.165280    2.568020
     25          1           0        4.583540   -2.292190   -2.473590
     26          1           0        7.232680   -1.819930   -1.959640
     27          1           0        6.805360   -3.211290   -3.466570
     28          1           0        9.253790   -1.914790   -2.062370
     29          1           0        7.804310   -4.092740   -4.421650
     30          1           0        9.155950   -5.212570   -4.300580
     31          1           0        9.155960   -3.882430   -5.528200
     32          1           0       11.649350   -2.212910   -2.384160
     33          1           0       12.047410   -2.856100   -3.081410
     34          1           0       12.581240   -4.571260   -4.940260
     35          1           0       13.392920   -4.531860   -4.005930
     36          1           0       13.392910   -3.643220   -4.826110
     37          1           0        7.753480   -0.323160   -0.337520
     38          1           0        5.075870   -0.753260    0.331050
     39          1           0        5.074890    0.378040   -0.713090
     40          1           0        5.813320    0.987010    2.424100
     41          1           0        4.700090    1.983020    2.161360
     42          1           0        5.813290    2.324520    1.189740
 ---------------------------------------------------------------------
                    Distance matrix (angstroms):
                    1          2          3          4          5
     1  C    0.000000
     2  C    1.483776   0.000000
     3  C    2.683416   1.797322   0.000000
     4  C    3.174484   2.010505   3.310111   0.000000
     5  O    2.891800   2.383520   4.096737   1.406666   0.000000
     6  C    5.258902   3.891864   4.493224   2.192224   3.369885
     7  C    4.977335   3.843648   4.937941   1.839516   2.502976
     8  C    6.198490   5.009137   5.925699   3.035207   3.710144
     9  C    7.389868   6.223628   7.117332   4.240415   4.798930
    10  C    8.484871   7.228947   7.910069   5.310490   6.018252
    11  C    9.588199   8.388095   9.147250   6.427015   6.991274
    12  C    9.999350   8.932092   9.900142   6.924682   7.233417
    13  N   10.340327   9.047793   9.592064   7.167873   7.904292
    14  O   11.498050  10.229693  10.805773   8.323609   8.989711
    15  C   10.025264   8.669246   9.050668   6.884011   7.766928
    16  C   12.230984  10.930675  11.418150   9.059003   9.779758
    17  C    7.519479   6.107779   6.384567   4.482259   5.586901
    18  C    5.409289   3.939282   4.029727   2.753196   4.118192
    19  C    4.888690   3.502403   2.591614   3.554395   4.891011
    20  H    1.126439   2.306314   2.806798   4.206659   4.018089
    21  H    1.109523   2.329797   3.771159   3.510220   2.758383
    22  H    2.376893   2.131796   1.046621   4.001272   4.508956
    23  H    3.514823   2.800831   1.233346   4.208865   5.037258
    24  H    3.514820   2.800909   1.233358   4.209234   5.037234
    25  H    4.910678   4.029997   5.405946   2.100765   2.104803
    26  H    6.741500   5.444876   6.114336   3.576204   4.456692
    27  H    7.468541   6.438324   7.528935   4.427973   4.706153
    28  H    8.673416   7.310731   7.712953   5.544426   6.482250
    29  H    9.075201   8.074679   9.155093   6.064926   6.264877
    30  H   10.574404   9.524613  10.496590   7.527614   7.805845
    31  H   10.574411   9.524594  10.496592   7.527406   7.805868
    32  H   11.085564   9.697822   9.950726   7.974512   8.909501
    33  H   11.775072  10.427145  10.794426   8.623406   9.453321
    34  H   13.364208  12.138646  12.776587  10.197244  10.757945
    35  H   13.752716  12.466067  12.960597  10.582717  11.259603
    36  H   13.752717  12.466057  12.960602  10.582616  11.259609
    37  H    6.704296   5.232532   5.194929   3.965542   5.273476
    38  H    4.092260   2.664554   2.984070   1.799604   3.126342
    39  H    4.091460   2.663796   2.983643   1.798543   3.125850
    40  H    5.390155   4.116547   2.938318   4.385851   5.670462
    41  H    4.630871   3.548233   1.954830   4.394612   5.534069
    42  H    5.390147   4.116489   2.938286   4.385506   5.670504
                    6          7          8          9         10
     6  C    0.000000
     7  C    1.347773   0.000000
     8  C    1.589890   1.235027   0.000000
     9  C    2.679807   2.412609   1.216422   0.000000
    10  C    3.425725   3.551310   2.317661   1.300439   0.000000
    11  C    4.654520   4.612368   3.392005   2.204829   1.264588
    12  C    5.456031   5.088576   3.978764   2.785088   2.395967
    13  N    5.180154   5.433554   4.201979   3.145435   1.886143
    14  O    6.378631   6.554226   5.319344   4.192124   3.013242
    15  C    4.778353   5.264182   4.076810   3.217450   1.930419
    16  C    7.052125   7.320024   6.086457   4.994294   3.768846
    17  C    2.291356   3.195104   2.343545   2.384511   2.087052
    18  C    1.202532   2.516700   2.697640   3.628096   4.073816
    19  C    3.240980   4.312238   4.827156   5.833258   6.263628
    20  H    6.196452   6.035757   7.241856   8.445158   9.502090
    21  H    5.696929   5.155886   6.389705   7.526593   8.707065
    22  H    5.443245   5.747882   6.808261   8.015522   8.868923
    23  H    5.149898   5.727941   6.633395   7.790705   8.491469
    24  H    5.149743   5.726770   6.633344   7.790714   8.491480
    25  H    2.377645   1.032212   1.852476   2.770550   4.044423
    26  H    1.623076   1.959466   0.915704   1.243101   1.804897
    27  H    3.277965   2.614929   1.688344   0.949047   1.994593
    28  H    3.421005   3.984833   2.853190   2.242605   1.228165
    29  H    4.815096   4.253696   3.254139   2.168811   2.312576
    30  H    6.079624   5.710291   4.624945   3.462765   3.034312
    31  H    6.079763   5.711509   4.625025   3.462751   3.034281
    32  H    5.826709   6.407708   5.238788   4.399262   3.108661
    33  H    6.535472   6.958481   5.744004   4.755708   3.465681
    34  H    8.323828   8.390894   7.165729   5.984397   4.912749
    35  H    8.599055   8.826780   7.595377   6.473256   5.294122
    36  H    8.599122   8.827304   7.595408   6.473248   5.294110
    37  H    1.978026   3.273821   2.939308   3.478079   3.490237
    38  H    1.787561   2.468011   3.210601   4.341446   5.085688
    39  H    1.788843   2.470710   3.211280   4.342062   5.086459
    40  H    4.090213   5.165009   5.640285   6.600799   6.952161
    41  H    4.670730   5.568392   6.255597   7.325834   7.826994
    42  H    4.090458   5.166396   5.640394   6.600839   6.952199
                   11         12         13         14         15
    11  C    0.000000
    12  C    1.368301   0.000000
    13  N    1.285130   2.439171   0.000000
    14  O    2.048187   2.647310   1.216337   0.000000
    15  C    1.955868   3.270750   0.969327   1.986696   0.000000
    16  C    2.894612   3.483686   1.891304   0.864188   2.400943
    17  C    3.278597   4.482739   3.306773   4.515628   2.669637
    18  C    5.338373   6.316034   5.613908   6.830079   5.025616
    19  C    7.526273   8.531784   7.690666   8.897356   6.998505
    20  H   10.633502  11.089103  11.337822  12.511021  10.974600
    21  H    9.728326   9.989975  10.589072  11.704450  10.370413
    22  H   10.091953  10.786016  10.584467  11.795044  10.067167
    23  H    9.739304  10.561613  10.093584  11.305717   9.491132
    24  H    9.739287  10.561614  10.093446  11.305754   9.494600
    25  H    4.926341   5.129651   5.914054   6.950738   5.893795
    26  H    3.033116   3.908183   3.605174   4.785614   3.326232
    27  H    2.459245   2.533743   3.623929   4.505671   3.901467
    28  H    2.120062   3.448303   1.942728   3.149528   1.359527
    29  H    1.815613   1.055773   3.086710   3.570597   3.741641
    30  H    1.982711   1.062912   2.790441   2.741573   3.662656
    31  H    1.982795   1.062914   2.790953   2.741413   3.653358
    32  H    2.925162   4.099796   1.669440   2.003277   1.182367
    33  H    2.886264   3.800275   1.644274   1.275119   1.759922
    34  H    3.779726   3.775100   3.203108   1.989699   3.933885
    35  H    4.319152   4.599636   3.456997   2.333951   3.962956
    36  H    4.319175   4.599625   3.457279   2.333830   3.957229
    37  H    4.712890   5.871330   4.725474   5.922302   4.007555
    38  H    6.311940   7.098443   6.776997   7.979839   6.296856
    39  H    6.312696   7.099032   6.778030   7.980622   6.293194
    40  H    8.198594   9.244702   8.279552   9.467328   7.544948
    41  H    9.091259  10.061156   9.274716  10.481253   8.577399
    42  H    8.198668   9.244754   8.279781   9.467337   7.540470
                   16         17         18         19         20
    16  C    0.000000
    17  C    5.056143   0.000000
    18  C    7.405993   2.357449   0.000000
    19  C    9.399230   4.384334   2.216374   0.000000
    20  H   13.224349   8.409880   6.196786   5.311592   0.000000
    21  H   12.475872   7.988022   6.050601   5.830766   1.821760
    22  H   12.423805   7.405883   5.056622   3.602552   2.089473
    23  H   11.875108   6.847843   4.524808   2.771128   3.415436
    24  H   11.875097   6.838708   4.531682   2.771190   3.415431
    25  H    7.762671   4.099395   3.527369   5.177299   6.022716
    26  H    5.492863   1.440034   2.415069   4.630594   7.732648
    27  H    5.353699   3.330879   4.353052   6.511335   8.563097
    28  H    3.706453   1.366501   3.700958   5.748695   9.616446
    29  H    4.429273   4.281246   5.796890   8.000313  10.178283
    30  H    3.489601   5.054475   6.922845   9.120836  11.664256
    31  H    3.489632   5.067226   6.918204   9.120818  11.664263
    32  H    1.946350   3.603194   5.927911   7.749585  12.003231
    33  H    0.938928   4.410554   6.765211   8.674154  12.731872
    34  H    1.654246   6.505253   8.815614  10.886369  14.400929
    35  H    1.644610   6.602801   8.952870  10.919764  14.753859
    36  H    1.644671   6.609335   8.950478  10.919761  14.753861
    37  H    6.408089   1.447274   1.295355   2.991281   7.478514
    38  H    8.616090   3.690331   1.597355   2.186111   4.884302
    39  H    8.616968   3.706206   1.581412   2.186623   4.883505
    40  H    9.922118   5.015704   3.054110   1.195253   5.669599
    41  H   10.977511   5.968316   3.757377   1.584056   4.711030
    42  H    9.922186   5.028676   3.043555   1.195110   5.669581
                   21         22         23         24         25
    21  H    0.000000
    22  H    3.476362   0.000000
    23  H    4.595267   1.510574   0.000000
    24  H    4.595268   1.510572   1.753292   0.000000
    25  H    4.863026   6.090620   6.257872   6.258414   0.000000
    26  H    7.046055   7.065704   6.732283   6.732389   2.739547
    27  H    7.464416   8.361155   8.261829   8.261826   2.601392
    28  H    9.042640   8.722875   8.188413   8.188493   4.703485
    29  H    9.012670   9.997960   9.864259   9.864259   4.172562
    30  H   10.545569  11.378266  11.224336  11.082065   5.724810
    31  H   10.545576  11.378270  11.082068  11.224340   5.724206
    32  H   11.476630  10.983184  10.324575  10.324497   7.066821
    33  H   12.094212  11.815914  11.207046  11.207011   7.509780
    34  H   13.502877  13.757124  13.284426  13.284438   8.674205
    35  H   13.971258  13.966173  13.446411  13.367339   9.217883
    36  H   13.971257  13.966178  13.367345  13.446418   9.217626
    37  H    7.335525   6.237670   5.567525   5.567575   4.299813
    38  H    4.746792   3.928955   3.839311   3.470239   3.236773
    39  H    4.745962   3.928392   3.469715   3.839214   3.235879
    40  H    6.380116   3.820046   3.138121   2.580053   6.021036
    41  H    5.704450   2.691377   1.719173   1.719256   6.306645
    42  H    6.380111   3.820014   2.580018   3.138076   6.020489
                   26         27         28         29         30
    26  H    0.000000
    27  H    2.095071   0.000000
    28  H    2.025941   3.106042   0.000000
    29  H    3.399106   1.639217   3.522877   0.000000
    30  H    4.548513   3.197807   3.986792   1.759434   0.000000
    31  H    4.548355   3.197822   3.986622   1.759443   1.810062
    32  H    4.454394   5.062866   2.435392   4.740196   4.345995
    33  H    5.051103   5.268168   3.119106   4.618378   3.924266
    34  H    6.712750   6.114088   5.139164   4.828768   3.543033
    35  H    7.034943   6.740234   5.268669   5.621229   4.301407
    36  H    7.034875   6.740232   5.268590   5.621219   4.548722
    37  H    2.267780   4.362474   2.785556   5.558096   6.448186
    38  H    3.322179   4.843033   4.953042   6.417528   7.614755
    39  H    3.322803   4.843498   4.953870   6.418023   7.796156
    40  H    5.395431   7.301360   6.354974   8.753982   9.738033
    41  H    6.152973   7.942708   7.332735   9.480879  10.648374
    42  H    5.395343   7.301412   6.354920   8.754032   9.905792
                   31         32         33         34         35
    31  H    0.000000
    32  H    4.346180   0.000000
    33  H    3.924362   1.028738   0.000000
    34  H    3.542979   3.600539   2.584970   0.000000
    35  H    4.548725   3.323809   2.339510   1.238285   0.000000
    36  H    4.301383   3.323990   2.339638   1.238183   1.209288
    37  H    6.448140   4.789331   5.690567   7.908150   7.935595
    38  H    7.795489   7.260412   8.041716   9.934506  10.112395
    39  H    7.615249   7.261475   8.042676   9.935282  10.204878
    40  H    9.905744   8.210852   9.162097  11.442592  11.368973
    41  H   10.648362   9.303752  10.241427  12.470129  12.491774
    42  H    9.738090   8.211007   9.162194  11.442632  11.465414
                   36         37         38         39         40
    36  H    0.000000
    37  H    7.935579   0.000000
    38  H   10.203986   2.793129   0.000000
    39  H   10.113205   2.794204   1.539503   0.000000
    40  H   11.465372   3.620402   2.820147   3.279952   0.000000
    41  H   12.491775   4.570127   3.313378   3.313442   1.516690
    42  H   11.369037   3.620369   3.279309   2.820422   1.820049
                   41         42
    41  H    0.000000
    42  H    1.516536   0.000000
 Stoichiometry    C16H23NO2
 Framework group  C1[X(C16H23NO2)]
 Deg. of freedom   120
 Full point group                 C1      NOp   1
 Largest Abelian subgroup         C1      NOp   1
 Largest concise Abelian subgroup C1      NOp   1
                         Standard orientation:                         
 ---------------------------------------------------------------------
 Center     Atomic      Atomic             Coordinates (Angstroms)
 Number     Number       Type             X           Y           Z
 ---------------------------------------------------------------------
      1          6           0        6.186879   -1.331619    0.000310
      2          6           0        5.003100   -0.437048    0.000364
      3          6           0        5.549861    1.275090    0.000156
      4          6           0        3.043650   -0.887255    0.001113
      5          8           0        3.440401   -2.236809    0.000246
      6          6           0        1.173568    0.256701   -0.000330
      7          6           0        1.215393   -1.090419   -0.003621
      8          6           0        0.009066   -0.825744   -0.000028
      9          6           0       -1.195368   -0.996099    0.000188
     10          6           0       -2.221884   -0.197721    0.000138
     11          6           0       -3.380749   -0.703897    0.000000
     12          6           0       -3.789450   -2.009734    0.000165
     13          7           0       -4.004012    0.419982   -0.000784
     14          8           0       -5.204996    0.227335    0.000234
     15          6           0       -3.500748    1.248196    0.018755
     16          6           0       -5.858117    0.793244   -0.000120
     17          6           0       -0.834033    1.360604   -0.035634
     18          6           0        1.522345    1.407400    0.017814
     19          6           0        3.355195    2.653459    0.000121
     20          1           0        7.249706   -0.958437    0.000305
     21          1           0        6.191206   -2.441133    0.000382
     22          1           0        6.563705    1.015214    0.000181
     23          1           0        5.916474    2.061419    0.876755
     24          1           0        5.916508    2.061315   -0.876537
     25          1           0        1.339117   -2.115173    0.002200
     26          1           0       -0.425771   -0.019871    0.000514
     27          1           0       -1.256581   -1.943170    0.000192
     28          1           0       -2.159160    1.028842    0.000383
     29          1           0       -2.821459   -2.431219    0.000206
     30          1           0       -4.312712   -2.201831   -0.904865
     31          1           0       -4.312753   -2.201716    0.905197
     32          1           0       -4.370752    2.048641   -0.000551
     33          1           0       -5.242182    1.501912   -0.000299
     34          1           0       -7.134246   -0.259384    0.000082
     35          1           0       -7.387562    0.791045   -0.604714
     36          1           0       -7.387589    0.791093    0.604573
     37          1           0        0.418442    2.084916    0.000162
     38          1           0        2.723148    0.707252   -0.769212
     39          1           0        2.723907    0.706761    0.770290
     40          1           0        3.684363    3.354791   -0.910050
     41          1           0        4.872403    3.108777    0.000109
     42          1           0        3.684381    3.354921    0.909998
 ---------------------------------------------------------------------
 Rotational constants (GHZ):           1.0626430           0.1337191           0.1191553
 Standard basis: 6-31G(2df,p) (6D, 7F)
 There are   704 symmetry adapted cartesian basis functions of A   symmetry.
 There are   647 symmetry adapted basis functions of A   symmetry.
   647 basis functions,   997 primitive gaussians,   704 cartesian basis functions
    71 alpha electrons       71 beta electrons
       nuclear repulsion energy      1423.8414490532 Hartrees.
 NAtoms=   42 NActive=   42 NUniq=   42 SFac= 1.00D+00 NAtFMM=   60 NAOKFM=F Big=F
 Integral buffers will be    131072 words long.
 Raffenetti 2 integral format.
 Two-electron integral symmetry is turned on.
 One-electron integrals computed using PRISM.
 PrsmSu:  requested number of processors reduced to:  12 ShMem   1 Linda.
 NBasis=   647 RedAO= T EigKep=  2.62D-05  NBF=   647
 NBsUse=   647 1.00D-06 EigRej= -1.00D+00 NBFU=   647
 ExpMin= 1.61D-01 ExpMax= 5.48D+03 ExpMxC= 8.25D+02 IAcc=3 IRadAn=         5 AccDes= 0.00D+00
 Harris functional with IExCor=  402 and IRadAn=       5 diagonalized for initial guess.
 HarFok:  IExCor=  402 AccDes= 0.00D+00 IRadAn=         5 IDoV= 1 UseB2=F ITyADJ=14
 ICtDFT=  3500011 ScaDFX=  1.000000  1.000000  1.000000  1.000000
 FoFCou: FMM=F IPFlag=           0 FMFlag=      100000 FMFlg1=           0
         NFxFlg=           0 DoJE=T BraDBF=F KetDBF=T FulRan=T
         wScrn=  0.000000 ICntrl=       500 IOpCl=  0 I1Cent=   200000004 NGrid=           0
         NMat0=    1 NMatS0=      1 NMatT0=    0 NMatD0=    1 NMtDS0=    0 NMtDT0=    0
 Petite list used in FoFCou.
 Requested convergence on RMS density matrix=1.00D-08 within 128 cycles.
 Requested convergence on MAX density matrix=1.00D-06.
 Requested convergence on             energy=1.00D-06.
 No special actions if energy rises.
 Integral accuracy reduced to 1.0D-05 until final iterations.
 EnCoef did     2 forward-backward iterations
 EnCoef did     5 forward-backward iterations
 EnCoef did    10 forward-backward iterations
 EnCoef did     5 forward-backward iterations
 EnCoef did    29 forward-backward iterations
 EnCoef did     6 forward-backward iterations
 EnCoef did   100 forward-backward iterations
 EnCoef did   100 forward-backward iterations
 EnCoef did   100 forward-backward iterations
 EnCoef did   100 forward-backward iterations
 EnCoef did   100 forward-backward iterations
 EnCoef did   100 forward-backward iterations
 Rare condition: small coef for last iteration:  0.180D-15
 EnCoef did   100 forward-backward iterations
 Problem detected with inexpensive integrals.
 Switching to full accuracy and repeating last cycle.
 EnCoef did     1 forward-backward iterations
 EnCoef did   100 forward-backward iterations
 EnCoef did     1 forward-backward iterations
 EnCoef did     4 forward-backward iterations
 EnCoef did    35 forward-backward iterations
 EnCoef did   100 forward-backward iterations
 EnCoef did   100 forward-backward iterations
 EnCoef did     4 forward-backward iterations
 EnCoef did     1 forward-backward iterations
 EnCoef did     8 forward-backward iterations
 EnCoef did   100 forward-backward iterations
 EnCoef did    54 forward-backward iterations
 Rare condition: small coef for last iteration:  0.133D-14
 EnCoef did   100 forward-backward iterations
 Rare condition: small coef for last iteration:  0.000D+00
 EnCoef did     8 forward-backward iterations
 Rare condition: small coef for last iteration: -0.444D-15
 Restarting incremental Fock formation.
 EnCoef did   100 forward-backward iterations
 EnCoef did   100 forward-backward iterations
 Rare condition: small coef for last iteration:  0.867D-15
 EnCoef did   100 forward-backward iterations
 Rare condition: small coef for last iteration:  0.109D-15
 EnCoef did   100 forward-backward iterations
 EnCoef did    14 forward-backward iterations
 Rare condition: small coef for last iteration: -0.178D-14
 EnCoef did    30 forward-backward iterations
 Rare condition: small coef for last iteration:  0.000D+00
 EnCoef did   100 forward-backward iterations
 EnCoef did   100 forward-backward iterations
 EnCoef did    10 forward-backward iterations
 Restarting incremental Fock formation.
 SCF Done:  E(RB3LYP) =  -825.355469220     A.U. after   67 cycles
            NFock= 67  Conv=0.32D-08     -V/T= 1.9942

 **********************************************************************

            Population analysis using the SCF density.

 **********************************************************************

 Orbital symmetries:
       Occupied  (A) (A) (A) (A) (A) (A) (A) (A) (A) (A) (A) (A)
                 (A) (A) (A) (A) (A) (A) (A) (A) (A) (A) (A) (A)
                 (A) (A) (A) (A) (A) (A) (A) (A) (A) (A) (A) (A)
                 (A) (A) (A) (A) (A) (A) (A) (A) (A) (A) (A) (A)
                 (A) (A) (A) (A) (A) (A) (A) (A) (A) (A) (A) (A)
                 (A) (A) (A) (A) (A) (A) (A) (A) (A) (A) (A)
       Virtual   (A) (A) (A) (A) (A) (A) (A) (A) (A) (A) (A) (A)
                 (A) (A) (A) (A) (A) (A) (A) (A) (A) (A) (A) (A)
                 (A) (A) (A) (A) (A) (A) (A) (A) (A) (A) (A) (A)
                 (A) (A) (A) (A) (A) (A) (A) (A) (A) (A) (A) (A)
                 (A) (A) (A) (A) (A) (A) (A) (A) (A) (A) (A) (A)
                 (A) (A) (A) (A) (A) (A) (A) (A) (A) (A) (A) (A)
                 (A) (A) (A) (A) (A) (A) (A) (A) (A) (A) (A) (A)
                 (A) (A) (A) (A) (A) (A) (A) (A) (A) (A) (A) (A)
                 (A) (A) (A) (A) (A) (A) (A) (A) (A) (A) (A) (A)
                 (A) (A) (A) (A) (A) (A) (A) (A) (A) (A) (A) (A)
                 (A) (A) (A) (A) (A) (A) (A) (A) (A) (A) (A) (A)
                 (A) (A) (A) (A) (A) (A) (A) (A) (A) (A) (A) (A)
                 (A) (A) (A) (A) (A) (A) (A) (A) (A) (A) (A) (A)
                 (A) (A) (A) (A) (A) (A) (A) (A) (A) (A) (A) (A)
                 (A) (A) (A) (A) (A) (A) (A) (A) (A) (A) (A) (A)
                 (A) (A) (A) (A) (A) (A) (A) (A) (A) (A) (A) (A)
                 (A) (A) (A) (A) (A) (A) (A) (A) (A) (A) (A) (A)
                 (A) (A) (A) (A) (A) (A) (A) (A) (A) (A) (A) (A)
                 (A) (A) (A) (A) (A) (A) (A) (A) (A) (A) (A) (A)
                 (A) (A) (A) (A) (A) (A) (A) (A) (A) (A) (A) (A)
                 (A) (A) (A) (A) (A) (A) (A) (A) (A) (A) (A) (A)
                 (A) (A) (A) (A) (A) (A) (A) (A) (A) (A) (A) (A)
                 (A) (A) (A) (A) (A) (A) (A) (A) (A) (A) (A) (A)
                 (A) (A) (A) (A) (A) (A) (A) (A) (A) (A) (A) (A)
                 (A) (A) (A) (A) (A) (A) (A) (A) (A) (A) (A) (A)
                 (A) (A) (A) (A) (A) (A) (A) (A) (A) (A) (A) (A)
                 (A) (A) (A) (A) (A) (A) (A) (A) (A) (A) (A) (A)
                 (A) (A) (A) (A) (A) (A) (A) (A) (A) (A) (A) (A)
                 (A) (A) (A) (A) (A) (A) (A) (A) (A) (A) (A) (A)
                 (A) (A) (A) (A) (A) (A) (A) (A) (A) (A) (A) (A)
                 (A) (A) (A) (A) (A) (A) (A) (A) (A) (A) (A) (A)
                 (A) (A) (A) (A) (A) (A) (A) (A) (A) (A) (A) (A)
                 (A) (A) (A) (A) (A) (A) (A) (A) (A) (A) (A) (A)
                 (A) (A) (A) (A) (A) (A) (A) (A) (A) (A) (A) (A)
                 (A) (A) (A) (A) (A) (A) (A) (A) (A) (A) (A) (A)
                 (A) (A) (A) (A) (A) (A) (A) (A) (A) (A) (A) (A)
                 (A) (A) (A) (A) (A) (A) (A) (A) (A) (A) (A) (A)
                 (A) (A) (A) (A) (A) (A) (A) (A) (A) (A) (A) (A)
                 (A) (A) (A) (A) (A) (A) (A) (A) (A) (A) (A) (A)
                 (A) (A) (A) (A) (A) (A) (A) (A) (A) (A) (A) (A)
                 (A) (A) (A) (A) (A) (A) (A) (A) (A) (A) (A) (A)
                 (A) (A) (A) (A) (A) (A) (A) (A) (A) (A) (A) (A)
                 (A) (A) (A) (A) (A) (A) (A) (A) (A) (A) (A) (A)
                 (A) (A) (A) (A) (A) (A) (A) (A) (A) (A) (A) (A)
                 (A) (A) (A) (A) (A) (A) (A) (A) (A) (A) (A) (A)
                 (A) (A) (A) (A) (A) (A) (A) (A) (A) (A) (A) (A)
                 (A) (A) (A) (A) (A) (A) (A) (A) (A) (A) (A) (A)
                 (A) (A) (A) (A) (A) (A) (A) (A) (A) (A) (A) (A)
 The electronic state is 1-A.
 Alpha  occ. eigenvalues --  -19.33641 -19.14306 -14.47662 -10.29604 -10.28101
 Alpha  occ. eigenvalues --  -10.24938 -10.23819 -10.22892 -10.22756 -10.21754
 Alpha  occ. eigenvalues --  -10.21523 -10.20954 -10.20922 -10.20625 -10.20129
 Alpha  occ. eigenvalues --  -10.19991 -10.19499 -10.18944 -10.16525  -1.50081
 Alpha  occ. eigenvalues --   -1.20196  -1.03305  -0.97481  -0.95512  -0.94122
 Alpha  occ. eigenvalues --   -0.89905  -0.82606  -0.81288  -0.75710  -0.75354
 Alpha  occ. eigenvalues --   -0.72642  -0.70996  -0.68789  -0.66834  -0.63729
 Alpha  occ. eigenvalues --   -0.62903  -0.62093  -0.60137  -0.55623  -0.55519
 Alpha  occ. eigenvalues --   -0.53754  -0.52213  -0.51555  -0.49322  -0.48005
 Alpha  occ. eigenvalues --   -0.47264  -0.46605  -0.45823  -0.44147  -0.42672
 Alpha  occ. eigenvalues --   -0.40928  -0.38607  -0.38431  -0.37451  -0.36757
 Alpha  occ. eigenvalues --   -0.35741  -0.34909  -0.34287  -0.33736  -0.32627
 Alpha  occ. eigenvalues --   -0.31975  -0.30407  -0.27673  -0.23832  -0.22337
 Alpha  occ. eigenvalues --   -0.20837  -0.20286  -0.19171  -0.17631  -0.16177
 Alpha  occ. eigenvalues --   -0.15267
 Alpha virt. eigenvalues --   -0.13794  -0.11205  -0.10408  -0.07870  -0.06873
 Alpha virt. eigenvalues --   -0.05466  -0.00830   0.00256   0.00410   0.01480
 Alpha virt. eigenvalues --    0.03298   0.04952   0.05511   0.07129   0.08182
 Alpha virt. eigenvalues --    0.10196   0.10863   0.11307   0.11472   0.12729
 Alpha virt. eigenvalues --    0.12880   0.13174   0.13371   0.15591   0.16467
 Alpha virt. eigenvalues --    0.17203   0.17755   0.18841   0.19569   0.21275
 Alpha virt. eigenvalues --    0.21977   0.23542   0.23861   0.24873   0.25802
 Alpha virt. eigenvalues --    0.27179   0.27978   0.30878   0.32193   0.33243
 Alpha virt. eigenvalues --    0.33987   0.34308   0.35200   0.37936   0.40193
 Alpha virt. eigenvalues --    0.40276   0.41858   0.42693   0.43778   0.44152
 Alpha virt. eigenvalues --    0.44541   0.45568   0.46317   0.46600   0.47869
 Alpha virt. eigenvalues --    0.48136   0.49645   0.50043   0.50206   0.51233
 Alpha virt. eigenvalues --    0.52603   0.53481   0.53761   0.53908   0.54135
 Alpha virt. eigenvalues --    0.55327   0.56494   0.57303   0.57859   0.58029
 Alpha virt. eigenvalues --    0.58272   0.59204   0.59636   0.61083   0.62175
 Alpha virt. eigenvalues --    0.62749   0.63545   0.64145   0.64502   0.65773
 Alpha virt. eigenvalues --    0.66334   0.66822   0.67259   0.67718   0.68508
 Alpha virt. eigenvalues --    0.69032   0.69511   0.70292   0.70823   0.71230
 Alpha virt. eigenvalues --    0.72003   0.72448   0.72938   0.73475   0.73622
 Alpha virt. eigenvalues --    0.74335   0.74659   0.75039   0.75928   0.76198
 Alpha virt. eigenvalues --    0.76357   0.76721   0.77900   0.78301   0.79204
 Alpha virt. eigenvalues --    0.80333   0.81337   0.81562   0.82254   0.83088
 Alpha virt. eigenvalues --    0.83759   0.83958   0.84474   0.85913   0.86197
 Alpha virt. eigenvalues --    0.86676   0.87194   0.87373   0.88405   0.88827
 Alpha virt. eigenvalues --    0.89264   0.89771   0.91708   0.92456   0.92772
 Alpha virt. eigenvalues --    0.94545   0.94657   0.95533   0.97088   0.97593
 Alpha virt. eigenvalues --    0.98151   0.99241   0.99522   0.99685   1.00773
 Alpha virt. eigenvalues --    1.02126   1.02303   1.03024   1.03690   1.05694
 Alpha virt. eigenvalues --    1.05980   1.06140   1.07285   1.09112   1.09606
 Alpha virt. eigenvalues --    1.10164   1.10655   1.11899   1.12917   1.13281
 Alpha virt. eigenvalues --    1.14386   1.14510   1.14898   1.15546   1.16548
 Alpha virt. eigenvalues --    1.17981   1.19413   1.19786   1.20127   1.20892
 Alpha virt. eigenvalues --    1.23141   1.24980   1.27299   1.27723   1.28032
 Alpha virt. eigenvalues --    1.29254   1.31276   1.32484   1.32910   1.34237
 Alpha virt. eigenvalues --    1.34666   1.35812   1.36638   1.36961   1.38100
 Alpha virt. eigenvalues --    1.38674   1.40983   1.41481   1.41790   1.42103
 Alpha virt. eigenvalues --    1.43207   1.44809   1.45976   1.47479   1.49644
 Alpha virt. eigenvalues --    1.50195   1.51755   1.52906   1.53626   1.53940
 Alpha virt. eigenvalues --    1.56113   1.56507   1.56941   1.57322   1.60248
 Alpha virt. eigenvalues --    1.60754   1.61053   1.61953   1.62039   1.64007
 Alpha virt. eigenvalues --    1.64781   1.65856   1.66692   1.66843   1.68503
 Alpha virt. eigenvalues --    1.69905   1.70607   1.71771   1.72355   1.74077
 Alpha virt. eigenvalues --    1.76058   1.76805   1.77828   1.80467   1.80712
 Alpha virt. eigenvalues --    1.81496   1.82678   1.83116   1.85865   1.86603
 Alpha virt. eigenvalues --    1.89119   1.89517   1.90091   1.91333   1.91839
 Alpha virt. eigenvalues --    1.92980   1.94741   1.97417   1.97721   1.99572
 Alpha virt. eigenvalues --    2.01332   2.02120   2.03633   2.05352   2.06323
 Alpha virt. eigenvalues --    2.07742   2.09337   2.10506   2.11301   2.12048
 Alpha virt. eigenvalues --    2.14135   2.15380   2.17344   2.18948   2.19095
 Alpha virt. eigenvalues --    2.21035   2.22819   2.23130   2.25002   2.25443
 Alpha virt. eigenvalues --    2.26464   2.27483   2.28017   2.29590   2.30180
 Alpha virt. eigenvalues --    2.32866   2.34655   2.35892   2.36403   2.37086
 Alpha virt. eigenvalues --    2.39652   2.40048   2.40889   2.41052   2.42987
 Alpha virt. eigenvalues --    2.43685   2.45110   2.46013   2.46323   2.49543
 Alpha virt. eigenvalues --    2.50561   2.50846   2.52443   2.54109   2.55258
 Alpha virt. eigenvalues --    2.55902   2.58495   2.59948   2.60965   2.62083
 Alpha virt. eigenvalues --    2.63173   2.64108   2.64561   2.65860   2.67684
 Alpha virt. eigenvalues --    2.69164   2.69542   2.70349   2.70933   2.72413
 Alpha virt. eigenvalues --    2.72804   2.74690   2.76810   2.77346   2.77895
 Alpha virt. eigenvalues --    2.78500   2.79609   2.80449   2.81972   2.83227
 Alpha virt. eigenvalues --    2.83930   2.85318   2.87585   2.89127   2.89422
 Alpha virt. eigenvalues --    2.89625   2.90120   2.90714   2.91125   2.92490
 Alpha virt. eigenvalues --    2.93888   2.94913   2.95725   2.96283   2.97425
 Alpha virt. eigenvalues --    2.97697   2.98170   2.99173   3.00129   3.00584
 Alpha virt. eigenvalues --    3.01599   3.02302   3.03555   3.04079   3.05654
 Alpha virt. eigenvalues --    3.07318   3.07870   3.08173   3.09822   3.10855
 Alpha virt. eigenvalues --    3.11467   3.12529   3.13709   3.15018   3.15804
 Alpha virt. eigenvalues --    3.16161   3.16660   3.17126   3.18381   3.19221
 Alpha virt. eigenvalues --    3.19579   3.20436   3.22124   3.24301   3.25118
 Alpha virt. eigenvalues --    3.25389   3.25569   3.27129   3.28162   3.28605
 Alpha virt. eigenvalues --    3.30587   3.31487   3.32036   3.32077   3.32630
 Alpha virt. eigenvalues --    3.33077   3.33857   3.35075   3.35967   3.37154
 Alpha virt. eigenvalues --    3.38696   3.39958   3.41220   3.42829   3.42918
 Alpha virt. eigenvalues --    3.43874   3.44113   3.46353   3.47737   3.49038
 Alpha virt. eigenvalues --    3.49907   3.50802   3.51674   3.52294   3.53234
 Alpha virt. eigenvalues --    3.57420   3.57748   3.59937   3.60863   3.61340
 Alpha virt. eigenvalues --    3.63527   3.63871   3.64755   3.66303   3.67221
 Alpha virt. eigenvalues --    3.67820   3.68752   3.70752   3.71647   3.71798
 Alpha virt. eigenvalues --    3.73485   3.73902   3.76100   3.76622   3.77230
 Alpha virt. eigenvalues --    3.78057   3.79603   3.80098   3.80387   3.82285
 Alpha virt. eigenvalues --    3.83257   3.85263   3.86279   3.86921   3.88244
 Alpha virt. eigenvalues --    3.89725   3.90107   3.92692   3.95329   3.97095
 Alpha virt. eigenvalues --    3.98817   4.00868   4.01011   4.02604   4.03974
 Alpha virt. eigenvalues --    4.04658   4.08944   4.09559   4.12117   4.12842
 Alpha virt. eigenvalues --    4.13922   4.15101   4.17106   4.18496   4.19047
 Alpha virt. eigenvalues --    4.20791   4.21785   4.23001   4.25049   4.25803
 Alpha virt. eigenvalues --    4.26416   4.26975   4.27467   4.28225   4.28352
 Alpha virt. eigenvalues --    4.31925   4.33062   4.34071   4.34325   4.35751
 Alpha virt. eigenvalues --    4.36120   4.36754   4.38389   4.38634   4.39964
 Alpha virt. eigenvalues --    4.41441   4.41672   4.42841   4.43094   4.45681
 Alpha virt. eigenvalues --    4.46948   4.47843   4.48118   4.50109   4.51965
 Alpha virt. eigenvalues --    4.52578   4.53528   4.54762   4.56879   4.57607
 Alpha virt. eigenvalues --    4.58893   4.60736   4.61189   4.62859   4.63201
 Alpha virt. eigenvalues --    4.64201   4.65194   4.66523   4.66901   4.67587
 Alpha virt. eigenvalues --    4.68056   4.70236   4.71391   4.71942   4.74193
 Alpha virt. eigenvalues --    4.74700   4.75525   4.77505   4.78190   4.79479
 Alpha virt. eigenvalues --    4.81637   4.83489   4.86152   4.87748   4.88613
 Alpha virt. eigenvalues --    4.90821   4.91297   4.92596   4.93567   4.95244
 Alpha virt. eigenvalues --    4.96991   4.97217   4.99169   5.01593   5.04196
 Alpha virt. eigenvalues --    5.04990   5.05248   5.06612   5.07513   5.09254
 Alpha virt. eigenvalues --    5.10022   5.14394   5.15857   5.17966   5.19051
 Alpha virt. eigenvalues --    5.22851   5.24375   5.24829   5.26504   5.28469
 Alpha virt. eigenvalues --    5.29360   5.31811   5.32440   5.34282   5.35015
 Alpha virt. eigenvalues --    5.36725   5.39794   5.40146   5.42709   5.48746
 Alpha virt. eigenvalues --    5.51578   5.54821   5.59591   5.63537   5.68034
 Alpha virt. eigenvalues --    5.71480   5.75134   5.78099   5.81132   5.89459
 Alpha virt. eigenvalues --    5.93804   5.96366   5.99763   6.00641   6.03444
 Alpha virt. eigenvalues --    6.14904   6.17479   6.27037   6.29104   6.36468
 Alpha virt. eigenvalues --    6.41415   6.47818   6.51533   6.56687   6.65029
 Alpha virt. eigenvalues --    6.69069   6.83488   7.04676   7.07255   7.16193
 Alpha virt. eigenvalues --    7.26916   7.60470   7.75083   7.85627   8.48776
 Alpha virt. eigenvalues --    9.27263  10.06122  10.13349  10.47303  10.50801
 Alpha virt. eigenvalues --   10.67066  10.94369  11.07976  11.20934  11.42193
 Alpha virt. eigenvalues --   11.44589  11.65324  11.81105  11.90341  12.16540
 Alpha virt. eigenvalues --   12.44549  12.90972  13.07424  13.12428  15.34830
 Alpha virt. eigenvalues --   37.00786
          Condensed to atoms (all electrons):
               1          2          3          4          5          6
     1  C    5.117327   0.541029  -0.010176  -0.017055   0.006781   0.000016
     2  C    0.541029   5.124554   0.199732   0.180681  -0.043018   0.001886
     3  C   -0.010176   0.199732   5.444733  -0.015907   0.001763  -0.001017
     4  C   -0.017055   0.180681  -0.015907   5.486986   0.433708  -0.050344
     5  O    0.006781  -0.043018   0.001763   0.433708   7.967732  -0.011962
     6  C    0.000016   0.001886  -0.001017  -0.050344  -0.011962   4.815708
     7  C   -0.000329   0.006235  -0.000290   0.003348  -0.043691   0.814602
     8  C   -0.000012   0.000418  -0.000032  -0.064597   0.011726  -0.130348
     9  C   -0.000000   0.000005  -0.000000  -0.003594   0.000244  -0.235505
    10  C    0.000000  -0.000000  -0.000000   0.000110   0.000000  -0.001220
    11  C   -0.000000   0.000000   0.000000  -0.000002   0.000000   0.000124
    12  C    0.000000  -0.000000   0.000000   0.000000  -0.000000  -0.000046
    13  N    0.000000   0.000000  -0.000000  -0.000000   0.000000  -0.000029
    14  O    0.000000   0.000000  -0.000000  -0.000000   0.000000   0.000000
    15  C   -0.000000   0.000000  -0.000000  -0.000001   0.000000  -0.000268
    16  C   -0.000000   0.000000  -0.000000  -0.000000   0.000000   0.000000
    17  C    0.000000  -0.000010   0.000001   0.001775  -0.000005   0.067400
    18  C   -0.000037  -0.001082  -0.002387  -0.067449   0.001364   0.580179
    19  C    0.000504  -0.010839   0.057047  -0.004854   0.000045  -0.036777
    20  H    0.344951  -0.011095  -0.015210   0.000892   0.000167   0.000000
    21  H    0.364111  -0.017110   0.003543  -0.001113   0.004975   0.000002
    22  H   -0.007707  -0.022151   0.273050   0.000695  -0.000009  -0.000009
    23  H   -0.001198  -0.002142   0.327226   0.000222  -0.000011   0.000042
    24  H   -0.001122  -0.002042   0.329020   0.000206  -0.000011   0.000044
    25  H   -0.000092   0.002933  -0.000060  -0.086781   0.045850  -0.032088
    26  H   -0.000000   0.000005  -0.000001  -0.006092  -0.000005  -0.144665
    27  H   -0.000000   0.000000   0.000000   0.000215  -0.000033   0.017362
    28  H    0.000000  -0.000000   0.000000   0.000019  -0.000000  -0.000297
    29  H   -0.000000   0.000000  -0.000000  -0.000001   0.000000  -0.000022
    30  H   -0.000000   0.000000  -0.000000  -0.000000   0.000000   0.000001
    31  H   -0.000000   0.000000  -0.000000  -0.000000   0.000000   0.000000
    32  H   -0.000000   0.000000  -0.000000  -0.000000   0.000000   0.000001
    33  H   -0.000000   0.000000  -0.000000  -0.000000   0.000000   0.000000
    34  H    0.000000   0.000000   0.000000  -0.000000   0.000000   0.000000
    35  H    0.000000   0.000000   0.000000  -0.000000   0.000000   0.000000
    36  H    0.000000  -0.000000   0.000000   0.000000  -0.000000  -0.000000
    37  H   -0.000000   0.000016  -0.000031  -0.000683   0.000001  -0.016322
    38  H    0.000271  -0.007045  -0.003278   0.087070  -0.001567  -0.030243
    39  H    0.000398  -0.015553   0.004304   0.116505  -0.001426  -0.016362
    40  H   -0.000013   0.000323  -0.011267   0.000059  -0.000000   0.001229
    41  H    0.000070  -0.001156  -0.073371  -0.000456   0.000003   0.000279
    42  H   -0.000014   0.000340  -0.011910   0.000084  -0.000000   0.001310
               7          8          9         10         11         12
     1  C   -0.000329  -0.000012  -0.000000   0.000000  -0.000000   0.000000
     2  C    0.006235   0.000418   0.000005  -0.000000   0.000000  -0.000000
     3  C   -0.000290  -0.000032  -0.000000  -0.000000   0.000000   0.000000
     4  C    0.003348  -0.064597  -0.003594   0.000110  -0.000002   0.000000
     5  O   -0.043691   0.011726   0.000244   0.000000   0.000000  -0.000000
     6  C    0.814602  -0.130348  -0.235505  -0.001220   0.000124  -0.000046
     7  C    6.741494  -0.087799  -0.599694   0.026286  -0.001785   0.000134
     8  C   -0.087799   5.803116  -0.498097   0.159700  -0.002885   0.003311
     9  C   -0.599694  -0.498097   7.013716   0.150109  -0.003078  -0.040263
    10  C    0.026286   0.159700   0.150109   5.991838   0.106000  -0.025875
    11  C   -0.001785  -0.002885  -0.003078   0.106000   5.306304   0.334136
    12  C    0.000134   0.003311  -0.040263  -0.025875   0.334136   5.138084
    13  N   -0.000004  -0.003335   0.009639   0.062960   0.249700  -0.091756
    14  O    0.000000   0.000074  -0.001325  -0.049178   0.024908   0.037025
    15  C    0.000094   0.007596  -0.030447  -0.264771   0.020899   0.033902
    16  C    0.000000   0.000022  -0.000376  -0.016693   0.023235   0.007348
    17  C    0.006305   0.066192  -0.137879   0.135184  -0.014978  -0.000605
    18  C   -0.083464  -0.095089  -0.002529   0.006065  -0.000064   0.000002
    19  C    0.000952  -0.000762   0.000008  -0.000001  -0.000000   0.000000
    20  H    0.000003   0.000000   0.000000  -0.000000   0.000000  -0.000000
    21  H   -0.000002  -0.000001  -0.000000  -0.000000  -0.000000   0.000000
    22  H   -0.000004  -0.000000  -0.000000   0.000000  -0.000000  -0.000000
    23  H    0.000009   0.000001   0.000000  -0.000000   0.000000  -0.000000
    24  H    0.000008   0.000001   0.000000  -0.000000   0.000000  -0.000000
    25  H    0.247049   0.022472  -0.002706  -0.000410   0.000046  -0.000031
    26  H   -0.304152  -0.005336   0.610895  -0.179569   0.007700  -0.000150
    27  H    0.041672   0.220559   0.020785  -0.071121  -0.003872  -0.013092
    28  H   -0.000916  -0.015586   0.001955   0.101196  -0.036275   0.002441
    29  H   -0.000126   0.002131  -0.004538  -0.029738  -0.034238   0.376077
    30  H   -0.000006  -0.000148   0.001155  -0.001206  -0.028691   0.370366
    31  H   -0.000007  -0.000212   0.001425   0.000049  -0.029237   0.368372
    32  H   -0.000000  -0.000051   0.000122   0.008968   0.006032  -0.000518
    33  H    0.000000   0.000028  -0.000286   0.005075   0.016475   0.000779
    34  H    0.000000   0.000000  -0.000010  -0.000124   0.000506   0.002938
    35  H   -0.000000  -0.000000   0.000000   0.000050  -0.000237  -0.000097
    36  H    0.000000   0.000000  -0.000001  -0.000033  -0.000211   0.000186
    37  H    0.004650  -0.001736   0.004885   0.000121  -0.000076   0.000001
    38  H   -0.029927   0.001428  -0.000107   0.000009   0.000000  -0.000000
    39  H   -0.041640  -0.000355  -0.000270  -0.000038  -0.000001  -0.000000
    40  H    0.000003   0.000015   0.000000  -0.000000   0.000000  -0.000000
    41  H   -0.000034   0.000001  -0.000000   0.000000   0.000000  -0.000000
    42  H    0.000013   0.000016   0.000000  -0.000000   0.000000  -0.000000
              13         14         15         16         17         18
     1  C    0.000000   0.000000  -0.000000  -0.000000   0.000000  -0.000037
     2  C    0.000000   0.000000   0.000000   0.000000  -0.000010  -0.001082
     3  C   -0.000000  -0.000000  -0.000000  -0.000000   0.000001  -0.002387
     4  C   -0.000000  -0.000000  -0.000001  -0.000000   0.001775  -0.067449
     5  O    0.000000   0.000000   0.000000   0.000000  -0.000005   0.001364
     6  C   -0.000029   0.000000  -0.000268   0.000000   0.067400   0.580179
     7  C   -0.000004   0.000000   0.000094   0.000000   0.006305  -0.083464
     8  C   -0.003335   0.000074   0.007596   0.000022   0.066192  -0.095089
     9  C    0.009639  -0.001325  -0.030447  -0.000376  -0.137879  -0.002529
    10  C    0.062960  -0.049178  -0.264771  -0.016693   0.135184   0.006065
    11  C    0.249700   0.024908   0.020899   0.023235  -0.014978  -0.000064
    12  C   -0.091756   0.037025   0.033902   0.007348  -0.000605   0.000002
    13  N    6.273742  -0.121621   0.253867  -0.292430  -0.009667  -0.000003
    14  O   -0.121621   7.072492   0.076706   0.528375  -0.000193   0.000000
    15  C    0.253867   0.076706   6.541413  -0.093323  -0.035046  -0.000350
    16  C   -0.292430   0.528375  -0.093323   6.745804  -0.000436  -0.000000
    17  C   -0.009667  -0.000193  -0.035046  -0.000436   6.568302  -0.045176
    18  C   -0.000003   0.000000  -0.000350  -0.000000  -0.045176   5.807521
    19  C   -0.000000  -0.000000   0.000000  -0.000000  -0.000249  -0.078295
    20  H    0.000000   0.000000   0.000000   0.000000  -0.000000  -0.000000
    21  H   -0.000000   0.000000  -0.000000  -0.000000   0.000000  -0.000000
    22  H    0.000000   0.000000   0.000000   0.000000   0.000000   0.000028
    23  H   -0.000000  -0.000000  -0.000000  -0.000000  -0.000000   0.000049
    24  H   -0.000000  -0.000000  -0.000000  -0.000000  -0.000000   0.000060
    25  H   -0.000000   0.000000   0.000007   0.000000  -0.000680  -0.002362
    26  H    0.001214  -0.000051   0.011121  -0.000021  -0.066301  -0.013839
    27  H   -0.000286  -0.000048  -0.002311  -0.000013   0.014683  -0.000612
    28  H    0.034487  -0.002946   0.067649  -0.003127  -0.015376   0.001252
    29  H   -0.000823   0.002172  -0.000353   0.000178   0.000061  -0.000000
    30  H   -0.002744   0.000787   0.000507   0.000390   0.000016  -0.000000
    31  H   -0.002413   0.000533   0.000433   0.000700   0.000007  -0.000000
    32  H    0.014363  -0.043572   0.192215  -0.028796  -0.002721   0.000001
    33  H   -0.154596  -0.064801  -0.048950   0.328308   0.000255   0.000000
    34  H   -0.028667   0.032106  -0.002623  -0.577647  -0.000001   0.000000
    35  H    0.004366  -0.017590   0.001022   0.211497  -0.000000   0.000000
    36  H   -0.006481  -0.020615  -0.000918  -0.088228  -0.000000  -0.000000
    37  H   -0.000005  -0.000000   0.001247   0.000001   0.118072   0.224551
    38  H    0.000000   0.000000   0.000001   0.000000  -0.000744   0.129420
    39  H    0.000000   0.000000   0.000001   0.000000   0.000229   0.148965
    40  H   -0.000000   0.000000  -0.000000  -0.000000  -0.000040   0.006295
    41  H    0.000000   0.000000  -0.000000   0.000000  -0.000001   0.005646
    42  H   -0.000000  -0.000000   0.000000  -0.000000  -0.000049   0.005482
              19         20         21         22         23         24
     1  C    0.000504   0.344951   0.364111  -0.007707  -0.001198  -0.001122
     2  C   -0.010839  -0.011095  -0.017110  -0.022151  -0.002142  -0.002042
     3  C    0.057047  -0.015210   0.003543   0.273050   0.327226   0.329020
     4  C   -0.004854   0.000892  -0.001113   0.000695   0.000222   0.000206
     5  O    0.000045   0.000167   0.004975  -0.000009  -0.000011  -0.000011
     6  C   -0.036777   0.000000   0.000002  -0.000009   0.000042   0.000044
     7  C    0.000952   0.000003  -0.000002  -0.000004   0.000009   0.000008
     8  C   -0.000762   0.000000  -0.000001  -0.000000   0.000001   0.000001
     9  C    0.000008   0.000000  -0.000000  -0.000000   0.000000   0.000000
    10  C   -0.000001  -0.000000  -0.000000   0.000000  -0.000000  -0.000000
    11  C   -0.000000   0.000000  -0.000000  -0.000000   0.000000   0.000000
    12  C    0.000000  -0.000000   0.000000  -0.000000  -0.000000  -0.000000
    13  N   -0.000000   0.000000  -0.000000   0.000000  -0.000000  -0.000000
    14  O   -0.000000   0.000000   0.000000   0.000000  -0.000000  -0.000000
[...]
    40  H    3.997453   3.750455   4.822926   6.000129   7.065544
    41  H    3.842300   4.202461   4.942275   6.102938   6.847334
    42  H    2.234859   2.384162   3.275330   4.525322   5.468052
                   11         12         13         14         15
    11  C    0.000000
    12  C    1.513400   0.000000
    13  N    1.274616   2.384483   0.000000
    14  O    3.600792   3.383449   3.201251   0.000000
    15  C    2.494209   3.521611   1.230142   3.485605   0.000000
    16  C    4.314223   4.190263   3.619011   1.206825   3.518126
    17  C    2.475685   3.850974   2.833079   5.372600   3.494427
    18  C    5.866501   6.795682   6.603305   8.929469   7.334374
    19  C    7.887838   8.348852   8.891296  10.641982   9.839744
    20  H   12.102882  12.654529  13.026233  15.227125  13.844001
    21  H   10.977582  11.399218  11.971532  14.193581  12.852992
    22  H   11.375548  12.054756  12.211721  14.122444  12.982705
    23  H    9.707125  10.475460  10.498643  12.551325  11.235345
    24  H    9.983180  10.525145  10.914116  12.659908  11.786949
    25  H    6.076137   6.292985   7.202310   9.278457   8.234845
    26  H    3.439716   4.707644   3.902474   6.399791   4.530538
    27  H    2.649527   2.611272   3.866041   5.822315   5.013399
    28  H    2.765042   4.235000   2.630829   5.068653   2.949888
    29  H    2.164041   1.093773   3.269816   4.011667   4.469267
    30  H    2.141130   1.093344   2.566134   2.423243   3.521769
    31  H    2.176070   1.099652   2.871528   4.056861   3.860351
    32  H    3.183435   4.160411   1.975867   3.205001   1.100289
    33  H    4.244072   4.151903   3.416537   2.025889   3.140778
    34  H    7.217817   6.698637   6.746606   3.665350   6.723766
    35  H    5.376746   5.293929   4.629640   2.055719   4.381777
    36  H    6.999791   6.363153   6.579264   3.569682   6.611935
    37  H    5.585444   6.701989   6.140478   8.577578   6.731027
    38  H    6.354550   7.211120   7.118136   9.137671   7.884095
    39  H    6.753710   7.660485   7.485500   9.936786   8.182607
    40  H    8.327469   8.603956   9.411392  10.973536  10.432263
    41  H    8.200729   8.742163   9.129813  10.731954  10.028421
    42  H    6.830061   7.326085   7.835078   9.686431   8.788559
                   16         17         18         19         20
    16  C    0.000000
    17  C    6.076641   0.000000
    18  C    9.799034   3.881083   0.000000
    19  C   11.692021   6.451072   3.158849   0.000000
    20  H   16.195534  10.469570   6.642346   4.866196   0.000000
    21  H   15.156776   9.612870   6.009774   4.256268   1.856510
    22  H   15.119120   9.489712   5.713247   3.912547   2.924905
    23  H   13.505923   7.750582   3.945566   2.833552   3.566768
    24  H   13.704880   8.318224   4.697116   2.220071   3.535877
    25  H   10.232511   5.388728   3.472943   3.334144   6.606545
    26  H    7.141320   1.084688   2.844795   5.593096   9.466397
    27  H    6.685608   3.411435   4.859827   6.193822  10.196374
    28  H    5.634632   1.082728   4.683016   7.348652  11.319730
    29  H    4.975125   4.035486   6.439686   7.623190  12.017214
    30  H    3.261633   4.481346   7.643562   9.159506  13.593765
    31  H    4.658017   4.496700   7.295037   8.855611  12.939735
    32  H    3.132114   3.898362   7.760250  10.247884  14.364895
    33  H    1.109339   6.129393   9.921918  11.964584  16.317737
    34  H    3.208504   9.007984  12.510120  13.986790  18.699790
    35  H    1.138791   6.955841  10.673118  12.556489  17.111249
    36  H    3.121154   8.940302  12.437215  13.889627  18.570266
    37  H    9.366287   3.336913   1.068047   4.165364   7.458255
    38  H   10.074413   4.390720   1.116517   2.577997   6.463514
    39  H   10.782904   4.805465   1.085659   3.093836   5.770926
    40  H   12.065315   7.152404   4.138649   1.099682   4.978881
    41  H   11.789172   6.600480   3.383021   1.135263   5.216495
    42  H   10.712618   5.427394   2.347248   1.088192   5.621746
                   21         22         23         24         25
    21  H    0.000000
    22  H    4.043454   0.000000
    23  H    4.018356   1.807970   0.000000
    24  H    3.799355   1.847737   1.787391   0.000000
    25  H    5.161797   6.808667   5.505209   5.342384   0.000000
    26  H    8.689810   8.465328   6.708191   7.367812   4.826087
    27  H    8.855869   9.905881   8.357126   8.393540   3.733500
    28  H   10.553194  10.199620   8.456738   9.114673   6.463733
    29  H   10.744144  11.421383   9.921203   9.814845   5.629884
    30  H   12.378586  12.857697  11.295914  11.311021   7.288622
    31  H   11.581348  12.572473  10.986895  11.055393   6.450473
    32  H   13.470535  13.297875  11.571423  12.126440   8.936594
    33  H   15.219078  15.400272  13.739015  14.014558  10.260051
    34  H   17.662793  17.476052  15.987963  15.961433  12.712111
    35  H   16.130073  15.908974  14.314765  14.516222  11.261304
    36  H   17.471580  17.455529  15.958973  15.911890  12.457295
    37  H    6.926930   6.402031   4.606651   5.554095   4.347690
    38  H    6.013707   5.116767   3.434867   4.003076   3.875742
    39  H    5.177726   5.121903   3.347481   4.317748   3.531646
    40  H    4.230692   4.292740   3.609583   2.480714   3.456440
    41  H    4.979271   3.580292   2.579745   1.963867   4.340861
    42  H    4.813226   4.810617   3.455859   3.240544   2.572964
                   26         27         28         29         30
    26  H    0.000000
    27  H    3.702625   0.000000
    28  H    1.866102   4.334545   0.000000
    29  H    4.721368   2.177987   4.608748   0.000000
    30  H    5.420073   3.667349   4.659756   1.774686   0.000000
    31  H    5.310172   2.749127   4.913549   1.771174   1.776346
    32  H    4.918383   5.795902   3.136468   5.040810   3.943155
    33  H    7.213689   6.622718   5.695801   5.088542   3.353797
    34  H   10.023032   9.245115   8.608365   7.203734   5.612201
    35  H    8.002632   7.771579   6.414920   6.023236   4.336548
    36  H    9.966705   8.934901   8.603880   6.878165   5.277155
    37  H    2.252227   5.054695   3.973412   6.503393   7.496846
    38  H    3.404299   5.397508   5.131842   6.754244   7.977113
    39  H    3.762450   5.548074   5.593869   7.302666   8.561177
    40  H    6.383437   6.441094   8.089995   7.778762   9.396833
    41  H    5.726636   6.800084   7.392094   8.038075   9.470293
    42  H    4.598164   5.157340   6.362310   6.645120   8.163197
                   31         32         33         34         35
    31  H    0.000000
    32  H    4.666538   0.000000
    33  H    4.383494   2.978684   0.000000
    34  H    7.127309   6.232738   3.883200   0.000000
    35  H    5.787647   3.786024   1.902891   2.502195   0.000000
    36  H    6.701795   6.237458   3.665889   0.752570   2.637513
    37  H    7.232017   7.097269   9.465357  12.168436  10.200768
    38  H    7.822642   8.198082  10.313564  12.618004  10.890303
    39  H    8.064352   8.662808  10.851328  13.540065  11.678199
    40  H    9.080087  10.861366  12.362961  14.210909  12.938111
    41  H    9.358445  10.321932  12.140820  14.007596  12.581711
    42  H    7.820700   9.232558  10.944492  13.096145  11.603996
                   36         37         38         39         40
    36  H    0.000000
    37  H   12.129950   0.000000
    38  H   12.586528   1.771291   0.000000
    39  H   13.448549   1.767779   1.747201   0.000000
    40  H   14.086457   5.163719   3.591719   4.099791   0.000000
    41  H   13.970468   4.235816   2.488437   3.445426   1.818300
    42  H   12.982272   3.377364   1.968401   2.507109   1.837005
                   41         42
    41  H    0.000000
    42  H    1.825913   0.000000
 Stoichiometry    C16H23NO2
 Framework group  C1[X(C16H23NO2)]
 Deg. of freedom   120
 Full point group                 C1      NOp   1
 Largest Abelian subgroup         C1      NOp   1
 Largest concise Abelian subgroup C1      NOp   1
                         Standard orientation:                         
 ---------------------------------------------------------------------
 Center     Atomic      Atomic             Coordinates (Angstroms)
 Number     Number       Type             X           Y           Z
 ---------------------------------------------------------------------
      1          6           0        7.466236   -0.299366    0.504935
      2          6           0        6.497363    0.209639   -0.247340
      3          6           0        6.455276    1.342551   -1.201228
      4          6           0        5.102006   -0.462177   -0.237252
      5          8           0        4.808203   -1.454391    0.367544
      6          6           0        1.327831    0.162508    0.484209
      7          6           0        1.496625   -1.145289    0.622154
      8          6           0        0.154378   -0.658116    0.559722
      9          6           0       -1.176931   -0.861625    0.579556
     10          6           0       -2.220919    0.191448    0.535696
     11          6           0       -3.635039   -0.270007    0.534748
     12          6           0       -4.057876   -1.664437    0.125901
     13          7           0       -4.554431    0.542460    0.880089
     14          8           0       -6.632223   -0.142790   -1.456836
     15          6           0       -5.301127    1.382068    1.380844
     16          6           0       -7.667778    0.182935   -0.929622
     17          6           0       -1.917690    1.513083    0.517014
     18          6           0        1.959692    1.485168    0.349865
     19          6           0        4.009626   -0.156513   -1.405407
     20          1           0        8.461004    0.136800    0.538575
     21          1           0        7.289307   -1.187685    1.103814
     22          1           0        7.343235    1.888475   -1.519895
     23          1           0        5.712660    2.010787   -0.748519
     24          1           0        5.990956    0.697492   -1.928593
     25          1           0        2.198457   -1.957820    0.737366
     26          1           0       -0.863853    1.767612    0.551546
     27          1           0       -1.533862   -1.867703    0.763692
     28          1           0       -2.647597    2.312303    0.489060
     29          1           0       -3.292676   -2.144658   -0.490699
     30          1           0       -4.983832   -1.607947   -0.452730
     31          1           0       -4.237148   -2.309023    0.998601
     32          1           0       -5.770235    2.086824    0.678070
     33          1           0       -7.851760    0.021992    0.152450
     34          1           0       -9.864405   -0.732730   -3.081572
     35          1           0       -8.519120    0.671510   -1.506993
     36          1           0       -9.772520   -1.345564   -2.654544
     37          1           0        1.323618    2.299340    0.620526
     38          1           0        2.298279    1.638992   -0.702897
     39          1           0        2.868852    1.503513    0.942947
     40          1           0        4.290595   -1.108140   -1.879498
     41          1           0        4.044259    0.667144   -2.185929
     42          1           0        3.038930   -0.172513   -0.913825
 ---------------------------------------------------------------------
 Rotational constants (GHZ):           1.1055593           0.0829390           0.0820046
 Standard basis: 6-31G(2df,p) (6D, 7F)
 There are   704 symmetry adapted cartesian basis functions of A   symmetry.
 There are   647 symmetry adapted basis functions of A   symmetry.
   647 basis functions,   997 primitive gaussians,   704 cartesian basis functions
    71 alpha electrons       71 beta electrons
       nuclear repulsion energy      1243.0873387729 Hartrees.
 NAtoms=   42 NActive=   42 NUniq=   42 SFac= 1.00D+00 NAtFMM=   60 NAOKFM=F Big=F
 Integral buffers will be    131072 words long.
 Raffenetti 2 integral format.
 Two-electron integral symmetry is turned on.
 One-electron integrals computed using PRISM.
 PrsmSu:  requested number of processors reduced to:  12 ShMem   1 Linda.
 NBasis=   647 RedAO= T EigKep=  2.18D-04  NBF=   647
 NBsUse=   647 1.00D-06 EigRej= -1.00D+00 NBFU=   647
 Initial guess from the checkpoint file:  "CdCqCrCqdOrC1dCCdCCdCqCrNOCqCrC1CC.chk"
 B after Tr=    -0.000000    0.000000   -0.000000
         Rot=    0.998452   -0.055624    0.000094    0.000612 Ang=  -6.38 deg.
 ExpMin= 1.61D-01 ExpMax= 5.48D+03 ExpMxC= 8.25D+02 IAcc=2 IRadAn=         4 AccDes= 0.00D+00
 Harris functional with IExCor=  402 and IRadAn=       4 diagonalized for initial guess.
 HarFok:  IExCor=  402 AccDes= 0.00D+00 IRadAn=         4 IDoV= 1 UseB2=F ITyADJ=14
 ICtDFT=  3500011 ScaDFX=  1.000000  1.000000  1.000000  1.000000
 FoFCou: FMM=F IPFlag=           0 FMFlag=      100000 FMFlg1=           0
         NFxFlg=           0 DoJE=T BraDBF=F KetDBF=T FulRan=T
         wScrn=  0.000000 ICntrl=       500 IOpCl=  0 I1Cent=   200000004 NGrid=           0
         NMat0=    1 NMatS0=      1 NMatT0=    0 NMatD0=    1 NMtDS0=    0 NMtDT0=    0
 Petite list used in FoFCou.
 Requested convergence on RMS density matrix=1.00D-08 within 128 cycles.
 Requested convergence on MAX density matrix=1.00D-06.
 Requested convergence on             energy=1.00D-06.
 No special actions if energy rises.
 Integral accuracy reduced to 1.0D-05 until final iterations.
 Initial convergence to 1.0D-05 achieved.  Increase integral accuracy.
 SCF Done:  E(RB3LYP) =  -828.466425864     A.U. after   13 cycles
            NFock= 13  Conv=0.61D-08     -V/T= 2.0080
 PrsmSu:  requested number of processors reduced to:  12 ShMem   1 Linda.
 Calling FoFJK, ICntrl=      2127 FMM=F ISym2X=0 I1Cent= 0 IOpClX= 0 NMat=1 NMatS=1 NMatT=0.
 ***** Axes restored to original set *****
 -------------------------------------------------------------------
 Center     Atomic                   Forces (Hartrees/Bohr)
 Number     Number              X              Y              Z
 -------------------------------------------------------------------
      1        6          -0.004883803    0.000276455   -0.000173187
      2        6          -0.002460878   -0.007699120   -0.028945878
      3        6          -0.005094061   -0.002793441   -0.015286102
      4        6           0.015614269    0.000248963    0.031654351
      5        8          -0.016610651    0.003280786   -0.021304826
      6        6           0.001512200   -0.001917158   -0.002913830
      7        6           0.000009099    0.001646664   -0.003723656
      8        6           0.009850351   -0.009116061   -0.006067421
      9        6           0.002344386    0.005050229   -0.003300040
     10        6          -0.001649790    0.004905294    0.002727079
     11        6          -0.006296531   -0.004039271    0.002503438
     12        6          -0.001763816   -0.002079360    0.000714254
     13        7           0.008748068    0.013122846   -0.001586841
     14        8           0.009322203   -0.000392080   -0.006033900
     15        6          -0.005846965   -0.005948153   -0.000709740
     16        6           0.006682175    0.000058301    0.007910345
     17        6          -0.008190545   -0.007930788   -0.000552691
     18        6          -0.006741279   -0.005279762    0.020635336
     19        6          -0.020510589    0.012384011    0.010711177
     20        1           0.000792154   -0.001263798    0.000612628
     21        1           0.001066038    0.000708633   -0.000379878
     22        1          -0.006138646   -0.005447545   -0.002301901
     23        1           0.008817995    0.003508988    0.012585196
     24        1           0.023801167    0.015952778    0.032378710
     25        1           0.001661117    0.000335262    0.000457420
     26        1           0.005476100    0.004601923   -0.001530028
     27        1          -0.002491452   -0.000829010    0.002976355
     28        1          -0.000528325   -0.002197693    0.000794355
     29        1           0.001320273    0.001009352   -0.000859877
     30        1          -0.000990370    0.000440470   -0.000725321
     31        1          -0.000028861    0.000585005    0.001006657
     32        1           0.000753929    0.000042772    0.001781397
     33        1           0.001049639    0.000305889    0.000436188
     34        1          -0.004149607   -0.004635944   -0.003399261
     35        1          -0.016503072    0.000443800   -0.002034201
     36        1           0.004913593    0.003326960    0.003709426
     37        1           0.011040258    0.007269768   -0.008552461
     38        1           0.002914531    0.000974320   -0.014058095
     39        1          -0.004241172    0.005090828   -0.002361412
     40        1           0.022451632   -0.006822379    0.002200839
     41        1          -0.019456698   -0.007027999   -0.020287817
     42        1          -0.005564065   -0.010150739    0.011293213
 -------------------------------------------------------------------
 Cartesian Forces:  Max     0.032378710 RMS     0.009026872

 GradGradGradGradGradGradGradGradGradGradGradGradGradGradGradGradGradGrad
 Berny optimization.
 Using GEDIIS/GDIIS optimizer.
 FormGI is forming the generalized inverse of G from B-inverse, IUseBI=4.
 Internal  Forces:  Max     0.029339519 RMS     0.006633783
 Search for a local minimum.
 Step number  41 out of a maximum of  252
 All quantities printed in internal units (Hartrees-Bohrs-Radians)
 Mixed Optimization -- RFO/linear search
 Update second derivatives using D2CorX and points   40   41
 DE= -2.40D-02 DEPred=-3.32D-02 R= 7.22D-01
 TightC=F SS=  1.41D+00  RLast= 4.63D-01 DXNew= 1.1508D+00 1.3887D+00
 Trust test= 7.22D-01 RLast= 4.63D-01 DXMaxT set to 1.15D+00
 ITU=  1  0 -1 -1  1  1  0  1  1  1  1 -1  1  1  1  1  1  1  1  0
 ITU=  1  1  1  1  1  1  1  1  1  1  1  1  1  1  1  0  1  0  0  1
 ITU=  0
 Use linear search instead of GDIIS.
     Eigenvalues ---    0.00086   0.00179   0.00267   0.00406   0.00574
     Eigenvalues ---    0.00643   0.00735   0.00970   0.00988   0.00999
     Eigenvalues ---    0.01099   0.01166   0.01396   0.01703   0.01922
     Eigenvalues ---    0.02485   0.02515   0.02630   0.02771   0.02875
     Eigenvalues ---    0.02961   0.03026   0.03107   0.03368   0.03628
     Eigenvalues ---    0.03655   0.03773   0.04152   0.04264   0.04498
     Eigenvalues ---    0.04659   0.04768   0.04849   0.05120   0.05551
     Eigenvalues ---    0.05665   0.05953   0.06579   0.06847   0.07033
     Eigenvalues ---    0.07853   0.08028   0.08201   0.08338   0.08496
     Eigenvalues ---    0.08633   0.08809   0.09100   0.09251   0.09384
     Eigenvalues ---    0.09822   0.10090   0.10202   0.10375   0.10629
     Eigenvalues ---    0.10821   0.11360   0.11440   0.11711   0.12360
     Eigenvalues ---    0.12650   0.13095   0.13985   0.14506   0.14791
     Eigenvalues ---    0.15034   0.15575   0.15797   0.15991   0.16005
     Eigenvalues ---    0.16024   0.16127   0.16451   0.17010   0.18045
     Eigenvalues ---    0.18196   0.18957   0.19886   0.20513   0.21137
     Eigenvalues ---    0.21803   0.21893   0.22442   0.23182   0.23337
     Eigenvalues ---    0.23537   0.24473   0.24976   0.26901   0.27280
     Eigenvalues ---    0.29993   0.30252   0.31009   0.32662   0.33187
     Eigenvalues ---    0.34489   0.34955   0.38063   0.38154   0.39076
     Eigenvalues ---    0.40040   0.41599   0.42194   0.43000   0.45626
     Eigenvalues ---    0.49170   0.51793   0.54493   0.58686   0.62759
     Eigenvalues ---    0.64650   0.70650   0.73911   0.79375   0.84311
     Eigenvalues ---    0.87233   1.16618   1.83064   2.75174   5.86810
 RFO step:  Lambda=-6.45083485D-02 EMin= 8.61749275D-04
 Quartic linear search produced a step of  0.11980.
slurmstepd: error: *** JOB 27448485 ON lewis4-r630-hpc4-node225 CANCELLED AT 2023-05-20T13:49:48 DUE TO TIME LIMIT ***
