### Starting Gaussian ###
 Entering Gaussian System, Link 0=g16
 Initial command:
 /cluster/software/gaussian/gaussian-16-A.03/avx2/g16/l1.exe "/local/scratch/yxie/Gau-9539.inp" -scrdir="/local/scratch/yxie/"
 Entering Link 1 = /cluster/software/gaussian/gaussian-16-A.03/avx2/g16/l1.exe PID=      9540.
  
 Copyright (c) 1988,1990,1992,1993,1995,1998,2003,2009,2016,
            Gaussian, Inc.  All Rights Reserved.
  
 This is part of the Gaussian(R) 16 program.  It is based on
 the Gaussian(R) 09 system (copyright 2009, Gaussian, Inc.),
 the Gaussian(R) 03 system (copyright 2003, Gaussian, Inc.),
 the Gaussian(R) 98 system (copyright 1998, Gaussian, Inc.),
 the Gaussian(R) 94 system (copyright 1995, Gaussian, Inc.),
 the Gaussian 92(TM) system (copyright 1992, Gaussian, Inc.),
 the Gaussian 90(TM) system (copyright 1990, Gaussian, Inc.),
 the Gaussian 88(TM) system (copyright 1988, Gaussian, Inc.),
 the Gaussian 86(TM) system (copyright 1986, Carnegie Mellon
 University), and the Gaussian 82(TM) system (copyright 1983,
 Carnegie Mellon University). Gaussian is a federally registered
 trademark of Gaussian, Inc.
  
 This software contains proprietary and confidential information,
 including trade secrets, belonging to Gaussian, Inc.
  
 This software is provided under written license and may be
 used, copied, transmitted, or stored only in accord with that
 written license.
  
 The following legend is applicable only to US Government
 contracts under FAR:
  
                    RESTRICTED RIGHTS LEGEND
  
 Use, reproduction and disclosure by the US Government is
 subject to restrictions as set forth in subparagraphs (a)
 and (c) of the Commercial Computer Software - Restricted
 Rights clause in FAR 52.227-19.
  
 Gaussian, Inc.
 340 Quinnipiac St., Bldg. 40, Wallingford CT 06492
  
  
 ---------------------------------------------------------------
 Warning -- This program may not be used in any manner that
 competes with the business of Gaussian, Inc. or will provide
 assistance to any competitor of Gaussian, Inc.  The licensee
 of this program is prohibited from giving any competitor of
 Gaussian, Inc. access to this program.  By using this program,
 the user acknowledges that Gaussian, Inc. is engaged in the
 business of creating and licensing software in the field of
 computational chemistry and represents and warrants to the
 licensee that it is not a competitor of Gaussian, Inc. and that
 it will not use this program in any manner prohibited above.
 ---------------------------------------------------------------
  

 Cite this work as:
 Gaussian 16, Revision A.03,
 M. J. Frisch, G. W. Trucks, H. B. Schlegel, G. E. Scuseria, 
 M. A. Robb, J. R. Cheeseman, G. Scalmani, V. Barone, 
 G. A. Petersson, H. Nakatsuji, X. Li, M. Caricato, A. V. Marenich, 
 J. Bloino, B. G. Janesko, R. Gomperts, B. Mennucci, H. P. Hratchian, 
 J. V. Ortiz, A. F. Izmaylov, J. L. Sonnenberg, D. Williams-Young, 
 F. Ding, F. Lipparini, F. Egidi, J. Goings, B. Peng, A. Petrone, 
 T. Henderson, D. Ranasinghe, V. G. Zakrzewski, J. Gao, N. Rega, 
 G. Zheng, W. Liang, M. Hada, M. Ehara, K. Toyota, R. Fukuda, 
 J. Hasegawa, M. Ishida, T. Nakajima, Y. Honda, O. Kitao, H. Nakai, 
 T. Vreven, K. Throssell, J. A. Montgomery, Jr., J. E. Peralta, 
 F. Ogliaro, M. J. Bearpark, J. J. Heyd, E. N. Brothers, K. N. Kudin, 
 V. N. Staroverov, T. A. Keith, R. Kobayashi, J. Normand, 
 K. Raghavachari, A. P. Rendell, J. C. Burant, S. S. Iyengar, 
 J. Tomasi, M. Cossi, J. M. Millam, M. Klene, C. Adamo, R. Cammi, 
 J. W. Ochterski, R. L. Martin, K. Morokuma, O. Farkas, 
 J. B. Foresman, and D. J. Fox, Gaussian, Inc., Wallingford CT, 2016.
 
 ******************************************
 Gaussian 16:  ES64L-G16RevA.03 25-Dec-2016
                16-May-2023 
 ******************************************
 %chk=CdNC1dCqNdNrCdNSNCCdC1.chk
 %NProcShared=20
 Will use up to   20 processors via shared memory.
 -----------------------------
 # opt freq b3lyp/6-31g(2df,p)
 -----------------------------
 1/18=20,19=15,26=3,38=1/1,3;
 2/9=110,12=2,17=6,18=5,40=1/2;
 3/5=1,6=6,7=104,11=2,25=1,30=1,71=1,74=-5/1,2,3;
 4//1;
 5/5=2,38=5/2;
 6/7=2,8=2,9=2,10=2,28=1/1;
 7//1,2,3,16;
 1/18=20,19=15,26=3/3(2);
 2/9=110/2;
 99//99;
 2/9=110/2;
 3/5=1,6=6,7=104,11=2,25=1,30=1,71=1,74=-5/1,2,3;
 4/5=5,16=3,69=1/1;
 5/5=2,38=5/2;
 7//1,2,3,16;
 1/18=20,19=15,26=3/3(-5);
 2/9=110/2;
 6/7=2,8=2,9=2,10=2,19=2,28=1/1;
 99/9=1/99;
 -------------------
 Title Card Required
 -------------------
 Symbolic Z-matrix:
 Charge =  0 Multiplicity = 1
 C                     1.36851   0.19397  -0.22408 
 N                     2.75165   0.67742  -0.50854 
 C                     4.11578   1.59642  -1.25047 
 C                     4.84651   0.72534  -0.65458 
 N                     5.17647  -0.29457   0.12519 
 N                     4.38362  -0.91905   0.83661 
 C                     5.26955   1.07179  -2.03958 
 N                     6.52768   1.17701  -2.28641 
 S                     6.66661   2.61086  -3.86115 
 N                     8.23843   2.09055  -2.88178 
 C                     8.93166   3.4777   -3.29009 
 C                     7.51356   3.04168  -1.86268 
 C                     5.77951   2.9752   -1.53513 
 H                     0.68086  -0.67301   0.58856 
 H                     0.4694    0.65565  -0.69514 
 H                     4.96668  -1.52961   1.4098 
 H                     4.65661   2.10501  -2.95971 
 H                     9.07026   1.50896  -2.9183 
 H                     9.37911   4.58709  -3.13648 
 H                     9.36268   3.26138  -4.43536 
 H                     9.10635   3.26416  -2.26145 
 H                     4.26609   2.65098  -1.70025 
 
 Add virtual bond connecting atoms H14        and C1         Dist= 2.59D+00.
 Add virtual bond connecting atoms C7         and H17        Dist= 2.86D+00.
 Add virtual bond connecting atoms H22        and H17        Dist= 2.70D+00.
 Add virtual bond connecting atoms H22        and C13        Dist= 2.94D+00.
 Add virtual bond connecting atoms C3         and N2         Dist= 3.41D+00.

 GradGradGradGradGradGradGradGradGradGradGradGradGradGradGradGradGradGrad
 Berny optimization.
 Initialization pass.
                           ----------------------------
                           !    Initial Parameters    !
                           ! (Angstroms and Degrees)  !
 --------------------------                            --------------------------
 ! Name  Definition              Value          Derivative Info.                !
 --------------------------------------------------------------------------------
 ! R1    R(1,2)                  1.4926         estimate D2E/DX2                !
 ! R2    R(1,14)                 1.3729         estimate D2E/DX2                !
 ! R3    R(1,15)                 1.1151         estimate D2E/DX2                !
 ! R4    R(2,3)                  1.8044         estimate D2E/DX2                !
 ! R5    R(3,4)                  1.2837         estimate D2E/DX2                !
 ! R6    R(3,7)                  1.493          estimate D2E/DX2                !
 ! R7    R(3,22)                 1.1563         estimate D2E/DX2                !
 ! R8    R(4,5)                  1.3256         estimate D2E/DX2                !
 ! R9    R(4,7)                  1.489          estimate D2E/DX2                !
 ! R10   R(5,6)                  1.2348         estimate D2E/DX2                !
 ! R11   R(6,16)                 1.0204         estimate D2E/DX2                !
 ! R12   R(7,8)                  1.2864         estimate D2E/DX2                !
 ! R13   R(7,17)                 1.5132         estimate D2E/DX2                !
 ! R14   R(9,10)                 1.9237         estimate D2E/DX2                !
 ! R15   R(10,11)                1.6036         estimate D2E/DX2                !
 ! R16   R(10,12)                1.5712         estimate D2E/DX2                !
 ! R17   R(10,18)                1.0156         estimate D2E/DX2                !
 ! R18   R(11,19)                1.206          estimate D2E/DX2                !
 ! R19   R(11,20)                1.2427         estimate D2E/DX2                !
 ! R20   R(11,21)                1.065          estimate D2E/DX2                !
 ! R21   R(12,13)                1.766          estimate D2E/DX2                !
 ! R22   R(13,22)                1.5565         estimate D2E/DX2                !
 ! R23   R(17,22)                1.4272         estimate D2E/DX2                !
 ! A1    A(2,1,14)             141.3985         estimate D2E/DX2                !
 ! A2    A(2,1,15)             122.18           estimate D2E/DX2                !
 ! A3    A(14,1,15)             96.1795         estimate D2E/DX2                !
 ! A4    A(1,2,3)              160.7197         estimate D2E/DX2                !
 ! A5    A(2,3,4)               83.9079         estimate D2E/DX2                !
 ! A6    A(2,3,7)              128.5043         estimate D2E/DX2                !
 ! A7    A(2,3,22)             136.2797         estimate D2E/DX2                !
 ! A8    A(4,3,22)             136.5066         estimate D2E/DX2                !
 ! A9    A(7,3,22)              90.8266         estimate D2E/DX2                !
 ! A10   A(3,4,5)              159.5334         estimate D2E/DX2                !
 ! A11   A(5,4,7)              130.9541         estimate D2E/DX2                !
 ! A12   A(4,5,6)              124.6257         estimate D2E/DX2                !
 ! A13   A(5,6,16)             105.0313         estimate D2E/DX2                !
 ! A14   A(3,7,8)              145.9396         estimate D2E/DX2                !
 ! A15   A(3,7,17)              76.611          estimate D2E/DX2                !
 ! A16   A(4,7,8)              118.3824         estimate D2E/DX2                !
 ! A17   A(4,7,17)             127.5432         estimate D2E/DX2                !
 ! A18   A(8,7,17)             102.9222         estimate D2E/DX2                !
 ! A19   A(9,10,11)             89.4056         estimate D2E/DX2                !
 ! A20   A(9,10,12)             77.8494         estimate D2E/DX2                !
 ! A21   A(9,10,18)            143.6872         estimate D2E/DX2                !
 ! A22   A(11,10,12)            80.8478         estimate D2E/DX2                !
 ! A23   A(11,10,18)            97.5926         estimate D2E/DX2                !
 ! A24   A(12,10,18)           138.4024         estimate D2E/DX2                !
 ! A25   A(10,11,19)           157.4672         estimate D2E/DX2                !
 ! A26   A(10,11,20)           103.5344         estimate D2E/DX2                !
 ! A27   A(10,11,21)            69.6064         estimate D2E/DX2                !
 ! A28   A(19,11,20)            98.5589         estimate D2E/DX2                !
 ! A29   A(19,11,21)            90.0323         estimate D2E/DX2                !
 ! A30   A(20,11,21)           142.9743         estimate D2E/DX2                !
 ! A31   A(10,12,13)           123.4032         estimate D2E/DX2                !
 ! A32   A(12,13,22)           160.5426         estimate D2E/DX2                !
 ! A33   A(7,17,22)             80.5283         estimate D2E/DX2                !
 ! A34   A(3,22,13)            105.9679         estimate D2E/DX2                !
 ! A35   A(3,22,17)             91.7162         estimate D2E/DX2                !
 ! A36   A(13,22,17)            84.6781         estimate D2E/DX2                !
 ! D1    D(14,1,2,3)          -179.1993         estimate D2E/DX2                !
 ! D2    D(15,1,2,3)            -6.4285         estimate D2E/DX2                !
 ! D3    D(2,1,14,15)          173.8501         estimate D2E/DX2                !
 ! D4    D(1,2,3,4)           -166.6285         estimate D2E/DX2                !
 ! D5    D(1,2,3,7)           -116.5218         estimate D2E/DX2                !
 ! D6    D(1,2,3,22)            32.6363         estimate D2E/DX2                !
 ! D7    D(2,3,4,5)             -5.4168         estimate D2E/DX2                !
 ! D8    D(22,3,4,5)           155.235          estimate D2E/DX2                !
 ! D9    D(2,3,7,8)           -141.7418         estimate D2E/DX2                !
 ! D10   D(2,3,7,17)           124.9132         estimate D2E/DX2                !
 ! D11   D(22,3,7,8)            59.0127         estimate D2E/DX2                !
 ! D12   D(22,3,7,17)          -34.3323         estimate D2E/DX2                !
 ! D13   D(2,3,22,13)          154.2929         estimate D2E/DX2                !
 ! D14   D(2,3,22,17)         -120.7524         estimate D2E/DX2                !
 ! D15   D(4,3,22,13)            2.7604         estimate D2E/DX2                !
 ! D16   D(4,3,22,17)           87.715          estimate D2E/DX2                !
 ! D17   D(7,3,22,13)          -49.3627         estimate D2E/DX2                !
 ! D18   D(7,3,22,17)           35.592          estimate D2E/DX2                !
 ! D19   D(3,4,5,6)             -3.4144         estimate D2E/DX2                !
 ! D20   D(7,4,5,6)           -138.2356         estimate D2E/DX2                !
 ! D21   D(5,4,7,8)            -55.1997         estimate D2E/DX2                !
 ! D22   D(5,4,7,17)           167.4247         estimate D2E/DX2                !
 ! D23   D(4,5,6,16)          -171.3363         estimate D2E/DX2                !
 ! D24   D(3,7,17,22)           27.5943         estimate D2E/DX2                !
 ! D25   D(4,7,17,22)           24.9175         estimate D2E/DX2                !
 ! D26   D(8,7,17,22)         -117.4012         estimate D2E/DX2                !
 ! D27   D(9,10,11,19)         109.6365         estimate D2E/DX2                !
 ! D28   D(9,10,11,20)         -81.9411         estimate D2E/DX2                !
 ! D29   D(9,10,11,21)         136.1908         estimate D2E/DX2                !
 ! D30   D(12,10,11,19)         31.8488         estimate D2E/DX2                !
 ! D31   D(12,10,11,20)       -159.7287         estimate D2E/DX2                !
 ! D32   D(12,10,11,21)         58.4032         estimate D2E/DX2                !
 ! D33   D(18,10,11,19)       -106.1125         estimate D2E/DX2                !
 ! D34   D(18,10,11,20)         62.3099         estimate D2E/DX2                !
 ! D35   D(18,10,11,21)        -79.5582         estimate D2E/DX2                !
 ! D36   D(9,10,12,13)          44.5256         estimate D2E/DX2                !
 ! D37   D(11,10,12,13)        135.8973         estimate D2E/DX2                !
 ! D38   D(18,10,12,13)       -132.9503         estimate D2E/DX2                !
 ! D39   D(10,12,13,22)        -17.3598         estimate D2E/DX2                !
 ! D40   D(12,13,22,3)          85.476          estimate D2E/DX2                !
 ! D41   D(12,13,22,17)         -4.7893         estimate D2E/DX2                !
 ! D42   D(7,17,22,3)          -35.5992         estimate D2E/DX2                !
 ! D43   D(7,17,22,13)          70.2808         estimate D2E/DX2                !
 --------------------------------------------------------------------------------
 Trust Radius=3.00D-01 FncErr=1.00D-07 GrdErr=1.00D-06 EigMax=2.50D+02 EigMin=1.00D-04
 Number of steps in this run=    112 maximum allowed number of steps=    132.
 GradGradGradGradGradGradGradGradGradGradGradGradGradGradGradGradGradGrad

                          Input orientation:                          
 ---------------------------------------------------------------------
 Center     Atomic      Atomic             Coordinates (Angstroms)
 Number     Number       Type             X           Y           Z
 ---------------------------------------------------------------------
      1          6           0        1.368510    0.193970   -0.224080
      2          7           0        2.751650    0.677420   -0.508540
      3          6           0        4.115780    1.596420   -1.250470
      4          6           0        4.846510    0.725340   -0.654580
      5          7           0        5.176470   -0.294570    0.125190
      6          7           0        4.383620   -0.919050    0.836610
      7          6           0        5.269550    1.071790   -2.039580
      8          7           0        6.527680    1.177010   -2.286410
      9         16           0        6.666610    2.610860   -3.861150
     10          7           0        8.238430    2.090550   -2.881780
     11          6           0        8.931660    3.477700   -3.290090
     12          6           0        7.513560    3.041680   -1.862680
     13          6           0        5.779510    2.975200   -1.535130
     14          1           0        0.680860   -0.673010    0.588560
     15          1           0        0.469400    0.655650   -0.695140
     16          1           0        4.966680   -1.529610    1.409800
     17          1           0        4.656610    2.105010   -2.959710
     18          1           0        9.070260    1.508960   -2.918300
     19          1           0        9.379110    4.587090   -3.136480
     20          1           0        9.362680    3.261380   -4.435360
     21          1           0        9.106350    3.264160   -2.261450
     22          1           0        4.266090    2.650980   -1.700250
 ---------------------------------------------------------------------
                    Distance matrix (angstroms):
                    1          2          3          4          5
     1  C    0.000000
     2  N    1.492554   0.000000
     3  C    3.250821   1.804403   0.000000
     4  C    3.544597   2.100491   1.283679   0.000000
     5  N    3.855025   2.688146   2.567751   1.325568   0.000000
     6  N    3.384489   2.649806   3.279517   2.267583   1.234789
     7  C    4.391437   2.973118   1.493023   1.489032   2.561607
     8  N    5.642394   4.203429   2.658258   2.386044   3.131634
     9  S    6.865821   5.505006   3.788334   4.141261   5.152955
    10  N    7.606325   6.142797   4.461119   4.281278   4.909813
    11  C    8.796848   7.332879   5.558054   5.586578   6.324208
    12  C    6.968221   5.486274   3.742791   3.733375   4.532569
    13  C    5.376896   3.937209   2.179464   2.589928   3.716412
    14  H    1.372917   2.704711   4.508993   4.566554   4.535244
    15  H    1.115099   2.289969   3.806511   4.377853   4.871588
    16  H    4.311278   3.668429   4.192032   3.059560   1.794313
    17  H    4.684800   3.416887   1.863508   2.693172   3.942695
    18  H    8.264682   6.813460   5.228401   4.855775   5.260908
    19  H    9.589123   8.131102   6.340645   6.451155   7.220199
    20  H    9.542046   8.111873   6.359684   6.412612   7.139170
    21  H    8.570362   7.081393   5.358099   5.212857   5.814169
    22  H    4.075775   2.758376   1.156284   2.266804   3.582916
                    6          7          8          9         10
     6  N    0.000000
     7  C    3.608432   0.000000
     8  N    4.329401   1.286424   0.000000
     9  S    6.304067   2.763807   2.134252   0.000000
    10  N    6.143588   3.249834   2.028715   1.923670   0.000000
    11  C    7.552862   4.556669   3.475582   2.491580   1.603580
    12  C    5.724515   2.991211   2.151395   2.212874   1.571194
    13  C    4.768526   2.034084   2.087503   2.515961   2.939789
    14  H    3.719206   5.568440   6.772985   8.149413   8.763412
    15  H    4.488547   5.002213   6.285437   7.228546   8.197448
    16  H    1.020436   4.330962   4.839884   6.914924   6.498274
    17  H    4.861225   1.513234   2.194406   2.260216   3.582697
    18  H    6.477590   3.925387   2.640869   2.807255   1.015639
    19  H    8.429587   5.518062   4.525695   3.433408   2.756580
    20  H    8.370227   5.223771   4.123083   2.832258   2.246863
    21  H    7.028613   4.424562   3.317583   2.989678   1.586019
    22  H    4.381163   1.901557   2.762419   3.230108   4.182055
                   11         12         13         14         15
    11  C    0.000000
    12  C    2.058791   0.000000
    13  C    3.642587   1.765967   0.000000
    14  H   10.017386   8.154342   6.619345   0.000000
    15  H    9.290187   7.528378   5.855183   1.859553   0.000000
    16  H    7.929892   6.171905   5.443034   4.447072   5.425095
    17  H    4.502164   3.200467   2.011856   6.009509   4.976108
    18  H    2.008326   2.426289   3.859022   9.350994   8.924426
    19  H    1.206049   2.736994   4.256716  10.826086  10.039885
    20  H    1.242665   3.175877   4.618695  10.774655   9.993473
    21  H    1.064996   1.656953   3.417441   9.726908   9.157213
    22  H    4.997860   3.274919   1.556542   5.398281   4.405274
                   16         17         18         19         20
    16  H    0.000000
    17  H    5.692032   0.000000
    18  H    6.693633   4.453908   0.000000
    19  H    8.806374   5.337975   3.101270   0.000000
    20  H    8.743243   5.065751   2.336227   1.856035   0.000000
    21  H    7.320873   4.650955   1.874428   1.609416   2.188972
    22  H    5.257430   1.427175   5.086050   5.652809   5.816240
                   21         22
    21  H    0.000000
    22  H    4.911115   0.000000
 Stoichiometry    C7H9N5S
 Framework group  C1[X(C7H9N5S)]
 Deg. of freedom    60
 Full point group                 C1      NOp   1
 Largest Abelian subgroup         C1      NOp   1
 Largest concise Abelian subgroup C1      NOp   1
                         Standard orientation:                         
 ---------------------------------------------------------------------
 Center     Atomic      Atomic             Coordinates (Angstroms)
 Number     Number       Type             X           Y           Z
 ---------------------------------------------------------------------
      1          6           0        4.524967   -1.332265   -0.000956
      2          7           0        3.136002   -0.814509    0.173471
      3          6           0        1.342544   -0.781805    0.369203
      4          6           0        1.474763    0.469628    0.115697
      5          7           0        2.063653    1.632048   -0.127449
      6          7           0        3.284877    1.814507   -0.122464
      7          6           0        0.318233   -0.195712   -0.545345
      8          7           0       -0.792094    0.448582   -0.628698
      9         16           0       -2.308621   -1.052938   -0.603911
     10          7           0       -2.769784    0.795760   -0.339052
     11          6           0       -4.101540    0.336477    0.427078
     12          6           0       -2.139910    0.410084    1.047729
     13          6           0       -0.650409   -0.524126    1.212886
     14          1           0        5.824404   -0.902685   -0.109694
     15          1           0        4.760841   -2.421709    0.029369
     16          1           0        3.401714    2.825513   -0.196664
     17          1           0       -0.134424   -1.630841   -0.386022
     18          1           0       -3.154522    1.616904   -0.796458
     19          1           0       -4.848223    0.166311    1.358776
     20          1           0       -4.897439    0.090680   -0.495064
     21          1           0       -3.627690    1.133102    0.951550
     22          1           0        0.542817   -1.458663    0.858377
 ---------------------------------------------------------------------
 Rotational constants (GHZ):           1.9133616           0.3623655           0.3295412
 Standard basis: 6-31G(2df,p) (6D, 7F)
 There are   452 symmetry adapted cartesian basis functions of A   symmetry.
 There are   413 symmetry adapted basis functions of A   symmetry.
   413 basis functions,   659 primitive gaussians,   452 cartesian basis functions
    51 alpha electrons       51 beta electrons
       nuclear repulsion energy       845.3881855190 Hartrees.
 NAtoms=   22 NActive=   22 NUniq=   22 SFac= 1.00D+00 NAtFMM=   60 NAOKFM=F Big=F
 Integral buffers will be    131072 words long.
 Raffenetti 2 integral format.
 Two-electron integral symmetry is turned on.
 One-electron integrals computed using PRISM.
 PrsmSu:  requested number of processors reduced to:  13 ShMem   1 Linda.
 NBasis=   413 RedAO= T EigKep=  1.64D-04  NBF=   413
 NBsUse=   413 1.00D-06 EigRej= -1.00D+00 NBFU=   413
 ExpMin= 1.17D-01 ExpMax= 2.19D+04 ExpMxC= 3.30D+03 IAcc=3 IRadAn=         5 AccDes= 0.00D+00
 Harris functional with IExCor=  402 and IRadAn=       5 diagonalized for initial guess.
 HarFok:  IExCor=  402 AccDes= 0.00D+00 IRadAn=         5 IDoV= 1 UseB2=F ITyADJ=14
 ICtDFT=  3500011 ScaDFX=  1.000000  1.000000  1.000000  1.000000
 FoFCou: FMM=F IPFlag=           0 FMFlag=      100000 FMFlg1=           0
         NFxFlg=           0 DoJE=T BraDBF=F KetDBF=T FulRan=T
         wScrn=  0.000000 ICntrl=       500 IOpCl=  0 I1Cent=   200000004 NGrid=           0
         NMat0=    1 NMatS0=      1 NMatT0=    0 NMatD0=    1 NMtDS0=    0 NMtDT0=    0
 Petite list used in FoFCou.
 Requested convergence on RMS density matrix=1.00D-08 within 128 cycles.
 Requested convergence on MAX density matrix=1.00D-06.
 Requested convergence on             energy=1.00D-06.
 No special actions if energy rises.
 Integral accuracy reduced to 1.0D-05 until final iterations.
 EnCoef did     5 forward-backward iterations
 EnCoef did     3 forward-backward iterations
 EnCoef did     2 forward-backward iterations
 EnCoef did     2 forward-backward iterations
 EnCoef did     1 forward-backward iterations
 Initial convergence to 1.0D-05 achieved.  Increase integral accuracy.
 SCF Done:  E(RB3LYP) =  -942.730618775     A.U. after   27 cycles
            NFock= 27  Conv=0.75D-08     -V/T= 2.0049

 **********************************************************************

            Population analysis using the SCF density.

 **********************************************************************

 Orbital symmetries:
       Occupied  (A) (A) (A) (A) (A) (A) (A) (A) (A) (A) (A) (A)
                 (A) (A) (A) (A) (A) (A) (A) (A) (A) (A) (A) (A)
                 (A) (A) (A) (A) (A) (A) (A) (A) (A) (A) (A) (A)
                 (A) (A) (A) (A) (A) (A) (A) (A) (A) (A) (A) (A)
                 (A) (A) (A)
       Virtual   (A) (A) (A) (A) (A) (A) (A) (A) (A) (A) (A) (A)
                 (A) (A) (A) (A) (A) (A) (A) (A) (A) (A) (A) (A)
                 (A) (A) (A) (A) (A) (A) (A) (A) (A) (A) (A) (A)
                 (A) (A) (A) (A) (A) (A) (A) (A) (A) (A) (A) (A)
                 (A) (A) (A) (A) (A) (A) (A) (A) (A) (A) (A) (A)
                 (A) (A) (A) (A) (A) (A) (A) (A) (A) (A) (A) (A)
                 (A) (A) (A) (A) (A) (A) (A) (A) (A) (A) (A) (A)
                 (A) (A) (A) (A) (A) (A) (A) (A) (A) (A) (A) (A)
                 (A) (A) (A) (A) (A) (A) (A) (A) (A) (A) (A) (A)
                 (A) (A) (A) (A) (A) (A) (A) (A) (A) (A) (A) (A)
                 (A) (A) (A) (A) (A) (A) (A) (A) (A) (A) (A) (A)
                 (A) (A) (A) (A) (A) (A) (A) (A) (A) (A) (A) (A)
                 (A) (A) (A) (A) (A) (A) (A) (A) (A) (A) (A) (A)
                 (A) (A) (A) (A) (A) (A) (A) (A) (A) (A) (A) (A)
                 (A) (A) (A) (A) (A) (A) (A) (A) (A) (A) (A) (A)
                 (A) (A) (A) (A) (A) (A) (A) (A) (A) (A) (A) (A)
                 (A) (A) (A) (A) (A) (A) (A) (A) (A) (A) (A) (A)
                 (A) (A) (A) (A) (A) (A) (A) (A) (A) (A) (A) (A)
                 (A) (A) (A) (A) (A) (A) (A) (A) (A) (A) (A) (A)
                 (A) (A) (A) (A) (A) (A) (A) (A) (A) (A) (A) (A)
                 (A) (A) (A) (A) (A) (A) (A) (A) (A) (A) (A) (A)
                 (A) (A) (A) (A) (A) (A) (A) (A) (A) (A) (A) (A)
                 (A) (A) (A) (A) (A) (A) (A) (A) (A) (A) (A) (A)
                 (A) (A) (A) (A) (A) (A) (A) (A) (A) (A) (A) (A)
                 (A) (A) (A) (A) (A) (A) (A) (A) (A) (A) (A) (A)
                 (A) (A) (A) (A) (A) (A) (A) (A) (A) (A) (A) (A)
                 (A) (A) (A) (A) (A) (A) (A) (A) (A) (A) (A) (A)
                 (A) (A) (A) (A) (A) (A) (A) (A) (A) (A) (A) (A)
                 (A) (A) (A) (A) (A) (A) (A) (A) (A) (A) (A) (A)
                 (A) (A) (A) (A) (A) (A) (A) (A) (A) (A) (A) (A)
                 (A) (A)
 The electronic state is 1-A.
 Alpha  occ. eigenvalues --  -88.95210 -14.44543 -14.38844 -14.37917 -14.36838
 Alpha  occ. eigenvalues --  -14.31984 -10.31693 -10.30565 -10.28165 -10.27633
 Alpha  occ. eigenvalues --  -10.24919 -10.24609 -10.23857  -8.00739  -5.97340
 Alpha  occ. eigenvalues --   -5.96812  -5.96311  -1.04405  -1.01215  -0.98438
 Alpha  occ. eigenvalues --   -0.88509  -0.77148  -0.76733  -0.74655  -0.69639
 Alpha  occ. eigenvalues --   -0.67147  -0.64791  -0.59536  -0.56886  -0.53241
 Alpha  occ. eigenvalues --   -0.52561  -0.50446  -0.49548  -0.46793  -0.43628
 Alpha  occ. eigenvalues --   -0.42242  -0.40505  -0.39179  -0.37500  -0.35866
 Alpha  occ. eigenvalues --   -0.34624  -0.33944  -0.33223  -0.28519  -0.25720
 Alpha  occ. eigenvalues --   -0.24451  -0.23319  -0.22293  -0.21384  -0.18930
 Alpha  occ. eigenvalues --   -0.18180
 Alpha virt. eigenvalues --   -0.12934  -0.09956  -0.08475  -0.08275  -0.07664
 Alpha virt. eigenvalues --   -0.05700  -0.03706  -0.03013  -0.00554   0.01736
 Alpha virt. eigenvalues --    0.04068   0.06346   0.08535   0.10691   0.11861
 Alpha virt. eigenvalues --    0.13686   0.16449   0.17502   0.17884   0.20740
 Alpha virt. eigenvalues --    0.22016   0.24087   0.25396   0.26025   0.27790
 Alpha virt. eigenvalues --    0.28882   0.31794   0.32080   0.33406   0.35519
 Alpha virt. eigenvalues --    0.36985   0.37869   0.39294   0.39608   0.41742
 Alpha virt. eigenvalues --    0.43808   0.46571   0.47520   0.49065   0.50903
 Alpha virt. eigenvalues --    0.51905   0.52515   0.53871   0.54845   0.55419
 Alpha virt. eigenvalues --    0.56397   0.56662   0.56963   0.58853   0.60161
 Alpha virt. eigenvalues --    0.60537   0.61397   0.62637   0.63255   0.63820
 Alpha virt. eigenvalues --    0.64236   0.65083   0.65334   0.66153   0.67023
 Alpha virt. eigenvalues --    0.67520   0.68507   0.70258   0.70556   0.72239
 Alpha virt. eigenvalues --    0.73408   0.74454   0.74580   0.76004   0.77639
 Alpha virt. eigenvalues --    0.78080   0.78404   0.79471   0.80623   0.80941
 Alpha virt. eigenvalues --    0.81221   0.82048   0.82655   0.84375   0.85333
 Alpha virt. eigenvalues --    0.86368   0.88505   0.90435   0.92434   0.94821
 Alpha virt. eigenvalues --    0.95095   0.96306   0.97467   0.98258   1.01391
 Alpha virt. eigenvalues --    1.01682   1.03612   1.04708   1.05316   1.07253
 Alpha virt. eigenvalues --    1.08153   1.09751   1.12014   1.12744   1.14211
 Alpha virt. eigenvalues --    1.14937   1.17695   1.18760   1.19032   1.20916
 Alpha virt. eigenvalues --    1.23027   1.23841   1.26244   1.26568   1.26876
 Alpha virt. eigenvalues --    1.29125   1.32581   1.32919   1.34259   1.37089
 Alpha virt. eigenvalues --    1.38300   1.39866   1.40856   1.42371   1.43845
 Alpha virt. eigenvalues --    1.45314   1.47369   1.48362   1.50490   1.51255
 Alpha virt. eigenvalues --    1.53153   1.54620   1.56098   1.56365   1.58590
 Alpha virt. eigenvalues --    1.61024   1.64220   1.65707   1.66409   1.68370
 Alpha virt. eigenvalues --    1.69213   1.70626   1.72091   1.73836   1.74154
 Alpha virt. eigenvalues --    1.77706   1.78763   1.79473   1.82943   1.83456
 Alpha virt. eigenvalues --    1.83788   1.88204   1.89446   1.90393   1.92691
 Alpha virt. eigenvalues --    1.96797   1.99844   2.02341   2.03922   2.05380
 Alpha virt. eigenvalues --    2.07573   2.11452   2.12001   2.13234   2.14444
 Alpha virt. eigenvalues --    2.16229   2.17762   2.20590   2.21335   2.23368
 Alpha virt. eigenvalues --    2.26096   2.26982   2.28321   2.29288   2.36224
 Alpha virt. eigenvalues --    2.37890   2.38657   2.40609   2.41399   2.43260
 Alpha virt. eigenvalues --    2.45209   2.46432   2.47214   2.51904   2.54662
 Alpha virt. eigenvalues --    2.55944   2.59043   2.59775   2.63600   2.65209
 Alpha virt. eigenvalues --    2.66638   2.70221   2.71034   2.72516   2.73491
 Alpha virt. eigenvalues --    2.76161   2.77911   2.80598   2.82140   2.83630
 Alpha virt. eigenvalues --    2.85267   2.86878   2.90004   2.90414   2.91165
 Alpha virt. eigenvalues --    2.92755   2.93571   2.95993   2.97097   2.97533
 Alpha virt. eigenvalues --    3.00702   3.03592   3.04170   3.07132   3.09380
 Alpha virt. eigenvalues --    3.09717   3.11978   3.12952   3.14923   3.16957
 Alpha virt. eigenvalues --    3.19211   3.20722   3.22111   3.22907   3.25891
 Alpha virt. eigenvalues --    3.27980   3.29959   3.30503   3.33021   3.35071
 Alpha virt. eigenvalues --    3.38649   3.39606   3.40429   3.41794   3.43659
 Alpha virt. eigenvalues --    3.46276   3.50367   3.50498   3.51848   3.53443
 Alpha virt. eigenvalues --    3.54769   3.59325   3.61072   3.63909   3.65434
 Alpha virt. eigenvalues --    3.65931   3.67321   3.68720   3.71271   3.71877
 Alpha virt. eigenvalues --    3.72654   3.74936   3.76587   3.78577   3.82322
 Alpha virt. eigenvalues --    3.85449   3.86443   3.88278   3.89614   3.91690
 Alpha virt. eigenvalues --    3.92299   3.96580   3.97994   4.02475   4.04379
 Alpha virt. eigenvalues --    4.06898   4.09852   4.10829   4.11955   4.13523
 Alpha virt. eigenvalues --    4.13923   4.16454   4.18416   4.19177   4.20041
 Alpha virt. eigenvalues --    4.21055   4.22939   4.23923   4.24913   4.28612
 Alpha virt. eigenvalues --    4.30281   4.32310   4.33891   4.34947   4.35829
 Alpha virt. eigenvalues --    4.36278   4.37225   4.39191   4.39510   4.40149
 Alpha virt. eigenvalues --    4.43161   4.43852   4.44450   4.45801   4.47808
 Alpha virt. eigenvalues --    4.48982   4.49834   4.51817   4.52568   4.52680
 Alpha virt. eigenvalues --    4.55075   4.56611   4.57533   4.59025   4.59615
 Alpha virt. eigenvalues --    4.63251   4.63679   4.65122   4.68417   4.68681
 Alpha virt. eigenvalues --    4.70494   4.72852   4.74161   4.75302   4.76220
 Alpha virt. eigenvalues --    4.79439   4.80764   4.82970   4.85437   4.87060
 Alpha virt. eigenvalues --    4.89778   4.91943   4.93991   4.95329   4.96853
 Alpha virt. eigenvalues --    5.00639   5.04458   5.06172   5.08778   5.12187
 Alpha virt. eigenvalues --    5.13352   5.13929   5.17797   5.19483   5.19767
 Alpha virt. eigenvalues --    5.24141   5.26672   5.31568   5.31731   5.32716
 Alpha virt. eigenvalues --    5.33886   5.43759   5.49311   5.54368   5.62698
 Alpha virt. eigenvalues --    5.71432   5.81339   6.13832   6.20597   6.30108
 Alpha virt. eigenvalues --    7.11285   8.70888  10.35781  10.78089  10.92431
 Alpha virt. eigenvalues --   11.08178  11.13047  11.22846  11.25783  11.35184
 Alpha virt. eigenvalues --   11.48535  11.60765  11.68558  12.02503  15.90364
 Alpha virt. eigenvalues --   16.79931  19.35067
          Condensed to atoms (all electrons):
               1          2          3          4          5          6
     1  C    5.198600   0.376641   0.003170   0.004692   0.002123   0.005637
     2  N    0.376641   6.868196   0.126860   0.016769  -0.066971  -0.000477
     3  C    0.003170   0.126860   5.711701   0.207929  -0.099015  -0.001686
     4  C    0.004692   0.016769   0.207929   4.840123   0.496572  -0.105702
     5  N    0.002123  -0.066971  -0.099015   0.496572   6.543724   0.467821
     6  N    0.005637  -0.000477  -0.001686  -0.105702   0.467821   6.564647
     7  C   -0.001209   0.011498   0.020838   0.218115  -0.008229   0.003054
     8  N    0.000015   0.000087   0.009356  -0.024159  -0.002201   0.000275
     9  S   -0.000004   0.000120  -0.018641   0.011550  -0.000088   0.000013
    10  N   -0.000000   0.000000  -0.000631   0.000161   0.000003   0.000000
    11  C   -0.000000   0.000000  -0.000013   0.000018   0.000000   0.000000
    12  C    0.000000  -0.000013   0.007651   0.001412  -0.000320   0.000002
    13  C   -0.000147   0.003321  -0.164736   0.037699  -0.003136   0.000014
    14  H    0.303363  -0.012337   0.000361  -0.000439   0.000161  -0.000013
    15  H    0.313145  -0.009119  -0.001307  -0.000177  -0.000107   0.000136
    16  H   -0.000199   0.001547  -0.000734  -0.002355  -0.102800   0.326241
    17  H   -0.000036   0.000114  -0.093712  -0.025701   0.000143   0.000035
    18  H   -0.000000   0.000000   0.000026   0.000003  -0.000001   0.000000
    19  H    0.000000  -0.000000   0.000000  -0.000000  -0.000000   0.000000
    20  H   -0.000000   0.000000  -0.000001  -0.000000   0.000000  -0.000000
    21  H   -0.000000   0.000000  -0.000003  -0.000020   0.000001  -0.000000
    22  H    0.000325  -0.018985   0.358926  -0.058032  -0.001075   0.000062
               7          8          9         10         11         12
     1  C   -0.001209   0.000015  -0.000004  -0.000000  -0.000000   0.000000
     2  N    0.011498   0.000087   0.000120   0.000000   0.000000  -0.000013
     3  C    0.020838   0.009356  -0.018641  -0.000631  -0.000013   0.007651
     4  C    0.218115  -0.024159   0.011550   0.000161   0.000018   0.001412
     5  N   -0.008229  -0.002201  -0.000088   0.000003   0.000000  -0.000320
     6  N    0.003054   0.000275   0.000013   0.000000   0.000000   0.000002
     7  C    5.242143   0.529692  -0.077385  -0.001312  -0.000062  -0.022988
     8  N    0.529692   6.893385   0.056581  -0.141870   0.013157  -0.031492
     9  S   -0.077385   0.056581  15.871288   0.030275  -0.117381   0.051538
    10  N   -0.001312  -0.141870   0.030275   6.725073   0.222190   0.211142
    11  C   -0.000062   0.013157  -0.117381   0.222190   5.413887  -0.029437
    12  C   -0.022988  -0.031492   0.051538   0.211142  -0.029437   5.674311
    13  C    0.026634   0.010458  -0.039356   0.002734   0.000774   0.163273
    14  H    0.000007  -0.000000   0.000000   0.000000   0.000000  -0.000000
    15  H    0.000010  -0.000000   0.000000  -0.000000  -0.000000   0.000000
    16  H   -0.000083   0.000005  -0.000000  -0.000000   0.000000   0.000001
    17  H    0.144652  -0.115969   0.094991   0.005380   0.000291   0.000544
    18  H   -0.000006   0.001748   0.012489   0.280949  -0.037363  -0.012373
    19  H   -0.000008  -0.000108  -0.017176   0.012722   0.376084  -0.011439
    20  H    0.000022  -0.000075   0.017832  -0.055970   0.301474   0.007718
    21  H    0.000104  -0.001430   0.047754  -0.154350   0.279539   0.007541
    22  H   -0.100917  -0.001925   0.004627   0.000010  -0.000053  -0.001067
              13         14         15         16         17         18
     1  C   -0.000147   0.303363   0.313145  -0.000199  -0.000036  -0.000000
     2  N    0.003321  -0.012337  -0.009119   0.001547   0.000114   0.000000
     3  C   -0.164736   0.000361  -0.001307  -0.000734  -0.093712   0.000026
     4  C    0.037699  -0.000439  -0.000177  -0.002355  -0.025701   0.000003
     5  N   -0.003136   0.000161  -0.000107  -0.102800   0.000143  -0.000001
     6  N    0.000014  -0.000013   0.000136   0.326241   0.000035   0.000000
     7  C    0.026634   0.000007   0.000010  -0.000083   0.144652  -0.000006
     8  N    0.010458  -0.000000  -0.000000   0.000005  -0.115969   0.001748
     9  S   -0.039356   0.000000   0.000000  -0.000000   0.094991   0.012489
    10  N    0.002734   0.000000  -0.000000  -0.000000   0.005380   0.280949
    11  C    0.000774   0.000000  -0.000000   0.000000   0.000291  -0.037363
    12  C    0.163273  -0.000000   0.000000   0.000001   0.000544  -0.012373
    13  C    6.035796   0.000000   0.000002   0.000011   0.021220  -0.000982
    14  H    0.000000   0.687835  -0.074006  -0.000057   0.000000   0.000000
    15  H    0.000002  -0.074006   0.640234   0.000001   0.000000   0.000000
    16  H    0.000011  -0.000057   0.000001   0.532850   0.000000   0.000000
    17  H    0.021220   0.000000   0.000000   0.000000   0.938748  -0.000281
    18  H   -0.000982   0.000000   0.000000   0.000000  -0.000281   0.439811
    19  H    0.000372  -0.000000   0.000000  -0.000000   0.000011  -0.001686
    20  H   -0.000101   0.000000  -0.000000  -0.000000  -0.000003   0.006796
    21  H   -0.002805   0.000000  -0.000000   0.000000  -0.000094   0.012327
    22  H    0.019111  -0.000014   0.000070   0.000004  -0.001438  -0.000003
              19         20         21         22
     1  C    0.000000  -0.000000  -0.000000   0.000325
     2  N   -0.000000   0.000000   0.000000  -0.018985
     3  C    0.000000  -0.000001  -0.000003   0.358926
     4  C   -0.000000  -0.000000  -0.000020  -0.058032
     5  N   -0.000000   0.000000   0.000001  -0.001075
     6  N    0.000000  -0.000000  -0.000000   0.000062
     7  C   -0.000008   0.000022   0.000104  -0.100917
     8  N   -0.000108  -0.000075  -0.001430  -0.001925
     9  S   -0.017176   0.017832   0.047754   0.004627
    10  N    0.012722  -0.055970  -0.154350   0.000010
    11  C    0.376084   0.301474   0.279539  -0.000053
    12  C   -0.011439   0.007718   0.007541  -0.001067
    13  C    0.000372  -0.000101  -0.002805   0.019111
    14  H   -0.000000   0.000000   0.000000  -0.000014
    15  H    0.000000  -0.000000  -0.000000   0.000070
    16  H   -0.000000  -0.000000   0.000000   0.000004
    17  H    0.000011  -0.000003  -0.000094  -0.001438
    18  H   -0.001686   0.006796   0.012327  -0.000003
    19  H    0.594782  -0.063567  -0.078633   0.000001
    20  H   -0.063567   0.676387   0.018676   0.000001
    21  H   -0.078633   0.018676   0.714294  -0.000013
    22  H    0.000001   0.000001  -0.000013   0.568703
 Mulliken charges:
               1
     1  C   -0.206116
     2  N   -0.297253
     3  C   -0.066339
     4  C    0.381542
     5  N   -0.226605
     6  N   -0.260058
     7  C    0.015428
     8  N   -0.195530
     9  S    0.070974
    10  N   -0.136506
    11  C   -0.423106
    12  C   -0.016002
    13  C   -0.110153
    14  H    0.095139
    15  H    0.131118
    16  H    0.245569
    17  H    0.031104
    18  H    0.298545
    19  H    0.188645
    20  H    0.090812
    21  H    0.157113
    22  H    0.231680
 Sum of Mulliken charges =  -0.00000
 Mulliken charges with hydrogens summed into heavy atoms:
               1
     1  C    0.020142
     2  N   -0.297253
     3  C    0.165341
     4  C    0.381542
     5  N   -0.226605
     6  N   -0.014489
     7  C    0.046532
     8  N   -0.195530
     9  S    0.070974
    10  N    0.162038
    11  C    0.013463
    12  C   -0.016002
    13  C   -0.110153
 Electronic spatial extent (au):  <R**2>=           3325.0388
 Charge=             -0.0000 electrons
 Dipole moment (field-independent basis, Debye):
    X=             -3.4951    Y=              1.4249    Z=             -1.0132  Tot=              3.9080
 Quadrupole moment (field-independent basis, Debye-Ang):
   XX=            -75.5578   YY=            -79.2478   ZZ=            -85.8402
   XY=             -4.0097   XZ=              1.7612   YZ=             -1.3029
 Traceless Quadrupole moment (field-independent basis, Debye-Ang):
   XX=              4.6575   YY=              0.9674   ZZ=             -5.6249
   XY=             -4.0097   XZ=              1.7612   YZ=             -1.3029
 Octapole moment (field-independent basis, Debye-Ang**2):
  XXX=            -17.9385  YYY=             26.1124  ZZZ=            -10.4925  XYY=             14.7483
  XXY=             15.1495  XXZ=            -13.7308  XZZ=             -3.7330  YZZ=              6.5167
  YYZ=             -6.2133  XYZ=              3.3559
 Hexadecapole moment (field-independent basis, Debye-Ang**3):
 XXXX=          -3287.5844 YYYY=           -554.7920 ZZZZ=           -264.8051 XXXY=            -88.1417
 XXXZ=             -7.3334 YYYX=             57.6528 YYYZ=             -9.3472 ZZZX=             16.2397
 ZZZY=             -5.7855 XXYY=           -617.4026 XXZZ=           -658.9974 YYZZ=           -147.8382
 XXYZ=            -11.3862 YYXZ=             15.0859 ZZXY=              6.7921
 N-N= 8.453881855190D+02 E-N=-3.904305464949D+03  KE= 9.381357966506D+02
 PrsmSu:  requested number of processors reduced to:  13 ShMem   1 Linda.
 Calling FoFJK, ICntrl=      2127 FMM=F ISym2X=0 I1Cent= 0 IOpClX= 0 NMat=1 NMatS=1 NMatT=0.
 ***** Axes restored to original set *****
 -------------------------------------------------------------------
 Center     Atomic                   Forces (Hartrees/Bohr)
 Number     Number              X              Y              Z
 -------------------------------------------------------------------
      1        6           0.054813911    0.032373221   -0.011867928
      2        7          -0.173476499   -0.072885041    0.052182212
      3        6          -0.136023578    0.067379487    0.020935364
      4        6           0.039108218   -0.031322270    0.022261856
      5        7           0.051722737   -0.000001791   -0.002914971
      6        7          -0.029292592   -0.001847614    0.013239436
      7        6           0.094455474   -0.009159763   -0.036691321
      8        7          -0.071866849   -0.052023148   -0.026273908
      9       16          -0.029558055   -0.034374329    0.028063272
     10        7          -0.031456585    0.088921766   -0.053243748
     11        6           0.082400399    0.029257898   -0.052476656
     12        6          -0.023471685    0.001162862   -0.015313717
     13        6           0.076314247   -0.007127003   -0.025574539
     14        1           0.064864280    0.039609045   -0.035617348
     15        1           0.015971240    0.002141475   -0.007251840
     16        1           0.005892936   -0.008604374    0.005090267
     17        1           0.025847673   -0.012673339   -0.026632101
     18        1          -0.006548858   -0.019285912    0.013643247
     19        1          -0.061962650   -0.020310313   -0.008341841
     20        1          -0.003893386   -0.004198778    0.057269619
     21        1           0.101904195    0.013703507    0.044973737
     22        1          -0.045744572   -0.000735586    0.044540908
 -------------------------------------------------------------------
 Cartesian Forces:  Max     0.173476499 RMS     0.048876742

 GradGradGradGradGradGradGradGradGradGradGradGradGradGradGradGradGradGrad
 Berny optimization.
 FormGI is forming the generalized inverse of G from B-inverse, IUseBI=4.
 Internal  Forces:  Max     0.244733105 RMS     0.051632863
 Search for a local minimum.
 Step number   1 out of a maximum of  112
 All quantities printed in internal units (Hartrees-Bohrs-Radians)
 Mixed Optimization -- RFO/linear search
 Second derivative matrix not updated -- first step.
 ITU=  0
     Eigenvalues ---    0.00230   0.00230   0.00230   0.00230   0.00230
     Eigenvalues ---    0.00346   0.00350   0.00467   0.00911   0.01672
     Eigenvalues ---    0.02676   0.02754   0.03262   0.03480   0.04122
     Eigenvalues ---    0.05265   0.05871   0.06742   0.07277   0.08246
     Eigenvalues ---    0.09612   0.09987   0.10463   0.10887   0.11769
     Eigenvalues ---    0.13800   0.13899   0.15179   0.15378   0.15977
     Eigenvalues ---    0.16000   0.16000   0.16000   0.16000   0.16000
     Eigenvalues ---    0.16000   0.16135   0.16761   0.18375   0.19380
     Eigenvalues ---    0.21796   0.22203   0.22822   0.23554   0.24229
     Eigenvalues ---    0.25000   0.25000   0.25000   0.25042   0.25925
     Eigenvalues ---    0.30067   0.32066   0.33171   0.37870   0.44269
     Eigenvalues ---    0.45041   0.60565   0.61085   0.71109   0.89120
 RFO step:  Lambda=-4.43977572D-01 EMin= 2.30000000D-03
 Linear search not attempted -- first point.
 Maximum step size (   0.300) exceeded in Quadratic search.
    -- Step size scaled by   0.409
 Iteration  1 RMS(Cart)=  0.25596045 RMS(Int)=  0.01057088
 Iteration  2 RMS(Cart)=  0.03839775 RMS(Int)=  0.00056518
 Iteration  3 RMS(Cart)=  0.00074245 RMS(Int)=  0.00047354
 Iteration  4 RMS(Cart)=  0.00000031 RMS(Int)=  0.00047354
 Variable       Old X    -DE/DX   Delta X   Delta X   Delta X     New X
                                 (Linear)    (Quad)   (Total)
    R1        2.82052  -0.16015   0.00000  -0.08453  -0.08453   2.73599
    R2        2.59444  -0.07858   0.00000  -0.05383  -0.05383   2.54061
    R3        2.10723  -0.00893   0.00000  -0.00478  -0.00478   2.10245
    R4        3.40983   0.02692   0.00000   0.01894   0.01894   3.42876
    R5        2.42580   0.07435   0.00000   0.02863   0.02880   2.45460
    R6        2.82140   0.05736   0.00000   0.03017   0.03009   2.85149
    R7        2.18506   0.00643   0.00000   0.00511   0.00550   2.19056
    R8        2.50496   0.02416   0.00000   0.00942   0.00942   2.51439
    R9        2.81386   0.02155   0.00000   0.00907   0.00893   2.82279
   R10        2.33341   0.03087   0.00000   0.00947   0.00947   2.34288
   R11        1.92834   0.01137   0.00000   0.00525   0.00525   1.93360
   R12        2.43099  -0.06950   0.00000  -0.02464  -0.02464   2.40635
   R13        2.85960   0.01691   0.00000   0.01005   0.00961   2.86921
   R14        3.63521   0.00057   0.00000   0.00037   0.00037   3.63558
   R15        3.03033   0.05662   0.00000   0.03411   0.03411   3.06444
   R16        2.96913  -0.02843   0.00000  -0.01655  -0.01655   2.95258
   R17        1.91928   0.00519   0.00000   0.00238   0.00238   1.92165
   R18        2.27910  -0.04273   0.00000  -0.02550  -0.02550   2.25361
   R19        2.34830  -0.05340   0.00000  -0.03303  -0.03303   2.31527
   R20        2.01255   0.05741   0.00000   0.02857   0.02857   2.04112
   R21        3.33719   0.02628   0.00000   0.01806   0.01806   3.35525
   R22        2.94144   0.10963   0.00000   0.08254   0.08254   3.02397
   R23        2.69697   0.04626   0.00000   0.03682   0.03706   2.73403
    A1        2.46787  -0.04074   0.00000  -0.02760  -0.02760   2.44027
    A2        2.13244   0.00512   0.00000   0.00349   0.00349   2.13594
    A3        1.67865   0.03566   0.00000   0.02419   0.02419   1.70284
    A4        2.80509  -0.05389   0.00000  -0.03179  -0.03179   2.77330
    A5        1.46447   0.05037   0.00000   0.03280   0.03288   1.49734
    A6        2.24282   0.00072   0.00000  -0.00199  -0.00229   2.24053
    A7        2.37853  -0.03096   0.00000  -0.02428  -0.02451   2.35402
    A8        2.38249  -0.02075   0.00000  -0.00940  -0.00926   2.37323
    A9        1.58522   0.02134   0.00000   0.01748   0.01778   1.60301
   A10        2.78438  -0.00935   0.00000  -0.00491  -0.00485   2.77954
   A11        2.28558  -0.00445   0.00000  -0.00684  -0.00695   2.27863
   A12        2.17513  -0.01380   0.00000  -0.00814  -0.00814   2.16699
   A13        1.83314   0.00110   0.00000   0.00075   0.00075   1.83389
   A14        2.54713   0.04888   0.00000   0.03590   0.03592   2.58304
   A15        1.33711  -0.02048   0.00000  -0.00889  -0.00896   1.32815
   A16        2.06616  -0.00363   0.00000   0.00195   0.00203   2.06820
   A17        2.22605  -0.00563   0.00000  -0.00510  -0.00528   2.22077
   A18        1.79633   0.02548   0.00000   0.01364   0.01359   1.80992
   A19        1.56042   0.09542   0.00000   0.06577   0.06554   1.62596
   A20        1.35873  -0.01695   0.00000  -0.01443  -0.01575   1.34298
   A21        2.50782   0.00075   0.00000   0.00188  -0.00044   2.50738
   A22        1.41106   0.03738   0.00000   0.02426   0.02423   1.43529
   A23        1.70331  -0.00857   0.00000   0.00062   0.00027   1.70358
   A24        2.41558   0.01036   0.00000   0.00810   0.00719   2.42277
   A25        2.74832   0.02546   0.00000   0.01670   0.01661   2.76494
   A26        1.80702  -0.01621   0.00000  -0.00987  -0.00972   1.79729
   A27        1.21486   0.08734   0.00000   0.05999   0.05997   1.27483
   A28        1.72018  -0.00781   0.00000  -0.00547  -0.00558   1.71460
   A29        1.57136  -0.05455   0.00000  -0.03656  -0.03658   1.53478
   A30        2.49537  -0.03425   0.00000  -0.02789  -0.02924   2.46613
   A31        2.15379   0.11935   0.00000   0.07042   0.07042   2.22421
   A32        2.80200   0.24473   0.00000   0.16590   0.16590   2.96790
   A33        1.40548   0.02178   0.00000   0.01301   0.01333   1.41881
   A34        1.84949   0.15442   0.00000   0.10833   0.10869   1.95818
   A35        1.60075  -0.02409   0.00000  -0.01626  -0.01673   1.58402
   A36        1.47791   0.05360   0.00000   0.04307   0.04352   1.52143
    D1       -3.12762   0.00051   0.00000   0.00047   0.00046  -3.12716
    D2       -0.11220   0.00429   0.00000   0.00392   0.00393  -0.10827
    D3        3.03426   0.00314   0.00000   0.00288   0.00287   3.03713
    D4       -2.90822  -0.00644   0.00000  -0.00565  -0.00557  -2.91378
    D5       -2.03369   0.01777   0.00000   0.01761   0.01733  -2.01636
    D6        0.56961  -0.00511   0.00000  -0.00626  -0.00606   0.56355
    D7       -0.09454  -0.00269   0.00000  -0.00297  -0.00296  -0.09750
    D8        2.70936  -0.00772   0.00000  -0.00780  -0.00789   2.70147
    D9       -2.47386  -0.02689   0.00000  -0.02049  -0.02051  -2.49437
   D10        2.18015  -0.03506   0.00000  -0.02643  -0.02652   2.15363
   D11        1.02997   0.00002   0.00000   0.00437   0.00449   1.03445
   D12       -0.59921  -0.00815   0.00000  -0.00157  -0.00152  -0.60074
   D13        2.69292  -0.03647   0.00000  -0.02986  -0.02954   2.66338
   D14       -2.10753   0.01316   0.00000   0.01084   0.01060  -2.09693
   D15        0.04818  -0.04335   0.00000  -0.03428  -0.03391   0.01426
   D16        1.53092   0.00629   0.00000   0.00642   0.00622   1.53714
   D17       -0.86154  -0.05314   0.00000  -0.04818  -0.04766  -0.90921
   D18        0.62120  -0.00350   0.00000  -0.00748  -0.00753   0.61367
   D19       -0.05959  -0.01927   0.00000  -0.01522  -0.01524  -0.07483
   D20       -2.41267   0.01211   0.00000   0.00899   0.00901  -2.40365
   D21       -0.96342   0.04801   0.00000   0.03475   0.03465  -0.92876
   D22        2.92211   0.01088   0.00000   0.01157   0.01155   2.93366
   D23       -2.99038  -0.00415   0.00000  -0.00355  -0.00355  -2.99393
   D24        0.48161  -0.00325   0.00000  -0.00598  -0.00594   0.47567
   D25        0.43489  -0.02500   0.00000  -0.02337  -0.02339   0.41150
   D26       -2.04904  -0.05013   0.00000  -0.04123  -0.04128  -2.09031
   D27        1.91352  -0.03468   0.00000  -0.02964  -0.02996   1.88356
   D28       -1.43014  -0.02159   0.00000  -0.01567  -0.01556  -1.44570
   D29        2.37698   0.01759   0.00000   0.01628   0.01554   2.39252
   D30        0.55587  -0.00289   0.00000  -0.00492  -0.00504   0.55082
   D31       -2.78779   0.01020   0.00000   0.00905   0.00936  -2.77844
   D32        1.01933   0.04937   0.00000   0.04101   0.04046   1.05979
   D33       -1.85201  -0.01495   0.00000  -0.01356  -0.01312  -1.86513
   D34        1.08751  -0.00186   0.00000   0.00041   0.00128   1.08879
   D35       -1.38855   0.03732   0.00000   0.03237   0.03238  -1.35617
   D36        0.77712  -0.08716   0.00000  -0.06685  -0.06660   0.71052
   D37        2.37186   0.00636   0.00000  -0.00160  -0.00169   2.37016
   D38       -2.32042   0.03395   0.00000   0.02547   0.02531  -2.29511
   D39       -0.30299   0.00618   0.00000   0.00567   0.00567  -0.29732
   D40        1.49184   0.02642   0.00000   0.02795   0.03001   1.52185
   D41       -0.08359   0.05044   0.00000   0.04257   0.04050  -0.04309
   D42       -0.62132  -0.00399   0.00000   0.00407   0.00420  -0.61712
   D43        1.22663   0.15348   0.00000   0.11452   0.11426   1.34089
         Item               Value     Threshold  Converged?
 Maximum Force            0.244733     0.000450     NO 
 RMS     Force            0.051633     0.000300     NO 
 Maximum Displacement     0.993311     0.001800     NO 
 RMS     Displacement     0.287292     0.001200     NO 
 Predicted change in Energy=-1.722495D-01
 GradGradGradGradGradGradGradGradGradGradGradGradGradGradGradGradGradGrad

                          Input orientation:                          
 ---------------------------------------------------------------------
 Center     Atomic      Atomic             Coordinates (Angstroms)
 Number     Number       Type             X           Y           Z
 ---------------------------------------------------------------------
      1          6           0        1.262967    0.404329   -0.056374
      2          7           0        2.643504    0.677721   -0.396322
      3          6           0        4.061071    1.415705   -1.255401
      4          6           0        4.769044    0.490958   -0.680245
      5          7           0        5.068213   -0.533834    0.113906
      6          7           0        4.275950   -1.045178    0.918859
      7          6           0        5.092950    0.732050   -2.118395
      8          7           0        6.308468    0.651372   -2.489237
      9         16           0        6.918757    2.478158   -3.986348
     10          7           0        8.518574    2.266337   -2.938981
     11          6           0        9.052147    3.757317   -3.288230
     12          6           0        7.572150    3.058943   -1.981243
     13          6           0        5.831828    2.809179   -1.733493
     14          1           0        0.544714   -0.335778    0.806096
     15          1           0        0.415556    0.965601   -0.508788
     16          1           0        4.839802   -1.698391    1.468726
     17          1           0        4.510817    1.802320   -3.024449
     18          1           0        9.423284    1.802942   -2.909950
     19          1           0        9.327669    4.904928   -3.117145
     20          1           0        9.587019    3.609289   -4.380512
     21          1           0        9.228887    3.598232   -2.234616
     22          1           0        4.274208    2.442731   -1.748878
 ---------------------------------------------------------------------
                    Distance matrix (angstroms):
                    1          2          3          4          5
     1  C    0.000000
     2  N    1.447823   0.000000
     3  C    3.207793   1.814424   0.000000
     4  C    3.562203   2.152536   1.298918   0.000000
     5  N    3.922887   2.758154   2.586512   1.330556   0.000000
     6  N    3.482846   2.713478   3.290825   2.271561   1.239799
     7  C    4.362121   2.994707   1.508945   1.493759   2.566368
     8  N    5.606864   4.220538   2.675322   2.380758   3.117579
     9  S    7.192595   5.865803   4.093072   4.415942   5.413750
    10  N    8.026228   6.595852   4.840181   4.723647   5.391296
    11  C    9.075172   7.675789   5.875915   5.984618   6.772019
    12  C    7.110407   5.698574   3.943951   4.018028   4.854627
    13  C    5.428675   4.061594   2.303458   2.759164   3.895090
    14  H    1.344434   2.622577   4.436467   4.553863   4.580437
    15  H    1.112569   2.249283   3.748307   4.382640   4.927806
    16  H    4.420533   3.734707   4.210093   3.068604   1.801083
    17  H    4.616533   3.414473   1.865816   2.698452   3.951908
    18  H    8.757270   7.317777   5.625016   5.324926   5.794037
    19  H    9.729497   8.363624   6.586183   6.797255   7.626453
    20  H    9.912607   8.525272   6.716713   6.828532   7.601636
    21  H    8.854469   7.434781   5.694611   5.653443   6.316702
    22  H    4.010888   2.757510   1.159193   2.279530   3.600049
                    6          7          8          9         10
     6  N    0.000000
     7  C    3.612608   0.000000
     8  N    4.315614   1.273388   0.000000
     9  S    6.592373   3.141928   2.439455   0.000000
    10  N    6.621852   3.842174   2.773978   1.923866   0.000000
    11  C    7.973431   5.118202   4.220552   2.583596   1.621633
    12  C    6.009936   3.402893   2.766107   2.187391   1.562436
    13  C    4.930699   2.237980   2.335480   2.523162   2.994409
    14  H    3.799749   5.511747   6.712269   8.456606   9.185808
    15  H    4.580835   4.952110   6.224735   7.528139   8.559010
    16  H    1.023215   4.340341   4.831546   7.177983   6.977128
    17  H    4.869608   1.518318   2.200609   2.679586   4.035435
    18  H    7.019017   4.530470   3.347415   2.808416   1.016896
    19  H    8.787090   6.028537   5.253815   3.528113   2.765599
    20  H    8.829204   5.795890   4.803654   2.924798   2.241228
    21  H    7.485802   5.033336   4.156640   3.108026   1.665718
    22  H    4.391165   1.932178   2.809860   3.464270   4.411588
                   11         12         13         14         15
    11  C    0.000000
    12  C    2.094357   0.000000
    13  C    3.699545   1.775524   0.000000
    14  H   10.290450   8.287234   6.655362   0.000000
    15  H    9.492612   7.600463   5.851041   1.854505   0.000000
    16  H    8.374797   6.480759   5.617517   4.554512   5.530042
    17  H    4.951290   3.469747   2.103664   5.913925   4.878505
    18  H    2.024949   2.422134   3.910898   9.859621   9.359801
    19  H    1.192557   2.789225   4.304366  10.954320  10.087000
    20  H    1.225186   3.181049   4.663513  11.145750  10.300246
    21  H    1.080114   1.760626   3.523314  10.006859   9.358633
    22  H    5.189069   3.363054   1.600218   5.306330   4.313807
                   16         17         18         19         20
    16  H    0.000000
    17  H    5.705421   0.000000
    18  H    7.241577   4.913801   0.000000
    19  H    9.207332   5.730343   3.110368   0.000000
    20  H    9.215266   5.556246   2.335006   1.828125   0.000000
    21  H    7.812363   5.109727   1.927935   1.579895   2.175604
    22  H    5.274634   1.446787   5.316991   5.785502   6.042542
                   21         22
    21  H    0.000000
    22  H    5.110769   0.000000
 Stoichiometry    C7H9N5S
 Framework group  C1[X(C7H9N5S)]
 Deg. of freedom    60
 Full point group                 C1      NOp   1
 Largest Abelian subgroup         C1      NOp   1
 Largest concise Abelian subgroup C1      NOp   1
                         Standard orientation:                         
 ---------------------------------------------------------------------
 Center     Atomic      Atomic             Coordinates (Angstroms)
 Number     Number       Type             X           Y           Z
 ---------------------------------------------------------------------
      1          6           0        4.592319   -1.446120    0.232107
      2          7           0        3.267938   -0.861782    0.259583
      3          6           0        1.455595   -0.775034    0.255257
      4          6           0        1.612379    0.495908    0.037746
      5          7           0        2.228436    1.664857   -0.118492
      6          7           0        3.445762    1.837058    0.041399
      7          6           0        0.549751   -0.159213   -0.782591
      8          7           0       -0.511950    0.496185   -1.037074
      9         16           0       -2.509177   -0.876145   -0.756478
     10          7           0       -3.097724    0.829833   -0.089762
     11          6           0       -4.320895    0.179292    0.753058
     12          6           0       -2.256397    0.258561    1.096418
     13          6           0       -0.717988   -0.622890    1.002457
     14          1           0        5.882244   -1.069447    0.273512
     15          1           0        4.759433   -2.545412    0.270037
     16          1           0        3.579979    2.850217   -0.008243
     17          1           0        0.070744   -1.596827   -0.687143
     18          1           0       -3.560807    1.696345   -0.352038
     19          1           0       -4.942340   -0.185534    1.703269
     20          1           0       -5.200685    0.054809   -0.090479
     21          1           0       -3.860882    0.922212    1.387964
     22          1           0        0.603317   -1.454124    0.650464
 ---------------------------------------------------------------------
 Rotational constants (GHZ):           1.7903862           0.3233543           0.3008432
 Standard basis: 6-31G(2df,p) (6D, 7F)
 There are   452 symmetry adapted cartesian basis functions of A   symmetry.
 There are   413 symmetry adapted basis functions of A   symmetry.
   413 basis functions,   659 primitive gaussians,   452 cartesian basis functions
    51 alpha electrons       51 beta electrons
       nuclear repulsion energy       812.8414500312 Hartrees.
 NAtoms=   22 NActive=   22 NUniq=   22 SFac= 1.00D+00 NAtFMM=   60 NAOKFM=F Big=F
 Integral buffers will be    131072 words long.
 Raffenetti 2 integral format.
 Two-electron integral symmetry is turned on.
 One-electron integrals computed using PRISM.
 PrsmSu:  requested number of processors reduced to:  13 ShMem   1 Linda.
 NBasis=   413 RedAO= T EigKep=  1.75D-04  NBF=   413
 NBsUse=   413 1.00D-06 EigRej= -1.00D+00 NBFU=   413
 Initial guess from the checkpoint file:  "CdNC1dCqNdNrCdNSNCCdC1.chk"
 B after Tr=    -0.000000    0.000000   -0.000000
         Rot=    0.999277   -0.037809    0.002093    0.003533 Ang=  -4.36 deg.
 ExpMin= 1.17D-01 ExpMax= 2.19D+04 ExpMxC= 3.30D+03 IAcc=2 IRadAn=         4 AccDes= 0.00D+00
 Harris functional with IExCor=  402 and IRadAn=       4 diagonalized for initial guess.
 HarFok:  IExCor=  402 AccDes= 0.00D+00 IRadAn=         4 IDoV= 1 UseB2=F ITyADJ=14
 ICtDFT=  3500011 ScaDFX=  1.000000  1.000000  1.000000  1.000000
 FoFCou: FMM=F IPFlag=           0 FMFlag=      100000 FMFlg1=           0
         NFxFlg=           0 DoJE=T BraDBF=F KetDBF=T FulRan=T
         wScrn=  0.000000 ICntrl=       500 IOpCl=  0 I1Cent=   200000004 NGrid=           0
         NMat0=    1 NMatS0=      1 NMatT0=    0 NMatD0=    1 NMtDS0=    0 NMtDT0=    0
 Petite list used in FoFCou.
 Requested convergence on RMS density matrix=1.00D-08 within 128 cycles.
 Requested convergence on MAX density matrix=1.00D-06.
 Requested convergence on             energy=1.00D-06.
 No special actions if energy rises.
 Integral accuracy reduced to 1.0D-05 until final iterations.
 EnCoef did     4 forward-backward iterations
 EnCoef did     1 forward-backward iterations
 Initial convergence to 1.0D-05 achieved.  Increase integral accuracy.
 SCF Done:  E(RB3LYP) =  -942.820877634     A.U. after   24 cycles
            NFock= 24  Conv=0.31D-08     -V/T= 2.0056
 PrsmSu:  requested number of processors reduced to:  13 ShMem   1 Linda.
 Calling FoFJK, ICntrl=      2127 FMM=F ISym2X=0 I1Cent= 0 IOpClX= 0 NMat=1 NMatS=1 NMatT=0.
 ***** Axes restored to original set *****
 -------------------------------------------------------------------
 Center     Atomic                   Forces (Hartrees/Bohr)
 Number     Number              X              Y              Z
 -------------------------------------------------------------------
      1        6           0.057521197    0.021536523   -0.010877985
      2        7          -0.170150067   -0.043574251    0.061480057
      3        6          -0.107085481    0.069048727    0.039289613
      4        6           0.019331403   -0.020826816    0.015588255
      5        7           0.040525365   -0.011144632   -0.013675434
      6        7          -0.023841911    0.006298895    0.016479954
      7        6           0.146463543   -0.005384314   -0.089687506
      8        7          -0.026743471   -0.024821309    0.002493445
      9       16          -0.020021001   -0.014642186    0.019971676
     10        7          -0.074115614    0.053269009   -0.038377931
     11        6           0.074091423    0.007328790   -0.029567665
     12        6          -0.064369857   -0.011598781   -0.021820072
     13        6           0.079663347    0.001436937   -0.022451770
     14        1           0.063967714    0.028442233   -0.039568962
     15        1           0.013675953    0.000395443   -0.007750148
     16        1           0.004035026   -0.007176988    0.003206923
     17        1           0.011178994   -0.014737347   -0.013546708
     18        1          -0.003487373   -0.024974316    0.009648422
     19        1          -0.066519058   -0.017581075   -0.013790261
     20        1          -0.004389362   -0.006868205    0.054057076
     21        1           0.083764864    0.017775067    0.031310176
     22        1          -0.033495634   -0.002201405    0.047588848
 -------------------------------------------------------------------
 Cartesian Forces:  Max     0.170150067 RMS     0.047282181

 GradGradGradGradGradGradGradGradGradGradGradGradGradGradGradGradGradGrad
 Berny optimization.
 Using GEDIIS/GDIIS optimizer.
 FormGI is forming the generalized inverse of G from B-inverse, IUseBI=4.
 Internal  Forces:  Max     0.152060064 RMS     0.031969183
 Search for a local minimum.
 Step number   2 out of a maximum of  112
 All quantities printed in internal units (Hartrees-Bohrs-Radians)
 Mixed Optimization -- RFO/linear search
 Update second derivatives using D2CorX and points    1    2
 DE= -9.03D-02 DEPred=-1.72D-01 R= 5.24D-01
 TightC=F SS=  1.41D+00  RLast= 3.54D-01 DXNew= 5.0454D-01 1.0608D+00
 Trust test= 5.24D-01 RLast= 3.54D-01 DXMaxT set to 5.05D-01
 ITU=  1  0
 Use linear search instead of GDIIS.
     Eigenvalues ---    0.00229   0.00230   0.00230   0.00230   0.00236
     Eigenvalues ---    0.00346   0.00358   0.00467   0.00917   0.01761
     Eigenvalues ---    0.02674   0.02828   0.03260   0.03480   0.03881
     Eigenvalues ---    0.05241   0.06052   0.06808   0.07462   0.08128
     Eigenvalues ---    0.09354   0.10099   0.10327   0.10913   0.12344
     Eigenvalues ---    0.12964   0.13906   0.14212   0.15313   0.15669
     Eigenvalues ---    0.15951   0.15976   0.16000   0.16000   0.16000
     Eigenvalues ---    0.16000   0.16569   0.18373   0.19091   0.20281
     Eigenvalues ---    0.21928   0.22306   0.22757   0.23587   0.24115
     Eigenvalues ---    0.24773   0.25000   0.25110   0.25841   0.29044
     Eigenvalues ---    0.30836   0.32070   0.37618   0.44252   0.45032
     Eigenvalues ---    0.59245   0.60609   0.69923   0.88843   1.74317
 RFO step:  Lambda=-5.24155170D-01 EMin= 2.29493830D-03
 Quartic linear search produced a step of  1.40439.
 Maximum step size (   0.505) exceeded in Quadratic search.
    -- Step size scaled by   0.660
 Iteration  1 RMS(Cart)=  0.13688621 RMS(Int)=  0.05754852
 Iteration  2 RMS(Cart)=  0.15090365 RMS(Int)=  0.02280090
 Iteration  3 RMS(Cart)=  0.05477099 RMS(Int)=  0.00600336
 Iteration  4 RMS(Cart)=  0.00803179 RMS(Int)=  0.00381942
 Iteration  5 RMS(Cart)=  0.00091138 RMS(Int)=  0.00379834
 Iteration  6 RMS(Cart)=  0.00000389 RMS(Int)=  0.00379834
 Iteration  7 RMS(Cart)=  0.00000004 RMS(Int)=  0.00379834
 Variable       Old X    -DE/DX   Delta X   Delta X   Delta X     New X
                                 (Linear)    (Quad)   (Total)
    R1        2.73599  -0.15206  -0.11871  -0.21939  -0.33810   2.39789
    R2        2.54061  -0.07522  -0.07559  -0.14455  -0.22014   2.32047
    R3        2.10245  -0.00707  -0.00671  -0.01031  -0.01703   2.08542
    R4        3.42876   0.02612   0.02659   0.05169   0.07828   3.50704
    R5        2.45460   0.05296   0.04044   0.05294   0.09527   2.54987
    R6        2.85149   0.09171   0.04226   0.14450   0.18783   3.03933
    R7        2.19056  -0.01305   0.00772  -0.01982  -0.01169   2.17887
    R8        2.51439   0.01751   0.01324   0.01778   0.03102   2.54541
    R9        2.82279   0.02801   0.01254   0.03146   0.04198   2.86477
   R10        2.34288   0.02580   0.01329   0.02045   0.03374   2.37662
   R11        1.93360   0.00853   0.00738   0.01051   0.01788   1.95148
   R12        2.40635  -0.02468  -0.03460  -0.01973  -0.05433   2.35203
   R13        2.86921   0.00385   0.01349   0.00121   0.01363   2.88283
   R14        3.63558   0.00416   0.00052   0.00744   0.00796   3.64354
   R15        3.06444   0.02016   0.04791   0.03387   0.08178   3.14622
   R16        2.95258  -0.03411  -0.02324  -0.05482  -0.07806   2.87451
   R17        1.92165   0.00855   0.00334   0.01079   0.01412   1.93578
   R18        2.25361  -0.03427  -0.03580  -0.05656  -0.09237   2.16124
   R19        2.31527  -0.04928  -0.04639  -0.08464  -0.13103   2.18424
   R20        2.04112   0.04163   0.04012   0.05576   0.09588   2.13700
   R21        3.35525  -0.07477   0.02536  -0.13806  -0.11269   3.24256
   R22        3.02397   0.00534   0.11591   0.02258   0.13849   3.16247
   R23        2.73403   0.03590   0.05205   0.07790   0.12993   2.86396
    A1        2.44027  -0.03850  -0.03876  -0.07310  -0.11182   2.32845
    A2        2.13594   0.00522   0.00490   0.00997   0.01491   2.15085
    A3        1.70284   0.03337   0.03398   0.06351   0.09751   1.80035
    A4        2.77330  -0.04598  -0.04465  -0.07495  -0.11960   2.65370
    A5        1.49734   0.05010   0.04617   0.08896   0.13470   1.63205
    A6        2.24053   0.02629  -0.00322   0.04343   0.03909   2.27962
    A7        2.35402  -0.02587  -0.03442  -0.05188  -0.08649   2.26753
    A8        2.37323  -0.02287  -0.01301  -0.03376  -0.04601   2.32722
    A9        1.60301  -0.00233   0.02498   0.00011   0.02497   1.62797
   A10        2.77954  -0.01188  -0.00681  -0.01835  -0.02456   2.75498
   A11        2.27863  -0.01147  -0.00976  -0.02788  -0.03797   2.24067
   A12        2.16699  -0.01876  -0.01143  -0.03058  -0.04201   2.12497
   A13        1.83389   0.00049   0.00105   0.00097   0.00201   1.83590
   A14        2.58304   0.01657   0.05044   0.03774   0.08788   2.67092
   A15        1.32815  -0.01837  -0.01258  -0.02218  -0.03446   1.29370
   A16        2.06820  -0.00147   0.00286   0.00582   0.01124   2.07944
   A17        2.22077  -0.01842  -0.00741  -0.03216  -0.04045   2.18032
   A18        1.80992   0.02439   0.01909   0.03887   0.05558   1.86550
   A19        1.62596   0.05121   0.09204   0.10244   0.18978   1.81574
   A20        1.34298  -0.02491  -0.02212  -0.05484  -0.09128   1.25169
   A21        2.50738   0.00309  -0.00061   0.00725  -0.01760   2.48978
   A22        1.43529   0.03503   0.03403   0.06286   0.09586   1.53115
   A23        1.70358  -0.00668   0.00038   0.00308  -0.00299   1.70059
   A24        2.42277   0.01044   0.01010   0.02199   0.02249   2.44526
   A25        2.76494   0.01580   0.02333   0.02873   0.05133   2.81627
   A26        1.79729  -0.01368  -0.01366  -0.02300  -0.03725   1.76004
   A27        1.27483   0.06488   0.08422   0.12654   0.20963   1.48446
   A28        1.71460  -0.00092  -0.00784  -0.00234  -0.00998   1.70461
   A29        1.53478  -0.04119  -0.05138  -0.07712  -0.12729   1.40749
   A30        2.46613  -0.03688  -0.04106  -0.08429  -0.13840   2.32773
   A31        2.22421  -0.08359   0.09889  -0.13632  -0.03742   2.18678
   A32        2.96790  -0.04928   0.23299  -0.07801   0.15498   3.12288
   A33        1.41881   0.01698   0.01871   0.02522   0.04452   1.46333
   A34        1.95818   0.01877   0.15265   0.04165   0.19462   2.15280
   A35        1.58402  -0.00155  -0.02350  -0.00537  -0.02888   1.55514
   A36        1.52143  -0.02389   0.06112  -0.04016   0.02450   1.54594
    D1       -3.12716  -0.00096   0.00065  -0.00214  -0.00164  -3.12880
    D2       -0.10827   0.00330   0.00551   0.00894   0.01460  -0.09367
    D3        3.03713   0.00350   0.00403   0.00920   0.01306   3.05018
    D4       -2.91378   0.00283  -0.00782   0.00494  -0.00410  -2.91788
    D5       -2.01636   0.00327   0.02434   0.01507   0.03972  -1.97664
    D6        0.56355  -0.00174  -0.00851  -0.00796  -0.01556   0.54799
    D7       -0.09750  -0.00122  -0.00416  -0.00652  -0.01078  -0.10828
    D8        2.70147   0.00271  -0.01109   0.00070  -0.01081   2.69066
    D9       -2.49437  -0.00762  -0.02880  -0.01515  -0.04389  -2.53826
   D10        2.15363  -0.02222  -0.03724  -0.04803  -0.08662   2.06700
   D11        1.03445   0.00610   0.00630   0.02084   0.02944   1.06389
   D12       -0.60074  -0.00850  -0.00214  -0.01204  -0.01329  -0.61403
   D13        2.66338   0.01782  -0.04148   0.03554  -0.00513   2.65825
   D14       -2.09693  -0.00873   0.01488  -0.01030   0.00271  -2.09422
   D15        0.01426   0.00008  -0.04763   0.00048  -0.04505  -0.03078
   D16        1.53714  -0.02647   0.00874  -0.04536  -0.03720   1.49994
   D17       -0.90921   0.02377  -0.06694   0.03452  -0.02965  -0.93886
   D18        0.61367  -0.00278  -0.01057  -0.01132  -0.02181   0.59186
   D19       -0.07483  -0.00163  -0.02140  -0.00746  -0.02901  -0.10384
   D20       -2.40365  -0.01388   0.01265  -0.02958  -0.01677  -2.42043
   D21       -0.92876   0.01963   0.04867   0.04503   0.09262  -0.83614
   D22        2.93366   0.00200   0.01621   0.00725   0.02375   2.95741
   D23       -2.99393  -0.00429  -0.00498  -0.01049  -0.01548  -3.00941
   D24        0.47567  -0.00474  -0.00835  -0.01228  -0.01989   0.45578
   D25        0.41150  -0.00879  -0.03285  -0.01939  -0.05200   0.35950
   D26       -2.09031  -0.01870  -0.05797  -0.04669  -0.10485  -2.19516
   D27        1.88356  -0.03490  -0.04207  -0.08564  -0.12987   1.75369
   D28       -1.44570  -0.02059  -0.02185  -0.04189  -0.06171  -1.50741
   D29        2.39252   0.01558   0.02183   0.04232   0.05755   2.45008
   D30        0.55082  -0.00494  -0.00709  -0.01998  -0.02788   0.52295
   D31       -2.77844   0.00937   0.01314   0.02378   0.04028  -2.73816
   D32        1.05979   0.04554   0.05682   0.10798   0.15955   1.21933
   D33       -1.86513  -0.01753  -0.01843  -0.04501  -0.06021  -1.92534
   D34        1.08879  -0.00322   0.00180  -0.00126   0.00795   1.09674
   D35       -1.35617   0.03295   0.04548   0.08294   0.12721  -1.22896
   D36        0.71052  -0.04073  -0.09353  -0.09227  -0.17931   0.53121
   D37        2.37016   0.00780  -0.00238   0.00736   0.00389   2.37405
   D38       -2.29511   0.03663   0.03554   0.08175   0.11190  -2.18322
   D39       -0.29732  -0.01549   0.00796  -0.03555  -0.02759  -0.32491
   D40        1.52185  -0.01413   0.04215  -0.02134   0.02573   1.54758
   D41       -0.04309  -0.00173   0.05688   0.00302   0.05499   0.01190
   D42       -0.61712  -0.01728   0.00590  -0.02152  -0.01473  -0.63185
   D43        1.34089   0.00173   0.16046   0.02068   0.18081   1.52170
         Item               Value     Threshold  Converged?
 Maximum Force            0.152060     0.000450     NO 
 RMS     Force            0.031969     0.000300     NO 
 Maximum Displacement     1.272827     0.001800     NO 
 RMS     Displacement     0.344437     0.001200     NO 
 Predicted change in Energy=-1.343550D-01
 GradGradGradGradGradGradGradGradGradGradGradGradGradGradGradGradGradGrad

                          Input orientation:                          
 ---------------------------------------------------------------------
 Center     Atomic      Atomic             Coordinates (Angstroms)
 Number     Number       Type             X           Y           Z
 ---------------------------------------------------------------------
      1          6           0        1.247985    0.781560   -0.103062
      2          7           0        2.500400    0.693013   -0.286762
      3          6           0        4.065247    1.161694   -1.167536
      4          6           0        4.768961    0.141354   -0.634252
      5          7           0        5.023455   -0.921251    0.153424
      6          7           0        4.209267   -1.303657    1.032379
      7          6           0        5.030312    0.296124   -2.119484
      8          7           0        6.143851   -0.022179   -2.575378
      9         16           0        6.845828    2.340220   -3.717675
     10          7           0        8.598788    2.535356   -2.938866
     11          6           0        9.062845    4.075163   -3.369636
     12          6           0        7.585380    3.169161   -1.998058
     13          6           0        5.955497    2.666070   -1.811902
     14          1           0        0.471287    0.251057    0.686331
     15          1           0        0.607706    1.503507   -0.638482
     16          1           0        4.707113   -2.037669    1.561341
     17          1           0        4.508180    1.439773   -2.983594
     18          1           0        9.533026    2.115606   -2.920415
     19          1           0        9.274459    5.197858   -3.316959
     20          1           0        9.527916    3.879200   -4.409488
     21          1           0        9.492431    4.132473   -2.325128
     22          1           0        4.367646    2.160497   -1.657818
 ---------------------------------------------------------------------
[...]
     11        6           0.036761758    0.045086733    0.019416660
     12        6          -0.022000052   -0.044265665   -0.015169097
     13        6          -0.010241134    0.024912782    0.023923485
     14        1           0.010040156   -0.000551091   -0.004002520
     15        1           0.002488555    0.000228745   -0.004058279
     16        1          -0.000833823   -0.002836333    0.001831832
     17        1          -1.336762116   -1.844045888    0.531638078
     18        1           0.001657774   -0.021536244    0.010005099
     19        1          -0.010745357   -0.020158881   -0.009875861
     20        1          -0.015023757   -0.006097904   -0.008685222
     21        1          -0.002090546   -0.007180592   -0.000137895
     22        1          -0.016454028   -0.019014675    0.017512784
 -------------------------------------------------------------------
 Cartesian Forces:  Max     1.887083776 RMS     0.411885287

 GradGradGradGradGradGradGradGradGradGradGradGradGradGradGradGradGradGrad
 Berny optimization.
 Using GEDIIS/GDIIS optimizer.
 FormGI is forming the generalized inverse of G from B-inverse, IUseBI=4.
 Internal  Forces:  Max     4.026917147 RMS     0.804407476
 Search for a local minimum.
 Step number  16 out of a maximum of  112
 All quantities printed in internal units (Hartrees-Bohrs-Radians)
 Mixed Optimization -- RFO/linear search
 Iteration  1 RMS(Cart)=  0.17952281 RMS(Int)=  0.03706792
 Iteration  2 RMS(Cart)=  0.18569669 RMS(Int)=  0.02005359
 Iteration  3 RMS(Cart)=  0.05470360 RMS(Int)=  0.00104238
 Iteration  4 RMS(Cart)=  0.00191626 RMS(Int)=  0.00000150
 Iteration  5 RMS(Cart)=  0.00000300 RMS(Int)=  0.00000000
 Iteration  6 RMS(Cart)=  0.00000000 RMS(Int)=  0.00000000
 Update second derivatives using D2CorX and points   15   14
 DE=  6.59D-02 DEPred=-1.00D-01 R=-6.57D-01
 Trust test=-6.57D-01 RLast= 8.54D-01 DXMaxT set to 7.50D-01
 ITU= -1 -1  0  1  1  1  1  1  1  0  0  0  0  1  1  0
 Use linear search instead of GDIIS.
 Energy rises -- skip Quadratic/GDIIS search.
 Quartic linear search produced a step of -0.65125.
 Iteration  1 RMS(Cart)=  0.24066517 RMS(Int)=  0.02629033
 Iteration  2 RMS(Cart)=  0.17681516 RMS(Int)=  0.00883711
 Iteration  3 RMS(Cart)=  0.01278815 RMS(Int)=  0.00060366
 Iteration  4 RMS(Cart)=  0.00006058 RMS(Int)=  0.00060261
 Iteration  5 RMS(Cart)=  0.00000006 RMS(Int)=  0.00060261
 Variable       Old X    -DE/DX   Delta X   Delta X   Delta X     New X
                                 (Linear)    (Quad)   (Total)
    R1        2.41106   0.00755   0.04027   0.00000   0.07954   2.49060
    R2        2.10071  -0.01122   0.01609   0.00000   0.00524   2.10595
    R3        2.05732  -0.00910   0.02669   0.00000   0.02624   2.08356
    R4        2.71050   0.01135  -0.02528   0.00000  -0.08745   2.62305
    R5        2.48893   0.01870   0.02788   0.00000   0.05185   2.54078
    R6        4.29118   0.02486   0.00003   0.00000   0.05316   4.34434
    R7        2.08587   0.02258   0.05072   0.00000   0.07040   2.15628
    R8        2.68310   0.00722   0.02914   0.00000   0.03727   2.72037
    R9        2.71190   0.00792   0.02865   0.00000   0.02187   2.73376
   R10        2.33470   0.02248   0.03225   0.00000   0.04754   2.38224
   R11        1.93279   0.00875   0.03121   0.00000   0.04389   1.97668
   R12        2.10878   0.14033   0.07139   0.00000   0.12889   2.23767
   R13        3.45257   0.00534  -0.02231   0.00000   0.01292   3.46548
   R14        5.28779  -0.03423  -0.11589   0.00000  -0.16140   5.12639
   R15        2.75114   0.01972   0.08146   0.00000   0.09772   2.84885
   R16        2.47655   0.16424   0.11007   0.00000   0.16334   2.63989
   R17        1.86119   0.02951   0.07020   0.00000   0.11374   1.97492
   R18        2.03397   0.00883   0.21428   0.00000   0.24629   2.28026
   R19        2.04366   0.00560   0.05499   0.00000   0.07231   2.11597
   R20        2.11322   0.00133   0.07387   0.00000   0.08374   2.19696
   R21        2.36743   0.09476   0.11572   0.00000   0.18089   2.54832
   R22        3.56192   0.05190   0.08275   0.00000   0.15588   3.71779
   R23        3.46919  -0.01304  -0.02589   0.00000  -0.02387   3.44532
    A1        2.03429  -0.00089   0.00515   0.00000   0.01507   2.04937
    A2        2.18400   0.00523  -0.00154   0.00000  -0.00216   2.18183
    A3        2.06485  -0.00434  -0.00362   0.00000  -0.01288   2.05197
    A4        1.88600   0.10632   0.03722   0.00000   0.12882   2.01482
    A5        2.24468  -0.01064  -0.00709   0.00000  -0.00827   2.23641
    A6        2.77962  -0.01204   0.00208   0.00000   0.00447   2.78409
    A7        1.95197   0.03597  -0.02108   0.00000   0.01412   1.96609
    A8        2.08590  -0.02491   0.02612   0.00000  -0.00576   2.08013
    A9        1.49646  -0.02387   0.01993   0.00000  -0.01003   1.48643
   A10        2.32921   0.00373   0.00948   0.00000  -0.00128   2.32793
   A11        2.00027  -0.00581   0.01855   0.00000   0.00889   2.00917
   A12        1.97430   0.01476   0.01684   0.00000   0.03631   2.01061
   A13        1.82855   0.00591   0.00350   0.00000   0.00941   1.83796
   A14        3.00496   0.00136   0.00479   0.00000   0.00923   3.01418
   A15        1.21002   0.00591  -0.02351   0.00000  -0.01612   1.19390
   A16        2.58427   0.00121  -0.01813   0.00000   0.00045   2.58472
   A17        1.76781   0.00682  -0.00825   0.00000  -0.01479   1.75302
   A18        1.93080  -0.00803   0.02646   0.00000   0.01449   1.94529
   A19        2.15351   0.00228   0.02230   0.00000   0.08299   2.23650
   A20        1.12287   0.09827  -0.02867   0.00000  -0.08453   1.03835
   A21        2.24228  -0.05063  -0.00882   0.00000  -0.09052   2.15177
   A22        2.08725  -0.08595  -0.01519   0.00000  -0.02549   2.06177
   A23        1.77781   0.02839  -0.00851   0.00000   0.02715   1.80496
   A24        2.01608   0.00698   0.03661   0.00000   0.05532   2.07141
   A25        2.08176  -0.01489   0.01510   0.00000  -0.04087   2.04089
   A26        1.95359   0.00055  -0.00529   0.00000  -0.00426   1.94932
   A27        1.85876   0.00888   0.02432   0.00000   0.05559   1.91434
   A28        2.10775  -0.00026   0.00630   0.00000   0.00164   2.10939
   A29        1.62573   0.01296  -0.01961   0.00000   0.03775   1.66348
   A30        1.73319   0.00451  -0.03436   0.00000  -0.01873   1.71446
   A31        1.92366   0.41479   0.15286   0.00000   0.37855   2.30220
   A32        3.09668  -0.07949  -0.25968   0.00000  -0.23133   2.86534
   A33        1.46541  -0.00388   0.03636   0.00000   0.02424   1.48965
   A34        2.88850  -0.03518   0.01828   0.00000  -0.00580   2.88269
   A35        1.81423   0.02200  -0.05646   0.00000  -0.02075   1.79349
   A36        1.22665  -0.02736   0.06737   0.00000   0.03249   1.25914
    D1        3.09851   0.00197  -0.01010   0.00000  -0.00503   3.09348
    D2       -0.05349   0.00247  -0.01018   0.00000  -0.00055  -0.05403
    D3        3.13193   0.00053  -0.00006   0.00000   0.00419   3.13612
    D4       -2.69613   0.00859  -0.01940   0.00000   0.01513  -2.68101
    D5       -2.06974  -0.00983   0.01003   0.00000  -0.03185  -2.10159
    D6        0.48460  -0.00390   0.01574   0.00000   0.01223   0.49684
    D7       -0.16447  -0.00325   0.01151   0.00000   0.00690  -0.15756
    D8        2.93537   0.01126  -0.02838   0.00000   0.01034   2.94571
    D9       -2.67289   0.00337   0.00086   0.00000   0.01406  -2.65882
   D10        2.01936   0.01969  -0.02266   0.00000   0.02783   2.04719
   D11        1.01057  -0.00960  -0.00021   0.00000  -0.02863   0.98194
   D12       -0.58037   0.00672  -0.02373   0.00000  -0.01486  -0.59523
   D13        2.76519  -0.02236  -0.01995   0.00000  -0.06195   2.70325
   D14       -2.38955   0.00665   0.00638   0.00000  -0.00184  -2.39139
   D15       -0.34125  -0.03377   0.01339   0.00000  -0.06444  -0.40569
   D16        0.78719  -0.00476   0.03972   0.00000  -0.00433   0.78286
   D17       -0.57444  -0.02731  -0.01690   0.00000  -0.04643  -0.62087
   D18        0.55399   0.00170   0.00943   0.00000   0.01368   0.56768
   D19       -0.03150   0.00051  -0.01412   0.00000   0.00162  -0.02988
   D20       -2.97255   0.00034   0.00694   0.00000  -0.01895  -2.99149
   D21       -0.41015   0.00336   0.00183   0.00000   0.03641  -0.37375
   D22        2.76453   0.00289  -0.00366   0.00000  -0.02006   2.74448
   D23       -3.08874   0.00024  -0.00120   0.00000  -0.00383  -3.09256
   D24        0.33695   0.00104   0.02393   0.00000   0.02150   0.35845
   D25        0.46428  -0.00046   0.02270   0.00000   0.04439   0.50867
   D26       -2.65861  -0.00081   0.02016   0.00000   0.01242  -2.64619
   D27        1.17673   0.03004  -0.00193   0.00000  -0.07898   1.09776
   D28       -1.42524   0.05522  -0.03318   0.00000  -0.01136  -1.43661
   D29        2.98136   0.04516  -0.00311   0.00000  -0.01647   2.96489
   D30       -0.16995  -0.04909   0.03439   0.00000   0.01430  -0.15566
   D31       -2.77193  -0.02391   0.00314   0.00000   0.08191  -2.69002
   D32        1.63467  -0.03397   0.03321   0.00000   0.07680   1.71147
   D33       -2.41638  -0.02177   0.00343   0.00000  -0.06750  -2.48388
   D34        1.26483   0.00342  -0.02781   0.00000   0.00012   1.26494
   D35       -0.61176  -0.00664   0.00225   0.00000  -0.00499  -0.61675
   D36        0.56251  -0.07097  -0.08103   0.00000  -0.22151   0.34100
   D37        2.57694  -0.00641  -0.06073   0.00000  -0.14403   2.43291
   D38       -1.57340  -0.03700  -0.05203   0.00000  -0.07204  -1.64543
   D39       -2.30452  -0.22278  -0.21233   0.00000  -0.57288  -2.87739
   D40       -2.82992  -0.08518   0.01017   0.00000  -0.17912  -3.00904
   D41        2.25411  -0.13158   0.00238   0.00000  -0.23550   2.01861
   D42       -0.71512  -0.00489  -0.01772   0.00000  -0.02429  -0.73941
   D43        2.18370  -0.04441   0.00164   0.00000  -0.03374   2.14996
         Item               Value     Threshold  Converged?
 Maximum Force            4.026917     0.000450     NO 
 RMS     Force            0.804407     0.000300     NO 
 Maximum Displacement     1.952490     0.001800     NO 
 RMS     Displacement     0.405499     0.001200     NO 
 Predicted change in Energy=-1.024782D-02
 GradGradGradGradGradGradGradGradGradGradGradGradGradGradGradGradGradGrad

                          Input orientation:                          
 ---------------------------------------------------------------------
 Center     Atomic      Atomic             Coordinates (Angstroms)
 Number     Number       Type             X           Y           Z
 ---------------------------------------------------------------------
      1          6           0        2.473577    2.002806   -0.547904
      2          7           0        2.984733    0.921467    0.005690
      3          6           0        4.188145    0.487702   -0.533156
      4          6           0        4.690049   -0.759553   -0.547069
      5          7           0        4.297498   -1.990463    0.087829
      6          7           0        3.291331   -1.907890    0.842810
      7          6           0        5.716630   -0.890205   -1.557933
      8          7           0        6.609149   -1.524985   -2.008054
      9         16           0        6.905076    1.240077   -2.592486
     10          7           0        8.237270    3.600757   -2.699992
     11          6           0        8.433841    4.505594   -3.889669
     12          6           0        6.964125    3.530281   -2.129326
     13          6           0        6.249755    2.493564   -1.646238
     14          1           0        1.484514    2.353035   -0.172366
     15          1           0        2.951914    2.589494   -1.349566
     16          1           0        3.175262   -2.862812    1.253659
     17          1           0        5.409105    0.626480   -2.541863
     18          1           0        9.050763    3.828824   -2.084838
     19          1           0        7.442058    4.987950   -4.379299
     20          1           0        9.284268    4.164248   -4.533129
     21          1           0        8.885221    5.518597   -3.540843
     22          1           0        4.803295    1.339963   -0.977276
 ---------------------------------------------------------------------
                    Distance matrix (angstroms):
                    1          2          3          4          5
     1  C    0.000000
     2  N    1.317969   0.000000
     3  C    2.288121   1.388058   0.000000
     4  C    3.541663   2.457534   1.344525   0.000000
     5  N    4.435882   3.195220   2.557124   1.439560   0.000000
     6  N    4.230408   2.966485   2.904552   2.281853   1.260630
     7  C    4.461734   3.631850   2.298927   1.446646   2.435783
     8  N    5.628526   4.814216   3.476707   2.530476   3.154858
     9  S    4.939661   4.713928   3.491220   3.617816   4.941653
    10  N    6.356500   6.487562   5.548126   6.019150   7.386169
    11  C    7.277093   7.596879   6.740591   7.273976   8.667674
    12  C    4.999910   5.215340   4.417139   5.106627   6.519609
    13  C    3.963168   3.982552   3.084261   3.771422   5.188910
    14  H    1.114421   2.081286   3.304429   4.483755   5.181366
    15  H    1.102574   2.149444   2.571443   3.857620   4.985249
    16  H    5.235669   3.989297   3.929960   3.156090   1.838360
    17  H    3.806241   3.529111   2.354762   2.533245   3.872899
    18  H    6.996848   7.044129   6.100480   6.514120   7.821643
    19  H    6.948127   7.458697   6.755220   7.435949   8.862378
    20  H    8.181647   8.414312   7.448976   7.825556   9.170692
    21  H    7.901117   8.278119   7.511232   8.122642   9.518426
    22  H    2.459940   2.109153   1.141052   2.146129   3.532990
                    6          7          8          9         10
     6  N    0.000000
     7  C    3.561085   0.000000
     8  N    4.391123   1.184121   0.000000
     9  S    5.896618   2.649680   2.841602   0.000000
    10  N    8.207250   5.275099   5.422434   2.712768   0.000000
    11  C    9.485491   6.475714   6.575549   3.831893   1.507547
    12  C    7.203938   4.628546   5.069165   2.337314   1.396970
    13  C    5.858364   3.426647   4.050778   1.701781   2.507288
    14  H    4.738212   5.509012   6.683612   6.039713   7.317473
    15  H    5.014796   4.449200   5.544178   4.358126   5.548090
    16  H    1.046014   4.272562   4.921396   6.748188   9.112246
    17  H    4.729061   1.833855   2.520686   1.617712   4.107292
    18  H    8.640143   5.802008   5.884780   3.400484   1.045083
    19  H    9.594351   6.744621   6.981036   4.186598   2.318779
    20  H   10.083991   6.864934   6.774926   4.239979   2.184975
    21  H   10.279140   7.419207   7.559232   4.808959   2.192026
    22  H    4.018370   2.478910   3.539991   2.652614   4.457705
                   11         12         13         14         15
    11  C    0.000000
    12  C    2.492008   0.000000
    13  C    3.721758   1.348511   0.000000
    14  H    8.169761   5.936475   4.989946   0.000000
    15  H    6.338382   4.194157   3.312548   1.896041   0.000000
    16  H   10.411527   8.165275   6.822952   5.665443   6.046016
    17  H    5.100307   3.319689   2.234913   4.898767   3.363448
    18  H    2.023864   2.108355   3.133837   7.942519   6.266780
    19  H    1.206664   2.723159   3.887566   7.754572   5.923958
    20  H    1.119725   3.400477   4.509279   9.117724   7.260415
    21  H    1.162582   3.104253   4.436895   8.725702   6.970328
    22  H    5.628865   3.285408   1.967372   3.562092   2.264407
                   16         17         18         19         20
    16  H    0.000000
    17  H    5.618826   0.000000
    18  H    9.510261   4.870887   0.000000
    19  H   10.562681   5.150873   3.032500   0.000000
    20  H   10.962958   5.612292   2.482169   2.023829   0.000000
    21  H   11.217794   6.083925   2.236669   1.751374   1.725726
    22  H    5.029004   1.823183   5.045999   5.643106   6.379639
                   21         22
    21  H    0.000000
    22  H    6.379262   0.000000
 Stoichiometry    C7H9N5S
 Framework group  C1[X(C7H9N5S)]
 Deg. of freedom    60
 Full point group                 C1      NOp   1
 Largest Abelian subgroup         C1      NOp   1
 Largest concise Abelian subgroup C1      NOp   1
                         Standard orientation:                         
 ---------------------------------------------------------------------
 Center     Atomic      Atomic             Coordinates (Angstroms)
 Number     Number       Type             X           Y           Z
 ---------------------------------------------------------------------
      1          6           0        1.689790   -2.931078   -0.536061
      2          7           0        2.336173   -1.926779    0.021268
      3          6           0        1.647022   -0.722522    0.060555
      4          6           0        2.152753    0.522745    0.096511
      5          7           0        3.482718    1.045126    0.271560
      6          7           0        4.379146    0.178962    0.459616
      7          6           0        1.160462    1.493417   -0.310845
      8          7           0        0.831731    2.629277   -0.373309
      9         16           0       -1.421706    0.899120   -0.316013
     10          7           0       -3.825659    0.023083    0.585473
     11          6           0       -5.072200   -0.261368   -0.213228
     12          6           0       -2.749573   -0.859345    0.463478
     13          6           0       -1.419463   -0.652179    0.383647
     14          1           0        2.230053   -3.901472   -0.627635
     15          1           0        0.654744   -2.885705   -0.913274
     16          1           0        5.259701    0.721958    0.614289
     17          1           0       -0.088116    0.390568   -1.077528
     18          1           0       -4.192966    0.237264    1.540152
     19          1           0       -5.005492   -1.142116   -1.035342
     20          1           0       -5.654407    0.672845   -0.418324
     21          1           0       -5.853257   -0.800149    0.458533
     22          1           0        0.515522   -0.864820    0.098745
 ---------------------------------------------------------------------
 Rotational constants (GHZ):           1.2566374           0.3305311           0.2701291
 Standard basis: 6-31G(2df,p) (6D, 7F)
 There are   452 symmetry adapted cartesian basis functions of A   symmetry.
 There are   413 symmetry adapted basis functions of A   symmetry.
   413 basis functions,   659 primitive gaussians,   452 cartesian basis functions
    51 alpha electrons       51 beta electrons
       nuclear repulsion energy       786.0273217488 Hartrees.
 NAtoms=   22 NActive=   22 NUniq=   22 SFac= 1.00D+00 NAtFMM=   60 NAOKFM=F Big=F
 Integral buffers will be    131072 words long.
 Raffenetti 2 integral format.
 Two-electron integral symmetry is turned on.
 One-electron integrals computed using PRISM.
 PrsmSu:  requested number of processors reduced to:  13 ShMem   1 Linda.
 NBasis=   413 RedAO= T EigKep=  2.19D-04  NBF=   413
 NBsUse=   413 1.00D-06 EigRej= -1.00D+00 NBFU=   413
 Lowest energy guess from the checkpoint file:  "CdNC1dCqNdNrCdNSNCCdC1.chk"
 B after Tr=     0.000000   -0.000000   -0.000000
         Rot=    0.999444   -0.012822    0.003595   -0.030557 Ang=  -3.82 deg.
 B after Tr=     0.000000   -0.000000   -0.000000
         Rot=    0.998547   -0.049961   -0.002466    0.020062 Ang=  -6.18 deg.
 Requested convergence on RMS density matrix=1.00D-08 within 128 cycles.
 Requested convergence on MAX density matrix=1.00D-06.
 Requested convergence on             energy=1.00D-06.
 No special actions if energy rises.
 Integral accuracy reduced to 1.0D-05 until final iterations.
 Initial convergence to 1.0D-05 achieved.  Increase integral accuracy.
slurmstepd: error: *** JOB 27446910 ON lewis4-r630-hpc4-node302 CANCELLED AT 2023-05-16T16:39:17 DUE TO TIME LIMIT ***
