### Starting Gaussian ###
 Entering Gaussian System, Link 0=g16
 Initial command:
 /cluster/software/gaussian/gaussian-16-A.03/avx2/g16/l1.exe "/local/scratch/cz9n3/Gau-5681.inp" -scrdir="/local/scratch/cz9n3/"
 Entering Link 1 = /cluster/software/gaussian/gaussian-16-A.03/avx2/g16/l1.exe PID=      5682.
  
 Copyright (c) 1988,1990,1992,1993,1995,1998,2003,2009,2016,
            Gaussian, Inc.  All Rights Reserved.
  
 This is part of the Gaussian(R) 16 program.  It is based on
 the Gaussian(R) 09 system (copyright 2009, Gaussian, Inc.),
 the Gaussian(R) 03 system (copyright 2003, Gaussian, Inc.),
 the Gaussian(R) 98 system (copyright 1998, Gaussian, Inc.),
 the Gaussian(R) 94 system (copyright 1995, Gaussian, Inc.),
 the Gaussian 92(TM) system (copyright 1992, Gaussian, Inc.),
 the Gaussian 90(TM) system (copyright 1990, Gaussian, Inc.),
 the Gaussian 88(TM) system (copyright 1988, Gaussian, Inc.),
 the Gaussian 86(TM) system (copyright 1986, Carnegie Mellon
 University), and the Gaussian 82(TM) system (copyright 1983,
 Carnegie Mellon University). Gaussian is a federally registered
 trademark of Gaussian, Inc.
  
 This software contains proprietary and confidential information,
 including trade secrets, belonging to Gaussian, Inc.
  
 This software is provided under written license and may be
 used, copied, transmitted, or stored only in accord with that
 written license.
  
 The following legend is applicable only to US Government
 contracts under FAR:
  
                    RESTRICTED RIGHTS LEGEND
  
 Use, reproduction and disclosure by the US Government is
 subject to restrictions as set forth in subparagraphs (a)
 and (c) of the Commercial Computer Software - Restricted
 Rights clause in FAR 52.227-19.
  
 Gaussian, Inc.
 340 Quinnipiac St., Bldg. 40, Wallingford CT 06492
  
  
 ---------------------------------------------------------------
 Warning -- This program may not be used in any manner that
 competes with the business of Gaussian, Inc. or will provide
 assistance to any competitor of Gaussian, Inc.  The licensee
 of this program is prohibited from giving any competitor of
 Gaussian, Inc. access to this program.  By using this program,
 the user acknowledges that Gaussian, Inc. is engaged in the
 business of creating and licensing software in the field of
 computational chemistry and represents and warrants to the
 licensee that it is not a competitor of Gaussian, Inc. and that
 it will not use this program in any manner prohibited above.
 ---------------------------------------------------------------
  

 Cite this work as:
 Gaussian 16, Revision A.03,
 M. J. Frisch, G. W. Trucks, H. B. Schlegel, G. E. Scuseria, 
 M. A. Robb, J. R. Cheeseman, G. Scalmani, V. Barone, 
 G. A. Petersson, H. Nakatsuji, X. Li, M. Caricato, A. V. Marenich, 
 J. Bloino, B. G. Janesko, R. Gomperts, B. Mennucci, H. P. Hratchian, 
 J. V. Ortiz, A. F. Izmaylov, J. L. Sonnenberg, D. Williams-Young, 
 F. Ding, F. Lipparini, F. Egidi, J. Goings, B. Peng, A. Petrone, 
 T. Henderson, D. Ranasinghe, V. G. Zakrzewski, J. Gao, N. Rega, 
 G. Zheng, W. Liang, M. Hada, M. Ehara, K. Toyota, R. Fukuda, 
 J. Hasegawa, M. Ishida, T. Nakajima, Y. Honda, O. Kitao, H. Nakai, 
 T. Vreven, K. Throssell, J. A. Montgomery, Jr., J. E. Peralta, 
 F. Ogliaro, M. J. Bearpark, J. J. Heyd, E. N. Brothers, K. N. Kudin, 
 V. N. Staroverov, T. A. Keith, R. Kobayashi, J. Normand, 
 K. Raghavachari, A. P. Rendell, J. C. Burant, S. S. Iyengar, 
 J. Tomasi, M. Cossi, J. M. Millam, M. Klene, C. Adamo, R. Cammi, 
 J. W. Ochterski, R. L. Martin, K. Morokuma, O. Farkas, 
 J. B. Foresman, and D. J. Fox, Gaussian, Inc., Wallingford CT, 2016.
 
 ******************************************
 Gaussian 16:  ES64L-G16RevA.03 25-Dec-2016
                16-May-2023 
 ******************************************
 %chk=CdNCCqONrdS1CdCCdCC1d[S][S].chk
 %NProcShared=20
 Will use up to   20 processors via shared memory.
 -----------------------------
 # opt freq b3lyp/6-31g(2df,p)
 -----------------------------
 1/18=20,19=15,26=3,38=1/1,3;
 2/9=110,12=2,17=6,18=5,40=1/2;
 3/5=1,6=6,7=104,11=2,25=1,30=1,71=1,74=-5/1,2,3;
 4//1;
 5/5=2,38=5/2;
 6/7=2,8=2,9=2,10=2,28=1/1;
 7//1,2,3,16;
 1/18=20,19=15,26=3/3(2);
 2/9=110/2;
 99//99;
 2/9=110/2;
 3/5=1,6=6,7=104,11=2,25=1,30=1,71=1,74=-5/1,2,3;
 4/5=5,16=3,69=1/1;
 5/5=2,38=5/2;
 7//1,2,3,16;
 1/18=20,19=15,26=3/3(-5);
 2/9=110/2;
 6/7=2,8=2,9=2,10=2,19=2,28=1/1;
 99/9=1/99;
 -------------------
 Title Card Required
 -------------------
 Symbolic Z-matrix:
 Charge =  0 Multiplicity = 1
 C                     1.04875   0.11142  -0.01625 
 N                     2.31821   0.01005  -0.17309 
 C                     3.189     1.18149  -0.11092 
 C                     4.65313   0.74525   0.02909 
 O                     5.11041  -0.51524  -0.09467 
 N                     4.20619  -1.58071   0.24409 
 S                     6.05119   1.87767   0.11107 
 C                     6.28426   2.02363  -1.6312 
 C                     6.43159   3.22511  -2.20007 
 C                     6.26814   4.48991  -1.52618 
 C                     5.76382   4.64642  -0.29099 
 C                     5.40899   3.45815   0.52163 
 S                     4.81706   3.78574   2.13431 
 S                     4.6915    2.05892   3.20692 
 H                     0.4602   -0.81947   0.035 
 H                     0.49492   1.05578   0.05102 
 H                     2.89887   1.83386   0.71937 
 H                     3.0678    1.75498  -1.03709 
 H                     4.79922  -2.38639   0.07468 
 H                     3.55815  -1.50494  -0.54624 
 H                     6.39318   1.13102  -2.24168 
 H                     6.69337   3.25961  -3.25581 
 H                     6.55013   5.36509  -2.10853 
 H                     5.65554   5.63978   0.13088 
 

 GradGradGradGradGradGradGradGradGradGradGradGradGradGradGradGradGradGrad
 Berny optimization.
 Initialization pass.
                           ----------------------------
                           !    Initial Parameters    !
                           ! (Angstroms and Degrees)  !
 --------------------------                            --------------------------
 ! Name  Definition              Value          Derivative Info.                !
 --------------------------------------------------------------------------------
 ! R1    R(1,2)                  1.2831         estimate D2E/DX2                !
 ! R2    R(1,15)                 1.1025         estimate D2E/DX2                !
 ! R3    R(1,16)                 1.0968         estimate D2E/DX2                !
 ! R4    R(2,3)                  1.461          estimate D2E/DX2                !
 ! R5    R(3,4)                  1.5341         estimate D2E/DX2                !
 ! R6    R(3,17)                 1.0951         estimate D2E/DX2                !
 ! R7    R(3,18)                 1.0961         estimate D2E/DX2                !
 ! R8    R(4,5)                  1.3466         estimate D2E/DX2                !
 ! R9    R(4,7)                  1.801          estimate D2E/DX2                !
 ! R10   R(5,6)                  1.4379         estimate D2E/DX2                !
 ! R11   R(6,19)                 1.0146         estimate D2E/DX2                !
 ! R12   R(6,20)                 1.0249         estimate D2E/DX2                !
 ! R13   R(7,8)                  1.7638         estimate D2E/DX2                !
 ! R14   R(7,12)                 1.7547         estimate D2E/DX2                !
 ! R15   R(8,9)                  1.3375         estimate D2E/DX2                !
 ! R16   R(8,21)                 1.0869         estimate D2E/DX2                !
 ! R17   R(9,10)                 1.4424         estimate D2E/DX2                !
 ! R18   R(9,22)                 1.0883         estimate D2E/DX2                !
 ! R19   R(10,11)                1.3433         estimate D2E/DX2                !
 ! R20   R(10,23)                1.0884         estimate D2E/DX2                !
 ! R21   R(11,12)                1.4826         estimate D2E/DX2                !
 ! R22   R(11,24)                1.0846         estimate D2E/DX2                !
 ! R23   R(12,13)                1.7488         estimate D2E/DX2                !
 ! R24   R(13,14)                2.0367         estimate D2E/DX2                !
 ! A1    A(2,1,15)             117.847          estimate D2E/DX2                !
 ! A2    A(2,1,16)             125.1045         estimate D2E/DX2                !
 ! A3    A(15,1,16)            117.0361         estimate D2E/DX2                !
 ! A4    A(1,2,3)              121.409          estimate D2E/DX2                !
 ! A5    A(2,3,4)              110.1646         estimate D2E/DX2                !
 ! A6    A(2,3,17)             110.6115         estimate D2E/DX2                !
 ! A7    A(2,3,18)             108.522          estimate D2E/DX2                !
 ! A8    A(4,3,17)             110.6746         estimate D2E/DX2                !
 ! A9    A(4,3,18)             109.3555         estimate D2E/DX2                !
 ! A10   A(17,3,18)            107.4386         estimate D2E/DX2                !
 ! A11   A(3,4,5)              125.5829         estimate D2E/DX2                !
 ! A12   A(3,4,7)              124.4855         estimate D2E/DX2                !
 ! A13   A(5,4,7)              109.2169         estimate D2E/DX2                !
 ! A14   A(4,5,6)              117.2848         estimate D2E/DX2                !
 ! A15   A(5,6,19)             100.4574         estimate D2E/DX2                !
 ! A16   A(5,6,20)              99.2748         estimate D2E/DX2                !
 ! A17   A(19,6,20)            107.4291         estimate D2E/DX2                !
 ! A18   A(4,7,8)               96.2947         estimate D2E/DX2                !
 ! A19   A(4,7,12)             107.031          estimate D2E/DX2                !
 ! A20   A(8,7,12)             101.8262         estimate D2E/DX2                !
 ! A21   A(7,8,9)              120.5984         estimate D2E/DX2                !
 ! A22   A(7,8,21)             120.0063         estimate D2E/DX2                !
 ! A23   A(9,8,21)             119.1967         estimate D2E/DX2                !
 ! A24   A(8,9,10)             125.2049         estimate D2E/DX2                !
 ! A25   A(8,9,22)             117.8782         estimate D2E/DX2                !
 ! A26   A(10,9,22)            116.9167         estimate D2E/DX2                !
 ! A27   A(9,10,11)            125.05           estimate D2E/DX2                !
 ! A28   A(9,10,23)            115.1985         estimate D2E/DX2                !
 ! A29   A(11,10,23)           119.7072         estimate D2E/DX2                !
 ! A30   A(10,11,12)           120.029          estimate D2E/DX2                !
 ! A31   A(10,11,24)           120.1204         estimate D2E/DX2                !
 ! A32   A(12,11,24)           119.7971         estimate D2E/DX2                !
 ! A33   A(7,12,11)            120.4014         estimate D2E/DX2                !
 ! A34   A(7,12,13)            120.5549         estimate D2E/DX2                !
 ! A35   A(11,12,13)           115.8675         estimate D2E/DX2                !
 ! A36   A(12,13,14)           110.3458         estimate D2E/DX2                !
 ! D1    D(15,1,2,3)          -173.4868         estimate D2E/DX2                !
 ! D2    D(16,1,2,3)             7.8385         estimate D2E/DX2                !
 ! D3    D(2,1,15,16)         -178.7827         estimate D2E/DX2                !
 ! D4    D(1,2,3,4)            165.5651         estimate D2E/DX2                !
 ! D5    D(1,2,3,17)            42.8847         estimate D2E/DX2                !
 ! D6    D(1,2,3,18)           -74.7397         estimate D2E/DX2                !
 ! D7    D(2,3,4,5)              9.6346         estimate D2E/DX2                !
 ! D8    D(2,3,4,7)            178.8904         estimate D2E/DX2                !
 ! D9    D(17,3,4,5)           132.2779         estimate D2E/DX2                !
 ! D10   D(17,3,4,7)           -58.4663         estimate D2E/DX2                !
 ! D11   D(18,3,4,5)          -109.5539         estimate D2E/DX2                !
 ! D12   D(18,3,4,7)            59.7019         estimate D2E/DX2                !
 ! D13   D(3,4,5,6)            -28.5854         estimate D2E/DX2                !
 ! D14   D(7,4,5,6)            160.7801         estimate D2E/DX2                !
 ! D15   D(3,4,7,8)            -86.5258         estimate D2E/DX2                !
 ! D16   D(3,4,7,12)            17.9182         estimate D2E/DX2                !
 ! D17   D(5,4,7,8)             84.2348         estimate D2E/DX2                !
 ! D18   D(5,4,7,12)          -171.3212         estimate D2E/DX2                !
 ! D19   D(4,5,6,19)          -179.2941         estimate D2E/DX2                !
 ! D20   D(4,5,6,20)            70.9045         estimate D2E/DX2                !
 ! D21   D(5,6,19,20)         -103.2807         estimate D2E/DX2                !
 ! D22   D(4,7,8,9)            132.242          estimate D2E/DX2                !
 ! D23   D(4,7,8,21)           -52.9186         estimate D2E/DX2                !
 ! D24   D(12,7,8,9)            23.3277         estimate D2E/DX2                !
 ! D25   D(12,7,8,21)         -161.8329         estimate D2E/DX2                !
 ! D26   D(4,7,12,11)         -128.7813         estimate D2E/DX2                !
 ! D27   D(4,7,12,13)           72.187          estimate D2E/DX2                !
 ! D28   D(8,7,12,11)          -28.3359         estimate D2E/DX2                !
 ! D29   D(8,7,12,13)          172.6324         estimate D2E/DX2                !
 ! D30   D(7,8,9,10)            -7.4744         estimate D2E/DX2                !
 ! D31   D(7,8,9,22)           172.6755         estimate D2E/DX2                !
 ! D32   D(21,8,9,10)          177.6448         estimate D2E/DX2                !
 ! D33   D(21,8,9,22)           -2.2053         estimate D2E/DX2                !
 ! D34   D(8,9,10,11)           -9.9468         estimate D2E/DX2                !
 ! D35   D(8,9,10,23)          172.4931         estimate D2E/DX2                !
 ! D36   D(22,9,10,11)         169.9046         estimate D2E/DX2                !
 ! D37   D(22,9,10,23)          -7.6555         estimate D2E/DX2                !
 ! D38   D(9,10,11,12)           4.0717         estimate D2E/DX2                !
 ! D39   D(9,10,11,24)        -178.5951         estimate D2E/DX2                !
 ! D40   D(23,10,11,12)       -178.4702         estimate D2E/DX2                !
 ! D41   D(23,10,11,24)         -1.137          estimate D2E/DX2                !
 ! D42   D(10,11,12,7)          17.8612         estimate D2E/DX2                !
 ! D43   D(10,11,12,13)        177.8334         estimate D2E/DX2                !
 ! D44   D(24,11,12,7)        -159.4807         estimate D2E/DX2                !
 ! D45   D(24,11,12,13)          0.4916         estimate D2E/DX2                !
 ! D46   D(7,12,13,14)         -10.2053         estimate D2E/DX2                !
 ! D47   D(11,12,13,14)       -170.1446         estimate D2E/DX2                !
 --------------------------------------------------------------------------------
 Trust Radius=3.00D-01 FncErr=1.00D-07 GrdErr=1.00D-06 EigMax=2.50D+02 EigMin=1.00D-04
 Number of steps in this run=    117 maximum allowed number of steps=    144.
 GradGradGradGradGradGradGradGradGradGradGradGradGradGradGradGradGradGrad

                          Input orientation:                          
 ---------------------------------------------------------------------
 Center     Atomic      Atomic             Coordinates (Angstroms)
 Number     Number       Type             X           Y           Z
 ---------------------------------------------------------------------
      1          6           0        1.048750    0.111420   -0.016250
      2          7           0        2.318210    0.010050   -0.173090
      3          6           0        3.189000    1.181490   -0.110920
      4          6           0        4.653130    0.745250    0.029090
      5          8           0        5.110410   -0.515240   -0.094670
      6          7           0        4.206190   -1.580710    0.244090
      7         16           0        6.051190    1.877670    0.111070
      8          6           0        6.284260    2.023630   -1.631200
      9          6           0        6.431590    3.225110   -2.200070
     10          6           0        6.268140    4.489910   -1.526180
     11          6           0        5.763820    4.646420   -0.290990
     12          6           0        5.408990    3.458150    0.521630
     13         16           0        4.817060    3.785740    2.134310
     14         16           0        4.691500    2.058920    3.206920
     15          1           0        0.460200   -0.819470    0.035000
     16          1           0        0.494920    1.055780    0.051020
     17          1           0        2.898870    1.833860    0.719370
     18          1           0        3.067800    1.754980   -1.037090
     19          1           0        4.799220   -2.386390    0.074680
     20          1           0        3.558150   -1.504940   -0.546240
     21          1           0        6.393180    1.131020   -2.241680
     22          1           0        6.693370    3.259610   -3.255810
     23          1           0        6.550130    5.365090   -2.108530
     24          1           0        5.655540    5.639780    0.130880
 ---------------------------------------------------------------------
                    Distance matrix (angstroms):
                    1          2          3          4          5
     1  C    0.000000
     2  N    1.283123   0.000000
     3  C    2.394720   1.460963   0.000000
     4  C    3.659966   2.456267   1.534140   0.000000
     5  O    4.110466   2.842263   2.563391   1.346572   0.000000
     6  N    3.591728   2.503802   2.964870   2.378249   1.437915
     7  S    5.306624   4.183765   2.953994   1.801018   2.579421
     8  C    5.803032   4.680827   3.549801   2.655448   3.191349
     9  C    6.590835   5.600460   4.365240   3.779124   4.490929
    10  C    6.978044   6.123883   4.736001   4.364585   5.333018
    11  C    6.547793   5.777721   4.320632   4.068810   5.206555
    12  C    5.522826   4.682409   3.242168   2.858976   4.031973
    13  S    5.685569   5.081750   3.804439   3.701811   4.853126
    14  S    5.239390   4.610297   3.746392   3.438867   4.207408
    15  H    1.102531   2.045387   3.386958   4.475382   4.661955
    16  H    1.096845   2.113803   2.701869   4.169847   4.877712
    17  H    2.632657   2.111856   1.095054   2.176921   3.327438
    18  H    2.796420   2.086423   1.096071   2.160918   3.195983
    19  H    4.507033   3.458284   3.918804   3.135377   1.904395
    20  H    3.031600   1.992959   2.746394   2.567750   1.895503
    21  H    5.878355   4.705424   3.848305   2.886692   2.994215
    22  H    7.229632   6.261376   5.146798   4.612500   5.171853
    23  H    7.889478   7.094472   5.726268   5.432398   6.380181
    24  H    7.197703   6.551643   5.100847   4.997160   6.183228
                    6          7          8          9         10
     6  N    0.000000
     7  S    3.922004   0.000000
     8  C    4.563590   1.763840   0.000000
     9  C    5.832858   2.702160   1.337488   0.000000
    10  C    6.651159   3.090542   2.468568   1.442416   0.000000
    11  C    6.441248   2.812510   2.990994   2.471968   1.343327
    12  C    5.187858   1.754679   2.731048   2.916791   2.448713
    13  S    5.722314   3.042582   4.408716   4.659170   4.000084
    14  S    4.718135   3.386133   5.093676   5.798573   5.549571
    15  H    3.828269   6.208021   6.691720   7.550607   8.022404
    16  H    4.556521   5.617050   6.105985   6.709504   6.900064
    17  H    3.687040   3.210774   4.125780   4.789449   4.842425
    18  H    3.750224   3.199053   3.281883   3.850830   4.238069
    19  H    1.014645   4.444205   4.956173   6.271208   7.211379
    20  H    1.024850   4.253158   4.589076   5.776260   6.651508
    21  H    4.279656   2.491962   1.086877   2.094856   3.436527
    22  H    6.470244   3.695678   2.081916   1.088258   2.164735
    23  H    7.698897   4.163852   3.385836   2.145215   1.088389
    24  H    7.365386   3.782909   4.071456   3.444737   2.107920
                   11         12         13         14         15
    11  C    0.000000
    12  C    1.482647   0.000000
    13  S    2.742117   1.748838   0.000000
    14  S    4.481116   3.111819   2.036704   0.000000
    15  H    7.623031   6.559372   6.678120   6.020806   0.000000
    16  H    6.385215   5.490076   5.520296   5.345772   1.875640
    17  H    4.139959   2.996351   3.080802   3.074423   3.668192
    18  H    4.023135   3.288095   4.152310   4.554163   3.817951
    19  H    7.108065   5.893236   6.506734   5.439054   4.613449
    20  H    6.539829   5.403537   6.063126   5.298282   3.225679
    21  H    4.069315   3.744335   5.355463   5.783075   6.647401
    22  H    3.402567   3.994759   5.731557   6.871391   8.143754
    23  H    2.106709   3.443307   4.847635   6.529876   8.940400
    24  H    1.084649   2.230018   2.855564   4.818086   8.289913
                   16         17         18         19         20
    16  H    0.000000
    17  H    2.613633   0.000000
    18  H    2.879683   1.766327   0.000000
    19  H    5.511451   4.673057   4.624369   0.000000
    20  H    4.037002   3.630978   3.332935   1.644004   0.000000
    21  H    6.328634   4.633789   3.591450   4.503155   4.226133
    22  H    7.362932   5.677416   4.509034   6.823290   6.314453
    23  H    7.739469   5.813631   5.129084   8.241209   7.654411
    24  H    6.903002   4.736093   4.811676   8.071917   7.476935
                   21         22         23         24
    21  H    0.000000
    22  H    2.376861   0.000000
    23  H    4.239070   2.402044   0.000000
    24  H    5.148016   4.267548   2.427077   0.000000
 Stoichiometry    C8H10N2OS3
 Framework group  C1[X(C8H10N2OS3)]
 Deg. of freedom    66
 Full point group                 C1      NOp   1
 Largest Abelian subgroup         C1      NOp   1
 Largest concise Abelian subgroup C1      NOp   1
                         Standard orientation:                         
 ---------------------------------------------------------------------
 Center     Atomic      Atomic             Coordinates (Angstroms)
 Number     Number       Type             X           Y           Z
 ---------------------------------------------------------------------
      1          6           0        3.548456    0.098928    2.140088
      2          7           0        2.900881   -0.382885    1.142637
      3          6           0        1.450174   -0.245021    1.038454
      4          6           0        0.988073   -0.579534   -0.385676
      5          8           0        1.754605   -1.121159   -1.351248
      6          7           0        3.165650   -0.848692   -1.303165
      7         16           0       -0.728126   -0.561400   -0.931569
      8          6           0       -1.103286   -2.214797   -0.445091
      9          6           0       -2.213142   -2.484476    0.250875
     10          6           0       -3.110876   -1.497817    0.799638
     11          6           0       -2.866053   -0.178158    0.855217
     12          6           0       -1.632163    0.373865    0.246096
     13         16           0       -1.451383    2.111324    0.329682
     14         16           0        0.112925    2.716904   -0.825471
     15          1           0        4.649751    0.058491    2.107130
     16          1           0        3.092122    0.532369    3.038396
     17          1           0        1.137961    0.766491    1.318653
     18          1           0        0.982692   -0.940599    1.744856
     19          1           0        3.478716   -1.352861   -2.126151
     20          1           0        3.414946   -1.412522   -0.484468
     21          1           0       -0.475621   -3.035975   -0.781255
     22          1           0       -2.464539   -3.529202    0.423072
     23          1           0       -4.030220   -1.894283    1.226499
     24          1           0       -3.590110    0.491197    1.307066
 ---------------------------------------------------------------------
 Rotational constants (GHZ):           0.5877753           0.4092063           0.3135064
 Standard basis: 6-31G(2df,p) (6D, 7F)
 There are   496 symmetry adapted cartesian basis functions of A   symmetry.
 There are   454 symmetry adapted basis functions of A   symmetry.
   454 basis functions,   758 primitive gaussians,   496 cartesian basis functions
    64 alpha electrons       64 beta electrons
       nuclear repulsion energy      1246.7430193358 Hartrees.
 NAtoms=   24 NActive=   24 NUniq=   24 SFac= 1.00D+00 NAtFMM=   60 NAOKFM=F Big=F
 Integral buffers will be    131072 words long.
 Raffenetti 2 integral format.
 Two-electron integral symmetry is turned on.
 One-electron integrals computed using PRISM.
 PrsmSu:  requested number of processors reduced to:  12 ShMem   1 Linda.
 NBasis=   454 RedAO= T EigKep=  3.44D-04  NBF=   454
 NBsUse=   454 1.00D-06 EigRej= -1.00D+00 NBFU=   454
 ExpMin= 1.17D-01 ExpMax= 2.19D+04 ExpMxC= 3.30D+03 IAcc=3 IRadAn=         5 AccDes= 0.00D+00
 Harris functional with IExCor=  402 and IRadAn=       5 diagonalized for initial guess.
 HarFok:  IExCor=  402 AccDes= 0.00D+00 IRadAn=         5 IDoV= 1 UseB2=F ITyADJ=14
 ICtDFT=  3500011 ScaDFX=  1.000000  1.000000  1.000000  1.000000
 FoFCou: FMM=F IPFlag=           0 FMFlag=      100000 FMFlg1=           0
         NFxFlg=           0 DoJE=T BraDBF=F KetDBF=T FulRan=T
         wScrn=  0.000000 ICntrl=       500 IOpCl=  0 I1Cent=   200000004 NGrid=           0
         NMat0=    1 NMatS0=      1 NMatT0=    0 NMatD0=    1 NMtDS0=    0 NMtDT0=    0
 Petite list used in FoFCou.
 Requested convergence on RMS density matrix=1.00D-08 within 128 cycles.
 Requested convergence on MAX density matrix=1.00D-06.
 Requested convergence on             energy=1.00D-06.
 No special actions if energy rises.
 Integral accuracy reduced to 1.0D-05 until final iterations.
 EnCoef did     1 forward-backward iterations
 Initial convergence to 1.0D-05 achieved.  Increase integral accuracy.
 EnCoef did   100 forward-backward iterations
 SCF Done:  E(RB3LYP) =  -1689.90056375     A.U. after   23 cycles
            NFock= 23  Conv=0.65D-08     -V/T= 2.0044

 **********************************************************************

            Population analysis using the SCF density.

 **********************************************************************

 Orbital symmetries:
       Occupied  (A) (A) (A) (A) (A) (A) (A) (A) (A) (A) (A) (A)
                 (A) (A) (A) (A) (A) (A) (A) (A) (A) (A) (A) (A)
                 (A) (A) (A) (A) (A) (A) (A) (A) (A) (A) (A) (A)
                 (A) (A) (A) (A) (A) (A) (A) (A) (A) (A) (A) (A)
                 (A) (A) (A) (A) (A) (A) (A) (A) (A) (A) (A) (A)
                 (A) (A) (A) (A)
       Virtual   (A) (A) (A) (A) (A) (A) (A) (A) (A) (A) (A) (A)
                 (A) (A) (A) (A) (A) (A) (A) (A) (A) (A) (A) (A)
                 (A) (A) (A) (A) (A) (A) (A) (A) (A) (A) (A) (A)
                 (A) (A) (A) (A) (A) (A) (A) (A) (A) (A) (A) (A)
                 (A) (A) (A) (A) (A) (A) (A) (A) (A) (A) (A) (A)
                 (A) (A) (A) (A) (A) (A) (A) (A) (A) (A) (A) (A)
                 (A) (A) (A) (A) (A) (A) (A) (A) (A) (A) (A) (A)
                 (A) (A) (A) (A) (A) (A) (A) (A) (A) (A) (A) (A)
                 (A) (A) (A) (A) (A) (A) (A) (A) (A) (A) (A) (A)
                 (A) (A) (A) (A) (A) (A) (A) (A) (A) (A) (A) (A)
                 (A) (A) (A) (A) (A) (A) (A) (A) (A) (A) (A) (A)
                 (A) (A) (A) (A) (A) (A) (A) (A) (A) (A) (A) (A)
                 (A) (A) (A) (A) (A) (A) (A) (A) (A) (A) (A) (A)
                 (A) (A) (A) (A) (A) (A) (A) (A) (A) (A) (A) (A)
                 (A) (A) (A) (A) (A) (A) (A) (A) (A) (A) (A) (A)
                 (A) (A) (A) (A) (A) (A) (A) (A) (A) (A) (A) (A)
                 (A) (A) (A) (A) (A) (A) (A) (A) (A) (A) (A) (A)
                 (A) (A) (A) (A) (A) (A) (A) (A) (A) (A) (A) (A)
                 (A) (A) (A) (A) (A) (A) (A) (A) (A) (A) (A) (A)
                 (A) (A) (A) (A) (A) (A) (A) (A) (A) (A) (A) (A)
                 (A) (A) (A) (A) (A) (A) (A) (A) (A) (A) (A) (A)
                 (A) (A) (A) (A) (A) (A) (A) (A) (A) (A) (A) (A)
                 (A) (A) (A) (A) (A) (A) (A) (A) (A) (A) (A) (A)
                 (A) (A) (A) (A) (A) (A) (A) (A) (A) (A) (A) (A)
                 (A) (A) (A) (A) (A) (A) (A) (A) (A) (A) (A) (A)
                 (A) (A) (A) (A) (A) (A) (A) (A) (A) (A) (A) (A)
                 (A) (A) (A) (A) (A) (A) (A) (A) (A) (A) (A) (A)
                 (A) (A) (A) (A) (A) (A) (A) (A) (A) (A) (A) (A)
                 (A) (A) (A) (A) (A) (A) (A) (A) (A) (A) (A) (A)
                 (A) (A) (A) (A) (A) (A) (A) (A) (A) (A) (A) (A)
                 (A) (A) (A) (A) (A) (A) (A) (A) (A) (A) (A) (A)
                 (A) (A) (A) (A) (A) (A) (A) (A) (A) (A) (A) (A)
                 (A) (A) (A) (A) (A) (A)
 The electronic state is 1-A.
 Alpha  occ. eigenvalues --  -88.99682 -88.90286 -88.82389 -19.22788 -14.37855
 Alpha  occ. eigenvalues --  -14.35212 -10.27154 -10.24659 -10.24434 -10.23570
 Alpha  occ. eigenvalues --  -10.22501 -10.21953 -10.21896 -10.18547  -8.04703
 Alpha  occ. eigenvalues --   -7.96120  -7.88817  -6.01040  -6.00983  -6.00563
 Alpha  occ. eigenvalues --   -5.92539  -5.92181  -5.91882  -5.85428  -5.84712
 Alpha  occ. eigenvalues --   -5.84389  -1.11630  -0.93369  -0.90317  -0.85560
 Alpha  occ. eigenvalues --   -0.80510  -0.79767  -0.75278  -0.74168  -0.66155
 Alpha  occ. eigenvalues --   -0.62669  -0.61794  -0.59858  -0.56779  -0.54453
 Alpha  occ. eigenvalues --   -0.52050  -0.50852  -0.49105  -0.48672  -0.47408
 Alpha  occ. eigenvalues --   -0.46812  -0.45882  -0.44562  -0.43951  -0.42437
 Alpha  occ. eigenvalues --   -0.39873  -0.37490  -0.37148  -0.35541  -0.33542
 Alpha  occ. eigenvalues --   -0.33001  -0.31697  -0.31157  -0.28052  -0.26381
 Alpha  occ. eigenvalues --   -0.25932  -0.20586  -0.19187  -0.13799
 Alpha virt. eigenvalues --   -0.10194  -0.04708  -0.03689  -0.00466   0.00739
 Alpha virt. eigenvalues --    0.03405   0.05253   0.06774   0.08267   0.08556
 Alpha virt. eigenvalues --    0.09837   0.10219   0.10753   0.12334   0.13991
 Alpha virt. eigenvalues --    0.14751   0.15597   0.17085   0.17438   0.18157
 Alpha virt. eigenvalues --    0.18676   0.20090   0.22151   0.23976   0.24192
 Alpha virt. eigenvalues --    0.25087   0.26843   0.28744   0.29064   0.30880
 Alpha virt. eigenvalues --    0.31880   0.32673   0.33819   0.33976   0.35449
 Alpha virt. eigenvalues --    0.37151   0.38419   0.38956   0.40073   0.41508
 Alpha virt. eigenvalues --    0.41655   0.42692   0.43643   0.44377   0.45216
 Alpha virt. eigenvalues --    0.45738   0.46867   0.47414   0.48258   0.49272
 Alpha virt. eigenvalues --    0.49881   0.51095   0.51466   0.51765   0.52747
 Alpha virt. eigenvalues --    0.53688   0.55064   0.56018   0.57231   0.58629
 Alpha virt. eigenvalues --    0.60431   0.60785   0.61469   0.62371   0.62770
 Alpha virt. eigenvalues --    0.63726   0.65301   0.66194   0.66967   0.68284
 Alpha virt. eigenvalues --    0.68772   0.69091   0.70226   0.71319   0.72043
 Alpha virt. eigenvalues --    0.73325   0.73629   0.74274   0.75009   0.75650
 Alpha virt. eigenvalues --    0.76561   0.76624   0.77539   0.78343   0.79609
 Alpha virt. eigenvalues --    0.80378   0.80674   0.81341   0.81474   0.82390
 Alpha virt. eigenvalues --    0.84430   0.84961   0.86010   0.86899   0.87822
 Alpha virt. eigenvalues --    0.89134   0.89771   0.90222   0.91469   0.93620
 Alpha virt. eigenvalues --    0.94031   0.96417   0.97368   0.98076   0.98622
 Alpha virt. eigenvalues --    1.00535   1.02739   1.03602   1.04381   1.06611
 Alpha virt. eigenvalues --    1.07755   1.09053   1.09691   1.13985   1.16850
 Alpha virt. eigenvalues --    1.17841   1.18941   1.20113   1.23588   1.25770
 Alpha virt. eigenvalues --    1.27687   1.28284   1.29499   1.30616   1.32783
 Alpha virt. eigenvalues --    1.33206   1.35937   1.36604   1.37325   1.38312
 Alpha virt. eigenvalues --    1.39169   1.40805   1.41937   1.43624   1.45657
 Alpha virt. eigenvalues --    1.46785   1.48490   1.49901   1.51746   1.53074
 Alpha virt. eigenvalues --    1.53605   1.55248   1.55895   1.56812   1.58064
 Alpha virt. eigenvalues --    1.58903   1.59160   1.61208   1.61954   1.63280
 Alpha virt. eigenvalues --    1.64486   1.65902   1.67718   1.68655   1.69506
 Alpha virt. eigenvalues --    1.70514   1.71728   1.72805   1.73407   1.76647
 Alpha virt. eigenvalues --    1.77970   1.79211   1.80218   1.81610   1.82626
 Alpha virt. eigenvalues --    1.84278   1.86762   1.87372   1.89010   1.90123
 Alpha virt. eigenvalues --    1.91645   1.93742   1.94266   1.96909   1.97589
 Alpha virt. eigenvalues --    1.98229   1.98726   2.01554   2.02920   2.04272
 Alpha virt. eigenvalues --    2.05318   2.07203   2.08501   2.10438   2.12024
 Alpha virt. eigenvalues --    2.14154   2.16637   2.16980   2.17602   2.19081
 Alpha virt. eigenvalues --    2.19902   2.20731   2.22910   2.24641   2.26355
 Alpha virt. eigenvalues --    2.27481   2.28809   2.30949   2.32055   2.33901
 Alpha virt. eigenvalues --    2.36805   2.37466   2.38189   2.38972   2.40479
 Alpha virt. eigenvalues --    2.43419   2.44393   2.46397   2.48708   2.51144
 Alpha virt. eigenvalues --    2.54091   2.57084   2.58170   2.60971   2.61768
 Alpha virt. eigenvalues --    2.63848   2.65224   2.68424   2.71231   2.72840
 Alpha virt. eigenvalues --    2.74520   2.77113   2.77974   2.78892   2.80982
 Alpha virt. eigenvalues --    2.82589   2.84589   2.85610   2.87569   2.89752
 Alpha virt. eigenvalues --    2.90683   2.92180   2.93426   2.97237   2.98394
 Alpha virt. eigenvalues --    3.00095   3.01867   3.02674   3.03375   3.06117
 Alpha virt. eigenvalues --    3.06622   3.07491   3.09242   3.13079   3.13922
 Alpha virt. eigenvalues --    3.14438   3.15688   3.17614   3.18932   3.21170
 Alpha virt. eigenvalues --    3.21638   3.23183   3.23754   3.25621   3.27390
 Alpha virt. eigenvalues --    3.28003   3.29395   3.30854   3.32855   3.33618
 Alpha virt. eigenvalues --    3.36795   3.37947   3.39326   3.40305   3.40737
 Alpha virt. eigenvalues --    3.43261   3.44669   3.46335   3.48167   3.48529
 Alpha virt. eigenvalues --    3.50199   3.56302   3.56742   3.58596   3.61721
 Alpha virt. eigenvalues --    3.62734   3.63930   3.66604   3.72055   3.73290
 Alpha virt. eigenvalues --    3.74877   3.78967   3.80918   3.81513   3.84777
 Alpha virt. eigenvalues --    3.86363   3.87249   3.89792   3.92145   3.94475
 Alpha virt. eigenvalues --    3.98660   3.99452   4.02201   4.04303   4.05151
 Alpha virt. eigenvalues --    4.07404   4.09078   4.10586   4.13834   4.15364
 Alpha virt. eigenvalues --    4.18919   4.19753   4.21040   4.22598   4.26310
 Alpha virt. eigenvalues --    4.28258   4.29829   4.30233   4.32227   4.34067
 Alpha virt. eigenvalues --    4.34915   4.36479   4.38428   4.41697   4.42875
 Alpha virt. eigenvalues --    4.43880   4.45873   4.46300   4.47497   4.47900
 Alpha virt. eigenvalues --    4.49156   4.51614   4.53046   4.54903   4.57985
 Alpha virt. eigenvalues --    4.58620   4.59232   4.60323   4.61289   4.62130
 Alpha virt. eigenvalues --    4.62940   4.65122   4.65639   4.68039   4.68297
 Alpha virt. eigenvalues --    4.70396   4.75316   4.76199   4.77656   4.79091
 Alpha virt. eigenvalues --    4.81949   4.84717   4.85502   4.89566   4.90016
 Alpha virt. eigenvalues --    4.96620   4.97275   4.97762   4.99199   5.07723
 Alpha virt. eigenvalues --    5.09186   5.11867   5.14641   5.16284   5.17115
 Alpha virt. eigenvalues --    5.21630   5.28035   5.30250   5.31585   5.34166
 Alpha virt. eigenvalues --    5.38789   5.40469   5.47107   5.50316   5.53058
 Alpha virt. eigenvalues --    5.55796   5.61578   5.63841   5.68480   5.72975
 Alpha virt. eigenvalues --    5.76278   5.84774   5.90941   6.18053   6.28555
 Alpha virt. eigenvalues --    6.46681   7.04730   7.99552  10.09165  10.16054
 Alpha virt. eigenvalues --   10.59795  11.08249  11.30842  11.37403  11.42892
 Alpha virt. eigenvalues --   11.61730  11.93072  12.26079  13.46501  14.06062
          Condensed to atoms (all electrons):
               1          2          3          4          5          6
     1  C    4.908688   0.673949  -0.093444   0.003451   0.000328   0.000443
     2  N    0.673949   6.218133   0.344364  -0.024532   0.000407  -0.052622
     3  C   -0.093444   0.344364   4.986687   0.407692  -0.025703   0.006949
     4  C    0.003451  -0.024532   0.407692   5.028533   0.403630  -0.061792
     5  O    0.000328   0.000407  -0.025703   0.403630   7.750317   0.186156
     6  N    0.000443  -0.052622   0.006949  -0.061792   0.186156   6.648599
     7  S   -0.000111   0.001970  -0.054423   0.156362  -0.003795  -0.002534
     8  C    0.000005   0.000047   0.000158  -0.045073  -0.000155  -0.000132
     9  C    0.000000  -0.000001  -0.000160   0.001215   0.000202  -0.000002
    10  C   -0.000000  -0.000000  -0.000061   0.002027  -0.000004   0.000000
    11  C    0.000000  -0.000000  -0.000178  -0.001688  -0.000012  -0.000000
    12  C    0.000013   0.000374   0.008497  -0.023933   0.000320  -0.000056
    13  S   -0.000013   0.000032  -0.000139  -0.004598   0.000257   0.000026
    14  S    0.000073  -0.000757  -0.008525   0.026578  -0.001685   0.000388
    15  H    0.362832  -0.022996   0.007677  -0.000126  -0.000006   0.000593
    16  H    0.353215  -0.033215  -0.013859  -0.000122   0.000000  -0.000120
    17  H   -0.007888  -0.018659   0.355243  -0.022840   0.000594  -0.000220
    18  H   -0.001999  -0.020291   0.316608  -0.057873   0.001637  -0.000923
    19  H   -0.000015   0.003051  -0.000131   0.002791  -0.024875   0.297608
    20  H   -0.000458   0.040996  -0.004626  -0.008022  -0.035729   0.298483
    21  H    0.000000  -0.000001   0.000339   0.000950   0.001377  -0.000056
    22  H    0.000000   0.000000  -0.000007  -0.000301   0.000002  -0.000000
    23  H   -0.000000  -0.000000  -0.000000   0.000003  -0.000000   0.000000
    24  H    0.000000   0.000000   0.000002  -0.000039   0.000000  -0.000000
               7          8          9         10         11         12
     1  C   -0.000111   0.000005   0.000000  -0.000000   0.000000   0.000013
     2  N    0.001970   0.000047  -0.000001  -0.000000  -0.000000   0.000374
     3  C   -0.054423   0.000158  -0.000160  -0.000061  -0.000178   0.008497
     4  C    0.156362  -0.045073   0.001215   0.002027  -0.001688  -0.023933
     5  O   -0.003795  -0.000155   0.000202  -0.000004  -0.000012   0.000320
     6  N   -0.002534  -0.000132  -0.000002   0.000000  -0.000000  -0.000056
     7  S   15.223279   0.266183  -0.020487  -0.037049  -0.017186   0.292606
     8  C    0.266183   5.066095   0.595420   0.012038  -0.036878   0.019136
     9  C   -0.020487   0.595420   4.745660   0.448621   0.026702  -0.037545
    10  C   -0.037049   0.012038   0.448621   4.799902   0.574360   0.013711
    11  C   -0.017186  -0.036878   0.026702   0.574360   4.858930   0.402274
    12  C    0.292606   0.019136  -0.037545   0.013711   0.402274   5.133784
    13  S   -0.068255   0.000616   0.001078   0.002189  -0.040632   0.311449
    14  S    0.019762   0.000618   0.000009  -0.000173   0.003562  -0.036021
    15  H    0.000001  -0.000000  -0.000000   0.000000  -0.000000  -0.000000
    16  H    0.000022  -0.000000   0.000000  -0.000000  -0.000000   0.000001
    17  H   -0.005999  -0.000338   0.000037   0.000045  -0.000296  -0.009403
    18  H    0.010771   0.005936   0.000244  -0.000625   0.000579   0.005955
    19  H    0.000010   0.000018  -0.000000  -0.000000   0.000000   0.000001
    20  H   -0.000330  -0.000023  -0.000001   0.000000  -0.000000  -0.000001
    21  H   -0.043513   0.367749  -0.024984   0.003082   0.000950   0.000811
    22  H    0.006292  -0.051069   0.367147  -0.046092   0.005378   0.000102
    23  H   -0.000210   0.007213  -0.057545   0.380345  -0.049830   0.006157
    24  H    0.004640   0.000166   0.005215  -0.041197   0.379707  -0.052757
              13         14         15         16         17         18
     1  C   -0.000013   0.000073   0.362832   0.353215  -0.007888  -0.001999
     2  N    0.000032  -0.000757  -0.022996  -0.033215  -0.018659  -0.020291
     3  C   -0.000139  -0.008525   0.007677  -0.013859   0.355243   0.316608
     4  C   -0.004598   0.026578  -0.000126  -0.000122  -0.022840  -0.057873
     5  O    0.000257  -0.001685  -0.000006   0.000000   0.000594   0.001637
     6  N    0.000026   0.000388   0.000593  -0.000120  -0.000220  -0.000923
     7  S   -0.068255   0.019762   0.000001   0.000022  -0.005999   0.010771
     8  C    0.000616   0.000618  -0.000000  -0.000000  -0.000338   0.005936
     9  C    0.001078   0.000009  -0.000000   0.000000   0.000037   0.000244
    10  C    0.002189  -0.000173   0.000000  -0.000000   0.000045  -0.000625
    11  C   -0.040632   0.003562  -0.000000  -0.000000  -0.000296   0.000579
    12  C    0.311449  -0.036021  -0.000000   0.000001  -0.009403   0.005955
    13  S   15.617768   0.184267   0.000000  -0.000009   0.018291  -0.003275
    14  S    0.184267  16.220824  -0.000001  -0.000004  -0.005420   0.001592
    15  H    0.000000  -0.000001   0.578991  -0.058554  -0.000312  -0.000447
    16  H   -0.000009  -0.000004  -0.058554   0.622819   0.006813   0.003446
    17  H    0.018291  -0.005420  -0.000312   0.006813   0.549602  -0.042665
    18  H   -0.003275   0.001592  -0.000447   0.003446  -0.042665   0.652227
    19  H   -0.000001   0.000008  -0.000035   0.000004   0.000006   0.000056
    20  H    0.000007  -0.000038  -0.000865   0.000312   0.000419   0.000149
    21  H   -0.000079   0.000009   0.000000  -0.000000  -0.000002  -0.000064
    22  H    0.000008   0.000001  -0.000000  -0.000000  -0.000001   0.000051
    23  H   -0.000164   0.000003   0.000000  -0.000000   0.000000   0.000000
    24  H   -0.001119   0.000088   0.000000   0.000000  -0.000000   0.000001
              19         20         21         22         23         24
     1  C   -0.000015  -0.000458   0.000000   0.000000  -0.000000   0.000000
     2  N    0.003051   0.040996  -0.000001   0.000000  -0.000000   0.000000
     3  C   -0.000131  -0.004626   0.000339  -0.000007  -0.000000   0.000002
     4  C    0.002791  -0.008022   0.000950  -0.000301   0.000003  -0.000039
     5  O   -0.024875  -0.035729   0.001377   0.000002  -0.000000   0.000000
     6  N    0.297608   0.298483  -0.000056  -0.000000   0.000000  -0.000000
     7  S    0.000010  -0.000330  -0.043513   0.006292  -0.000210   0.004640
     8  C    0.000018  -0.000023   0.367749  -0.051069   0.007213   0.000166
     9  C   -0.000000  -0.000001  -0.024984   0.367147  -0.057545   0.005215
    10  C   -0.000000   0.000000   0.003082  -0.046092   0.380345  -0.041197
    11  C    0.000000  -0.000000   0.000950   0.005378  -0.049830   0.379707
    12  C    0.000001  -0.000001   0.000811   0.000102   0.006157  -0.052757
    13  S   -0.000001   0.000007  -0.000079   0.000008  -0.000164  -0.001119
    14  S    0.000008  -0.000038   0.000009   0.000001   0.000003   0.000088
    15  H   -0.000035  -0.000865   0.000000  -0.000000   0.000000   0.000000
    16  H    0.000004   0.000312  -0.000000  -0.000000  -0.000000   0.000000
    17  H    0.000006   0.000419  -0.000002  -0.000001   0.000000  -0.000000
    18  H    0.000056   0.000149  -0.000064   0.000051   0.000000   0.000001
    19  H    0.492135  -0.020276  -0.000004   0.000000  -0.000000   0.000000
    20  H   -0.020276   0.463406   0.000009  -0.000000   0.000000   0.000000
    21  H   -0.000004   0.000009   0.564025  -0.008957  -0.000179   0.000013
    22  H    0.000000  -0.000000  -0.008957   0.621399  -0.008531  -0.000141
    23  H   -0.000000   0.000000  -0.000179  -0.008531   0.642223  -0.008798
    24  H    0.000000   0.000000   0.000013  -0.000141  -0.008798   0.577058
 Mulliken charges:
               1
     1  C   -0.199070
     2  N   -0.110250
     3  C   -0.232959
     4  C    0.217709
     5  O   -0.253264
     6  N   -0.320788
     7  S    0.271995
     8  C   -0.207729
     9  C   -0.050825
    10  C   -0.111117
    11  C   -0.105741
    12  C   -0.035474
    13  S   -0.017704
    14  S   -0.405158
    15  H    0.133248
    16  H    0.119251
    17  H    0.182995
    18  H    0.128913
    19  H    0.249652
    20  H    0.266589
    21  H    0.138527
    22  H    0.114722
    23  H    0.089314
    24  H    0.137162
 Sum of Mulliken charges =  -0.00000
 Mulliken charges with hydrogens summed into heavy atoms:
               1
     1  C    0.053429
     2  N   -0.110250
     3  C    0.078950
     4  C    0.217709
     5  O   -0.253264
     6  N    0.195453
     7  S    0.271995
     8  C   -0.069201
     9  C    0.063897
    10  C   -0.021803
    11  C    0.031421
    12  C   -0.035474
    13  S   -0.017704
    14  S   -0.405158
 Electronic spatial extent (au):  <R**2>=           3797.9251
 Charge=             -0.0000 electrons
 Dipole moment (field-independent basis, Debye):
    X=              1.3446    Y=             -6.9124    Z=              2.4731  Tot=              7.4636
 Quadrupole moment (field-independent basis, Debye-Ang):
   XX=            -87.5460   YY=           -108.3099   ZZ=            -98.6798
   XY=             -1.3225   XZ=              1.1735   YZ=              6.6034
 Traceless Quadrupole moment (field-independent basis, Debye-Ang):
   XX=             10.6326   YY=            -10.1313   ZZ=             -0.5013
   XY=             -1.3225   XZ=              1.1735   YZ=              6.6034
 Octapole moment (field-independent basis, Debye-Ang**2):
  XXX=             52.3180  YYY=            -73.6380  ZZZ=             -0.1659  XYY=              5.4112
  XXY=            -23.4696  XXZ=             18.8873  XZZ=             31.6936  YZZ=             -8.2290
  YYZ=              0.8526  XYZ=             11.8533
 Hexadecapole moment (field-independent basis, Debye-Ang**3):
 XXXX=          -2367.8752 YYYY=          -1729.3660 ZZZZ=           -698.8951 XXXY=            -69.1418
 XXXZ=            -22.9033 YYYX=             10.2044 YYYZ=             38.1632 ZZZX=              4.5584
 ZZZY=             39.4299 XXYY=           -680.2875 XXZZ=           -473.4987 YYZZ=           -413.1378
 XXYZ=             43.0346 YYXZ=            -33.6705 ZZXY=            -16.7952
 N-N= 1.246743019336D+03 E-N=-6.484897836011D+03  KE= 1.682416983890D+03
 PrsmSu:  requested number of processors reduced to:  13 ShMem   1 Linda.
 Calling FoFJK, ICntrl=      2127 FMM=F ISym2X=0 I1Cent= 0 IOpClX= 0 NMat=1 NMatS=1 NMatT=0.
 ***** Axes restored to original set *****
 -------------------------------------------------------------------
 Center     Atomic                   Forces (Hartrees/Bohr)
 Number     Number              X              Y              Z
 -------------------------------------------------------------------
      1        6           0.024695558   -0.003832333   -0.005282562
      2        7          -0.032940566    0.006481719    0.000562217
      3        6           0.006492352   -0.006211105    0.008748828
      4        6          -0.008298641   -0.014673403   -0.002591562
      5        8           0.005642703    0.025656964    0.001677896
      6        7          -0.000032740   -0.011375709    0.000198985
      7       16          -0.035536653   -0.008514971    0.011060030
      8        6           0.010572321    0.013706605   -0.020523738
      9        6           0.001980241    0.009429058    0.003534266
     10        6           0.009680351    0.015711364   -0.028394745
     11        6          -0.006083459   -0.045126340    0.016171498
     12        6           0.023051232    0.030811081   -0.001431810
     13       16          -0.009283058   -0.012749081    0.002474848
     14       16           0.008028273    0.005715151   -0.010465264
     15        1           0.003275041    0.007173436   -0.004690206
     16        1           0.001575981    0.000929089    0.005887944
     17        1           0.001122324    0.002922727   -0.001151685
     18        1           0.002995169    0.005425885   -0.005929007
     19        1           0.006394787   -0.004540870    0.000014320
     20        1          -0.005581706   -0.008571204    0.010722563
     21        1          -0.000062002   -0.004520369    0.012874844
     22        1          -0.000878809   -0.000517290    0.000222484
     23        1          -0.002039093   -0.000239030    0.002661909
     24        1          -0.004769605   -0.003091373    0.003647945
 -------------------------------------------------------------------
 Cartesian Forces:  Max     0.045126340 RMS     0.012633964

 GradGradGradGradGradGradGradGradGradGradGradGradGradGradGradGradGradGrad
 Berny optimization.
 FormGI is forming the generalized inverse of G from B-inverse, IUseBI=4.
 Internal  Forces:  Max     0.056399281 RMS     0.013761643
 Search for a local minimum.
 Step number   1 out of a maximum of  117
 All quantities printed in internal units (Hartrees-Bohrs-Radians)
 Mixed Optimization -- RFO/linear search
 Second derivative matrix not updated -- first step.
 ITU=  0
     Eigenvalues ---    0.00314   0.00357   0.00684   0.00793   0.00885
     Eigenvalues ---    0.01047   0.01134   0.01280   0.01351   0.01736
     Eigenvalues ---    0.01762   0.01941   0.02184   0.02241   0.02399
     Eigenvalues ---    0.02510   0.03238   0.05989   0.06705   0.07177
     Eigenvalues ---    0.07511   0.11382   0.11676   0.12428   0.13932
     Eigenvalues ---    0.15950   0.15981   0.15991   0.15998   0.16000
     Eigenvalues ---    0.16000   0.16000   0.19352   0.21892   0.22035
     Eigenvalues ---    0.22131   0.23664   0.24733   0.24862   0.25000
     Eigenvalues ---    0.25000   0.25000   0.26037   0.28536   0.29044
     Eigenvalues ---    0.29315   0.30600   0.30704   0.33404   0.33508
     Eigenvalues ---    0.34033   0.34120   0.34235   0.35000   0.35015
     Eigenvalues ---    0.35176   0.35438   0.36844   0.38149   0.39873
     Eigenvalues ---    0.43573   0.45203   0.54258   0.55757   0.56119
     Eigenvalues ---    0.72107
 RFO step:  Lambda=-7.70535695D-02 EMin= 3.14343988D-03
 Linear search not attempted -- first point.
 Maximum step size (   0.300) exceeded in Quadratic search.
    -- Step size scaled by   0.721
 Iteration  1 RMS(Cart)=  0.23826743 RMS(Int)=  0.01401991
 Iteration  2 RMS(Cart)=  0.03192850 RMS(Int)=  0.00050566
 Iteration  3 RMS(Cart)=  0.00060860 RMS(Int)=  0.00043067
 Iteration  4 RMS(Cart)=  0.00000031 RMS(Int)=  0.00043067
 Variable       Old X    -DE/DX   Delta X   Delta X   Delta X     New X
                                 (Linear)    (Quad)   (Total)
    R1        2.42475  -0.02939   0.00000  -0.02657  -0.02657   2.39818
    R2        2.08348  -0.00802   0.00000  -0.01408  -0.01408   2.06940
    R3        2.07274   0.00037   0.00000   0.00063   0.00063   2.07337
    R4        2.76082  -0.00645   0.00000  -0.01044  -0.01044   2.75038
    R5        2.89910  -0.00305   0.00000  -0.00599  -0.00599   2.89311
    R6        2.06935   0.00057   0.00000   0.00098   0.00098   2.07033
    R7        2.07127   0.00752   0.00000   0.01296   0.01296   2.08424
    R8        2.54465  -0.00007   0.00000  -0.00008  -0.00008   2.54457
    R9        3.40343  -0.00413   0.00000  -0.00883  -0.00883   3.39460
   R10        2.71726   0.02023   0.00000   0.03067   0.03067   2.74794
   R11        1.91740   0.00734   0.00000   0.01001   0.01001   1.92741
   R12        1.93669  -0.00537   0.00000  -0.00756  -0.00756   1.92913
   R13        3.33317   0.01576   0.00000   0.03018   0.03003   3.36320
   R14        3.31586  -0.01671   0.00000  -0.03372  -0.03392   3.28194
   R15        2.52749   0.01038   0.00000   0.01265   0.01268   2.54016
   R16        2.05390  -0.00353   0.00000  -0.00593  -0.00593   2.04797
   R17        2.72577  -0.00408   0.00000  -0.00421  -0.00402   2.72175
   R18        2.05651  -0.00044   0.00000  -0.00075  -0.00075   2.05576
   R19        2.53852   0.01668   0.00000   0.01905   0.01925   2.55777
   R20        2.05676  -0.00214   0.00000  -0.00362  -0.00362   2.05313
   R21        2.80180  -0.02863   0.00000  -0.05100  -0.05098   2.75082
   R22        2.04969  -0.00094   0.00000  -0.00157  -0.00157   2.04812
   R23        3.30482  -0.00826   0.00000  -0.01556  -0.01556   3.28927
   R24        3.84881  -0.01085   0.00000  -0.02038  -0.02038   3.82843
    A1        2.05682   0.00162   0.00000   0.00494   0.00494   2.06176
    A2        2.18349  -0.00205   0.00000  -0.00620  -0.00621   2.17728
    A3        2.04266   0.00044   0.00000   0.00137   0.00137   2.04403
    A4        2.11899  -0.01986   0.00000  -0.04381  -0.04381   2.07518
    A5        1.92274   0.03754   0.00000   0.09540   0.09520   2.01794
    A6        1.93054  -0.00636   0.00000  -0.00125  -0.00193   1.92860
    A7        1.89407  -0.01138   0.00000  -0.02813  -0.02745   1.86662
    A8        1.93164  -0.01078   0.00000  -0.02334  -0.02466   1.90698
    A9        1.90861  -0.01204   0.00000  -0.03593  -0.03588   1.87273
   A10        1.87516   0.00177   0.00000  -0.01056  -0.01153   1.86363
   A11        2.19184   0.05640   0.00000   0.12687   0.12689   2.31872
   A12        2.17268  -0.03928   0.00000  -0.08588  -0.08621   2.08647
   A13        1.90620  -0.01647   0.00000  -0.03528  -0.03555   1.87065
   A14        2.04701   0.05089   0.00000   0.11224   0.11224   2.15924
   A15        1.75331  -0.00747   0.00000  -0.01682  -0.01680   1.73651
   A16        1.73267   0.01371   0.00000   0.05900   0.05901   1.79168
   A17        1.87499   0.00062   0.00000   0.00647   0.00655   1.88154
   A18        1.68066   0.02093   0.00000   0.07761   0.07789   1.75855
   A19        1.86804  -0.00391   0.00000  -0.00949  -0.00926   1.85878
   A20        1.77720  -0.00741   0.00000  -0.01363  -0.01409   1.76311
   A21        2.10484   0.00759   0.00000   0.01958   0.01914   2.12398
   A22        2.09451  -0.01718   0.00000  -0.05037  -0.05021   2.04430
   A23        2.08038   0.00984   0.00000   0.03166   0.03187   2.11225
   A24        2.18524  -0.00459   0.00000  -0.00498  -0.00508   2.18015
   A25        2.05736   0.00177   0.00000   0.00088   0.00087   2.05824
   A26        2.04058   0.00282   0.00000   0.00407   0.00405   2.04464
   A27        2.18253  -0.01661   0.00000  -0.03658  -0.03648   2.14606
   A28        2.01059   0.01076   0.00000   0.02585   0.02580   2.03639
   A29        2.08929   0.00591   0.00000   0.01098   0.01091   2.10020
   A30        2.09490   0.01808   0.00000   0.04259   0.04257   2.13747
   A31        2.09650  -0.00303   0.00000  -0.00276  -0.00275   2.09375
   A32        2.09085  -0.01511   0.00000  -0.03981  -0.03980   2.05105
   A33        2.10140   0.00724   0.00000   0.01787   0.01737   2.11877
   A34        2.10408  -0.02378   0.00000  -0.05211  -0.05238   2.05170
   A35        2.02227   0.01779   0.00000   0.04602   0.04620   2.06847
   A36        1.92590  -0.03089   0.00000  -0.06813  -0.06813   1.85777
    D1       -3.02792  -0.00879   0.00000  -0.05742  -0.05743  -3.08535
    D2        0.13681  -0.00959   0.00000  -0.06368  -0.06367   0.07313
    D3       -3.12035  -0.00070   0.00000  -0.00564  -0.00566  -3.12600
    D4        2.88966  -0.00062   0.00000  -0.01185  -0.01116   2.87849
    D5        0.74848  -0.00830   0.00000  -0.04658  -0.04715   0.70133
    D6       -1.30445   0.00004   0.00000  -0.01618  -0.01630  -1.32076
    D7        0.16816  -0.00766   0.00000  -0.06336  -0.06390   0.10425
    D8        3.12223  -0.00459   0.00000  -0.02461  -0.02469   3.09753
    D9        2.30868   0.00264   0.00000  -0.01556  -0.01613   2.29256
   D10       -1.02043   0.00571   0.00000   0.02319   0.02308  -0.99735
   D11       -1.91208  -0.00908   0.00000  -0.06466  -0.06425  -1.97632
   D12        1.04199  -0.00602   0.00000  -0.02591  -0.02504   1.01696
   D13       -0.49891  -0.02445   0.00000  -0.15855  -0.15729  -0.65620
   D14        2.80614  -0.02361   0.00000  -0.18453  -0.18579   2.62036
   D15       -1.51016  -0.00065   0.00000   0.00293   0.00428  -1.50588
   D16        0.31273  -0.00207   0.00000   0.01336   0.01436   0.32710
   D17        1.47017   0.00948   0.00000   0.05292   0.05191   1.52208
   D18       -2.99012   0.00806   0.00000   0.06334   0.06199  -2.92813
   D19       -3.12927  -0.00013   0.00000  -0.00220  -0.00227  -3.13154
   D20        1.23752  -0.00248   0.00000  -0.01997  -0.01989   1.21763
   D21       -1.80259  -0.01225   0.00000  -0.05931  -0.05932  -1.86191
   D22        2.30806  -0.00602   0.00000  -0.02530  -0.02515   2.28291
   D23       -0.92360  -0.00222   0.00000  -0.01236  -0.01261  -0.93621
   D24        0.40715  -0.00599   0.00000  -0.03299  -0.03295   0.37419
   D25       -2.82452  -0.00219   0.00000  -0.02005  -0.02042  -2.84493
   D26       -2.24766  -0.00906   0.00000  -0.02159  -0.02197  -2.26963
   D27        1.25990  -0.01670   0.00000  -0.06853  -0.06803   1.19187
   D28       -0.49455   0.00990   0.00000   0.05490   0.05461  -0.43994
   D29        3.01300   0.00226   0.00000   0.00796   0.00856   3.02156
   D30       -0.13045   0.00042   0.00000  -0.00096  -0.00106  -0.13152
   D31        3.01376   0.00344   0.00000   0.01621   0.01609   3.02985
   D32        3.10049  -0.00197   0.00000  -0.00960  -0.00988   3.09060
   D33       -0.03849   0.00106   0.00000   0.00757   0.00727  -0.03122
   D34       -0.17360   0.00545   0.00000   0.02877   0.02854  -0.14507
   D35        3.01057   0.00362   0.00000   0.02142   0.02128   3.03185
   D36        2.96539   0.00245   0.00000   0.01174   0.01149   2.97689
   D37       -0.13361   0.00062   0.00000   0.00440   0.00424  -0.12938
   D38        0.07106  -0.00001   0.00000  -0.00298  -0.00308   0.06798
   D39       -3.11707  -0.00180   0.00000  -0.00363  -0.00358  -3.12065
   D40       -3.11489   0.00197   0.00000   0.00493   0.00471  -3.11019
   D41       -0.01984   0.00019   0.00000   0.00429   0.00421  -0.01563
   D42        0.31174  -0.00457   0.00000  -0.03475  -0.03534   0.27640
   D43        3.10378  -0.00557   0.00000  -0.00945  -0.00867   3.09510
   D44       -2.78346  -0.00311   0.00000  -0.03509  -0.03578  -2.81925
   D45        0.00858  -0.00410   0.00000  -0.00979  -0.00912  -0.00054
   D46       -0.17812   0.01177   0.00000   0.09378   0.09341  -0.08470
   D47       -2.96958   0.00609   0.00000   0.05337   0.05374  -2.91584
         Item               Value     Threshold  Converged?
 Maximum Force            0.056399     0.000450     NO 
 RMS     Force            0.013762     0.000300     NO 
 Maximum Displacement     0.977114     0.001800     NO 
 RMS     Displacement     0.262288     0.001200     NO 
 Predicted change in Energy=-4.343779D-02
 GradGradGradGradGradGradGradGradGradGradGradGradGradGradGradGradGradGrad

                          Input orientation:                          
 ---------------------------------------------------------------------
 Center     Atomic      Atomic             Coordinates (Angstroms)
 Number     Number       Type             X           Y           Z
 ---------------------------------------------------------------------
      1          6           0        0.953501    0.484218   -0.067479
      2          7           0        2.164835    0.150088   -0.245107
      3          6           0        3.197793    1.170579   -0.145632
      4          6           0        4.631555    0.650462   -0.012699
      5          8           0        5.166931   -0.583776   -0.068998
      6          7           0        4.522678   -1.768621    0.474709
      7         16           0        5.995278    1.818069    0.049021
      8          6           0        6.310780    2.052406   -1.686774
      9          6           0        6.425660    3.279031   -2.224412
     10          6           0        6.161531    4.512106   -1.528575
     11          6           0        5.608714    4.557092   -0.293923
     12          6           0        5.308903    3.356244    0.472269
     13         16           0        4.663237    3.535192    2.078755
     14         16           0        4.791937    1.713001    2.954775
     15          1           0        0.192034   -0.302404   -0.091895
     16          1           0        0.605695    1.512001    0.095295
     17          1           0        2.983096    1.854348    0.683009
     18          1           0        3.150064    1.767735   -1.071691
     19          1           0        5.230939   -2.465653    0.244943
     20          1           0        3.733720   -1.904765   -0.158652
     21          1           0        6.480582    1.163253   -2.282646
     22          1           0        6.723284    3.352001   -3.268222
     23          1           0        6.397734    5.431095   -2.057809
     24          1           0        5.413139    5.513427    0.177076
 ---------------------------------------------------------------------
                    Distance matrix (angstroms):
                    1          2          3          4          5
     1  C    0.000000
     2  N    1.269064   0.000000
     3  C    2.348200   1.455437   0.000000
     4  C    3.682216   2.527665   1.530969   0.000000
     5  O    4.346677   3.095504   2.638397   1.346529   0.000000
     6  N    4.255382   3.123940   3.283145   2.470098   1.454145
     7  S    5.216535   4.188193   2.878030   1.796345   2.543412
     8  C    5.812208   4.783939   3.583772   2.754591   3.297733
     9  C    6.512132   5.644693   4.380186   3.875547   4.599075
    10  C    6.744053   6.053765   4.675690   4.421651   5.393292
    11  C    6.189554   5.593243   4.159688   4.036791   5.164715
    12  C    5.244939   4.547442   3.100922   2.831121   3.979557
    13  S    5.260883   4.806378   3.561856   3.563264   4.672520
    14  S    5.037610   4.425337   3.528178   3.156044   3.815626
    15  H    1.095081   2.029819   3.347708   4.541317   4.982899
    16  H    1.097179   2.097999   2.625564   4.118429   5.022364
    17  H    2.561199   2.106051   1.095574   2.156564   3.358437
    18  H    2.735094   2.066567   1.102931   2.136487   3.256186
    19  H    5.205365   4.059956   4.184306   3.183679   1.908957
    20  H    3.666765   2.586754   3.121719   2.712305   1.951191
    21  H    5.993052   4.878907   3.917089   2.972291   3.110952
    22  H    7.194395   6.338054   5.190208   4.719330   5.305432
    23  H    7.620543   7.006593   5.661099   5.491476   6.453597
    24  H    6.726152   6.284515   4.885922   4.929028   6.107131
                    6          7          8          9         10
     6  N    0.000000
     7  S    3.900526   0.000000
     8  C    4.740208   1.779730   0.000000
     9  C    6.032031   2.736447   1.344195   0.000000
    10  C    6.793123   3.126386   2.469296   1.440287   0.000000
    11  C    6.464125   2.787345   2.950657   2.455123   1.353512
    12  C    5.184823   1.736730   2.713893   2.919794   2.463000
    13  S    5.542847   2.973662   4.369469   4.657146   4.026423
    14  S    4.283097   3.146819   4.895513   5.652033   5.459963
    15  H    4.607093   6.180121   6.747430   7.498826   7.802464
    16  H    5.123396   5.398465   6.001317   6.509642   6.519579
    17  H    3.942031   3.078392   4.090058   4.725894   4.696513
    18  H    4.096491   3.058394   3.232567   3.787125   4.099909
    19  H    1.019941   4.355786   5.030948   6.366040   7.259510
    20  H    1.020851   4.360879   4.963427   6.195616   6.996227
    21  H    4.475744   2.470015   1.083739   2.117292   3.447497
    22  H    6.713641   3.726532   2.088081   1.087862   2.165129
    23  H    7.859096   4.201745   3.400112   2.158683   1.086472
    24  H    7.342325   3.743121   4.032166   3.432910   2.114706
                   11         12         13         14         15
    11  C    0.000000
    12  C    1.455670   0.000000
    13  S    2.750965   1.740605   0.000000
    14  S    4.394316   3.021644   2.025920   0.000000
    15  H    7.279831   6.315562   6.279372   5.873939   0.000000
    16  H    5.869777   5.065917   4.948845   5.073623   1.870353
    17  H    3.892697   2.776595   2.756123   2.907371   3.611382
    18  H    3.798736   3.093180   3.916491   4.348698   3.741044
    19  H    7.053512   5.826854   6.300420   4.999706   5.493967
    20  H    6.729748   5.527882   5.955092   4.888915   3.887872
    21  H    4.029059   3.711010   5.286838   5.530309   6.818605
    22  H    3.397200   3.998970   5.733020   6.718788   8.130249
    23  H    2.120784   3.448457   4.869712   6.444284   8.674591
    24  H    1.083821   2.179781   2.844671   4.748130   7.820241
                   16         17         18         19         20
    16  H    0.000000
    17  H    2.472781   0.000000
    18  H    2.810884   1.764753   0.000000
    19  H    6.102214   4.889490   4.897463   0.000000
    20  H    4.639323   3.924635   3.829041   1.648985   0.000000
    21  H    6.347482   4.637363   3.595019   4.595570   4.633502
    22  H    7.219678   5.643066   4.483587   6.958054   6.800038
    23  H    7.317300   5.653756   4.993996   8.307990   8.032348
    24  H    6.255368   4.421531   4.550949   7.981449   7.613327
                   21         22         23         24
    21  H    0.000000
    22  H    2.412650   0.000000
    23  H    4.274563   2.427698   0.000000
    24  H    5.110155   4.272976   2.443546   0.000000
 Stoichiometry    C8H10N2OS3
 Framework group  C1[X(C8H10N2OS3)]
 Deg. of freedom    66
 Full point group                 C1      NOp   1
 Largest Abelian subgroup         C1      NOp   1
 Largest concise Abelian subgroup C1      NOp   1
                         Standard orientation:                         
 ---------------------------------------------------------------------
 Center     Atomic      Atomic             Coordinates (Angstroms)
 Number     Number       Type             X           Y           Z
 ---------------------------------------------------------------------
      1          6           0        3.124297   -0.054241    2.566717
      2          7           0        2.688072   -0.579414    1.496938
      3          6           0        1.304845   -0.343260    1.110658
      4          6           0        0.952775   -0.694180   -0.337364
      5          8           0        1.644295   -1.284134   -1.330790
      6          7           0        3.062956   -1.067918   -1.565712
      7         16           0       -0.740675   -0.508637   -0.907151
      8          6           0       -1.426217   -2.079766   -0.428586
      9          6           0       -2.582992   -2.168239    0.250313
     10          6           0       -3.306582   -1.048569    0.795458
     11          6           0       -2.807669    0.209407    0.819475
     12          6           0       -1.526705    0.553621    0.219790
     13         16           0       -1.016066    2.217390    0.248532
     14         16           0        0.550022    2.358724   -1.028866
     15          1           0        4.180816   -0.195517    2.817735
     16          1           0        2.515275    0.523157    3.273473
     17          1           0        1.023229    0.696716    1.309212
     18          1           0        0.676867   -0.973213    1.762778
     19          1           0        3.191078   -1.664809   -2.382771
     20          1           0        3.495521   -1.534494   -0.767382
     21          1           0       -0.910306   -2.969073   -0.771308
     22          1           0       -3.000243   -3.158618    0.419118
     23          1           0       -4.280112   -1.261091    1.228465
     24          1           0       -3.386690    1.013058    1.259414
 ---------------------------------------------------------------------
 Rotational constants (GHZ):           0.5906490           0.4092889           0.3409364
 Standard basis: 6-31G(2df,p) (6D, 7F)
 There are   496 symmetry adapted cartesian basis functions of A   symmetry.
 There are   454 symmetry adapted basis functions of A   symmetry.
   454 basis functions,   758 primitive gaussians,   496 cartesian basis functions
    64 alpha electrons       64 beta electrons
       nuclear repulsion energy      1258.4967983015 Hartrees.
 NAtoms=   24 NActive=   24 NUniq=   24 SFac= 1.00D+00 NAtFMM=   60 NAOKFM=F Big=F
 Integral buffers will be    131072 words long.
 Raffenetti 2 integral format.
 Two-electron integral symmetry is turned on.
 One-electron integrals computed using PRISM.
 PrsmSu:  requested number of processors reduced to:  12 ShMem   1 Linda.
 NBasis=   454 RedAO= T EigKep=  3.26D-04  NBF=   454
 NBsUse=   454 1.00D-06 EigRej= -1.00D+00 NBFU=   454
 Initial guess from the checkpoint file:  "CdNCCqONrdS1CdCCdCC1d[S][S].chk"
 B after Tr=     0.000000   -0.000000   -0.000000
         Rot=    0.997631    0.023468    0.020892    0.061205 Ang=   7.89 deg.
 ExpMin= 1.17D-01 ExpMax= 2.19D+04 ExpMxC= 3.30D+03 IAcc=2 IRadAn=         4 AccDes= 0.00D+00
 Harris functional with IExCor=  402 and IRadAn=       4 diagonalized for initial guess.
 HarFok:  IExCor=  402 AccDes= 0.00D+00 IRadAn=         4 IDoV= 1 UseB2=F ITyADJ=14
 ICtDFT=  3500011 ScaDFX=  1.000000  1.000000  1.000000  1.000000
 FoFCou: FMM=F IPFlag=           0 FMFlag=      100000 FMFlg1=           0
         NFxFlg=           0 DoJE=T BraDBF=F KetDBF=T FulRan=T
         wScrn=  0.000000 ICntrl=       500 IOpCl=  0 I1Cent=   200000004 NGrid=           0
         NMat0=    1 NMatS0=      1 NMatT0=    0 NMatD0=    1 NMtDS0=    0 NMtDT0=    0
 Petite list used in FoFCou.
 Requested convergence on RMS density matrix=1.00D-08 within 128 cycles.
 Requested convergence on MAX density matrix=1.00D-06.
 Requested convergence on             energy=1.00D-06.
 No special actions if energy rises.
 Integral accuracy reduced to 1.0D-05 until final iterations.
 Initial convergence to 1.0D-05 achieved.  Increase integral accuracy.
 SCF Done:  E(RB3LYP) =  -1689.92625104     A.U. after   16 cycles
            NFock= 16  Conv=0.93D-08     -V/T= 2.0045
 PrsmSu:  requested number of processors reduced to:  13 ShMem   1 Linda.
 Calling FoFJK, ICntrl=      2127 FMM=F ISym2X=0 I1Cent= 0 IOpClX= 0 NMat=1 NMatS=1 NMatT=0.
 ***** Axes restored to original set *****
 -------------------------------------------------------------------
 Center     Atomic                   Forces (Hartrees/Bohr)
 Number     Number              X              Y              Z
 -------------------------------------------------------------------
      1        6           0.007749311   -0.004996532   -0.002872393
      2        7           0.001547936   -0.010095422    0.005324962
      3        6           0.005772256   -0.004023043   -0.000348080
      4        6          -0.007504213   -0.022431009    0.003553938
      5        8          -0.004441595    0.022479697   -0.010794271
      6        7          -0.008542427    0.004531938    0.009017302
      7       16          -0.017025449   -0.006606322    0.002861280
      8        6           0.002983212    0.010028917   -0.011352469
      9        6          -0.000798056    0.008033495    0.006136628
     10        6           0.006183839    0.008316813   -0.019091145
     11        6          -0.002020478   -0.032369902    0.010717315
     12        6           0.021139144    0.030085217   -0.001884930
     13       16          -0.011339324   -0.008448789    0.001788310
     14       16           0.007317096    0.002034127   -0.005123279
     15        1           0.001206868    0.003474764   -0.002204595
     16        1           0.001093506    0.000396861    0.003185959
     17        1           0.000435082    0.003506557   -0.000169885
     18        1           0.004419709    0.003953611   -0.001795678
     19        1          -0.001418343    0.000050885   -0.000659925
     20        1          -0.002253442   -0.001586106    0.001348849
     21        1           0.000961430   -0.003679930    0.008170989
     22        1           0.000480304   -0.001287296    0.000340528
     23        1          -0.002230023   -0.000548003    0.002048164
     24        1          -0.003716347   -0.000820529    0.001802425
 -------------------------------------------------------------------
 Cartesian Forces:  Max     0.032369902 RMS     0.008999460

 GradGradGradGradGradGradGradGradGradGradGradGradGradGradGradGradGradGrad
 Berny optimization.
 Using GEDIIS/GDIIS optimizer.
 FormGI is forming the generalized inverse of G from B-inverse, IUseBI=4.
 Internal  Forces:  Max     0.038219853 RMS     0.008916558
 Search for a local minimum.
 Step number   2 out of a maximum of  117
 All quantities printed in internal units (Hartrees-Bohrs-Radians)
 Mixed Optimization -- RFO/linear search
 Update second derivatives using D2CorX and points    1    2
 DE= -2.57D-02 DEPred=-4.34D-02 R= 5.91D-01
 TightC=F SS=  1.41D+00  RLast= 4.54D-01 DXNew= 5.0454D-01 1.3610D+00
 Trust test= 5.91D-01 RLast= 4.54D-01 DXMaxT set to 5.05D-01
 ITU=  1  0
 Use linear search instead of GDIIS.
     Eigenvalues ---    0.00319   0.00355   0.00702   0.00792   0.00888
     Eigenvalues ---    0.01031   0.01104   0.01213   0.01343   0.01728
     Eigenvalues ---    0.01776   0.01960   0.02183   0.02253   0.02505
     Eigenvalues ---    0.02710   0.03262   0.05346   0.06637   0.07135
     Eigenvalues ---    0.07289   0.11523   0.11778   0.12149   0.14308
     Eigenvalues ---    0.15051   0.15982   0.15991   0.15997   0.15999
     Eigenvalues ---    0.16000   0.16023   0.18124   0.21030   0.22054
     Eigenvalues ---    0.22595   0.22705   0.24433   0.24905   0.24950
     Eigenvalues ---    0.25000   0.26031   0.28275   0.28675   0.29188
     Eigenvalues ---    0.30562   0.30669   0.32882   0.33405   0.34033
     Eigenvalues ---    0.34103   0.34232   0.34996   0.35015   0.35171
     Eigenvalues ---    0.35437   0.36817   0.38152   0.39610   0.43509
     Eigenvalues ---    0.45092   0.50475   0.54024   0.55974   0.68576
     Eigenvalues ---    0.73294
 RFO step:  Lambda=-1.49394462D-01 EMin= 3.18595438D-03
 Quartic linear search produced a step of  1.41744.
 Iteration  1 RMS(Cart)=  0.32614348 RMS(Int)=  0.06660625
 Iteration  2 RMS(Cart)=  0.13412847 RMS(Int)=  0.02653831
 Iteration  3 RMS(Cart)=  0.05800294 RMS(Int)=  0.00443757
 Iteration  4 RMS(Cart)=  0.00454194 RMS(Int)=  0.00314377
 Iteration  5 RMS(Cart)=  0.00002453 RMS(Int)=  0.00314376
 Iteration  6 RMS(Cart)=  0.00000001 RMS(Int)=  0.00314376
 Variable       Old X    -DE/DX   Delta X   Delta X   Delta X     New X
                                 (Linear)    (Quad)   (Total)
    R1        2.39818  -0.01015  -0.03766  -0.00302  -0.04068   2.35751
    R2        2.06940  -0.00329  -0.01995  -0.00767  -0.02762   2.04178
    R3        2.07337   0.00050   0.00089   0.00164   0.00253   2.07590
    R4        2.75038  -0.00060  -0.01480   0.00194  -0.01286   2.73752
    R5        2.89311  -0.02355  -0.00849  -0.09610  -0.10460   2.78852
    R6        2.07033   0.00197   0.00139   0.00698   0.00837   2.07870
    R7        2.08424   0.00346   0.01838   0.00835   0.02673   2.11096
    R8        2.54457  -0.02993  -0.00012  -0.07715  -0.07726   2.46731
    R9        3.39460   0.00443  -0.01252   0.02141   0.00889   3.40349
   R10        2.74794   0.00660   0.04347   0.00880   0.05228   2.80021
   R11        1.92741  -0.00087   0.01419  -0.00755   0.00663   1.93404
   R12        1.92913   0.00112  -0.01071   0.00705  -0.00366   1.92547
   R13        3.36320   0.00584   0.04256   0.01503   0.05626   3.41947
   R14        3.28194  -0.00735  -0.04808  -0.02312  -0.07232   3.20962
   R15        2.54016   0.00526   0.01797   0.00797   0.02606   2.56622
   R16        2.04797  -0.00132  -0.00841  -0.00266  -0.01106   2.03691
   R17        2.72175  -0.00437  -0.00570  -0.00914  -0.01343   2.70832
   R18        2.05576  -0.00028  -0.00106  -0.00076  -0.00182   2.05394
   R19        2.55777   0.01054   0.02728   0.01599   0.04463   2.60240
   R20        2.05313  -0.00195  -0.00513  -0.00580  -0.01093   2.04220
   R21        2.75082  -0.02164  -0.07226  -0.06582  -0.13790   2.61291
   R22        2.04812   0.00073  -0.00222   0.00322   0.00100   2.04912
   R23        3.28927  -0.00224  -0.02205  -0.00452  -0.02658   3.26269
   R24        3.82843  -0.00358  -0.02889  -0.00842  -0.03730   3.79113
    A1        2.06176   0.00223   0.00700   0.01369   0.02063   2.08239
    A2        2.17728  -0.00209  -0.00880  -0.01297  -0.02183   2.15545
    A3        2.04403  -0.00013   0.00194  -0.00057   0.00131   2.04534
    A4        2.07518  -0.00803  -0.06210  -0.02924  -0.09134   1.98383
    A5        2.01794  -0.02278   0.13494  -0.11604   0.01766   2.03560
    A6        1.92860   0.00889  -0.00274   0.06628   0.06150   1.99010
    A7        1.86662   0.00997  -0.03891   0.05452   0.01684   1.88346
    A8        1.90698   0.00617  -0.03495   0.03479  -0.00381   1.90317
    A9        1.87273   0.00134  -0.05086  -0.00841  -0.05946   1.81327
   A10        1.86363  -0.00249  -0.01634  -0.02839  -0.04735   1.81628
   A11        2.31872  -0.02327   0.17986  -0.12405   0.05240   2.37113
   A12        2.08647   0.00333  -0.12219   0.03231  -0.09313   1.99334
   A13        1.87065   0.02025  -0.05038   0.10165   0.04797   1.91862
   A14        2.15924  -0.03822   0.15909  -0.19351  -0.03442   2.12483
   A15        1.73651   0.00001  -0.02382   0.00775  -0.01644   1.72007
   A16        1.79168   0.00241   0.08364   0.04780   0.13105   1.92273
   A17        1.88154  -0.00068   0.00928   0.00414   0.01265   1.89419
   A18        1.75855   0.01139   0.11041   0.10322   0.21798   1.97653
   A19        1.85878  -0.00234  -0.01313  -0.01262  -0.02511   1.83368
   A20        1.76311  -0.00515  -0.01997  -0.01300  -0.03749   1.72563
   A21        2.12398   0.00358   0.02713   0.01813   0.04040   2.16438
   A22        2.04430  -0.01063  -0.07117  -0.06533  -0.13441   1.90989
   A23        2.11225   0.00716   0.04518   0.04794   0.09539   2.20764
   A24        2.18015  -0.00110  -0.00720   0.00646  -0.00251   2.17765
   A25        2.05824  -0.00082   0.00124  -0.01164  -0.01012   2.04811
   A26        2.04464   0.00189   0.00575   0.00464   0.01037   2.05500
   A27        2.14606  -0.00970  -0.05170  -0.03778  -0.08944   2.05662
   A28        2.03639   0.00691   0.03656   0.03194   0.06840   2.10479
   A29        2.10020   0.00282   0.01547   0.00614   0.02145   2.12165
   A30        2.13747   0.00926   0.06034   0.03986   0.09917   2.23664
   A31        2.09375  -0.00150  -0.00390   0.00119  -0.00217   2.09158
   A32        2.05105  -0.00778  -0.05641  -0.04057  -0.09651   1.95454
   A33        2.11877   0.00586   0.02462   0.03231   0.04944   2.16821
   A34        2.05170  -0.02104  -0.07424  -0.08500  -0.16391   1.88779
   A35        2.06847   0.01669   0.06549   0.08423   0.14851   2.21698
   A36        1.85777  -0.02483  -0.09656  -0.10181  -0.19837   1.65940
    D1       -3.08535  -0.00486  -0.08141  -0.10386  -0.18538   3.01245
    D2        0.07313  -0.00521  -0.09025  -0.11521  -0.20535  -0.13222
    D3       -3.12600  -0.00030  -0.00802  -0.01034  -0.01847   3.13871
    D4        2.87849  -0.00038  -0.01582  -0.03014  -0.04407   2.83443
    D5        0.70133   0.00169  -0.06683  -0.04194  -0.11045   0.59088
    D6       -1.32076  -0.00560  -0.02311  -0.07340  -0.09672  -1.41747
    D7        0.10425  -0.00311  -0.09058  -0.11324  -0.20433  -0.10008
    D8        3.09753   0.00193  -0.03500  -0.00340  -0.03900   3.05854
    D9        2.29256  -0.00348  -0.02286  -0.08393  -0.10779   2.18477
   D10       -0.99735   0.00156   0.03272   0.02590   0.05755  -0.93980
   D11       -1.97632  -0.00253  -0.09107  -0.10405  -0.19349  -2.16981
   D12        1.01696   0.00250  -0.03549   0.00579  -0.02815   0.98881
[...]
 DIIS inversion failure, remove point   8.
 DIIS inversion failure, remove point   7.
 RFO-DIIS uses    6 points instead of   10
 DidBck=T Rises=F RFO-DIIS coefs:    0.42857    0.69885   -0.31131   -2.00000    2.09035
                  RFO-DIIS coefs:    0.09354    0.00000    0.00000    0.00000    0.00000
 Iteration  1 RMS(Cart)=  0.19763756 RMS(Int)=  0.00930916
 Iteration  2 RMS(Cart)=  0.01988900 RMS(Int)=  0.00041122
 Iteration  3 RMS(Cart)=  0.00014327 RMS(Int)=  0.00040769
 Iteration  4 RMS(Cart)=  0.00000006 RMS(Int)=  0.00040769
 Variable       Old X    -DE/DX   Delta X   Delta X   Delta X     New X
                                 (Linear)    (Quad)   (Total)
    R1        2.38793  -0.00073  -0.00100   0.00017  -0.00083   2.38710
    R2        2.06156  -0.00013  -0.00045   0.00072   0.00027   2.06184
    R3        2.07802   0.00020   0.00080  -0.00055   0.00025   2.07826
    R4        2.74922  -0.00145  -0.00581   0.00607   0.00026   2.74948
    R5        2.84628  -0.00066  -0.00241   0.00784   0.00543   2.85171
    R6        2.08487   0.00049   0.00168   0.00296   0.00464   2.08951
    R7        2.08022  -0.00046  -0.00029  -0.00583  -0.00612   2.07410
    R8        2.35842  -0.00159  -0.00133   0.00477   0.00344   2.36186
    R9        6.07838  -0.00075   0.00166  -0.06570  -0.06404   6.01434
   R10        3.07198   0.00037   0.00490  -0.00979  -0.00489   3.06709
   R11        1.94150  -0.00042  -0.00217   0.00777   0.00560   1.94710
   R12        1.93135  -0.00004   0.00005  -0.00050  -0.00044   1.93091
   R13        3.27531  -0.00053  -0.00095  -0.00089  -0.00188   3.27342
   R14        3.28688  -0.00089  -0.00133   0.00091  -0.00048   3.28640
   R15        2.56043   0.00021   0.00045  -0.00046  -0.00002   2.56041
   R16        2.04951   0.00008   0.00023  -0.00082  -0.00059   2.04892
   R17        2.68906   0.00053   0.00092  -0.00196  -0.00099   2.68807
   R18        2.05021  -0.00001   0.00005  -0.00010  -0.00005   2.05016
   R19        2.58406   0.00077   0.00090  -0.00156  -0.00061   2.58345
   R20        2.04990  -0.00001  -0.00007  -0.00010  -0.00017   2.04973
   R21        2.67436  -0.00025  -0.00049   0.00059   0.00012   2.67448
   R22        2.05338  -0.00001   0.00003   0.00025   0.00028   2.05365
   R23        3.21391   0.00026   0.00077   0.00115   0.00192   3.21583
   R24        3.77984   0.00054   0.00000   0.00491   0.00492   3.78476
    A1        2.08341   0.00012   0.00110   0.00002   0.00111   2.08452
    A2        2.16212  -0.00013  -0.00110   0.00054  -0.00056   2.16156
    A3        2.03765   0.00001  -0.00001  -0.00054  -0.00056   2.03710
    A4        2.04610   0.00036   0.00264   0.00171   0.00436   2.05045
    A5        1.94018  -0.00048   0.00000   0.00049   0.00034   1.94052
    A6        1.99800   0.00024   0.00232  -0.00481  -0.00260   1.99540
    A7        1.88496   0.00062   0.00702  -0.00274   0.00411   1.88907
    A8        1.89815  -0.00002   0.00218  -0.02315  -0.02095   1.87720
    A9        1.86878   0.00005  -0.00473   0.03094   0.02620   1.89499
   A10        1.86810  -0.00041  -0.00768   0.00250  -0.00498   1.86311
   A11        2.06437  -0.00067   0.00141  -0.01140  -0.01161   2.05276
   A12        1.79840   0.00020   0.02897  -0.10996  -0.08118   1.71722
   A13        1.53750  -0.00031   0.01326  -0.05724  -0.04442   1.49308
   A14        2.08856  -0.00081  -0.00184   0.00058  -0.00126   2.08730
   A15        1.70766  -0.00026  -0.00293   0.01247   0.00954   1.71721
   A16        1.68573  -0.00006   0.00029  -0.00193  -0.00164   1.68409
   A17        1.80864   0.00010   0.00030  -0.00003   0.00029   1.80892
   A18        1.51892  -0.00057  -0.02785   0.11567   0.08688   1.60581
   A19        2.74418  -0.00031   0.06183  -0.25318  -0.19099   2.55319
   A20        1.77921   0.00076   0.00158  -0.00196  -0.00026   1.77895
   A21        2.19202  -0.00040  -0.00120   0.00114  -0.00017   2.19185
   A22        1.93771   0.00032  -0.00002   0.00524   0.00528   1.94300
   A23        2.15332   0.00008   0.00123  -0.00637  -0.00509   2.14823
   A24        2.13805  -0.00007   0.00053  -0.00060  -0.00010   2.13795
   A25        2.07082   0.00002  -0.00010   0.00002  -0.00007   2.07075
   A26        2.07427   0.00006  -0.00043   0.00054   0.00012   2.07440
   A27        2.15136  -0.00004  -0.00052   0.00074   0.00025   2.15161
   A28        2.06557  -0.00004  -0.00026  -0.00004  -0.00032   2.06525
   A29        2.06617   0.00008   0.00080  -0.00079  -0.00002   2.06616
   A30        2.16804  -0.00012   0.00023  -0.00102  -0.00081   2.16723
   A31        2.08310   0.00022   0.00085  -0.00103  -0.00018   2.08292
   A32        2.03201  -0.00011  -0.00107   0.00200   0.00093   2.03294
   A33        2.13683  -0.00013  -0.00041   0.00040  -0.00018   2.13664
   A34        2.04039  -0.00040   0.00048  -0.00004   0.00049   2.04088
   A35        2.10595   0.00053  -0.00007  -0.00044  -0.00044   2.10551
   A36        1.88135  -0.00041  -0.00071   0.00046  -0.00025   1.88111
    D1        3.13283  -0.00008  -0.00022   0.00026   0.00003   3.13286
    D2       -0.01285   0.00007   0.00264   0.00763   0.01027  -0.00258
    D3        3.13779   0.00014   0.00267   0.00686   0.00952  -3.13587
    D4        2.19761  -0.00022   0.00265  -0.07147  -0.06883   2.12878
    D5        0.03835   0.00001  -0.00210  -0.03712  -0.03922  -0.00087
    D6       -2.04036  -0.00006   0.00118  -0.03535  -0.03417  -2.07453
    D7       -3.13781  -0.00000   0.01899  -0.06573  -0.04666   3.09871
    D8        1.48867   0.00043  -0.01525   0.06594   0.05066   1.53933
    D9       -0.92268  -0.00005   0.02362  -0.08870  -0.06490  -0.98757
   D10       -2.57938   0.00038  -0.01062   0.04298   0.03243  -2.54695
   D11        1.09031  -0.00052   0.01340  -0.08124  -0.06794   1.02237
   D12       -0.56639  -0.00008  -0.02084   0.05043   0.02939  -0.53700
   D13       -0.01823  -0.00023   0.00139  -0.00417  -0.00290  -0.02113
   D14        1.79333  -0.00024   0.04281  -0.16185  -0.11892   1.67441
   D15       -1.58047  -0.00035  -0.00857   0.06184   0.05529  -1.52518
   D16        0.41457  -0.00003  -0.02755   0.09805   0.07006   0.48463
   D17        2.63255   0.00040  -0.01942   0.09737   0.07839   2.71094
   D18       -1.65560   0.00072  -0.03840   0.13358   0.09316  -1.56244
   D19       -1.63731   0.00007  -0.05975   0.14874   0.08898  -1.54834
   D20        2.81691   0.00002  -0.05970   0.14716   0.08748   2.90439
   D21       -1.72390   0.00011   0.00041  -0.00130  -0.00090  -1.72480
   D22        2.80820  -0.00028   0.05050  -0.20209  -0.15206   2.65614
   D23       -0.31645  -0.00021   0.04924  -0.20214  -0.15317  -0.46962
   D24        0.03544   0.00001  -0.00594   0.02456   0.01835   0.05379
   D25       -3.08922   0.00008  -0.00719   0.02452   0.01725  -3.07197
   D26       -1.98686  -0.00002   0.02090  -0.05830  -0.03880  -2.02566
   D27        1.14750   0.00000   0.02176  -0.07081  -0.05036   1.09714
   D28       -0.04037   0.00002   0.00698  -0.03102  -0.02362  -0.06399
   D29        3.09398   0.00004   0.00783  -0.04353  -0.03517   3.05881
   D30       -0.01080  -0.00003   0.00176  -0.00470  -0.00292  -0.01372
   D31        3.14026   0.00006   0.00134   0.00030   0.00177  -3.14116
   D32        3.11186  -0.00010   0.00316  -0.00453  -0.00159   3.11027
   D33       -0.02027  -0.00001   0.00273   0.00047   0.00310  -0.01717
   D34       -0.01814   0.00002   0.00294  -0.01543  -0.01231  -0.03045
   D35        3.13746   0.00003   0.00096  -0.00744  -0.00642   3.13104
   D36        3.11397  -0.00006   0.00336  -0.02044  -0.01701   3.09696
   D37       -0.01361  -0.00006   0.00139  -0.01245  -0.01111  -0.02473
   D38        0.01131   0.00002  -0.00154   0.00734   0.00579   0.01711
   D39       -3.12151  -0.00001  -0.00293   0.01524   0.01207  -3.10945
   D40        3.13890   0.00001   0.00043  -0.00066  -0.00011   3.13879
   D41        0.00607  -0.00002  -0.00096   0.00725   0.00617   0.01224
   D42        0.02304  -0.00005  -0.00430   0.01958   0.01493   0.03797
   D43       -3.11105  -0.00007  -0.00518   0.03255   0.02690  -3.08415
   D44       -3.12709  -0.00001  -0.00293   0.01188   0.00882  -3.11827
   D45        0.02201  -0.00004  -0.00382   0.02484   0.02079   0.04279
   D46       -0.00140   0.00018   0.00054   0.00164   0.00214   0.00074
   D47        3.13309   0.00020   0.00138  -0.01063  -0.00920   3.12390
         Item               Value     Threshold  Converged?
 Maximum Force            0.001586     0.000450     NO 
 RMS     Force            0.000382     0.000300     NO 
 Maximum Displacement     0.692933     0.001800     NO 
 RMS     Displacement     0.209951     0.001200     NO 
 Predicted change in Energy=-2.320445D-04
 GradGradGradGradGradGradGradGradGradGradGradGradGradGradGradGradGradGrad

                          Input orientation:                          
 ---------------------------------------------------------------------
 Center     Atomic      Atomic             Coordinates (Angstroms)
 Number     Number       Type             X           Y           Z
 ---------------------------------------------------------------------
      1          6           0        0.980696    0.417214   -1.799169
      2          7           0        2.145968    0.771845   -1.464434
      3          6           0        2.702027    0.191550   -0.251596
      4          6           0        3.994088   -0.533990   -0.536950
      5          8           0        4.600727   -1.039613    0.431778
      6          7           0        3.999718   -0.871446    1.930026
      7         16           0        5.991145    1.919459   -0.188188
      8          6           0        5.805456    2.384966   -1.846323
      9          6           0        5.941726    3.642399   -2.332204
     10          6           0        6.247010    4.754520   -1.499500
     11          6           0        6.393963    4.658494   -0.143713
     12          6           0        6.281026    3.450236    0.584542
     13         16           0        6.398594    3.446715    2.282218
     14         16           0        6.152611    1.560274    2.908375
     15          1           0        0.529516    0.838879   -2.698662
     16          1           0        0.371715   -0.300539   -1.230428
     17          1           0        2.028419   -0.517327    0.264511
     18          1           0        2.906885    1.005303    0.455853
     19          1           0        4.458246    0.017597    2.177009
     20          1           0        4.590807   -1.578318    2.371619
     21          1           0        5.545268    1.535340   -2.467629
     22          1           0        5.799621    3.807531   -3.395005
     23          1           0        6.350652    5.730385   -1.961519
     24          1           0        6.597736    5.555657    0.434729
 ---------------------------------------------------------------------
                    Distance matrix (angstroms):
                    1          2          3          4          5
     1  C    0.000000
     2  N    1.263198   0.000000
     3  C    2.325701   1.454964   0.000000
     4  C    3.402722   2.445604   1.509058   0.000000
     5  O    4.494897   3.592053   2.363858   1.249840   0.000000
     6  N    4.968102   4.202280   2.751989   2.489956   1.623034
     7  S    5.473262   4.210844   3.715910   3.182653   3.327721
     8  C    5.210814   4.017443   4.121347   3.676386   4.285890
     9  C    5.941192   4.837446   5.170391   4.945549   5.599921
    10  C    6.829063   5.716772   5.911419   5.828422   6.325509
    11  C    7.073362   5.907267   5.796174   5.733754   6.001276
    12  C    6.555517   5.335802   4.911965   4.728835   4.796403
    13  S    7.428944   6.267149   5.539037   5.438324   5.175287
    14  S    7.086344   5.982999   4.874973   4.573339   3.911687
    15  H    1.091078   2.034878   3.335711   4.308251   5.468377
    16  H    1.099770   2.086322   2.574998   3.695537   4.603662
    17  H    2.495970   2.159868   1.105721   2.122845   2.630119
    18  H    3.023438   2.078702   1.097564   2.130046   2.655441
    19  H    5.297457   4.378999   3.002115   2.808072   2.045440
    20  H    5.866048   5.120137   3.685265   3.147454   2.013277
    21  H    4.746827   3.625544   3.847154   3.227353   3.991128
    22  H    6.104341   5.127541   5.705386   5.502475   6.290979
    23  H    7.555963   6.520244   6.849452   6.842893   7.390736
    24  H    7.933791   6.805139   6.664926   6.693799   6.890982
                    6          7          8          9         10
     6  N    0.000000
     7  S    4.030107   0.000000
     8  C    5.303368   1.732220   0.000000
     9  C    6.504829   2.750958   1.354913   0.000000
    10  C    6.961571   3.134100   2.435168   1.422465   0.000000
    11  C    6.372836   2.768855   2.900716   2.454885   1.367104
    12  C    5.068691   1.739087   2.696307   2.942696   2.458770
    13  S    4.952288   2.932820   4.303948   4.641110   4.004338
    14  S    3.391958   3.121505   4.838159   5.642994   5.444399
    15  H    6.032601   6.107333   5.563489   6.106229   7.032779
    16  H    4.845287   6.131284   6.092356   6.912720   7.755329
    17  H    2.604873   4.673976   5.210079   6.273772   6.978582
    18  H    2.624816   3.280721   3.950341   4.892627   5.388550
    19  H    1.030362   3.400149   4.858663   5.972680   6.257383
    20  H    1.021792   4.554997   5.913883   7.155894   7.604828
    21  H    5.246019   2.354188   1.084243   2.148306   3.434070
    22  H    7.313579   3.726281   2.102889   1.084900   2.165614
    23  H    8.015933   4.218662   3.391510   2.159702   1.084672
    24  H    7.091774   3.738705   3.985497   3.427364   2.122751
                   11         12         13         14         15
    11  C    0.000000
    12  C    1.415274   0.000000
    13  S    2.711747   1.701745   0.000000
    14  S    4.355739   2.998107   2.002808   0.000000
    15  H    7.450434   7.118882   8.127487   7.973611   0.000000
    16  H    7.876575   7.230656   7.918577   7.349223   1.865178
    17  H    6.783343   5.824829   6.235639   5.321222   3.586976
    18  H    5.085764   4.168823   4.635529   4.105800   3.953548
    19  H    5.538112   4.200177   3.941430   2.405332   6.315188
    20  H    6.962477   5.597931   5.341071   3.546562   6.931426
    21  H    3.984339   3.677487   5.190622   5.410259   5.069142
    22  H    3.412957   4.024451   5.720123   6.701296   6.088661
    23  H    2.110745   3.418531   4.819413   6.414430   7.639099
    24  H    1.086747   2.134373   2.810784   4.720184   8.299965
                   16         17         18         19         20
    16  H    0.000000
    17  H    2.241987   0.000000
    18  H    3.312983   1.768252   0.000000
    19  H    5.330251   3.138129   2.518862   0.000000
    20  H    5.692820   3.483021   3.630544   1.613192   0.000000
    21  H    5.627323   4.903698   3.973507   5.005779   5.833024
    22  H    7.143094   6.805763   5.572209   6.870970   7.982640
    23  H    8.523745   7.916489   6.326896   7.303736   8.676997
    24  H    8.708106   7.601891   5.859057   6.187331   7.659823
                   21         22         23         24
    21  H    0.000000
    22  H    2.467301   0.000000
    23  H    4.301534   2.460870   0.000000
    24  H    5.068956   4.284833   2.415282   0.000000
 Stoichiometry    C8H10N2OS3
 Framework group  C1[X(C8H10N2OS3)]
 Deg. of freedom    66
 Full point group                 C1      NOp   1
 Largest Abelian subgroup         C1      NOp   1
 Largest concise Abelian subgroup C1      NOp   1
                         Standard orientation:                         
 ---------------------------------------------------------------------
 Center     Atomic      Atomic             Coordinates (Angstroms)
 Number     Number       Type             X           Y           Z
 ---------------------------------------------------------------------
      1          6           0        4.262681   -1.714945    1.265923
      2          7           0        3.134558   -1.429513    0.774458
      3          6           0        2.845046   -0.024928    0.529011
      4          6           0        2.517736    0.218589   -0.923857
      5          8           0        2.203026    1.380531   -1.259933
      6          7           0        2.132079    2.548719   -0.135413
      7         16           0       -0.615201   -0.325929   -0.791624
      8          6           0       -0.392820   -2.023608   -1.054339
      9          6           0       -1.221649   -3.003752   -0.620574
     10          6           0       -2.394988   -2.732867    0.136595
     11          6           0       -2.767015   -1.474170    0.519024
     12          6           0       -2.047787   -0.299412    0.193981
     13         16           0       -2.547170    1.215284    0.787487
     14         16           0       -1.249604    2.589674    0.125207
     15          1           0        4.510076   -2.757717    1.470556
     16          1           0        5.030083   -0.967003    1.513249
     17          1           0        3.664042    0.664206    0.806426
     18          1           0        1.974958    0.257488    1.135506
     19          1           0        1.149861    2.423558    0.149594
     20          1           0        2.095587    3.334618   -0.787402
     21          1           0        0.518494   -2.220933   -1.607648
     22          1           0       -0.972564   -4.034585   -0.849370
     23          1           0       -3.015716   -3.568750    0.440750
     24          1           0       -3.661115   -1.343467    1.122779
 ---------------------------------------------------------------------
 Rotational constants (GHZ):           0.5448165           0.3598810           0.2464892
 Standard basis: 6-31G(2df,p) (6D, 7F)
 There are   496 symmetry adapted cartesian basis functions of A   symmetry.
 There are   454 symmetry adapted basis functions of A   symmetry.
   454 basis functions,   758 primitive gaussians,   496 cartesian basis functions
    64 alpha electrons       64 beta electrons
       nuclear repulsion energy      1185.0985407963 Hartrees.
 NAtoms=   24 NActive=   24 NUniq=   24 SFac= 1.00D+00 NAtFMM=   60 NAOKFM=F Big=F
 Integral buffers will be    131072 words long.
 Raffenetti 2 integral format.
 Two-electron integral symmetry is turned on.
 One-electron integrals computed using PRISM.
 PrsmSu:  requested number of processors reduced to:  12 ShMem   1 Linda.
 NBasis=   454 RedAO= T EigKep=  3.60D-04  NBF=   454
 NBsUse=   454 1.00D-06 EigRej= -1.00D+00 NBFU=   454
 Initial guess from the checkpoint file:  "CdNCCqONrdS1CdCCdCC1d[S][S].chk"
 B after Tr=    -0.000000    0.000000   -0.000000
         Rot=    0.999917    0.002725   -0.005202    0.011457 Ang=   1.48 deg.
 ExpMin= 1.17D-01 ExpMax= 2.19D+04 ExpMxC= 3.30D+03 IAcc=2 IRadAn=         4 AccDes= 0.00D+00
 Harris functional with IExCor=  402 and IRadAn=       4 diagonalized for initial guess.
 HarFok:  IExCor=  402 AccDes= 0.00D+00 IRadAn=         4 IDoV= 1 UseB2=F ITyADJ=14
 ICtDFT=  3500011 ScaDFX=  1.000000  1.000000  1.000000  1.000000
 FoFCou: FMM=F IPFlag=           0 FMFlag=      100000 FMFlg1=           0
         NFxFlg=           0 DoJE=T BraDBF=F KetDBF=T FulRan=T
         wScrn=  0.000000 ICntrl=       500 IOpCl=  0 I1Cent=   200000004 NGrid=           0
         NMat0=    1 NMatS0=      1 NMatT0=    0 NMatD0=    1 NMtDS0=    0 NMtDT0=    0
 Petite list used in FoFCou.
 Requested convergence on RMS density matrix=1.00D-08 within 128 cycles.
 Requested convergence on MAX density matrix=1.00D-06.
 Requested convergence on             energy=1.00D-06.
 No special actions if energy rises.
 Integral accuracy reduced to 1.0D-05 until final iterations.
 Initial convergence to 1.0D-05 achieved.  Increase integral accuracy.
slurmstepd: error: *** JOB 27447084 ON lewis4-r630-hpc4rc-node384 CANCELLED AT 2023-05-16T08:42:30 DUE TO TIME LIMIT ***
