### Starting Gaussian ###
 Entering Gaussian System, Link 0=g16
 Initial command:
 /cluster/software/gaussian/gaussian-16-A.03/avx2/g16/l1.exe "/local/scratch/yxie/Gau-18328.inp" -scrdir="/local/scratch/yxie/"
 Entering Link 1 = /cluster/software/gaussian/gaussian-16-A.03/avx2/g16/l1.exe PID=     18329.
  
 Copyright (c) 1988,1990,1992,1993,1995,1998,2003,2009,2016,
            Gaussian, Inc.  All Rights Reserved.
  
 This is part of the Gaussian(R) 16 program.  It is based on
 the Gaussian(R) 09 system (copyright 2009, Gaussian, Inc.),
 the Gaussian(R) 03 system (copyright 2003, Gaussian, Inc.),
 the Gaussian(R) 98 system (copyright 1998, Gaussian, Inc.),
 the Gaussian(R) 94 system (copyright 1995, Gaussian, Inc.),
 the Gaussian 92(TM) system (copyright 1992, Gaussian, Inc.),
 the Gaussian 90(TM) system (copyright 1990, Gaussian, Inc.),
 the Gaussian 88(TM) system (copyright 1988, Gaussian, Inc.),
 the Gaussian 86(TM) system (copyright 1986, Carnegie Mellon
 University), and the Gaussian 82(TM) system (copyright 1983,
 Carnegie Mellon University). Gaussian is a federally registered
 trademark of Gaussian, Inc.
  
 This software contains proprietary and confidential information,
 including trade secrets, belonging to Gaussian, Inc.
  
 This software is provided under written license and may be
 used, copied, transmitted, or stored only in accord with that
 written license.
  
 The following legend is applicable only to US Government
 contracts under FAR:
  
                    RESTRICTED RIGHTS LEGEND
  
 Use, reproduction and disclosure by the US Government is
 subject to restrictions as set forth in subparagraphs (a)
 and (c) of the Commercial Computer Software - Restricted
 Rights clause in FAR 52.227-19.
  
 Gaussian, Inc.
 340 Quinnipiac St., Bldg. 40, Wallingford CT 06492
  
  
 ---------------------------------------------------------------
 Warning -- This program may not be used in any manner that
 competes with the business of Gaussian, Inc. or will provide
 assistance to any competitor of Gaussian, Inc.  The licensee
 of this program is prohibited from giving any competitor of
 Gaussian, Inc. access to this program.  By using this program,
 the user acknowledges that Gaussian, Inc. is engaged in the
 business of creating and licensing software in the field of
 computational chemistry and represents and warrants to the
 licensee that it is not a competitor of Gaussian, Inc. and that
 it will not use this program in any manner prohibited above.
 ---------------------------------------------------------------
  

 Cite this work as:
 Gaussian 16, Revision A.03,
 M. J. Frisch, G. W. Trucks, H. B. Schlegel, G. E. Scuseria, 
 M. A. Robb, J. R. Cheeseman, G. Scalmani, V. Barone, 
 G. A. Petersson, H. Nakatsuji, X. Li, M. Caricato, A. V. Marenich, 
 J. Bloino, B. G. Janesko, R. Gomperts, B. Mennucci, H. P. Hratchian, 
 J. V. Ortiz, A. F. Izmaylov, J. L. Sonnenberg, D. Williams-Young, 
 F. Ding, F. Lipparini, F. Egidi, J. Goings, B. Peng, A. Petrone, 
 T. Henderson, D. Ranasinghe, V. G. Zakrzewski, J. Gao, N. Rega, 
 G. Zheng, W. Liang, M. Hada, M. Ehara, K. Toyota, R. Fukuda, 
 J. Hasegawa, M. Ishida, T. Nakajima, Y. Honda, O. Kitao, H. Nakai, 
 T. Vreven, K. Throssell, J. A. Montgomery, Jr., J. E. Peralta, 
 F. Ogliaro, M. J. Bearpark, J. J. Heyd, E. N. Brothers, K. N. Kudin, 
 V. N. Staroverov, T. A. Keith, R. Kobayashi, J. Normand, 
 K. Raghavachari, A. P. Rendell, J. C. Burant, S. S. Iyengar, 
 J. Tomasi, M. Cossi, J. M. Millam, M. Klene, C. Adamo, R. Cammi, 
 J. W. Ochterski, R. L. Martin, K. Morokuma, O. Farkas, 
 J. B. Foresman, and D. J. Fox, Gaussian, Inc., Wallingford CT, 2016.
 
 ******************************************
 Gaussian 16:  ES64L-G16RevA.03 25-Dec-2016
                17-May-2023 
 ******************************************
 %chk=CdNC1dCCdCqOrCdCCdC2CdCC21O.chk
 %NProcShared=20
 Will use up to   20 processors via shared memory.
 -----------------------------
 # opt freq b3lyp/6-31g(2df,p)
 -----------------------------
 1/18=20,19=15,26=3,38=1/1,3;
 2/9=110,12=2,17=6,18=5,40=1/2;
 3/5=1,6=6,7=104,11=2,25=1,30=1,71=1,74=-5/1,2,3;
 4//1;
 5/5=2,38=5/2;
 6/7=2,8=2,9=2,10=2,28=1/1;
 7//1,2,3,16;
 1/18=20,19=15,26=3/3(2);
 2/9=110/2;
 99//99;
 2/9=110/2;
 3/5=1,6=6,7=104,11=2,25=1,30=1,71=1,74=-5/1,2,3;
 4/5=5,16=3,69=1/1;
 5/5=2,38=5/2;
 7//1,2,3,16;
 1/18=20,19=15,26=3/3(-5);
 2/9=110/2;
 6/7=2,8=2,9=2,10=2,19=2,28=1/1;
 99/9=1/99;
 -------------------
 Title Card Required
 -------------------
 Symbolic Z-matrix:
 Charge =  0 Multiplicity = 1
 C                     2.92424  -1.32878  -0.33852 
 N                     4.5896   -2.17175  -0.67881 
 C                     6.35389  -3.24037  -1.07498 
 C                     5.60546  -1.82649  -0.5068 
 C                     5.87352  -2.86505   0.42825 
 C                     7.11576  -2.41339   0.66142 
 O                     7.64024  -1.17156  -0.06656 
 C                     7.48254  -3.81633   0.70579 
 C                     8.74439  -3.47933   0.72972 
 C                     9.02582  -5.0884    0.6802 
 C                     10.14494  -4.67618   0.28554 
 C                     11.43721  -3.95402  -0.03614 
 C                     10.78863  -4.68275  -0.90063 
 C                     8.6087   -4.2691   -1.09267 
 O                     9.80542  -5.91136  -1.32658 
 H                     1.8984   -0.0124   -0.12604 
 H                     1.31559  -1.26212  -0.11401 
 H                     5.20603  -0.56232  -0.01854 
 H                     4.78223  -3.69107   0.17293 
 H                     6.86412  -0.5506   -0.04106 
 H                     6.90099  -4.83938   0.04872 
 H                     9.39484  -2.85473  -0.04888 
 H                     8.81467  -6.15674   0.10951 
 H                     11.82652  -2.95242   0.01242 
 H                     12.24905  -5.12228  -0.33048 
 H                     11.09846  -6.48084  -1.0953 
 
 Add virtual bond connecting atoms H21        and C8         Dist= 2.55D+00.
 Add virtual bond connecting atoms H17        and H16        Dist= 2.61D+00.
 Add virtual bond connecting atoms H19        and C5         Dist= 2.63D+00.
 Add virtual bond connecting atoms H18        and C4         Dist= 2.67D+00.
 Add virtual bond connecting atoms H26        and O15        Dist= 2.71D+00.
 Add virtual bond connecting atoms H25        and C12        Dist= 2.75D+00.
 Add virtual bond connecting atoms H16        and C1         Dist= 3.18D+00.
 Add virtual bond connecting atoms H17        and C1         Dist= 3.07D+00.
 Add virtual bond connecting atoms N2         and C1         Dist= 3.59D+00.
 Add virtual bond connecting atoms C9         and C14        Dist= 3.76D+00.
 Add virtual bond connecting atoms C10        and C14        Dist= 3.77D+00.
 Add virtual bond connecting atoms O15        and C14        Dist= 3.87D+00.
 Add virtual bond connecting atoms H22        and C14        Dist= 3.64D+00.

 GradGradGradGradGradGradGradGradGradGradGradGradGradGradGradGradGradGrad
 Berny optimization.
 Initialization pass.
                           ----------------------------
                           !    Initial Parameters    !
                           ! (Angstroms and Degrees)  !
 --------------------------                            --------------------------
 ! Name  Definition              Value          Derivative Info.                !
 --------------------------------------------------------------------------------
 ! R1    R(1,2)                  1.8973         estimate D2E/DX2                !
 ! R2    R(1,16)                 1.6824         estimate D2E/DX2                !
 ! R3    R(1,17)                 1.6256         estimate D2E/DX2                !
 ! R4    R(2,4)                  1.0866         estimate D2E/DX2                !
 ! R5    R(3,4)                  1.6977         estimate D2E/DX2                !
 ! R6    R(3,5)                  1.6221         estimate D2E/DX2                !
 ! R7    R(4,5)                  1.4229         estimate D2E/DX2                !
 ! R8    R(4,18)                 1.4128         estimate D2E/DX2                !
 ! R9    R(5,6)                  1.3422         estimate D2E/DX2                !
 ! R10   R(5,19)                 1.3923         estimate D2E/DX2                !
 ! R11   R(6,7)                  1.532          estimate D2E/DX2                !
 ! R12   R(6,8)                  1.4508         estimate D2E/DX2                !
 ! R13   R(7,20)                 0.9943         estimate D2E/DX2                !
 ! R14   R(8,9)                  1.3063         estimate D2E/DX2                !
 ! R15   R(8,21)                 1.3478         estimate D2E/DX2                !
 ! R16   R(9,10)                 1.6342         estimate D2E/DX2                !
 ! R17   R(9,14)                 1.9908         estimate D2E/DX2                !
 ! R18   R(9,22)                 1.1914         estimate D2E/DX2                !
 ! R19   R(10,11)                1.2562         estimate D2E/DX2                !
 ! R20   R(10,14)                1.9971         estimate D2E/DX2                !
 ! R21   R(10,23)                1.2295         estimate D2E/DX2                !
 ! R22   R(11,12)                1.5149         estimate D2E/DX2                !
 ! R23   R(11,13)                1.3496         estimate D2E/DX2                !
 ! R24   R(12,13)                1.3035         estimate D2E/DX2                !
 ! R25   R(12,24)                1.0757         estimate D2E/DX2                !
 ! R26   R(12,25)                1.4528         estimate D2E/DX2                !
 ! R27   R(13,15)                1.6302         estimate D2E/DX2                !
 ! R28   R(14,15)                2.0455         estimate D2E/DX2                !
 ! R29   R(14,22)                1.9256         estimate D2E/DX2                !
 ! R30   R(15,26)                1.4317         estimate D2E/DX2                !
 ! R31   R(16,17)                1.379          estimate D2E/DX2                !
 ! A1    A(2,1,16)             154.8918         estimate D2E/DX2                !
 ! A2    A(2,1,17)             155.7241         estimate D2E/DX2                !
 ! A3    A(1,2,4)              130.6185         estimate D2E/DX2                !
 ! A4    A(2,4,3)               95.4252         estimate D2E/DX2                !
 ! A5    A(2,4,5)               92.7645         estimate D2E/DX2                !
 ! A6    A(2,4,18)              94.2843         estimate D2E/DX2                !
 ! A7    A(5,4,18)             118.6354         estimate D2E/DX2                !
 ! A8    A(3,5,6)               87.9809         estimate D2E/DX2                !
 ! A9    A(3,5,19)              85.6932         estimate D2E/DX2                !
 ! A10   A(4,5,6)               92.459          estimate D2E/DX2                !
 ! A11   A(4,5,19)              99.4889         estimate D2E/DX2                !
 ! A12   A(6,5,19)             163.1259         estimate D2E/DX2                !
 ! A13   A(5,6,7)              120.4678         estimate D2E/DX2                !
 ! A14   A(5,6,8)               85.0601         estimate D2E/DX2                !
 ! A15   A(7,6,8)              135.3838         estimate D2E/DX2                !
 ! A16   A(6,7,20)             103.1095         estimate D2E/DX2                !
 ! A17   A(6,8,9)               89.7307         estimate D2E/DX2                !
 ! A18   A(6,8,21)             127.5916         estimate D2E/DX2                !
 ! A19   A(9,8,21)             128.4295         estimate D2E/DX2                !
 ! A20   A(8,9,10)              84.9392         estimate D2E/DX2                !
 ! A21   A(8,9,14)              79.3416         estimate D2E/DX2                !
 ! A22   A(8,9,22)             130.5912         estimate D2E/DX2                !
 ! A23   A(10,9,22)            113.7259         estimate D2E/DX2                !
 ! A24   A(9,10,11)             80.7842         estimate D2E/DX2                !
 ! A25   A(9,10,23)            147.1444         estimate D2E/DX2                !
 ! A26   A(11,10,14)            76.8534         estimate D2E/DX2                !
 ! A27   A(11,10,23)           106.9959         estimate D2E/DX2                !
 ! A28   A(14,10,23)            84.753          estimate D2E/DX2                !
 ! A29   A(10,11,13)           134.3807         estimate D2E/DX2                !
 ! A30   A(11,12,24)           137.988          estimate D2E/DX2                !
 ! A31   A(11,12,25)            97.8379         estimate D2E/DX2                !
 ! A32   A(13,12,24)           136.9348         estimate D2E/DX2                !
 ! A33   A(13,12,25)            72.1881         estimate D2E/DX2                !
 ! A34   A(24,12,25)           123.7567         estimate D2E/DX2                !
 ! A35   A(11,13,15)            86.8848         estimate D2E/DX2                !
 ! A36   A(12,13,15)           153.473          estimate D2E/DX2                !
 ! A37   A(9,14,15)            112.5394         estimate D2E/DX2                !
 ! A38   A(10,14,15)            69.5087         estimate D2E/DX2                !
 ! A39   A(10,14,22)            74.6246         estimate D2E/DX2                !
 ! A40   A(15,14,22)           114.3843         estimate D2E/DX2                !
 ! A41   A(13,15,14)            73.6139         estimate D2E/DX2                !
 ! A42   A(13,15,26)            73.3133         estimate D2E/DX2                !
 ! A43   A(14,15,26)           146.0258         estimate D2E/DX2                !
 ! A44   L(3,4,18,2,-1)        189.7095         estimate D2E/DX2                !
 ! A45   L(10,11,12,7,-1)      172.2137         estimate D2E/DX2                !
 ! A46   L(3,4,18,2,-2)        181.0225         estimate D2E/DX2                !
 ! A47   L(10,11,12,7,-2)      172.7709         estimate D2E/DX2                !
 ! D1    D(16,1,2,4)            26.5753         estimate D2E/DX2                !
 ! D2    D(17,1,2,4)          -161.9852         estimate D2E/DX2                !
 ! D3    D(2,1,16,17)          175.3656         estimate D2E/DX2                !
 ! D4    D(1,2,4,3)            178.7014         estimate D2E/DX2                !
 ! D5    D(1,2,4,5)            116.6753         estimate D2E/DX2                !
 ! D6    D(1,2,4,18)            -2.3211         estimate D2E/DX2                !
 ! D7    D(2,4,5,6)           -178.5385         estimate D2E/DX2                !
 ! D8    D(2,4,5,19)            13.4216         estimate D2E/DX2                !
 ! D9    D(18,4,5,6)           -82.132          estimate D2E/DX2                !
 ! D10   D(18,4,5,19)          109.8281         estimate D2E/DX2                !
 ! D11   D(3,5,6,7)             67.0189         estimate D2E/DX2                !
 ! D12   D(3,5,6,8)            -74.0681         estimate D2E/DX2                !
 ! D13   D(4,5,6,7)             -0.2503         estimate D2E/DX2                !
 ! D14   D(4,5,6,8)           -141.3373         estimate D2E/DX2                !
 ! D15   D(19,5,6,7)           134.9883         estimate D2E/DX2                !
 ! D16   D(19,5,6,8)            -6.0986         estimate D2E/DX2                !
 ! D17   D(5,6,7,20)            42.1016         estimate D2E/DX2                !
 ! D18   D(8,6,7,20)           159.1008         estimate D2E/DX2                !
 ! D19   D(5,6,8,9)            170.8578         estimate D2E/DX2                !
 ! D20   D(5,6,8,21)            29.5238         estimate D2E/DX2                !
 ! D21   D(7,6,8,9)             41.2871         estimate D2E/DX2                !
 ! D22   D(7,6,8,21)          -100.0469         estimate D2E/DX2                !
 ! D23   D(6,8,9,10)          -176.5917         estimate D2E/DX2                !
 ! D24   D(6,8,9,14)          -110.088          estimate D2E/DX2                !
 ! D25   D(6,8,9,22)           -59.4589         estimate D2E/DX2                !
 ! D26   D(21,8,9,10)          -35.7867         estimate D2E/DX2                !
 ! D27   D(21,8,9,14)           30.717          estimate D2E/DX2                !
 ! D28   D(21,8,9,22)           81.3461         estimate D2E/DX2                !
 ! D29   D(8,9,10,11)          160.2348         estimate D2E/DX2                !
 ! D30   D(8,9,10,23)           53.1009         estimate D2E/DX2                !
 ! D31   D(22,9,10,11)          27.8128         estimate D2E/DX2                !
 ! D32   D(22,9,10,23)         -79.3211         estimate D2E/DX2                !
 ! D33   D(8,9,14,15)         -118.05           estimate D2E/DX2                !
 ! D34   D(9,10,11,13)        -108.6476         estimate D2E/DX2                !
 ! D35   D(14,10,11,13)        -41.7119         estimate D2E/DX2                !
 ! D36   D(23,10,11,13)         38.5241         estimate D2E/DX2                !
 ! D37   D(9,10,12,24)          12.8044         estimate D2E/DX2                !
 ! D38   D(9,10,12,25)        -176.7614         estimate D2E/DX2                !
 ! D39   D(14,10,12,24)         80.4648         estimate D2E/DX2                !
 ! D40   D(14,10,12,25)       -109.101          estimate D2E/DX2                !
 ! D41   D(23,10,12,24)        159.2419         estimate D2E/DX2                !
 ! D42   D(23,10,12,25)        -30.324          estimate D2E/DX2                !
 ! D43   D(11,10,14,15)         65.8431         estimate D2E/DX2                !
 ! D44   D(11,10,14,22)        -58.2036         estimate D2E/DX2                !
 ! D45   D(23,10,14,15)        -42.9942         estimate D2E/DX2                !
 ! D46   D(23,10,14,22)       -167.0409         estimate D2E/DX2                !
 ! D47   D(10,11,13,15)        -21.3898         estimate D2E/DX2                !
 ! D48   D(24,12,13,15)       -155.7885         estimate D2E/DX2                !
 ! D49   D(25,12,13,15)         83.4824         estimate D2E/DX2                !
 ! D50   D(11,13,15,14)         65.399          estimate D2E/DX2                !
 ! D51   D(11,13,15,26)       -106.7163         estimate D2E/DX2                !
 ! D52   D(12,13,15,14)         92.5168         estimate D2E/DX2                !
 ! D53   D(12,13,15,26)        -79.5985         estimate D2E/DX2                !
 ! D54   D(9,14,15,13)         -57.8802         estimate D2E/DX2                !
 ! D55   D(9,14,15,26)         -44.2801         estimate D2E/DX2                !
 ! D56   D(10,14,15,13)        -80.5537         estimate D2E/DX2                !
 ! D57   D(10,14,15,26)        -66.9535         estimate D2E/DX2                !
 ! D58   D(22,14,15,13)        -19.2505         estimate D2E/DX2                !
 ! D59   D(22,14,15,26)         -5.6503         estimate D2E/DX2                !
 --------------------------------------------------------------------------------
 Trust Radius=3.00D-01 FncErr=1.00D-07 GrdErr=1.00D-06 EigMax=2.50D+02 EigMin=1.00D-04
 Number of steps in this run=    147 maximum allowed number of steps=    156.
 GradGradGradGradGradGradGradGradGradGradGradGradGradGradGradGradGradGrad

                          Input orientation:                          
 ---------------------------------------------------------------------
 Center     Atomic      Atomic             Coordinates (Angstroms)
 Number     Number       Type             X           Y           Z
 ---------------------------------------------------------------------
      1          6           0        2.924240   -1.328780   -0.338520
      2          7           0        4.589600   -2.171750   -0.678810
      3          6           0        6.353890   -3.240370   -1.074980
      4          6           0        5.605460   -1.826490   -0.506800
      5          6           0        5.873520   -2.865050    0.428250
      6          6           0        7.115760   -2.413390    0.661420
      7          8           0        7.640240   -1.171560   -0.066560
      8          6           0        7.482540   -3.816330    0.705790
      9          6           0        8.744390   -3.479330    0.729720
     10          6           0        9.025820   -5.088400    0.680200
     11          6           0       10.144940   -4.676180    0.285540
     12          6           0       11.437210   -3.954020   -0.036140
     13          6           0       10.788630   -4.682750   -0.900630
     14          6           0        8.608700   -4.269100   -1.092670
     15          8           0        9.805420   -5.911360   -1.326580
     16          1           0        1.898400   -0.012400   -0.126040
     17          1           0        1.315590   -1.262120   -0.114010
     18          1           0        5.206030   -0.562320   -0.018540
     19          1           0        4.782230   -3.691070    0.172930
     20          1           0        6.864120   -0.550600   -0.041060
     21          1           0        6.900990   -4.839380    0.048720
     22          1           0        9.394840   -2.854730   -0.048880
     23          1           0        8.814670   -6.156740    0.109510
     24          1           0       11.826520   -2.952420    0.012420
     25          1           0       12.249050   -5.122280   -0.330480
     26          1           0       11.098460   -6.480840   -1.095300
 ---------------------------------------------------------------------
                    Distance matrix (angstroms):
                    1          2          3          4          5
     1  C    0.000000
     2  N    1.897319   0.000000
     3  C    3.994878   2.100385   0.000000
     4  C    2.732210   1.086629   1.697655   0.000000
     5  C    3.412670   1.831583   1.622135   1.422948   0.000000
     6  C    4.443546   2.869859   2.068678   1.997547   1.342209
     7  O    4.726451   3.268277   2.636585   2.182447   2.496807
     8  C    5.296847   3.604284   2.185571   2.992201   1.889684
     9  C    6.296042   4.577773   3.004752   3.756826   2.951291
    10  C    7.238910   5.480311   3.692571   4.873181   3.865716
    11  C    7.983298   6.169598   4.276053   5.418064   4.641722
    12  C    8.913696   7.104877   5.237235   6.225529   5.688248
    13  C    8.568180   6.691958   4.666667   5.931153   5.406317
    14  C    6.444169   4.552288   2.478461   3.915232   3.430126
    15  O    8.326280   6.450509   4.371561   5.915899   5.274398
    16  H    1.682365   3.494410   5.583159   4.144659   4.924066
    17  H    1.625609   3.444643   5.497400   4.344627   4.861909
    18  H    2.428253   1.845591   3.099290   1.412823   2.438797
    19  H    3.048626   1.752399   2.056824   2.148581   1.392268
    20  H    4.026997   2.865012   2.926463   1.851765   2.560902
    21  H    5.318722   3.603897   2.029496   3.326335   2.257812
    22  H    6.654403   4.894242   3.232488   3.953020   3.553513
    23  H    7.629357   5.861127   3.995456   5.424936   4.425741
    24  H    9.055935   7.311652   5.587042   6.343414   5.968145
    25  H   10.066916   8.215481   6.232879   7.418262   6.805743
    26  H    9.691971   7.817095   5.745607   7.223736   6.534152
                    6          7          8          9         10
     6  C    0.000000
     7  O    1.532050   0.000000
     8  C    1.450771   2.759747   0.000000
     9  C    1.947647   2.679368   1.306295   0.000000
    10  C    3.286999   4.221270   2.000133   1.634246   0.000000
    11  C    3.799663   4.322020   2.829192   1.895069   1.256229
    12  C    4.640588   4.707440   4.026020   2.839569   2.759486
    13  C    4.591293   4.789205   3.776440   2.878399   2.402306
    14  C    2.957932   3.403758   2.169722   1.990792   1.997075
    15  O    4.839650   5.361097   3.730342   3.356922   2.304822
    16  H    5.797042   5.857979   6.807675   7.721367   8.787259
    17  H    5.963949   6.325476   6.725127   7.798395   8.644006
    18  H    2.745155   2.509753   4.036797   4.646378   5.963592
    19  H    2.704894   3.817526   2.755232   4.006690   4.496433
    20  H    2.006686   0.994286   3.406644   3.564685   5.077873
    21  H    2.511365   3.743352   1.347803   2.389900   2.230623
    22  H    2.427656   2.431459   2.269602   1.191398   2.378448
    23  H    4.147719   5.124676   2.758195   2.749204   1.229480
    24  H    4.785709   4.550015   4.482997   3.208065   3.585005
    25  H    5.888346   6.076098   5.049651   4.013222   3.378141
    26  H    5.957526   6.419194   4.839258   4.228641   3.063842
                   11         12         13         14         15
    11  C    0.000000
    12  C    1.514911   0.000000
    13  C    1.349585   1.303475   0.000000
    14  C    2.103618   3.035787   2.227124   0.000000
    15  O    2.059096   2.856423   1.630220   2.045451   0.000000
    16  H    9.482914  10.321499  10.072157   8.005123   9.937806
    17  H    9.474854  10.473757  10.102374   7.949161   9.755151
    18  H    6.434993   7.094473   6.994387   5.145108   7.174788
    19  H    5.453603   6.663453   6.181650   4.071576   5.693036
    20  H    5.281180   5.700565   5.763272   4.239892   6.248324
    21  H    3.256675   4.622592   4.004940   2.131728   3.387670
    22  H    1.998041   2.319456   2.451486   1.925605   3.338275
    23  H    1.998165   3.427959   2.662620   2.247409   1.761860
    24  H    2.423562   1.075696   2.214705   3.648183   3.825322
    25  H    2.237357   1.452774   1.628215   3.815888   2.754304
    26  H    2.464288   2.760687   1.834944   3.330271   1.431695
                   16         17         18         19         20
    16  H    0.000000
    17  H    1.378990   0.000000
    18  H    3.354756   3.954031   0.000000
    19  H    4.683852   4.242608   3.163122   0.000000
    20  H    4.995524   5.594441   1.658284   3.773938   0.000000
    21  H    6.953861   6.634754   4.601158   2.413128   4.289878
    22  H    8.017569   8.234982   4.775164   4.693062   3.422517
    23  H    9.254361   8.957872   6.658544   4.726957   5.937687
    24  H   10.355214  10.646725   7.038780   7.084729   5.513349
    25  H   11.545069  11.596907   8.396111   7.619395   7.069759
    26  H   11.288104  11.131151   8.420750   7.020398   7.362663
                   21         22         23         24         25
    21  H    0.000000
    22  H    3.188675   0.000000
    23  H    2.324071   3.356331   0.000000
    24  H    5.274730   2.434413   4.398674   0.000000
    25  H    5.368945   3.656172   3.613677   2.237053   0.000000
    26  H    4.649938   4.140772   2.602365   3.769199   1.937651
                   26
    26  H    0.000000
 Stoichiometry    C12H11NO2
 Framework group  C1[X(C12H11NO2)]
 Deg. of freedom    72
 Full point group                 C1      NOp   1
 Largest Abelian subgroup         C1      NOp   1
 Largest concise Abelian subgroup C1      NOp   1
                         Standard orientation:                         
 ---------------------------------------------------------------------
 Center     Atomic      Atomic             Coordinates (Angstroms)
 Number     Number       Type             X           Y           Z
 ---------------------------------------------------------------------
      1          6           0       -5.170952   -0.503378   -0.088139
      2          7           0       -3.299190   -0.561665   -0.392981
      3          6           0       -1.233160   -0.781438   -0.700935
      4          6           0       -2.567644    0.239253   -0.457272
      5          6           0       -1.859402   -0.222662    0.687197
      6          6           0       -0.979065    0.788423    0.622091
      7          8           0       -1.086797    1.842192   -0.484771
      8          6           0        0.002832   -0.207504    1.007763
      9          6           0        0.957943    0.652169    0.772962
     10          6           0        1.962938   -0.583806    1.137810
     11          6           0        2.763965    0.145928    0.502234
     12          6           0        3.570997    1.235914   -0.172735
     13          6           0        3.355701    0.067142   -0.708146
     14          6           0        1.240570   -0.630045   -0.723468
     15          8           0        3.072240   -1.536945   -0.643532
     16          1           0       -6.698365    0.201149   -0.119801
     17          1           0       -6.626051   -1.105319    0.315542
     18          1           0       -3.522382    1.267661   -0.293193
     19          1           0       -2.430292   -1.485954    0.815988
     20          1           0       -2.063944    2.019590   -0.532922
     21          1           0       -0.018648   -1.528885    0.743065
     22          1           0        1.252168    1.230256   -0.226375
     23          1           0        2.288180   -1.749290    0.919897
     24          1           0        3.443373    2.265719   -0.456173
     25          1           0        4.841364    0.533669   -0.232499
     26          1           0        4.477046   -1.358894   -0.432421
 ---------------------------------------------------------------------
 Rotational constants (GHZ):           1.9649069           0.3350698           0.3165560
 Standard basis: 6-31G(2df,p) (6D, 7F)
 There are   520 symmetry adapted cartesian basis functions of A   symmetry.
 There are   475 symmetry adapted basis functions of A   symmetry.
   475 basis functions,   737 primitive gaussians,   520 cartesian basis functions
    53 alpha electrons       53 beta electrons
       nuclear repulsion energy       949.0905944365 Hartrees.
 NAtoms=   26 NActive=   26 NUniq=   26 SFac= 1.00D+00 NAtFMM=   60 NAOKFM=F Big=F
 Integral buffers will be    131072 words long.
 Raffenetti 2 integral format.
 Two-electron integral symmetry is turned on.
 One-electron integrals computed using PRISM.
 PrsmSu:  requested number of processors reduced to:  12 ShMem   1 Linda.
 NBasis=   475 RedAO= T EigKep=  1.34D-04  NBF=   475
 NBsUse=   475 1.00D-06 EigRej= -1.00D+00 NBFU=   475
 ExpMin= 1.61D-01 ExpMax= 5.48D+03 ExpMxC= 8.25D+02 IAcc=3 IRadAn=         5 AccDes= 0.00D+00
 Harris functional with IExCor=  402 and IRadAn=       5 diagonalized for initial guess.
 HarFok:  IExCor=  402 AccDes= 0.00D+00 IRadAn=         5 IDoV= 1 UseB2=F ITyADJ=14
 ICtDFT=  3500011 ScaDFX=  1.000000  1.000000  1.000000  1.000000
 FoFCou: FMM=F IPFlag=           0 FMFlag=      100000 FMFlg1=           0
         NFxFlg=           0 DoJE=T BraDBF=F KetDBF=T FulRan=T
         wScrn=  0.000000 ICntrl=       500 IOpCl=  0 I1Cent=   200000004 NGrid=           0
         NMat0=    1 NMatS0=      1 NMatT0=    0 NMatD0=    1 NMtDS0=    0 NMtDT0=    0
 Petite list used in FoFCou.
 Requested convergence on RMS density matrix=1.00D-08 within 128 cycles.
 Requested convergence on MAX density matrix=1.00D-06.
 Requested convergence on             energy=1.00D-06.
 No special actions if energy rises.
 Integral accuracy reduced to 1.0D-05 until final iterations.
 EnCoef did    13 forward-backward iterations
 EnCoef did   100 forward-backward iterations
 EnCoef did   100 forward-backward iterations
 EnCoef did     6 forward-backward iterations
 Initial convergence to 1.0D-05 achieved.  Increase integral accuracy.
 SCF Done:  E(RB3LYP) =  -666.892708151     A.U. after   35 cycles
            NFock= 35  Conv=0.61D-08     -V/T= 2.0030

 **********************************************************************

            Population analysis using the SCF density.

 **********************************************************************

 Orbital symmetries:
       Occupied  (A) (A) (A) (A) (A) (A) (A) (A) (A) (A) (A) (A)
                 (A) (A) (A) (A) (A) (A) (A) (A) (A) (A) (A) (A)
                 (A) (A) (A) (A) (A) (A) (A) (A) (A) (A) (A) (A)
                 (A) (A) (A) (A) (A) (A) (A) (A) (A) (A) (A) (A)
                 (A) (A) (A) (A) (A)
       Virtual   (A) (A) (A) (A) (A) (A) (A) (A) (A) (A) (A) (A)
                 (A) (A) (A) (A) (A) (A) (A) (A) (A) (A) (A) (A)
                 (A) (A) (A) (A) (A) (A) (A) (A) (A) (A) (A) (A)
                 (A) (A) (A) (A) (A) (A) (A) (A) (A) (A) (A) (A)
                 (A) (A) (A) (A) (A) (A) (A) (A) (A) (A) (A) (A)
                 (A) (A) (A) (A) (A) (A) (A) (A) (A) (A) (A) (A)
                 (A) (A) (A) (A) (A) (A) (A) (A) (A) (A) (A) (A)
                 (A) (A) (A) (A) (A) (A) (A) (A) (A) (A) (A) (A)
                 (A) (A) (A) (A) (A) (A) (A) (A) (A) (A) (A) (A)
                 (A) (A) (A) (A) (A) (A) (A) (A) (A) (A) (A) (A)
                 (A) (A) (A) (A) (A) (A) (A) (A) (A) (A) (A) (A)
                 (A) (A) (A) (A) (A) (A) (A) (A) (A) (A) (A) (A)
                 (A) (A) (A) (A) (A) (A) (A) (A) (A) (A) (A) (A)
                 (A) (A) (A) (A) (A) (A) (A) (A) (A) (A) (A) (A)
                 (A) (A) (A) (A) (A) (A) (A) (A) (A) (A) (A) (A)
                 (A) (A) (A) (A) (A) (A) (A) (A) (A) (A) (A) (A)
                 (A) (A) (A) (A) (A) (A) (A) (A) (A) (A) (A) (A)
                 (A) (A) (A) (A) (A) (A) (A) (A) (A) (A) (A) (A)
                 (A) (A) (A) (A) (A) (A) (A) (A) (A) (A) (A) (A)
                 (A) (A) (A) (A) (A) (A) (A) (A) (A) (A) (A) (A)
                 (A) (A) (A) (A) (A) (A) (A) (A) (A) (A) (A) (A)
                 (A) (A) (A) (A) (A) (A) (A) (A) (A) (A) (A) (A)
                 (A) (A) (A) (A) (A) (A) (A) (A) (A) (A) (A) (A)
                 (A) (A) (A) (A) (A) (A) (A) (A) (A) (A) (A) (A)
                 (A) (A) (A) (A) (A) (A) (A) (A) (A) (A) (A) (A)
                 (A) (A) (A) (A) (A) (A) (A) (A) (A) (A) (A) (A)
                 (A) (A) (A) (A) (A) (A) (A) (A) (A) (A) (A) (A)
                 (A) (A) (A) (A) (A) (A) (A) (A) (A) (A) (A) (A)
                 (A) (A) (A) (A) (A) (A) (A) (A) (A) (A) (A) (A)
                 (A) (A) (A) (A) (A) (A) (A) (A) (A) (A) (A) (A)
                 (A) (A) (A) (A) (A) (A) (A) (A) (A) (A) (A) (A)
                 (A) (A) (A) (A) (A) (A) (A) (A) (A) (A) (A) (A)
                 (A) (A) (A) (A) (A) (A) (A) (A) (A) (A) (A) (A)
                 (A) (A) (A) (A) (A) (A) (A) (A) (A) (A) (A) (A)
                 (A) (A) (A) (A) (A) (A) (A) (A) (A) (A) (A) (A)
                 (A) (A)
 The electronic state is 1-A.
 Alpha  occ. eigenvalues --  -19.22144 -19.19584 -14.34999 -10.31184 -10.29907
 Alpha  occ. eigenvalues --  -10.29880 -10.28842 -10.28019 -10.27750 -10.26294
 Alpha  occ. eigenvalues --  -10.25680 -10.25602 -10.24769 -10.24350 -10.24106
 Alpha  occ. eigenvalues --   -1.09026  -1.04343  -1.03703  -0.95471  -0.94033
 Alpha  occ. eigenvalues --   -0.88641  -0.78846  -0.67369  -0.63636  -0.62730
 Alpha  occ. eigenvalues --   -0.60989  -0.60302  -0.58069  -0.56629  -0.56314
 Alpha  occ. eigenvalues --   -0.52713  -0.51365  -0.49613  -0.48350  -0.45265
 Alpha  occ. eigenvalues --   -0.45005  -0.44308  -0.42605  -0.40719  -0.38219
 Alpha  occ. eigenvalues --   -0.37986  -0.36624  -0.33804  -0.32282  -0.31336
 Alpha  occ. eigenvalues --   -0.29465  -0.27135  -0.25305  -0.23419  -0.21649
 Alpha  occ. eigenvalues --   -0.20894  -0.19316  -0.16840
 Alpha virt. eigenvalues --   -0.13244  -0.11295  -0.10659  -0.08408  -0.06838
 Alpha virt. eigenvalues --   -0.05747  -0.04955  -0.03646  -0.03377  -0.02065
 Alpha virt. eigenvalues --   -0.00615   0.01499   0.03176   0.03665   0.04546
 Alpha virt. eigenvalues --    0.06047   0.06955   0.09348   0.11042   0.11322
 Alpha virt. eigenvalues --    0.12943   0.14597   0.15694   0.16507   0.19597
 Alpha virt. eigenvalues --    0.22738   0.24790   0.26906   0.29412   0.31463
 Alpha virt. eigenvalues --    0.34127   0.36756   0.38139   0.39597   0.40470
 Alpha virt. eigenvalues --    0.42364   0.43190   0.44974   0.45324   0.46266
 Alpha virt. eigenvalues --    0.47058   0.48322   0.48570   0.50615   0.51409
 Alpha virt. eigenvalues --    0.51746   0.53570   0.53942   0.54471   0.55060
 Alpha virt. eigenvalues --    0.55808   0.57009   0.57634   0.58170   0.59788
 Alpha virt. eigenvalues --    0.60842   0.61214   0.61573   0.62299   0.63025
 Alpha virt. eigenvalues --    0.64722   0.65010   0.65764   0.66712   0.67099
 Alpha virt. eigenvalues --    0.67994   0.68443   0.69114   0.69573   0.70885
 Alpha virt. eigenvalues --    0.71768   0.73035   0.73646   0.74124   0.75755
 Alpha virt. eigenvalues --    0.77250   0.77674   0.78608   0.79303   0.81017
 Alpha virt. eigenvalues --    0.81895   0.82317   0.84003   0.84958   0.86127
 Alpha virt. eigenvalues --    0.86864   0.87303   0.87609   0.88958   0.90675
 Alpha virt. eigenvalues --    0.91302   0.92615   0.93126   0.94509   0.95409
 Alpha virt. eigenvalues --    0.96581   0.98572   0.98948   0.99504   1.00359
 Alpha virt. eigenvalues --    1.00821   1.02216   1.03761   1.04275   1.04896
 Alpha virt. eigenvalues --    1.06041   1.06455   1.08993   1.09691   1.11880
 Alpha virt. eigenvalues --    1.12892   1.14648   1.15453   1.17248   1.17830
 Alpha virt. eigenvalues --    1.20158   1.21464   1.22969   1.24517   1.24978
 Alpha virt. eigenvalues --    1.26807   1.28658   1.30503   1.31725   1.32277
 Alpha virt. eigenvalues --    1.35675   1.36734   1.38492   1.39066   1.41072
 Alpha virt. eigenvalues --    1.41895   1.42169   1.43725   1.46369   1.46561
 Alpha virt. eigenvalues --    1.47821   1.49402   1.50593   1.52610   1.53874
 Alpha virt. eigenvalues --    1.56023   1.56203   1.56793   1.58143   1.58559
 Alpha virt. eigenvalues --    1.60436   1.61705   1.62143   1.63215   1.65792
 Alpha virt. eigenvalues --    1.66183   1.68001   1.69066   1.69729   1.71993
 Alpha virt. eigenvalues --    1.74010   1.74496   1.76539   1.77057   1.79189
 Alpha virt. eigenvalues --    1.80495   1.81696   1.83199   1.85452   1.85676
 Alpha virt. eigenvalues --    1.88420   1.89736   1.92808   1.93956   1.94846
 Alpha virt. eigenvalues --    1.96424   1.98308   1.99363   2.02817   2.03556
 Alpha virt. eigenvalues --    2.04919   2.06714   2.08565   2.12709   2.13399
 Alpha virt. eigenvalues --    2.14953   2.19208   2.19816   2.22048   2.23023
 Alpha virt. eigenvalues --    2.24775   2.26699   2.28444   2.29301   2.30911
 Alpha virt. eigenvalues --    2.33458   2.35764   2.37752   2.38615   2.40248
 Alpha virt. eigenvalues --    2.41648   2.44182   2.47892   2.50099   2.52509
 Alpha virt. eigenvalues --    2.55380   2.56046   2.57561   2.58211   2.61827
 Alpha virt. eigenvalues --    2.62717   2.64283   2.67072   2.68228   2.69016
 Alpha virt. eigenvalues --    2.70638   2.71581   2.73412   2.74282   2.76365
 Alpha virt. eigenvalues --    2.76636   2.78215   2.80846   2.83348   2.83743
 Alpha virt. eigenvalues --    2.84189   2.84844   2.85079   2.85914   2.86024
 Alpha virt. eigenvalues --    2.89530   2.90369   2.90796   2.92031   2.93964
 Alpha virt. eigenvalues --    2.94190   2.96740   2.98054   2.98975   3.00168
 Alpha virt. eigenvalues --    3.02002   3.03224   3.04868   3.05320   3.07267
 Alpha virt. eigenvalues --    3.09017   3.11314   3.12290   3.13914   3.14939
 Alpha virt. eigenvalues --    3.15849   3.17808   3.19461   3.20703   3.23535
 Alpha virt. eigenvalues --    3.24418   3.25824   3.29875   3.30865   3.32489
 Alpha virt. eigenvalues --    3.35050   3.36764   3.37202   3.39242   3.41540
 Alpha virt. eigenvalues --    3.42563   3.43836   3.46086   3.46871   3.49588
 Alpha virt. eigenvalues --    3.50699   3.51449   3.53814   3.54880   3.56194
 Alpha virt. eigenvalues --    3.57421   3.58480   3.60687   3.62952   3.64769
 Alpha virt. eigenvalues --    3.67751   3.69262   3.70982   3.71831   3.73259
 Alpha virt. eigenvalues --    3.75586   3.78201   3.79022   3.80773   3.83671
 Alpha virt. eigenvalues --    3.84240   3.85570   3.87889   3.89421   3.91518
 Alpha virt. eigenvalues --    3.95279   3.97781   3.99500   4.01258   4.01729
 Alpha virt. eigenvalues --    4.05809   4.11107   4.13271   4.13678   4.15649
 Alpha virt. eigenvalues --    4.18833   4.19173   4.20293   4.21307   4.22568
 Alpha virt. eigenvalues --    4.23628   4.25739   4.26223   4.27642   4.29132
 Alpha virt. eigenvalues --    4.29431   4.33055   4.34148   4.34674   4.35552
 Alpha virt. eigenvalues --    4.37807   4.38121   4.41334   4.41966   4.43226
 Alpha virt. eigenvalues --    4.43706   4.46008   4.48758   4.49807   4.50934
 Alpha virt. eigenvalues --    4.52421   4.53765   4.54752   4.54997   4.56351
 Alpha virt. eigenvalues --    4.56911   4.59131   4.60036   4.62233   4.63112
 Alpha virt. eigenvalues --    4.65298   4.67373   4.68965   4.70816   4.73844
 Alpha virt. eigenvalues --    4.76078   4.76703   4.77827   4.79283   4.79823
 Alpha virt. eigenvalues --    4.81359   4.83535   4.85004   4.86527   4.87671
 Alpha virt. eigenvalues --    4.90494   4.93526   4.95932   4.98952   5.00124
 Alpha virt. eigenvalues --    5.02681   5.04427   5.04767   5.05791   5.06114
 Alpha virt. eigenvalues --    5.08043   5.10336   5.11842   5.13339   5.16757
 Alpha virt. eigenvalues --    5.17313   5.20449   5.21057   5.21922   5.25071
 Alpha virt. eigenvalues --    5.26550   5.28958   5.31357   5.31924   5.32961
 Alpha virt. eigenvalues --    5.35070   5.38219   5.38664   5.39103   5.41071
 Alpha virt. eigenvalues --    5.46888   5.48871   5.51686   5.53660   5.55606
 Alpha virt. eigenvalues --    5.56334   5.59465   5.61153   5.63038   5.67506
 Alpha virt. eigenvalues --    5.71093   5.74217   5.77984   5.83770   5.90475
 Alpha virt. eigenvalues --    5.93443   6.00967   6.04897   6.11133   6.23954
 Alpha virt. eigenvalues --    6.27832   6.53897   6.77178   6.78557   7.07925
 Alpha virt. eigenvalues --    7.13394   9.95358  10.51092  10.82919  11.07818
 Alpha virt. eigenvalues --   11.19757  11.36397  11.71022  11.79550  11.91006
 Alpha virt. eigenvalues --   12.27864  12.35092  12.50337  12.71546  13.28469
 Alpha virt. eigenvalues --   13.44917  22.50053
          Condensed to atoms (all electrons):
               1          2          3          4          5          6
     1  C    6.043859   0.022040   0.001857  -0.057547   0.007503  -0.000104
     2  N    0.022040   6.617220  -0.007958   0.566899  -0.102602  -0.000311
     3  C    0.001857  -0.007958   6.105534   0.140925   0.152085  -0.080671
     4  C   -0.057547   0.566899   0.140925   5.258164   0.092281  -0.055154
     5  C    0.007503  -0.102602   0.152085   0.092281   5.464692   0.307470
     6  C   -0.000104  -0.000311  -0.080671  -0.055154   0.307470   5.095185
     7  O    0.000062   0.007077  -0.017083  -0.048331  -0.043875   0.341589
     8  C    0.000041   0.002401  -0.062943   0.011759  -0.073848   0.410405
     9  C    0.000002  -0.000073  -0.000252  -0.001688  -0.015485  -0.069817
    10  C    0.000000   0.000010  -0.000245   0.000046  -0.000335   0.002872
    11  C    0.000000   0.000001   0.000690   0.000038  -0.000726   0.005431
    12  C    0.000000  -0.000000  -0.000062   0.000002   0.000013  -0.000250
    13  C   -0.000000   0.000000   0.000243  -0.000009  -0.000034   0.000481
    14  C    0.000000   0.000152   0.008088   0.001630   0.000780  -0.001909
    15  O   -0.000000   0.000000   0.000022  -0.000000  -0.000010   0.000013
    16  H   -0.006135   0.004710   0.000002  -0.000252   0.000006   0.000003
    17  H    0.021842   0.004866   0.000005   0.000458  -0.000197  -0.000002
    18  H    0.024892  -0.085467  -0.007779   0.202804  -0.002298  -0.010460
    19  H    0.000139   0.019575  -0.052399  -0.048428   0.323733  -0.003405
    20  H   -0.000486  -0.008837  -0.008298   0.030650  -0.000355  -0.042670
    21  H   -0.000004   0.000810   0.011651   0.003304  -0.022154  -0.034363
    22  H    0.000000   0.000011  -0.000614   0.000085   0.001129  -0.013394
    23  H   -0.000000  -0.000001   0.000562  -0.000001  -0.000056  -0.000016
    24  H   -0.000000   0.000000   0.000002  -0.000000   0.000002   0.000005
    25  H   -0.000000  -0.000000   0.000002  -0.000000  -0.000000   0.000001
    26  H   -0.000000  -0.000000   0.000007   0.000000   0.000000   0.000001
               7          8          9         10         11         12
     1  C    0.000062   0.000041   0.000002   0.000000   0.000000   0.000000
     2  N    0.007077   0.002401  -0.000073   0.000010   0.000001  -0.000000
     3  C   -0.017083  -0.062943  -0.000252  -0.000245   0.000690  -0.000062
     4  C   -0.048331   0.011759  -0.001688   0.000046   0.000038   0.000002
     5  C   -0.043875  -0.073848  -0.015485  -0.000335  -0.000726   0.000013
     6  C    0.341589   0.410405  -0.069817   0.002872   0.005431  -0.000250
     7  O    7.949046  -0.027206  -0.008301   0.000251  -0.000049  -0.000054
     8  C   -0.027206   5.183808   0.492438  -0.066640  -0.010998   0.001754
     9  C   -0.008301   0.492438   5.382645   0.168168  -0.008685  -0.017287
    10  C    0.000251  -0.066640   0.168168   5.839699   0.505868  -0.051222
    11  C   -0.000049  -0.010998  -0.008685   0.505868   4.535829   0.212945
    12  C   -0.000054   0.001754  -0.017287  -0.051222   0.212945   5.545854
    13  C   -0.000006  -0.000147   0.006208  -0.150338   0.397492   0.307635
    14  C    0.001590  -0.091433  -0.020656   0.074558  -0.029232  -0.015106
    15  O   -0.000000   0.001669   0.006870  -0.042900  -0.134700   0.007513
    16  H    0.000000   0.000000   0.000000   0.000000  -0.000000   0.000000
    17  H   -0.000000  -0.000000   0.000000  -0.000000  -0.000000   0.000000
    18  H   -0.027510   0.000749  -0.000235   0.000003   0.000000  -0.000000
    19  H   -0.000098  -0.003161   0.000012   0.000074   0.000003  -0.000000
    20  H    0.261957   0.005187  -0.000764   0.000007   0.000019  -0.000003
    21  H    0.000122   0.327531  -0.058922  -0.029544  -0.000331  -0.000109
    22  H    0.011317  -0.052648   0.326456  -0.054025  -0.029319  -0.008584
    23  H   -0.000004  -0.000145  -0.009103   0.271624  -0.022955  -0.001161
    24  H    0.000002  -0.000017   0.003081  -0.000967  -0.033801   0.372803
    25  H   -0.000000   0.000064   0.000604   0.001136   0.035683  -0.006379
    26  H   -0.000000   0.000165  -0.000790   0.006547   0.004524  -0.047532
              13         14         15         16         17         18
     1  C   -0.000000   0.000000  -0.000000  -0.006135   0.021842   0.024892
     2  N    0.000000   0.000152   0.000000   0.004710   0.004866  -0.085467
     3  C    0.000243   0.008088   0.000022   0.000002   0.000005  -0.007779
     4  C   -0.000009   0.001630  -0.000000  -0.000252   0.000458   0.202804
     5  C   -0.000034   0.000780  -0.000010   0.000006  -0.000197  -0.002298
     6  C    0.000481  -0.001909   0.000013   0.000003  -0.000002  -0.010460
     7  O   -0.000006   0.001590  -0.000000   0.000000  -0.000000  -0.027510
     8  C   -0.000147  -0.091433   0.001669   0.000000  -0.000000   0.000749
     9  C    0.006208  -0.020656   0.006870   0.000000   0.000000  -0.000235
    10  C   -0.150338   0.074558  -0.042900   0.000000  -0.000000   0.000003
    11  C    0.397492  -0.029232  -0.134700  -0.000000  -0.000000   0.000000
    12  C    0.307635  -0.015106   0.007513   0.000000   0.000000  -0.000000
    13  C    5.239079   0.038958   0.213582  -0.000000  -0.000000   0.000000
    14  C    0.038958   6.072185  -0.035176   0.000000  -0.000000   0.000021
    15  O    0.213582  -0.035176   8.305015  -0.000000  -0.000000  -0.000000
    16  H   -0.000000   0.000000  -0.000000   0.967158   0.114447   0.000815
    17  H   -0.000000  -0.000000  -0.000000   0.114447   0.870707  -0.001116
    18  H    0.000000   0.000021  -0.000000   0.000815  -0.001116   0.789636
    19  H    0.000001   0.000090   0.000000  -0.000022   0.000056   0.002000
    20  H    0.000002  -0.000011   0.000000  -0.000021  -0.000001   0.048874
    21  H   -0.000212   0.000479   0.000004  -0.000000  -0.000000   0.000021
    22  H    0.002880   0.064568   0.000124   0.000000   0.000000   0.000010
    23  H   -0.015635  -0.009970   0.027109  -0.000000  -0.000000  -0.000000
    24  H   -0.039786  -0.001675  -0.000248  -0.000000  -0.000000   0.000000
    25  H   -0.033347   0.002484  -0.027827  -0.000000  -0.000000  -0.000000
    26  H   -0.029748   0.008490   0.058943  -0.000000  -0.000000  -0.000000
              19         20         21         22         23         24
     1  C    0.000139  -0.000486  -0.000004   0.000000  -0.000000  -0.000000
     2  N    0.019575  -0.008837   0.000810   0.000011  -0.000001   0.000000
     3  C   -0.052399  -0.008298   0.011651  -0.000614   0.000562   0.000002
     4  C   -0.048428   0.030650   0.003304   0.000085  -0.000001  -0.000000
     5  C    0.323733  -0.000355  -0.022154   0.001129  -0.000056   0.000002
     6  C   -0.003405  -0.042670  -0.034363  -0.013394  -0.000016   0.000005
     7  O   -0.000098   0.261957   0.000122   0.011317  -0.000004   0.000002
     8  C   -0.003161   0.005187   0.327531  -0.052648  -0.000145  -0.000017
     9  C    0.000012  -0.000764  -0.058922   0.326456  -0.009103   0.003081
    10  C    0.000074   0.000007  -0.029544  -0.054025   0.271624  -0.000967
    11  C    0.000003   0.000019  -0.000331  -0.029319  -0.022955  -0.033801
    12  C   -0.000000  -0.000003  -0.000109  -0.008584  -0.001161   0.372803
    13  C    0.000001   0.000002  -0.000212   0.002880  -0.015635  -0.039786
    14  C    0.000090  -0.000011   0.000479   0.064568  -0.009970  -0.001675
    15  O    0.000000   0.000000   0.000004   0.000124   0.027109  -0.000248
    16  H   -0.000022  -0.000021  -0.000000   0.000000  -0.000000  -0.000000
    17  H    0.000056  -0.000001  -0.000000   0.000000  -0.000000  -0.000000
    18  H    0.002000   0.048874   0.000021   0.000010  -0.000000   0.000000
    19  H    0.489649   0.000303   0.000305  -0.000059   0.000031   0.000000
    20  H    0.000303   0.425531   0.000010  -0.000550   0.000000   0.000002
    21  H    0.000305   0.000010   0.603387  -0.000253   0.007402  -0.000001
    22  H   -0.000059  -0.000550  -0.000253   0.513525  -0.000003   0.002744
    23  H    0.000031   0.000000   0.007402  -0.000003   0.494322  -0.000196
    24  H    0.000000   0.000002  -0.000001   0.002744  -0.000196   0.530908
    25  H    0.000000   0.000000   0.000019  -0.000509   0.002643  -0.023884
    26  H    0.000000  -0.000000   0.000164  -0.000413   0.017004  -0.000557
              25         26
     1  C   -0.000000  -0.000000
     2  N   -0.000000  -0.000000
     3  C    0.000002   0.000007
     4  C   -0.000000   0.000000
     5  C   -0.000000   0.000000
     6  C    0.000001   0.000001
     7  O   -0.000000  -0.000000
     8  C    0.000064   0.000165
     9  C    0.000604  -0.000790
    10  C    0.001136   0.006547
    11  C    0.035683   0.004524
    12  C   -0.006379  -0.047532
    13  C   -0.033347  -0.029748
    14  C    0.002484   0.008490
    15  O   -0.027827   0.058943
    16  H   -0.000000  -0.000000
    17  H   -0.000000  -0.000000
    18  H   -0.000000  -0.000000
    19  H    0.000000   0.000000
    20  H    0.000000  -0.000000
    21  H    0.000019   0.000164
    22  H   -0.000509  -0.000413
    23  H    0.002643   0.017004
    24  H   -0.023884  -0.000557
    25  H    0.957841   0.090525
    26  H    0.090525   0.755071
 Mulliken charges:
               1
     1  C   -0.057961
     2  N   -0.040522
     3  C   -0.183372
     4  C   -0.097634
     5  C   -0.087718
     6  C    0.149069
     7  O   -0.400495
     8  C   -0.048785
     9  C   -0.174425
    10  C   -0.474647
    11  C    0.572270
    12  C   -0.300770
    13  C    0.062699
    14  C   -0.068903
    15  O   -0.380005
    16  H   -0.080711
    17  H   -0.011065
    18  H    0.065040
    19  H    0.271600
    20  H    0.289456
    21  H    0.190683
    22  H    0.237523
    23  H    0.238549
    24  H    0.191581
    25  H    0.000944
    26  H    0.137600
 Sum of Mulliken charges =  -0.00000
 Mulliken charges with hydrogens summed into heavy atoms:
               1
     1  C   -0.149738
     2  N   -0.040522
     3  C   -0.183372
     4  C   -0.032594
     5  C    0.183883
     6  C    0.149069
     7  O   -0.111038
     8  C    0.141899
     9  C    0.063098
    10  C   -0.236098
    11  C    0.572270
    12  C   -0.108246
    13  C    0.062699
    14  C   -0.068903
    15  O   -0.242405
 Electronic spatial extent (au):  <R**2>=           3571.0229
 Charge=             -0.0000 electrons
 Dipole moment (field-independent basis, Debye):
    X=              5.4648    Y=              1.9582    Z=              1.3977  Tot=              5.9709
 Quadrupole moment (field-independent basis, Debye-Ang):
   XX=           -105.5566   YY=            -87.8459   ZZ=            -96.0051
   XY=              0.9224   XZ=             -0.9862   YZ=             -4.3118
 Traceless Quadrupole moment (field-independent basis, Debye-Ang):
   XX=             -9.0874   YY=              8.6233   ZZ=              0.4641
   XY=              0.9224   XZ=             -0.9862   YZ=             -4.3118
 Octapole moment (field-independent basis, Debye-Ang**2):
  XXX=            240.1230  YYY=             13.0695  ZZZ=             -8.2290  XYY=             17.6639
  XXY=             26.7354  XXZ=             -3.0609  XZZ=             -2.1359  YZZ=              3.5781
  YYZ=              1.2386  XYZ=             -9.1681
 Hexadecapole moment (field-independent basis, Debye-Ang**3):
 XXXX=          -5543.6940 YYYY=           -512.8065 ZZZZ=           -338.9221 XXXY=            -68.9582
 XXXZ=            -12.3195 YYYX=            -22.0723 YYYZ=            -26.0400 ZZZX=              3.7170
 ZZZY=             -1.0608 XXYY=           -820.7577 XXZZ=           -802.0002 YYZZ=           -144.6668
 XXYZ=            -16.4637 YYXZ=              1.9763 ZZXY=             -6.6579
 N-N= 9.490905944365D+02 E-N=-3.451495299933D+03  KE= 6.648657630044D+02
 PrsmSu:  requested number of processors reduced to:  13 ShMem   1 Linda.
 Calling FoFJK, ICntrl=      2127 FMM=F ISym2X=0 I1Cent= 0 IOpClX= 0 NMat=1 NMatS=1 NMatT=0.
 ***** Axes restored to original set *****
 -------------------------------------------------------------------
 Center     Atomic                   Forces (Hartrees/Bohr)
 Number     Number              X              Y              Z
 -------------------------------------------------------------------
      1        6          -0.083474163    0.042246749    0.012077229
      2        7          -0.407258112   -0.155385145   -0.103535829
      3        6          -0.017979614    0.028838157    0.016488088
      4        6           0.244078513    0.247730483   -0.036960924
      5        6          -0.158235440   -0.129879987   -0.025106961
      6        6           0.033963885    0.050028723    0.000633885
      7        8           0.022594161   -0.043321704    0.070591670
      8        6          -0.070619674    0.022426665    0.005919569
      9        6           0.109113543   -0.049783694   -0.033987499
     10        6          -0.055566369   -0.072728425    0.026198275
     11        6           0.204859773    0.089067099    0.003157334
     12        6           0.050574103   -0.036496358    0.080854780
     13        6          -0.191428256   -0.052967108   -0.129495254
     14        6           0.023032315    0.015553036    0.032464801
     15        8           0.164143172   -0.055718570   -0.054065870
     16        1           0.011531334   -0.033785780   -0.004459172
     17        1           0.042946466    0.012198999   -0.003056306
     18        1           0.044677504   -0.022929935   -0.013946551
     19        1           0.060649885    0.042024135    0.053954808
     20        1           0.014363284   -0.010500614    0.005532843
     21        1           0.028450150    0.057116295    0.036729387
     22        1          -0.040423076   -0.010796283    0.025117859
     23        1          -0.016874090    0.045557220    0.034125621
     24        1           0.018059144    0.002795828   -0.005737313
     25        1           0.018351942    0.017417377    0.027884251
     26        1          -0.049530381    0.001292835   -0.021378723
 -------------------------------------------------------------------
 Cartesian Forces:  Max     0.407258112 RMS     0.087643347

 GradGradGradGradGradGradGradGradGradGradGradGradGradGradGradGradGradGrad
 Berny optimization.
 FormGI is forming the generalized inverse of G from B-inverse, IUseBI=4.
 Internal  Forces:  Max     0.466317779 RMS     0.067089590
 Search for a local minimum.
 Step number   1 out of a maximum of  147
 All quantities printed in internal units (Hartrees-Bohrs-Radians)
 Mixed Optimization -- RFO/linear search
 Second derivative matrix not updated -- first step.
 ITU=  0
     Eigenvalues ---    0.00230   0.00230   0.00240   0.00261   0.01123
     Eigenvalues ---    0.01339   0.01417   0.02224   0.02558   0.02853
     Eigenvalues ---    0.03117   0.03140   0.03320   0.03409   0.03495
     Eigenvalues ---    0.03502   0.03738   0.04408   0.05837   0.05872
     Eigenvalues ---    0.06788   0.07158   0.07372   0.07633   0.07814
     Eigenvalues ---    0.08061   0.08267   0.08692   0.08738   0.09319
     Eigenvalues ---    0.09641   0.11092   0.11255   0.11566   0.12505
     Eigenvalues ---    0.12648   0.13301   0.13925   0.14253   0.14408
     Eigenvalues ---    0.14649   0.14957   0.14963   0.15584   0.15841
     Eigenvalues ---    0.16000   0.16397   0.16591   0.17931   0.19750
     Eigenvalues ---    0.19927   0.20680   0.20801   0.20925   0.22193
     Eigenvalues ---    0.22633   0.22669   0.23478   0.23698   0.25000
     Eigenvalues ---    0.28061   0.29235   0.36519   0.38144   0.39903
     Eigenvalues ---    0.41046   0.48707   0.56713   0.59274   0.65473
     Eigenvalues ---    0.73934   1.90916
 RFO step:  Lambda=-5.47381511D-01 EMin= 2.30000000D-03
 Linear search not attempted -- first point.
 Maximum step size (   0.300) exceeded in Quadratic search.
    -- Step size scaled by   0.431
 Iteration  1 RMS(Cart)=  0.14318453 RMS(Int)=  0.00167558
 Iteration  2 RMS(Cart)=  0.00216124 RMS(Int)=  0.00039631
 Iteration  3 RMS(Cart)=  0.00001026 RMS(Int)=  0.00039630
 Iteration  4 RMS(Cart)=  0.00000001 RMS(Int)=  0.00039630
 Variable       Old X    -DE/DX   Delta X   Delta X   Delta X     New X
                                 (Linear)    (Quad)   (Total)
    R1        3.58541   0.03545   0.00000   0.02320   0.02320   3.60861
    R2        3.17921  -0.02733   0.00000  -0.01884  -0.01884   3.16037
    R3        3.07195  -0.03673   0.00000  -0.02496  -0.02495   3.04700
    R4        2.05343   0.46632   0.00000   0.08177   0.08177   2.13521
    R5        3.20810  -0.00888   0.00000  -0.00745  -0.00748   3.20062
    R6        3.06539  -0.01795   0.00000  -0.01013  -0.01018   3.05521
    R7        2.68898   0.19198   0.00000   0.08754   0.08762   2.77661
    R8        2.66985  -0.03797   0.00000  -0.02382  -0.02382   2.64603
    R9        2.53641   0.25118   0.00000   0.09709   0.09709   2.63350
   R10        2.63101  -0.08237   0.00000  -0.05114  -0.05114   2.57987
   R11        2.89515  -0.06719   0.00000  -0.03446  -0.03446   2.86069
   R12        2.74156   0.07583   0.00000   0.03516   0.03516   2.77672
   R13        1.87893  -0.01763   0.00000  -0.00734  -0.00734   1.87159
   R14        2.46854   0.19844   0.00000   0.07112   0.07112   2.53966
   R15        2.54698  -0.07354   0.00000  -0.04453  -0.04453   2.50245
   R16        3.08828   0.03753   0.00000   0.02195   0.02214   3.11042
   R17        3.76205   0.02798   0.00000   0.01463   0.01469   3.77674
   R18        2.25142  -0.02162   0.00000  -0.01404  -0.01420   2.23722
   R19        2.37393   0.16741   0.00000   0.05589   0.05608   2.43001
   R20        3.77393   0.01867   0.00000   0.00968   0.00903   3.78296
   R21        2.32338  -0.05253   0.00000  -0.02925  -0.02925   2.29413
   R22        2.86277  -0.04361   0.00000  -0.02476  -0.02487   2.83790
   R23        2.55035   0.04119   0.00000   0.02108   0.02138   2.57173
   R24        2.46321   0.13736   0.00000   0.05022   0.05028   2.51349
   R25        2.03277   0.00888   0.00000   0.00419   0.00419   2.03696
   R26        2.74534  -0.00940   0.00000  -0.00601  -0.00601   2.73933
   R27        3.08067  -0.02632   0.00000  -0.01646  -0.01652   3.06415
   R28        3.86534   0.06559   0.00000   0.04234   0.04233   3.90767
   R29        3.63887  -0.03675   0.00000  -0.02173  -0.02141   3.61746
   R30        2.70551  -0.04870   0.00000  -0.03083  -0.03083   2.67468
   R31        2.60591  -0.01489   0.00000  -0.01036  -0.01036   2.59555
    A1        2.70337  -0.00549   0.00000  -0.00347  -0.00347   2.69990
    A2        2.71790   0.00146   0.00000   0.00077   0.00077   2.71866
    A3        2.27972  -0.02250   0.00000  -0.01216  -0.01216   2.26757
    A4        1.66548   0.02513   0.00000   0.01432   0.01483   1.68032
    A5        1.61905   0.06116   0.00000   0.03382   0.03347   1.65252
    A6        1.64557   0.00352   0.00000   0.00626   0.00615   1.65172
    A7        2.07058   0.01548   0.00000   0.00702   0.00669   2.07727
    A8        1.53556   0.03377   0.00000   0.01906   0.01996   1.55551
    A9        1.49563  -0.02730   0.00000  -0.01450  -0.01444   1.48118
   A10        1.61371   0.11839   0.00000   0.06855   0.06860   1.68231
   A11        1.73641  -0.08625   0.00000  -0.04788  -0.04748   1.68893
   A12        2.84708  -0.03473   0.00000  -0.02079  -0.02090   2.82619
   A13        2.10256   0.00130   0.00000   0.00792   0.00929   2.11185
   A14        1.48458   0.12560   0.00000   0.07401   0.07445   1.55903
   A15        2.36289  -0.08477   0.00000  -0.04825  -0.05009   2.31280
   A16        1.79960  -0.00429   0.00000  -0.00261  -0.00261   1.79699
   A17        1.56610   0.12454   0.00000   0.07044   0.07044   1.63653
   A18        2.22689  -0.05584   0.00000  -0.03064  -0.03074   2.19615
   A19        2.24152  -0.04317   0.00000  -0.02243  -0.02232   2.21920
   A20        1.48247   0.09669   0.00000   0.06026   0.06076   1.54323
   A21        1.38477   0.07553   0.00000   0.04541   0.04585   1.43062
   A22        2.27925  -0.00468   0.00000  -0.00482  -0.00519   2.27406
   A23        1.98489  -0.03705   0.00000  -0.02071  -0.02095   1.96395
   A24        1.40995   0.05324   0.00000   0.03409   0.03406   1.44401
   A25        2.56815  -0.01933   0.00000  -0.01161  -0.01160   2.55655
   A26        1.34135   0.00508   0.00000   0.00473   0.00478   1.34612
   A27        1.86743  -0.02698   0.00000  -0.01584  -0.01570   1.85173
   A28        1.47922  -0.00742   0.00000  -0.00345  -0.00332   1.47590
   A29        2.34539  -0.06339   0.00000  -0.02424  -0.02412   2.32127
   A30        2.40834  -0.02045   0.00000  -0.01307  -0.01313   2.39521
   A31        1.70759   0.03821   0.00000   0.02315   0.02314   1.73073
   A32        2.38996  -0.02374   0.00000  -0.01343  -0.01327   2.37669
   A33        1.25992   0.04661   0.00000   0.02646   0.02635   1.28627
   A34        2.15996  -0.01843   0.00000  -0.01083  -0.01077   2.14919
   A35        1.51643   0.08067   0.00000   0.04147   0.04125   1.55768
   A36        2.67861   0.00331   0.00000   0.00483   0.00493   2.68354
   A37        1.96418   0.06697   0.00000   0.03596   0.03578   1.99996
   A38        1.21316   0.05183   0.00000   0.02574   0.02547   1.23863
   A39        1.30244  -0.00883   0.00000  -0.00476  -0.00487   1.29758
   A40        1.99638   0.04711   0.00000   0.02760   0.02761   2.02399
   A41        1.28480   0.00634   0.00000   0.00155   0.00151   1.28631
   A42        1.27956   0.02410   0.00000   0.01580   0.01582   1.29538
   A43        2.54863   0.03071   0.00000   0.01828   0.01827   2.56690
   A44        3.31105   0.02865   0.00000   0.02059   0.02099   3.33204
   A45        3.00570   0.01283   0.00000   0.00748   0.00764   3.01333
   A46        3.15944  -0.00691   0.00000  -0.00149  -0.00127   3.15816
   A47        3.01542  -0.00335   0.00000  -0.00146  -0.00152   3.01390
    D1        0.46383   0.00166   0.00000   0.00126   0.00126   0.46509
    D2       -2.82717   0.00222   0.00000   0.00177   0.00178  -2.82540
    D3        3.06071   0.00085   0.00000   0.00060   0.00060   3.06131
    D4        3.11893  -0.00815   0.00000  -0.00193  -0.00186   3.11707
    D5        2.03637   0.02158   0.00000   0.01104   0.01112   2.04749
    D6       -0.04051  -0.00123   0.00000  -0.00043  -0.00058  -0.04110
    D7       -3.11608  -0.01966   0.00000  -0.01107  -0.01126  -3.12734
    D8        0.23425  -0.00385   0.00000  -0.00300  -0.00332   0.23093
    D9       -1.43347   0.02001   0.00000   0.01564   0.01556  -1.41791
   D10        1.91686   0.03582   0.00000   0.02371   0.02349   1.94036
   D11        1.16970  -0.03869   0.00000  -0.01929  -0.01814   1.15156
   D12       -1.29273  -0.03327   0.00000  -0.02254  -0.02334  -1.31607
   D13       -0.00437   0.00306   0.00000   0.00125   0.00217  -0.00220
   D14       -2.46680   0.00848   0.00000  -0.00199  -0.00303  -2.46983
   D15        2.35599   0.02829   0.00000   0.02350   0.02437   2.38036
   D16       -0.10644   0.03372   0.00000   0.02026   0.01917  -0.08728
   D17        0.73481  -0.06195   0.00000  -0.04165  -0.04100   0.69381
   D18        2.77683   0.07217   0.00000   0.04966   0.04901   2.82585
   D19        2.98203   0.07023   0.00000   0.05051   0.04961   3.03165
   D20        0.51529   0.03912   0.00000   0.02888   0.02817   0.54346
   D21        0.72060  -0.02652   0.00000  -0.01916  -0.01845   0.70214
   D22       -1.74615  -0.05763   0.00000  -0.04079  -0.03990  -1.78605
   D23       -3.08211  -0.02163   0.00000  -0.01593  -0.01669  -3.09880
   D24       -1.92140  -0.04444   0.00000  -0.02994  -0.02918  -1.95058
   D25       -1.03775   0.01510   0.00000   0.00956   0.00936  -1.02840
   D26       -0.62460   0.00295   0.00000   0.00139   0.00076  -0.62384
   D27        0.53611  -0.01986   0.00000  -0.01262  -0.01173   0.52438
   D28        1.41976   0.03968   0.00000   0.02688   0.02680   1.44656
   D29        2.79663   0.02318   0.00000   0.01399   0.01372   2.81035
   D30        0.92679  -0.00406   0.00000  -0.00637  -0.00631   0.92047
   D31        0.48542  -0.01084   0.00000  -0.00575  -0.00592   0.47951
   D32       -1.38441  -0.03808   0.00000  -0.02611  -0.02595  -1.41037
   D33       -2.06036  -0.06015   0.00000  -0.03509  -0.03463  -2.09499
   D34       -1.89626   0.01419   0.00000   0.00761   0.00762  -1.88864
   D35       -0.72801   0.00408   0.00000   0.00069   0.00077  -0.72724
   D36        0.67237   0.00562   0.00000   0.00319   0.00329   0.67566
   D37        0.22348   0.00975   0.00000   0.00656   0.00645   0.22993
   D38       -3.08507  -0.00191   0.00000  -0.00347  -0.00361  -3.08867
   D39        1.40438  -0.00055   0.00000  -0.00052  -0.00049   1.40389
   D40       -1.90417  -0.01220   0.00000  -0.01055  -0.01054  -1.91472
   D41        2.77929   0.00648   0.00000   0.00537   0.00533   2.78462
   D42       -0.52925  -0.00518   0.00000  -0.00466  -0.00473  -0.53398
   D43        1.14918  -0.01719   0.00000  -0.01070  -0.01065   1.13852
   D44       -1.01584  -0.04986   0.00000  -0.03228  -0.03230  -1.04814
   D45       -0.75039   0.00976   0.00000   0.00569   0.00562  -0.74477
   D46       -2.91541  -0.02291   0.00000  -0.01589  -0.01603  -2.93144
   D47       -0.37332   0.00643   0.00000   0.00295   0.00295  -0.37037
   D48       -2.71902  -0.02484   0.00000  -0.01926  -0.01934  -2.73837
   D49        1.45704  -0.04031   0.00000  -0.02750  -0.02734   1.42971
   D50        1.14143  -0.02513   0.00000  -0.01550  -0.01539   1.12603
   D51       -1.86255  -0.03013   0.00000  -0.02178  -0.02175  -1.88430
   D52        1.61472   0.00292   0.00000   0.00632   0.00644   1.62116
   D53       -1.38926  -0.00209   0.00000   0.00004   0.00008  -1.38918
   D54       -1.01020  -0.01047   0.00000  -0.00096  -0.00077  -1.01097
   D55       -0.77283  -0.00645   0.00000  -0.00422  -0.00431  -0.77715
   D56       -1.40593   0.00677   0.00000   0.01106   0.01131  -1.39462
   D57       -1.16856   0.01080   0.00000   0.00779   0.00776  -1.16080
   D58       -0.33598   0.00103   0.00000   0.00488   0.00525  -0.33074
   D59       -0.09862   0.00505   0.00000   0.00162   0.00170  -0.09691
         Item               Value     Threshold  Converged?
 Maximum Force            0.466318     0.000450     NO 
 RMS     Force            0.067090     0.000300     NO 
 Maximum Displacement     0.478117     0.001800     NO 
 RMS     Displacement     0.143264     0.001200     NO 
 Predicted change in Energy=-2.151244D-01
 GradGradGradGradGradGradGradGradGradGradGradGradGradGradGradGradGradGrad

                          Input orientation:                          
 ---------------------------------------------------------------------
 Center     Atomic      Atomic             Coordinates (Angstroms)
 Number     Number       Type             X           Y           Z
 ---------------------------------------------------------------------
      1          6           0        2.695149   -1.228582   -0.279719
      2          7           0        4.336591   -2.115090   -0.687546
      3          6           0        6.135629   -3.179111   -1.129077
      4          6           0        5.402457   -1.763698   -0.556655
      5          6           0        5.759759   -2.818745    0.401523
      6          6           0        7.074909   -2.404937    0.604563
      7          8           0        7.631164   -1.194383   -0.114301
      8          6           0        7.492911   -3.812938    0.647978
      9          6           0        8.802316   -3.514738    0.699763
     10          6           0        9.124381   -5.128650    0.672203
     11          6           0       10.288915   -4.724190    0.306377
     12          6           0       11.595503   -4.036954    0.031067
     13          6           0       10.955798   -4.765871   -0.879195
     14          6           0        8.772435   -4.324754   -1.127049
     15          8           0        9.991372   -5.979570   -1.354597
     16          1           0        1.716623    0.106482   -0.040975
     17          1           0        1.113430   -1.126166    0.016121
     18          1           0        5.046084   -0.498996   -0.072777
     19          1           0        4.665128   -3.606438    0.189117
     20          1           0        6.874228   -0.556043   -0.092799
     21          1           0        6.925452   -4.810744   -0.012309
     22          1           0        9.478987   -2.904248   -0.055884
     23          1           0        8.942789   -6.187431    0.106683
     24          1           0       11.990364   -3.035584    0.088025
     25          1           0       12.422694   -5.202368   -0.211596
     26          1           0       11.256191   -6.566015   -1.110441
 ---------------------------------------------------------------------
                    Distance matrix (angstroms):
                    1          2          3          4          5
     1  C    0.000000
     2  N    1.909594   0.000000
     3  C    4.045105   2.136265   0.000000
     4  C    2.773546   1.129902   1.693696   0.000000
     5  C    3.519168   1.925255   1.616750   1.469317   0.000000
     6  C    4.620396   3.041700   2.118278   2.134645   1.393586
     7  O    4.938905   3.468504   2.684314   2.342420   2.531162
     8  C    5.527932   3.824743   2.324193   3.165520   2.013200
     9  C    6.594193   4.881223   3.250926   4.025390   3.135364
    10  C    7.579690   5.818366   3.997242   5.165821   4.090184
    11  C    8.380219   6.574606   4.658066   5.778132   4.914573
    12  C    9.338085   7.543326   5.647304   6.623211   5.973038
    13  C    9.006115   7.132830   5.080775   6.321129   5.694766
    14  C    6.872965   4.975187   2.874934   4.270961   3.698758
    15  O    8.772806   6.881549   4.770763   6.282391   5.566087
    16  H    1.672396   3.495378   5.613084   4.165198   5.009961
    17  H    1.612403   3.444108   5.545137   4.373816   4.960013
    18  H    2.470225   1.868978   3.079918   1.400217   2.472959
    19  H    3.123271   1.760850   2.020549   2.120264   1.365209
    20  H    4.236973   3.037096   2.915457   1.959515   2.570256
    21  H    5.549671   3.797985   2.129135   3.449683   2.344815
    22  H    6.991310   5.240802   3.522121   4.262596   3.748225
    23  H    7.985768   6.199340   4.296189   5.704681   4.643992
    24  H    9.476366   7.747842   5.981627   6.740462   6.242254
    25  H   10.508128   8.668499   6.668023   7.824784   7.102977
    26  H   10.122733   8.238351   6.139350   7.591780   6.821938
                    6          7          8          9         10
     6  C    0.000000
     7  O    1.513812   0.000000
     8  C    1.469379   2.730753   0.000000
     9  C    2.055397   2.723664   1.343930   0.000000
    10  C    3.409328   4.280974   2.096039   1.645963   0.000000
    11  C    3.974630   4.438485   2.960526   1.956401   1.285907
    12  C    4.840263   4.880299   4.154759   2.919205   2.776563
    13  C    4.778791   4.939006   3.902810   2.948886   2.427454
    14  C    3.092858   3.482439   2.247189   1.998566   2.001855
    15  O    5.012192   5.477858   3.866124   3.421936   2.362976
    16  H    5.952745   6.056354   7.014414   7.991807   9.098907
    17  H    6.125418   6.519396   6.950953   8.080322   8.979178
    18  H    2.864879   2.677299   4.181944   4.878606   6.214595
    19  H    2.724563   3.835028   2.872203   4.169592   4.736606
    20  H    1.986202   0.990401   3.396893   3.619331   5.153363
    21  H    2.488127   3.685986   1.324238   2.389413   2.324846
    22  H    2.542655   2.518233   2.294698   1.183885   2.367239
    23  H    4.247837   5.167177   2.834319   2.741307   1.214004
    24  H    4.982592   4.736410   4.598360   3.281382   3.596672
    25  H    6.090201   6.247573   5.193472   4.097049   3.415466
    26  H    6.143202   6.556488   4.983347   4.313772   3.128650
                   11         12         13         14         15
    11  C    0.000000
    12  C    1.501753   0.000000
    13  C    1.360901   1.330082   0.000000
    14  C    2.124611   3.064927   2.241225   0.000000
    15  O    2.103175   2.875249   1.621478   2.067850   0.000000
    16  H    9.845824  10.712867  10.478778   8.402374  10.355535
    17  H    9.859997  10.878729  10.531915   8.378434  10.210399
    18  H    6.744131   7.444650   7.333570   5.443676   7.492371
    19  H    5.734990   6.945533   6.485222   4.372441   6.031890
    20  H    5.403044   5.867071   5.916104   4.344658   6.381487
    21  H    3.379636   4.733921   4.122765   2.211374   3.545103
    22  H    2.024699   2.402129   2.514846   1.914275   3.377396
    23  H    1.998251   3.415722   2.654240   2.240687   1.810545
    24  H    2.407072   1.077915   2.236008   3.673341   3.839815
    25  H    2.247212   1.449594   1.669731   3.864280   2.796752
    26  H    2.517005   2.795411   1.839627   3.345530   1.415378
                   16         17         18         19         20
    16  H    0.000000
    17  H    1.373508   0.000000
    18  H    3.384217   3.983341   0.000000
    19  H    4.746830   4.335462   3.141641   0.000000
    20  H    5.200241   5.789964   1.829143   3.776838   0.000000
    21  H    7.163228   6.881607   4.703918   2.569045   4.255771
    22  H    8.325804   8.552736   5.043427   4.870969   3.507164
    23  H    9.583977   9.323275   6.897449   4.996670   6.002605
    24  H   10.744253  11.043493   7.394807   7.348141   5.688205
    25  H   11.951275  12.023590   8.749592   7.930158   7.237951
    26  H   11.690566  11.564458   8.743620   7.340985   7.507127
                   21         22         23         24         25
    21  H    0.000000
    22  H    3.187031   0.000000
    23  H    2.445215   3.330649   0.000000
    24  H    5.367923   2.518923   4.384313   0.000000
    25  H    5.514776   3.737782   3.630618   2.229716   0.000000
    26  H    4.800226   4.204650   2.641315   3.799904   2.007034
                   26
    26  H    0.000000
 Stoichiometry    C12H11NO2
 Framework group  C1[X(C12H11NO2)]
 Deg. of freedom    72
 Full point group                 C1      NOp   1
 Largest Abelian subgroup         C1      NOp   1
 Largest concise Abelian subgroup C1      NOp   1
                         Standard orientation:                         
 ---------------------------------------------------------------------
 Center     Atomic      Atomic             Coordinates (Angstroms)
 Number     Number       Type             X           Y           Z
 ---------------------------------------------------------------------
      1          6           0       -5.425783   -0.447458   -0.010102
      2          7           0       -3.554951   -0.595335   -0.363186
      3          6           0       -1.461840   -0.833060   -0.718158
      4          6           0       -2.774378    0.212149   -0.487102
      5          6           0       -1.982992   -0.206234    0.678040
      6          6           0       -1.011294    0.786873    0.570223
      7          8           0       -1.068044    1.816120   -0.538405
      8          6           0        0.009854   -0.193843    0.963327
      9          6           0        1.032028    0.651354    0.746648
     10          6           0        2.064344   -0.567024    1.145492
     11          6           0        2.914748    0.169150    0.522259
     12          6           0        3.759044    1.234026   -0.116852
     13          6           0        3.541703    0.048613   -0.679593
     14          6           0        1.405549   -0.626519   -0.743918
     15          8           0        3.254654   -1.546885   -0.645231
     16          1           0       -6.914033    0.314929   -0.038146
     17          1           0       -6.879479   -0.965908    0.456612
     18          1           0       -3.681945    1.269258   -0.347634
     19          1           0       -2.586148   -1.418056    0.855478
     20          1           0       -2.034605    2.023139   -0.600024
     21          1           0       -0.022556   -1.492349    0.705574
     22          1           0        1.360063    1.219381   -0.238908
     23          1           0        2.400895   -1.715634    0.942437
     24          1           0        3.645180    2.265640   -0.407899
     25          1           0        5.034727    0.545595   -0.121122
     26          1           0        4.643767   -1.400696   -0.416563
 ---------------------------------------------------------------------
 Rotational constants (GHZ):           1.9822646           0.3013141           0.2863058
 Standard basis: 6-31G(2df,p) (6D, 7F)
 There are   520 symmetry adapted cartesian basis functions of A   symmetry.
 There are   475 symmetry adapted basis functions of A   symmetry.
   475 basis functions,   737 primitive gaussians,   520 cartesian basis functions
    53 alpha electrons       53 beta electrons
       nuclear repulsion energy       920.6616878635 Hartrees.
 NAtoms=   26 NActive=   26 NUniq=   26 SFac= 1.00D+00 NAtFMM=   60 NAOKFM=F Big=F
 Integral buffers will be    131072 words long.
 Raffenetti 2 integral format.
 Two-electron integral symmetry is turned on.
 One-electron integrals computed using PRISM.
 PrsmSu:  requested number of processors reduced to:  12 ShMem   1 Linda.
 NBasis=   475 RedAO= T EigKep=  1.70D-04  NBF=   475
 NBsUse=   475 1.00D-06 EigRej= -1.00D+00 NBFU=   475
 Initial guess from the checkpoint file:  "CdNC1dCCdCqOrCdCCdC2CdCC21O.chk"
 B after Tr=    -0.000000    0.000000   -0.000000
         Rot=    0.999968    0.007739   -0.000287    0.002230 Ang=   0.92 deg.
 ExpMin= 1.61D-01 ExpMax= 5.48D+03 ExpMxC= 8.25D+02 IAcc=2 IRadAn=         4 AccDes= 0.00D+00
 Harris functional with IExCor=  402 and IRadAn=       4 diagonalized for initial guess.
 HarFok:  IExCor=  402 AccDes= 0.00D+00 IRadAn=         4 IDoV= 1 UseB2=F ITyADJ=14
 ICtDFT=  3500011 ScaDFX=  1.000000  1.000000  1.000000  1.000000
 FoFCou: FMM=F IPFlag=           0 FMFlag=      100000 FMFlg1=           0
         NFxFlg=           0 DoJE=T BraDBF=F KetDBF=T FulRan=T
         wScrn=  0.000000 ICntrl=       500 IOpCl=  0 I1Cent=   200000004 NGrid=           0
         NMat0=    1 NMatS0=      1 NMatT0=    0 NMatD0=    1 NMtDS0=    0 NMtDT0=    0
 Petite list used in FoFCou.
 Requested convergence on RMS density matrix=1.00D-08 within 128 cycles.
 Requested convergence on MAX density matrix=1.00D-06.
[...]
   D45       -0.96792  -0.00778  -0.00835  -0.09271  -0.00102  -0.96894
   D46        2.91733  -0.00714  -0.00509  -0.06317  -0.00069   2.91665
   D47       -0.39021   0.00308   0.00291   0.03207   0.00035  -0.38986
   D48       -3.01797   0.00144  -0.00024   0.00130   0.34242  -2.67554
   D49        0.93679  -0.00658  -0.00576  -0.06152   0.34174   1.27852
   D50        0.81629  -0.00500  -0.00374  -0.05456  -0.00059   0.81571
   D51       -2.32495  -0.00632  -0.00494  -0.06810  -0.00073  -2.32569
   D52        1.94571  -0.00188  -0.00478  -0.02422  -0.34270   1.60301
   D53       -1.19553  -0.00320  -0.00599  -0.03776  -0.34285  -1.53838
   D54       -0.90019   0.00973   0.01042   0.10063   0.00112  -0.89907
   D55       -0.89800   0.00147   0.00274   0.01615   0.00019  -0.89781
   D56       -1.21741   0.00433   0.00466   0.04301   0.00048  -1.21693
   D57       -1.21523  -0.00394  -0.00302  -0.04147  -0.00045  -1.21568
   D58        0.04111   0.00976   0.00593   0.08678   0.00093   0.04204
   D59        0.04329   0.00150  -0.00175   0.00230   0.00000   0.04329
         Item               Value     Threshold  Converged?
 Maximum Force            0.041327     0.000450     NO 
 RMS     Force            0.009342     0.000300     NO 
 Maximum Displacement     0.004259     0.001800     NO 
 RMS     Displacement     0.001044     0.001200     YES
 Predicted change in Energy=-3.675177D-03
 GradGradGradGradGradGradGradGradGradGradGradGradGradGradGradGradGradGrad

                          Input orientation:                          
 ---------------------------------------------------------------------
 Center     Atomic      Atomic             Coordinates (Angstroms)
 Number     Number       Type             X           Y           Z
 ---------------------------------------------------------------------
      1          6           0        2.122773   -1.162125    0.216603
      2          7           0        2.975196   -1.717779   -0.570810
      3          6           0        5.161975   -1.753505   -1.483874
      4          6           0        4.176933   -1.061042   -0.630610
      5          6           0        5.294787   -2.334881   -0.091473
      6          6           0        6.798528   -2.491294    0.006178
      7          8           0        7.457188   -1.282765   -0.126441
      8          6           0        7.394084   -3.683982    0.025989
      9          6           0        8.807404   -3.858415    0.221624
     10          6           0        9.382156   -5.130667    0.642384
     11          6           0       10.815394   -5.050538    0.351207
     12          6           0       12.020718   -4.208982    0.233873
     13          6           0       11.613118   -5.588203   -0.578278
     14          6           0        9.634573   -4.959393   -1.005577
     15          8           0       11.279498   -6.717091   -1.243020
     16          1           0        2.188406   -0.168199    0.555664
     17          1           0        1.162117   -1.531849    0.400826
     18          1           0        4.252534   -0.045895   -0.251380
     19          1           0        4.544696   -3.130943   -0.015132
     20          1           0        6.892807   -0.538451    0.118182
     21          1           0        6.823012   -4.544430   -0.398316
     22          1           0        9.558841   -3.259001   -0.279133
     23          1           0        9.126464   -6.194856    0.557121
     24          1           0       12.061653   -3.167211   -0.109406
     25          1           0       12.923908   -4.468429    0.755391
     26          1           0       12.022498   -7.329833   -1.263095
 ---------------------------------------------------------------------
                    Distance matrix (angstroms):
                    1          2          3          4          5
     1  C    0.000000
     2  N    1.286622   0.000000
     3  C    3.532436   2.370014   0.000000
     4  C    2.224311   1.370785   1.475762   0.000000
     5  C    3.395871   2.447669   1.514734   1.778464   0.000000
     6  C    4.865558   3.943235   2.333001   3.053503   1.515004
     7  O    5.346795   4.524925   2.707808   3.326172   2.405025
     8  C    5.846607   4.873262   3.314926   4.202499   2.498182
     9  C    7.207932   6.262980   4.541863   5.476574   3.841570
    10  C    8.284278   7.359944   5.808281   6.728797   5.006151
    11  C    9.523630   8.568902   6.796991   7.806997   6.168294
    12  C   10.356300   9.416744   7.484810   8.495989   6.989725
    13  C   10.501840   9.465406   7.559249   8.706019   7.123368
    14  C    8.505298   7.419190   5.523641   6.717408   5.153386
    15  O   10.808966   9.716296   7.881578   9.100130   7.506436
    16  H    1.052217   2.071034   3.938912   2.481664   3.842253
    17  H    1.045702   2.065406   4.427199   3.220968   4.238653
    18  H    2.449665   2.128104   2.293918   1.086303   2.520183
    19  H    3.129801   2.183836   2.106080   2.190560   1.096439
    20  H    4.811640   4.148879   2.653059   2.865268   2.413459
    21  H    5.823260   4.777593   3.424433   4.380603   2.704021
    22  H    7.741948   6.767926   4.801078   5.824045   4.367078
    23  H    8.631108   7.691199   6.293523   7.229427   5.477392
    24  H   10.144358   9.212896   7.175882   8.177800   6.817886
    25  H   11.308690  10.406813   8.522483   9.488986   7.966975
    26  H   11.757325  10.669024   8.843696  10.062339   8.460753
                    6          7          8          9         10
     6  C    0.000000
     7  O    1.382738   0.000000
     8  C    1.333261   2.406878   0.000000
     9  C    2.439471   2.928858   1.437419   0.000000
    10  C    3.747824   4.370692   2.534813   1.458082   0.000000
    11  C    4.775352   5.069695   3.698460   2.338797   1.464709
    12  C    5.502143   5.433083   4.660965   3.232405   2.824605
    13  C    5.754364   6.001059   4.668131   3.391760   2.583901
    14  C    3.893368   4.362508   2.776795   1.844555   1.675955
    15  O    6.284660   6.737114   5.089850   4.053203   3.109887
    16  H    5.191525   5.428405   6.303996   7.585540   8.739774
    17  H    5.731091   6.322022   6.603755   7.993462   8.976574
    18  H    3.539547   3.437333   4.814763   5.958681   7.277826
    19  H    2.342939   3.451197   2.902853   4.330813   5.275628
    20  H    1.958323   0.965593   3.186557   3.833868   5.249771
    21  H    2.092745   3.333850   1.116481   2.189236   2.824173
    22  H    2.879255   2.888905   2.227080   1.083842   2.093692
    23  H    4.408991   5.232818   3.096406   2.381872   1.097792
    24  H    5.307609   4.975192   4.698041   3.343275   3.405885
    25  H    6.480021   6.388358   5.632614   4.195549   3.604904
    26  H    7.232730   7.661663   6.031268   4.959029   3.929197
                   11         12         13         14         15
    11  C    0.000000
    12  C    1.474718   0.000000
    13  C    1.337680   1.651659   0.000000
    14  C    1.800974   2.791602   2.119582   0.000000
    15  O    2.352520   3.003536   1.351878   2.419021   0.000000
    16  H    9.914835  10.635123  10.931032   8.991018  11.347740
    17  H   10.274696  11.184996  11.253269   9.247082  11.486964
    18  H    8.275306   8.826746   9.219665   7.326501   9.739940
    19  H    6.568158   7.557452   7.504522   5.498278   7.728242
    20  H    5.983304   6.307270   6.947401   5.322109   7.698800
    21  H    4.093537   5.246746   4.905809   2.906172   5.029339
    22  H    2.277248   2.688211   3.120051   1.850618   3.980970
    23  H    2.050451   3.524897   2.800109   2.055863   2.854609
    24  H    2.304831   1.097634   2.506436   3.147341   3.807689
    25  H    2.224421   1.074731   2.179618   3.763214   3.428441
    26  H    3.042738   3.461304   1.915684   3.374536   0.963279
                   16         17         18         19         20
    16  H    0.000000
    17  H    1.713705   0.000000
    18  H    2.219663   3.490574   0.000000
    19  H    3.828285   3.764567   3.107844   0.000000
    20  H    4.739184   5.823017   2.711130   3.500344   0.000000
    21  H    6.445235   6.462198   5.183220   2.708413   4.039742
    22  H    8.035749   8.599441   6.203364   5.022723   3.829751
    23  H    9.190062   9.230324   7.887876   5.541447   6.097279
    24  H   10.340088  11.033342   8.411012   7.517636   5.803374
    25  H   11.566455  12.128023   9.785966   8.520198   7.226683
    26  H   12.300661  12.423089  10.698209   8.666350   8.622328
                   21         22         23         24         25
    21  H    0.000000
    22  H    3.025111   0.000000
    23  H    2.990428   3.083102   0.000000
    24  H    5.424350   2.510239   4.269219   0.000000
    25  H    6.209489   3.722450   4.176176   1.784523   0.000000
    26  H    5.961625   4.858957   3.603939   4.319717   3.615862
                   26
    26  H    0.000000
 Stoichiometry    C12H11NO2
 Framework group  C1[X(C12H11NO2)]
 Deg. of freedom    72
 Full point group                 C1      NOp   1
 Largest Abelian subgroup         C1      NOp   1
 Largest concise Abelian subgroup C1      NOp   1
                         Standard orientation:                         
 ---------------------------------------------------------------------
 Center     Atomic      Atomic             Coordinates (Angstroms)
 Number     Number       Type             X           Y           Z
 ---------------------------------------------------------------------
      1          6           0       -5.923354   -0.560166    0.601695
      2          7           0       -4.906036   -0.826185   -0.139718
      3          6           0       -2.962534   -0.059615   -1.258708
      4          6           0       -4.161883    0.277353   -0.467577
      5          6           0       -2.574443   -0.164240    0.201722
      6          6           0       -1.178103    0.422369    0.164805
      7          8           0       -1.173978    1.728025   -0.290395
      8          6           0       -0.086490   -0.315176    0.369725
      9          6           0        1.238533    0.237371    0.441690
     10          6           0        2.348142   -0.482668    1.055135
     11          6           0        3.571390    0.181011    0.598444
     12          6           0        4.230908    1.430363    0.175421
     13          6           0        4.532612   -0.128691   -0.278782
     14          6           0        2.495116   -0.610223   -0.609483
     15          8           0        4.779556   -1.404773   -0.650544
     16          1           0       -6.340360    0.399246    0.714809
     17          1           0       -6.592714   -1.277412    0.963647
     18          1           0       -4.580391    1.269029   -0.320996
     19          1           0       -2.855177   -1.173466    0.525496
     20          1           0       -2.025698    2.159915   -0.147518
     21          1           0       -0.177145   -1.415116    0.201074
     22          1           0        1.615803    0.978687   -0.253171
     23          1           0        2.630475   -1.529980    1.224174
     24          1           0        3.772130    2.257372   -0.381697
     25          1           0        5.146558    1.751156    0.637723
     26          1           0        5.724776   -1.588291   -0.622520
 ---------------------------------------------------------------------
 Rotational constants (GHZ):           2.2673902           0.1946053           0.1881370
 Standard basis: 6-31G(2df,p) (6D, 7F)
 There are   520 symmetry adapted cartesian basis functions of A   symmetry.
 There are   475 symmetry adapted basis functions of A   symmetry.
   475 basis functions,   737 primitive gaussians,   520 cartesian basis functions
    53 alpha electrons       53 beta electrons
       nuclear repulsion energy       845.8809714514 Hartrees.
 NAtoms=   26 NActive=   26 NUniq=   26 SFac= 1.00D+00 NAtFMM=   60 NAOKFM=F Big=F
 Integral buffers will be    131072 words long.
 Raffenetti 2 integral format.
 Two-electron integral symmetry is turned on.
 One-electron integrals computed using PRISM.
 PrsmSu:  requested number of processors reduced to:  12 ShMem   1 Linda.
 NBasis=   475 RedAO= T EigKep=  3.64D-04  NBF=   475
 NBsUse=   475 1.00D-06 EigRej= -1.00D+00 NBFU=   475
 Initial guess from the checkpoint file:  "CdNC1dCCdCqOrCdCCdC2CdCC21O.chk"
 B after Tr=     0.000000    0.000000   -0.000000
         Rot=    1.000000   -0.000220    0.000000    0.000006 Ang=  -0.03 deg.
 Requested convergence on RMS density matrix=1.00D-08 within 128 cycles.
 Requested convergence on MAX density matrix=1.00D-06.
 Requested convergence on             energy=1.00D-06.
 No special actions if energy rises.
 SCF Done:  E(RB3LYP) =  -668.432347392     A.U. after    9 cycles
            NFock=  9  Conv=0.81D-08     -V/T= 2.0071
 PrsmSu:  requested number of processors reduced to:  13 ShMem   1 Linda.
 Calling FoFJK, ICntrl=      2127 FMM=F ISym2X=0 I1Cent= 0 IOpClX= 0 NMat=1 NMatS=1 NMatT=0.
 ***** Axes restored to original set *****
 -------------------------------------------------------------------
 Center     Atomic                   Forces (Hartrees/Bohr)
 Number     Number              X              Y              Z
 -------------------------------------------------------------------
      1        6           0.005514566   -0.005072219   -0.035963180
      2        7          -0.036300204   -0.005511620    0.044376098
      3        6           0.000418752    0.017679534   -0.005447987
      4        6           0.052615387   -0.025132437    0.001063125
      5        6          -0.015567442    0.001728647   -0.055359414
      6        6          -0.034881621    0.036361221    0.003240138
      7        8           0.010302140   -0.015867990    0.012916676
      8        6           0.002263957   -0.013172972   -0.017369109
      9        6           0.007903091   -0.007652072   -0.025497350
     10        6           0.040682849   -0.029135519   -0.043191163
     11        6          -0.002322018    0.001629678    0.012099856
     12        6           0.019338311   -0.005772722   -0.025424219
     13        6          -0.033636920   -0.000582667    0.025383172
     14        6          -0.030712118    0.000515331    0.025646454
     15        8           0.027924523   -0.000363047   -0.011938951
     16        1           0.016047408    0.029110720    0.016835755
     17        1          -0.027296100   -0.025147592   -0.000628496
     18        1           0.002403440    0.006039079   -0.004076234
     19        1           0.013672968    0.000022162    0.015924322
     20        1          -0.001598485   -0.006489172    0.001914898
     21        1           0.001738348    0.009798635    0.022536099
     22        1          -0.001873062    0.027336362    0.022530081
     23        1          -0.022612951    0.013634562    0.019292456
     24        1          -0.004875041   -0.006342641   -0.010571221
     25        1           0.002631941    0.002258749    0.019294807
     26        1           0.008218282    0.000127991   -0.007586614
 -------------------------------------------------------------------
 Cartesian Forces:  Max     0.055359414 RMS     0.020524302

 GradGradGradGradGradGradGradGradGradGradGradGradGradGradGradGradGradGrad
 Berny optimization.
 Using GEDIIS/GDIIS optimizer.
 FormGI is forming the generalized inverse of G from B-inverse, IUseBI=4.
 Internal  Forces:  Max     0.041096363 RMS     0.009470152
 Search for a local minimum.
 Step number  12 out of a maximum of  147
 All quantities printed in internal units (Hartrees-Bohrs-Radians)
 Mixed Optimization -- RFO/linear search
 Update second derivatives using D2CorX and points   11   12
 DE= -7.31D-04 DEPred=-3.68D-03 R= 1.99D-01
 Trust test= 1.99D-01 RLast= 6.85D-01 DXMaxT set to 2.40D+00
 ITU=  0  1  1  1  1  1  0  1  0  0  1  0
 Use linear search instead of GDIIS.
     Eigenvalues ---   -3.89645   0.00000   0.00230   0.00230   0.00231
     Eigenvalues ---    0.00320   0.01413   0.01474   0.01694   0.01936
     Eigenvalues ---    0.02088   0.02587   0.02667   0.02730   0.02853
     Eigenvalues ---    0.02905   0.03291   0.03362   0.03616   0.03960
     Eigenvalues ---    0.05329   0.05442   0.05877   0.06005   0.06967
     Eigenvalues ---    0.07815   0.07949   0.08432   0.08537   0.09035
     Eigenvalues ---    0.10126   0.10960   0.12295   0.12752   0.13021
     Eigenvalues ---    0.13629   0.13861   0.14763   0.14975   0.15574
     Eigenvalues ---    0.15614   0.15941   0.16000   0.16308   0.16881
     Eigenvalues ---    0.18298   0.18647   0.19154   0.20193   0.20956
     Eigenvalues ---    0.21195   0.21443   0.22021   0.22786   0.23139
     Eigenvalues ---    0.23649   0.24696   0.26570   0.27846   0.29982
     Eigenvalues ---    0.35396   0.36494   0.37039   0.39493   0.41102
     Eigenvalues ---    0.46302   0.49003   0.55031   0.62911   0.72512
     Eigenvalues ---    0.82533   1.45780
 RFO step:  Lambda=-3.89657825D+00 EMin=-3.89645215D+00
 I=     1 Eig=   -3.90D+00 Dot1= -1.33D-02
 I=     1 Stepn= -6.00D-01 RXN=   6.00D-01 EDone=F
 Mixed    1 eigenvectors in step.  Raw Step.Grad=  1.33D-02.
 RFO eigenvector is Hessian eigenvector with negative curvature.
 Taking step of  6.00D-01 in eigenvector direction(s).  Step.Grad= -4.20D-03.
 Skip linear search -- no minimum in search direction.
 SLEqS3 Cycle:    75 Max:0.519622     RMS: 488.127     Conv:0.325399E-02
 Iteration  1 RMS(Cart)=  0.01344110 RMS(Int)=  0.05113001
 SLEqS3 Cycle:   781 Max:0.413125     RMS:0.623756E-01 Conv:0.292016E-04
 SLEqS3 Cycle:   781 Max:0.412858     RMS:0.623280E-01 Conv:0.292016E-04
 New curvilinear step failed, DQL= 6.24D+00 SP=-1.12D-01.
 ITry= 1 IFail=1 DXMaxC= 8.80D-02 DCOld= 1.00D+10 DXMaxT= 2.40D+00 DXLimC= 3.00D+00 Rises=F
 SLEqS3 Cycle:    75 Max:0.307409     RMS: 244.063     Conv:0.162698E-02
 Iteration  1 RMS(Cart)=  0.00672008 RMS(Int)=  0.02556493
 SLEqS3 Cycle:   781 Max:0.243803     RMS:0.368062E-01 Conv:0.742311E-05
 SLEqS3 Cycle:   781 Max:0.243755     RMS:0.367955E-01 Conv:0.742311E-05
 New curvilinear step failed, DQL= 6.25D+00 SP=-1.26D-01.
 ITry= 2 IFail=1 DXMaxC= 4.40D-02 DCOld= 1.00D+10 DXMaxT= 2.40D+00 DXLimC= 3.00D+00 Rises=F
 SLEqS3 Cycle:    75 Max:0.153705     RMS: 122.032     Conv:0.813490E-03
 Iteration  1 RMS(Cart)=  0.00336004 RMS(Int)=  0.01278245
 SLEqS3 Cycle:   781 Max:0.121797     RMS:0.183870E-01 Conv:0.169857E-05
 SLEqS3 Cycle:   781 Max:0.121802     RMS:0.183864E-01 Conv:0.169857E-05
 New curvilinear step failed, DQL= 6.27D+00 SP=-1.36D-01.
 ITry= 3 IFail=1 DXMaxC= 2.20D-02 DCOld= 1.00D+10 DXMaxT= 2.40D+00 DXLimC= 3.00D+00 Rises=F
 SLEqS3 Cycle:    75 Max:0.768523E-01 RMS: 61.0158     Conv:0.406745E-03
 Iteration  1 RMS(Cart)=  0.00168002 RMS(Int)=  0.00639122
 SLEqS3 Cycle:   781 Max:0.608713E-01 RMS:0.918937E-02 Conv:0.347043E-06
 SLEqS3 Cycle:   781 Max:0.608816E-01 RMS:0.919030E-02 Conv:0.347043E-06
 New curvilinear step failed, DQL= 6.27D+00 SP=-1.41D-01.
 ITry= 4 IFail=1 DXMaxC= 1.10D-02 DCOld= 1.00D+10 DXMaxT= 2.40D+00 DXLimC= 3.00D+00 Rises=F
 SLEqS3 Cycle:   170 Max:0.245923E-01 RMS:0.458801E-02 Conv:0.203373E-03
 New curvilinear step failed, DQL= 6.28D+00 SP=-1.52D-01.
 ITry= 5 IFail=1 DXMaxC= 0.00D+00 DCOld= 1.00D+10 DXMaxT= 2.40D+00 DXLimC= 3.00D+00 Rises=F
 SLEqS3 Cycle:   128 Max:0.122960E-01 RMS:0.229401E-02 Conv:0.101686E-03
 New curvilinear step failed, DQL= 6.28D+00 SP=-1.53D-01.
 ITry= 6 IFail=1 DXMaxC= 0.00D+00 DCOld= 1.00D+10 DXMaxT= 2.40D+00 DXLimC= 3.00D+00 Rises=F
 SLEqS3 Cycle:   254 Max:0.614803E-02 RMS:0.114700E-02 Conv:0.508431E-04
 New curvilinear step failed, DQL= 6.28D+00 SP=-1.53D-01.
 ITry= 7 IFail=1 DXMaxC= 0.00D+00 DCOld= 1.00D+10 DXMaxT= 2.40D+00 DXLimC= 3.00D+00 Rises=F
 SLEqS3 Cycle:   781 Max:0.379385E-02 RMS:0.573502E-03 Conv:0.254216E-04
slurmstepd: error: *** JOB 27446979 ON lewis4-r630-hpc4-node672 CANCELLED AT 2023-05-17T12:05:30 DUE TO TIME LIMIT ***
