### Starting Gaussian ###
 Entering Gaussian System, Link 0=g16
 Initial command:
 /cluster/software/gaussian/gaussian-16-A.03/avx2/g16/l1.exe "/local/scratch/cz9n3/Gau-19609.inp" -scrdir="/local/scratch/cz9n3/"
 Entering Link 1 = /cluster/software/gaussian/gaussian-16-A.03/avx2/g16/l1.exe PID=     19613.
  
 Copyright (c) 1988,1990,1992,1993,1995,1998,2003,2009,2016,
            Gaussian, Inc.  All Rights Reserved.
  
 This is part of the Gaussian(R) 16 program.  It is based on
 the Gaussian(R) 09 system (copyright 2009, Gaussian, Inc.),
 the Gaussian(R) 03 system (copyright 2003, Gaussian, Inc.),
 the Gaussian(R) 98 system (copyright 1998, Gaussian, Inc.),
 the Gaussian(R) 94 system (copyright 1995, Gaussian, Inc.),
 the Gaussian 92(TM) system (copyright 1992, Gaussian, Inc.),
 the Gaussian 90(TM) system (copyright 1990, Gaussian, Inc.),
 the Gaussian 88(TM) system (copyright 1988, Gaussian, Inc.),
 the Gaussian 86(TM) system (copyright 1986, Carnegie Mellon
 University), and the Gaussian 82(TM) system (copyright 1983,
 Carnegie Mellon University). Gaussian is a federally registered
 trademark of Gaussian, Inc.
  
 This software contains proprietary and confidential information,
 including trade secrets, belonging to Gaussian, Inc.
  
 This software is provided under written license and may be
 used, copied, transmitted, or stored only in accord with that
 written license.
  
 The following legend is applicable only to US Government
 contracts under FAR:
  
                    RESTRICTED RIGHTS LEGEND
  
 Use, reproduction and disclosure by the US Government is
 subject to restrictions as set forth in subparagraphs (a)
 and (c) of the Commercial Computer Software - Restricted
 Rights clause in FAR 52.227-19.
  
 Gaussian, Inc.
 340 Quinnipiac St., Bldg. 40, Wallingford CT 06492
  
  
 ---------------------------------------------------------------
 Warning -- This program may not be used in any manner that
 competes with the business of Gaussian, Inc. or will provide
 assistance to any competitor of Gaussian, Inc.  The licensee
 of this program is prohibited from giving any competitor of
 Gaussian, Inc. access to this program.  By using this program,
 the user acknowledges that Gaussian, Inc. is engaged in the
 business of creating and licensing software in the field of
 computational chemistry and represents and warrants to the
 licensee that it is not a competitor of Gaussian, Inc. and that
 it will not use this program in any manner prohibited above.
 ---------------------------------------------------------------
  

 Cite this work as:
 Gaussian 16, Revision A.03,
 M. J. Frisch, G. W. Trucks, H. B. Schlegel, G. E. Scuseria, 
 M. A. Robb, J. R. Cheeseman, G. Scalmani, V. Barone, 
 G. A. Petersson, H. Nakatsuji, X. Li, M. Caricato, A. V. Marenich, 
 J. Bloino, B. G. Janesko, R. Gomperts, B. Mennucci, H. P. Hratchian, 
 J. V. Ortiz, A. F. Izmaylov, J. L. Sonnenberg, D. Williams-Young, 
 F. Ding, F. Lipparini, F. Egidi, J. Goings, B. Peng, A. Petrone, 
 T. Henderson, D. Ranasinghe, V. G. Zakrzewski, J. Gao, N. Rega, 
 G. Zheng, W. Liang, M. Hada, M. Ehara, K. Toyota, R. Fukuda, 
 J. Hasegawa, M. Ishida, T. Nakajima, Y. Honda, O. Kitao, H. Nakai, 
 T. Vreven, K. Throssell, J. A. Montgomery, Jr., J. E. Peralta, 
 F. Ogliaro, M. J. Bearpark, J. J. Heyd, E. N. Brothers, K. N. Kudin, 
 V. N. Staroverov, T. A. Keith, R. Kobayashi, J. Normand, 
 K. Raghavachari, A. P. Rendell, J. C. Burant, S. S. Iyengar, 
 J. Tomasi, M. Cossi, J. M. Millam, M. Klene, C. Adamo, R. Cammi, 
 J. W. Ochterski, R. L. Martin, K. Morokuma, O. Farkas, 
 J. B. Foresman, and D. J. Fox, Gaussian, Inc., Wallingford CT, 2016.
 
 ******************************************
 Gaussian 16:  ES64L-G16RevA.03 25-Dec-2016
                20-May-2023 
 ******************************************
 %chk=CN1CdCCdCCdCCdC2C[C]2C1.chk
 %NProcShared=20
 Will use up to   20 processors via shared memory.
 -----------------------------
 # opt freq b3lyp/6-31g(2df,p)
 -----------------------------
 1/18=20,19=15,26=3,38=1/1,3;
 2/9=110,12=2,17=6,18=5,40=1/2;
 3/5=1,6=6,7=104,11=2,25=1,30=1,71=1,74=-5/1,2,3;
 4//1;
 5/5=2,38=5/2;
 6/7=2,8=2,9=2,10=2,28=1/1;
 7//1,2,3,16;
 1/18=20,19=15,26=3/3(2);
 2/9=110/2;
 99//99;
 2/9=110/2;
 3/5=1,6=6,7=104,11=2,25=1,30=1,71=1,74=-5/1,2,3;
 4/5=5,16=3,69=1/1;
 5/5=2,38=5/2;
 7//1,2,3,16;
 1/18=20,19=15,26=3/3(-5);
 2/9=110/2;
 6/7=2,8=2,9=2,10=2,19=2,28=1/1;
 99/9=1/99;
 -------------------
 Title Card Required
 -------------------
 Symbolic Z-matrix:
 Charge =  0 Multiplicity = 2
 C                     1.97416  -0.03867  -0.06338 
 N                     4.02998  -0.08073   0.2508 
 C                     3.29052   0.8434    1.06507 
 C                     4.41655   1.18901   1.36266 
 C                     5.17017   1.81806   2.16519 
 C                     6.42124   1.88568   2.17553 
 C                     7.18597   2.57254   3.03148 
 C                     8.49148   2.607     2.82973 
 C                     9.39347   3.14585   3.82809 
 C                     9.3644    2.01721   2.90516 
 C                     10.34406   1.51016   2.09704 
 C                     8.28695   0.79668   1.56765 
 C                     6.30136   0.20662   0.53254 
 H                     0.93424   0.59758   0.70404 
 H                     0.97424  -1.02824   0.09968 
 H                     0.98262   0.32225  -1.01835 
 H                     2.50792   1.36458   1.62883 
 H                     4.97442   1.09919   0.53864 
 H                     4.64439   2.3255    2.80525 
 H                     6.81367   1.40478   1.40256 
 H                     6.76459   3.12565   3.7832 
 H                     9.11018   2.17472   1.41812 
 H                     8.93905   3.85765   4.63699 
 H                     11.50064   2.62201   2.25639 
 H                     11.67429   1.73155   2.86347 
 H                     5.50654  -0.87125   0.15185 
 H                     5.58605   0.13764  -0.75714 
 
 Add virtual bond connecting atoms H25        and H24        Dist= 2.06D+00.
 Add virtual bond connecting atoms H27        and H26        Dist= 2.57D+00.
 Add virtual bond connecting atoms H26        and C13        Dist= 2.63D+00.
 Add virtual bond connecting atoms H27        and C13        Dist= 2.79D+00.
 Add virtual bond connecting atoms H15        and C1         Dist= 2.68D+00.
 Add virtual bond connecting atoms H16        and C1         Dist= 2.69D+00.
 Add virtual bond connecting atoms H14        and C1         Dist= 2.72D+00.
 Add virtual bond connecting atoms H22        and C8         Dist= 3.02D+00.
 Add virtual bond connecting atoms H22        and C10        Dist= 2.87D+00.
 Add virtual bond connecting atoms H22        and C11        Dist= 2.94D+00.
 Add virtual bond connecting atoms H24        and C11        Dist= 3.05D+00.
 Add virtual bond connecting atoms H25        and C11        Dist= 2.93D+00.
 Add virtual bond connecting atoms N2         and H26        Dist= 3.17D+00.
 Add virtual bond connecting atoms H18        and C13        Dist= 3.02D+00.
 Add virtual bond connecting atoms H20        and C13        Dist= 2.96D+00.
 Add virtual bond connecting atoms H20        and C12        Dist= 3.03D+00.
 Add virtual bond connecting atoms H22        and C12        Dist= 3.05D+00.
 Add virtual bond connecting atoms N2         and C1         Dist= 3.93D+00.
 Add virtual bond connecting atoms C3         and C1         Dist= 3.68D+00.
 Add virtual bond connecting atoms H17        and H14        Dist= 3.74D+00.

 GradGradGradGradGradGradGradGradGradGradGradGradGradGradGradGradGradGrad
 Berny optimization.
 Initialization pass.
                           ----------------------------
                           !    Initial Parameters    !
                           ! (Angstroms and Degrees)  !
 --------------------------                            --------------------------
 ! Name  Definition              Value          Derivative Info.                !
 --------------------------------------------------------------------------------
 ! R1    R(1,2)                  2.0801         estimate D2E/DX2                !
 ! R2    R(1,3)                  1.9453         estimate D2E/DX2                !
 ! R3    R(1,14)                 1.4405         estimate D2E/DX2                !
 ! R4    R(1,15)                 1.4162         estimate D2E/DX2                !
 ! R5    R(1,16)                 1.4232         estimate D2E/DX2                !
 ! R6    R(2,3)                  1.4366         estimate D2E/DX2                !
 ! R7    R(2,4)                  1.7314         estimate D2E/DX2                !
 ! R8    R(2,26)                 1.6778         estimate D2E/DX2                !
 ! R9    R(3,4)                  1.2149         estimate D2E/DX2                !
 ! R10   R(3,17)                 1.0963         estimate D2E/DX2                !
 ! R11   R(4,5)                  1.268          estimate D2E/DX2                !
 ! R12   R(4,18)                 0.9991         estimate D2E/DX2                !
 ! R13   R(5,6)                  1.2529         estimate D2E/DX2                !
 ! R14   R(5,19)                 0.9714         estimate D2E/DX2                !
 ! R15   R(6,7)                  1.3376         estimate D2E/DX2                !
 ! R16   R(6,20)                 0.9913         estimate D2E/DX2                !
 ! R17   R(7,8)                  1.3215         estimate D2E/DX2                !
 ! R18   R(7,21)                 1.024          estimate D2E/DX2                !
 ! R19   R(8,9)                  1.4494         estimate D2E/DX2                !
 ! R20   R(8,10)                 1.0562         estimate D2E/DX2                !
 ! R21   R(8,22)                 1.6007         estimate D2E/DX2                !
 ! R22   R(9,10)                 1.4582         estimate D2E/DX2                !
 ! R23   R(9,23)                 1.1694         estimate D2E/DX2                !
 ! R24   R(10,11)                1.3674         estimate D2E/DX2                !
 ! R25   R(10,22)                1.5168         estimate D2E/DX2                !
 ! R26   R(11,22)                1.5573         estimate D2E/DX2                !
 ! R27   R(11,24)                1.6122         estimate D2E/DX2                !
 ! R28   R(11,25)                1.5511         estimate D2E/DX2                !
 ! R29   R(12,20)                1.6024         estimate D2E/DX2                !
 ! R30   R(12,22)                1.6122         estimate D2E/DX2                !
 ! R31   R(13,18)                1.5992         estimate D2E/DX2                !
 ! R32   R(13,20)                1.5668         estimate D2E/DX2                !
 ! R33   R(13,26)                1.3923         estimate D2E/DX2                !
 ! R34   R(13,27)                1.4764         estimate D2E/DX2                !
 ! R35   R(14,17)                1.9799         estimate D2E/DX2                !
 ! R36   R(24,25)                1.0916         estimate D2E/DX2                !
 ! R37   R(26,27)                1.3603         estimate D2E/DX2                !
 ! A1    A(2,1,14)             129.9357         estimate D2E/DX2                !
 ! A2    A(2,1,15)             131.7809         estimate D2E/DX2                !
 ! A3    A(2,1,16)             142.6609         estimate D2E/DX2                !
 ! A4    A(3,1,14)              88.8079         estimate D2E/DX2                !
 ! A5    A(3,1,15)             136.7034         estimate D2E/DX2                !
 ! A6    A(3,1,16)             138.2204         estimate D2E/DX2                !
 ! A7    A(14,1,15)             74.7867         estimate D2E/DX2                !
 ! A8    A(14,1,16)             75.0786         estimate D2E/DX2                !
 ! A9    A(15,1,16)             76.2637         estimate D2E/DX2                !
 ! A10   A(1,2,4)              107.627          estimate D2E/DX2                !
 ! A11   A(1,2,26)             150.5062         estimate D2E/DX2                !
 ! A12   A(3,2,26)             142.1399         estimate D2E/DX2                !
 ! A13   A(4,2,26)             100.7727         estimate D2E/DX2                !
 ! A14   A(1,3,4)              153.9323         estimate D2E/DX2                !
 ! A15   A(1,3,17)              91.7656         estimate D2E/DX2                !
 ! A16   A(2,3,17)             164.7315         estimate D2E/DX2                !
 ! A17   A(4,3,17)             113.6052         estimate D2E/DX2                !
 ! A18   A(2,4,5)              154.5504         estimate D2E/DX2                !
 ! A19   A(2,4,18)              61.9094         estimate D2E/DX2                !
 ! A20   A(3,4,5)              147.8936         estimate D2E/DX2                !
 ! A21   A(3,4,18)             106.853          estimate D2E/DX2                !
 ! A22   A(5,4,18)             103.5761         estimate D2E/DX2                !
 ! A23   A(4,5,6)              128.7168         estimate D2E/DX2                !
 ! A24   A(4,5,19)             110.7629         estimate D2E/DX2                !
 ! A25   A(6,5,19)             120.4524         estimate D2E/DX2                !
 ! A26   A(5,6,7)              127.146          estimate D2E/DX2                !
 ! A27   A(5,6,20)             111.2633         estimate D2E/DX2                !
 ! A28   A(7,6,20)             121.4483         estimate D2E/DX2                !
 ! A29   A(6,7,8)              118.7183         estimate D2E/DX2                !
 ! A30   A(6,7,21)             120.7875         estimate D2E/DX2                !
 ! A31   A(8,7,21)             120.3002         estimate D2E/DX2                !
 ! A32   A(7,8,9)              121.2889         estimate D2E/DX2                !
 ! A33   A(7,8,10)             142.2831         estimate D2E/DX2                !
 ! A34   A(7,8,22)             120.6268         estimate D2E/DX2                !
 ! A35   A(9,8,22)             117.8597         estimate D2E/DX2                !
 ! A36   A(8,9,23)             117.4481         estimate D2E/DX2                !
 ! A37   A(10,9,23)            154.3113         estimate D2E/DX2                !
 ! A38   A(8,10,11)            139.1972         estimate D2E/DX2                !
 ! A39   A(9,10,11)            130.2962         estimate D2E/DX2                !
 ! A40   A(9,10,22)            122.9189         estimate D2E/DX2                !
 ! A41   A(10,11,24)           101.5262         estimate D2E/DX2                !
 ! A42   A(10,11,25)           105.6325         estimate D2E/DX2                !
 ! A43   A(22,11,24)           108.4937         estimate D2E/DX2                !
 ! A44   A(22,11,25)           146.5145         estimate D2E/DX2                !
 ! A45   A(20,12,22)            97.7907         estimate D2E/DX2                !
 ! A46   A(18,13,20)            80.9314         estimate D2E/DX2                !
 ! A47   A(18,13,26)            87.6762         estimate D2E/DX2                !
 ! A48   A(18,13,27)            68.1237         estimate D2E/DX2                !
 ! A49   A(20,13,26)           158.5118         estimate D2E/DX2                !
 ! A50   A(20,13,27)           132.7811         estimate D2E/DX2                !
 ! A51   A(1,14,17)             81.15           estimate D2E/DX2                !
 ! A52   A(3,17,14)             98.2231         estimate D2E/DX2                !
 ! A53   A(4,18,13)            121.1048         estimate D2E/DX2                !
 ! A54   A(6,20,12)            117.8871         estimate D2E/DX2                !
 ! A55   A(6,20,13)            132.4139         estimate D2E/DX2                !
 ! A56   A(12,20,13)            93.8781         estimate D2E/DX2                !
 ! A57   A(8,22,11)             92.1222         estimate D2E/DX2                !
 ! A58   A(8,22,12)             87.23           estimate D2E/DX2                !
 ! A59   A(10,22,12)            84.5999         estimate D2E/DX2                !
 ! A60   A(11,22,12)            89.9648         estimate D2E/DX2                !
 ! A61   A(2,26,13)             96.9795         estimate D2E/DX2                !
 ! A62   A(2,26,27)             75.013          estimate D2E/DX2                !
 ! D1    D(14,1,2,4)           -16.8996         estimate D2E/DX2                !
 ! D2    D(14,1,2,26)          146.8599         estimate D2E/DX2                !
 ! D3    D(15,1,2,4)          -123.7029         estimate D2E/DX2                !
 ! D4    D(15,1,2,26)           40.0566         estimate D2E/DX2                !
 ! D5    D(16,1,2,4)           106.0393         estimate D2E/DX2                !
 ! D6    D(16,1,2,26)          -90.2012         estimate D2E/DX2                !
 ! D7    D(14,1,3,4)          -169.2603         estimate D2E/DX2                !
 ! D8    D(14,1,3,17)           -2.1779         estimate D2E/DX2                !
 ! D9    D(15,1,3,4)           124.6196         estimate D2E/DX2                !
 ! D10   D(15,1,3,17)          -68.2981         estimate D2E/DX2                !
 ! D11   D(16,1,3,4)          -103.4555         estimate D2E/DX2                !
 ! D12   D(16,1,3,17)           63.6269         estimate D2E/DX2                !
 ! D13   D(2,1,14,17)            8.4029         estimate D2E/DX2                !
 ! D14   D(3,1,14,17)            1.2197         estimate D2E/DX2                !
 ! D15   D(15,1,14,17)         140.6899         estimate D2E/DX2                !
 ! D16   D(16,1,14,17)        -139.8079         estimate D2E/DX2                !
 ! D17   D(26,2,3,17)         -138.4232         estimate D2E/DX2                !
 ! D18   D(1,2,4,5)            167.3183         estimate D2E/DX2                !
 ! D19   D(1,2,4,18)          -132.8374         estimate D2E/DX2                !
 ! D20   D(26,2,4,5)            -4.6246         estimate D2E/DX2                !
 ! D21   D(26,2,4,18)           55.2197         estimate D2E/DX2                !
 ! D22   D(1,2,26,13)          172.1341         estimate D2E/DX2                !
 ! D23   D(1,2,26,27)          110.5486         estimate D2E/DX2                !
 ! D24   D(3,2,26,13)          -41.6673         estimate D2E/DX2                !
 ! D25   D(3,2,26,27)         -103.2528         estimate D2E/DX2                !
 ! D26   D(4,2,26,13)          -23.6088         estimate D2E/DX2                !
 ! D27   D(4,2,26,27)          -85.1943         estimate D2E/DX2                !
 ! D28   D(1,3,4,5)            177.9688         estimate D2E/DX2                !
 ! D29   D(1,3,4,18)            17.1893         estimate D2E/DX2                !
 ! D30   D(17,3,4,5)            12.0826         estimate D2E/DX2                !
 ! D31   D(17,3,4,18)         -148.697          estimate D2E/DX2                !
 ! D32   D(1,3,17,14)            1.6006         estimate D2E/DX2                !
 ! D33   D(2,3,17,14)          -21.315          estimate D2E/DX2                !
 ! D34   D(4,3,17,14)          175.4463         estimate D2E/DX2                !
 ! D35   D(2,4,5,6)             27.6594         estimate D2E/DX2                !
 ! D36   D(2,4,5,19)          -155.3718         estimate D2E/DX2                !
 ! D37   D(3,4,5,6)            174.8755         estimate D2E/DX2                !
 ! D38   D(3,4,5,19)            -8.1558         estimate D2E/DX2                !
 ! D39   D(18,4,5,6)           -24.0369         estimate D2E/DX2                !
 ! D40   D(18,4,5,19)          152.9319         estimate D2E/DX2                !
 ! D41   D(2,4,18,13)          -91.2711         estimate D2E/DX2                !
 ! D42   D(3,4,18,13)         -124.1133         estimate D2E/DX2                !
 ! D43   D(5,4,18,13)           66.2564         estimate D2E/DX2                !
 ! D44   D(4,5,6,7)            179.2308         estimate D2E/DX2                !
 ! D45   D(4,5,6,20)             3.5594         estimate D2E/DX2                !
 ! D46   D(19,5,6,7)             2.519          estimate D2E/DX2                !
 ! D47   D(19,5,6,20)         -173.1523         estimate D2E/DX2                !
 ! D48   D(5,6,7,8)           -175.0617         estimate D2E/DX2                !
 ! D49   D(5,6,7,21)            -0.1089         estimate D2E/DX2                !
 ! D50   D(20,6,7,8)             0.2089         estimate D2E/DX2                !
 ! D51   D(20,6,7,21)          175.1617         estimate D2E/DX2                !
 ! D52   D(5,6,20,12)         -152.227          estimate D2E/DX2                !
 ! D53   D(5,6,20,13)          -26.276          estimate D2E/DX2                !
 ! D54   D(7,6,20,12)           31.817          estimate D2E/DX2                !
 ! D55   D(7,6,20,13)          157.7679         estimate D2E/DX2                !
 ! D56   D(6,7,8,9)           -169.9443         estimate D2E/DX2                !
 ! D57   D(6,7,8,10)           -73.9164         estimate D2E/DX2                !
 ! D58   D(6,7,8,22)            15.6181         estimate D2E/DX2                !
 ! D59   D(21,7,8,9)            15.0776         estimate D2E/DX2                !
 ! D60   D(21,7,8,10)          111.1055         estimate D2E/DX2                !
 ! D61   D(21,7,8,22)         -159.36           estimate D2E/DX2                !
 ! D62   D(7,8,9,23)           -19.9097         estimate D2E/DX2                !
 ! D63   D(22,8,9,23)          154.6768         estimate D2E/DX2                !
 ! D64   D(7,8,10,11)          118.3029         estimate D2E/DX2                !
 ! D65   D(7,8,22,11)         -142.9414         estimate D2E/DX2                !
 ! D66   D(7,8,22,12)          -53.0794         estimate D2E/DX2                !
 ! D67   D(9,8,22,11)           42.4346         estimate D2E/DX2                !
 ! D68   D(9,8,22,12)          132.2966         estimate D2E/DX2                !
 ! D69   D(23,9,10,11)        -176.7134         estimate D2E/DX2                !
 ! D70   D(23,9,10,22)          99.5025         estimate D2E/DX2                !
 ! D71   D(8,10,11,24)          95.7012         estimate D2E/DX2                !
 ! D72   D(8,10,11,25)         137.0227         estimate D2E/DX2                !
 ! D73   D(9,10,11,24)          -8.1168         estimate D2E/DX2                !
 ! D74   D(9,10,11,25)          33.2047         estimate D2E/DX2                !
 ! D75   D(9,10,22,12)        -142.6329         estimate D2E/DX2                !
 ! D76   D(24,11,22,8)         -89.5242         estimate D2E/DX2                !
 ! D77   D(24,11,22,12)       -176.7511         estimate D2E/DX2                !
 ! D78   D(25,11,22,8)         -71.6366         estimate D2E/DX2                !
 ! D79   D(25,11,22,12)       -158.8634         estimate D2E/DX2                !
 ! D80   D(22,12,20,6)         -76.5561         estimate D2E/DX2                !
 ! D81   D(22,12,20,13)        140.2446         estimate D2E/DX2                !
 ! D82   D(20,12,22,8)          68.6394         estimate D2E/DX2                !
 ! D83   D(20,12,22,10)        108.1506         estimate D2E/DX2                !
 ! D84   D(20,12,22,11)        160.7658         estimate D2E/DX2                !
 ! D85   D(20,13,18,4)         -71.8988         estimate D2E/DX2                !
 ! D86   D(26,13,18,4)          89.8192         estimate D2E/DX2                !
 ! D87   D(27,13,18,4)         144.4664         estimate D2E/DX2                !
 ! D88   D(18,13,20,6)          47.1442         estimate D2E/DX2                !
 ! D89   D(18,13,20,12)       -178.6758         estimate D2E/DX2                !
 ! D90   D(26,13,20,6)         -11.6885         estimate D2E/DX2                !
 ! D91   D(26,13,20,12)        122.4915         estimate D2E/DX2                !
 ! D92   D(27,13,20,6)          95.7071         estimate D2E/DX2                !
 ! D93   D(27,13,20,12)       -130.1129         estimate D2E/DX2                !
 ! D94   D(18,13,26,2)          -4.6534         estimate D2E/DX2                !
 ! D95   D(20,13,26,2)          53.0893         estimate D2E/DX2                !
 ! D96   D(1,14,17,3)           -2.1867         estimate D2E/DX2                !
 --------------------------------------------------------------------------------
 Trust Radius=3.00D-01 FncErr=1.00D-07 GrdErr=1.00D-06 EigMax=2.50D+02 EigMin=1.00D-04
 Number of steps in this run=    162 maximum allowed number of steps=    162.
 GradGradGradGradGradGradGradGradGradGradGradGradGradGradGradGradGradGrad

                          Input orientation:                          
 ---------------------------------------------------------------------
 Center     Atomic      Atomic             Coordinates (Angstroms)
 Number     Number       Type             X           Y           Z
 ---------------------------------------------------------------------
      1          6           0        1.974160   -0.038670   -0.063380
      2          7           0        4.029980   -0.080730    0.250800
      3          6           0        3.290520    0.843400    1.065070
      4          6           0        4.416550    1.189010    1.362660
      5          6           0        5.170170    1.818060    2.165190
      6          6           0        6.421240    1.885680    2.175530
      7          6           0        7.185970    2.572540    3.031480
      8          6           0        8.491480    2.607000    2.829730
      9          6           0        9.393470    3.145850    3.828090
     10          6           0        9.364400    2.017210    2.905160
     11          6           0       10.344060    1.510160    2.097040
     12          6           0        8.286950    0.796680    1.567650
     13          6           0        6.301360    0.206620    0.532540
     14          1           0        0.934240    0.597580    0.704040
     15          1           0        0.974240   -1.028240    0.099680
     16          1           0        0.982620    0.322250   -1.018350
     17          1           0        2.507920    1.364580    1.628830
     18          1           0        4.974420    1.099190    0.538640
     19          1           0        4.644390    2.325500    2.805250
     20          1           0        6.813670    1.404780    1.402560
     21          1           0        6.764590    3.125650    3.783200
     22          1           0        9.110180    2.174720    1.418120
     23          1           0        8.939050    3.857650    4.636990
     24          1           0       11.500640    2.622010    2.256390
     25          1           0       11.674290    1.731550    2.863470
     26          1           0        5.506540   -0.871250    0.151850
     27          1           0        5.586050    0.137640   -0.757140
 ---------------------------------------------------------------------
                    Distance matrix (angstroms):
                    1          2          3          4          5
     1  C    0.000000
     2  N    2.080114   0.000000
     3  C    1.945315   1.436612   0.000000
     4  C    3.083189   1.731447   1.214887   0.000000
     5  C    4.316069   2.927512   2.386066   1.267952   0.000000
     6  C    5.337824   3.645474   3.481505   2.272639   1.252939
     7  C    6.599965   4.973158   4.693743   3.516931   2.320161
     8  C    7.605598   5.812035   5.768388   4.557197   3.477807
     9  C    8.962749   7.209358   7.083894   5.888744   4.729115
    10  C    8.225237   6.316883   6.454129   5.248470   4.263658
    11  C    8.781886   6.768097   7.159746   5.981457   5.183492
    12  C    6.573385   4.541557   5.021860   3.895631   3.333855
    13  C    4.374923   2.306754   3.123177   2.281819   2.557709
    14  H    1.440549   3.201427   2.396419   3.593056   4.644097
    15  H    1.416219   3.202836   3.130522   4.284952   5.474814
    16  H    1.423159   3.325588   3.152561   4.267594   5.468816
    17  H    2.262208   2.510887   1.096320   1.935081   2.753344
    18  H    3.264769   1.538516   1.782716   0.999147   1.789066
    19  H    4.576949   3.562676   2.656654   1.850564   0.971399
    20  H    5.258649   3.358902   3.583522   2.407142   1.858359
    21  H    6.910667   5.498801   4.966494   3.888815   2.621054
    22  H    7.616871   5.679623   5.980426   4.796338   4.026040
    23  H    9.261991   7.671276   7.331453   6.188367   4.947138
    24  H   10.159447   8.193775   8.484619   7.282621   6.381967
    25  H   10.285555   8.279244   8.620363   7.431122   6.542068
    26  H    3.635550   1.677779   2.946988   2.626559   3.376251
    27  H    3.682138   1.866811   3.014632   2.639443   3.396584
                    6          7          8          9         10
     6  C    0.000000
     7  C    1.337624   0.000000
     8  C    2.287832   1.321456   0.000000
     9  C    3.626725   2.415849   1.449368   0.000000
    10  C    3.035103   2.251645   1.056187   1.458243   0.000000
    11  C    3.941534   3.460544   2.274191   2.564301   1.367440
    12  C    2.244173   2.551202   2.216289   3.442757   2.107018
    13  C    2.352239   3.553141   3.979388   5.390813   4.276655
    14  H    5.825088   6.957124   8.103592   9.370803   8.827677
    15  H    6.516893   7.755428   8.785046  10.109773   9.356296
    16  H    6.497982   7.742511   8.741326  10.109555   9.408563
    17  H    3.985536   5.030979   6.228062   7.444492   7.004731
    18  H    2.321909   3.643620   4.460078   5.876845   5.071006
    19  H    1.935765   2.563560   3.857453   4.926757   4.731122
    20  H    0.991337   2.038541   2.509421   3.945870   3.023095
    21  H    2.059130   1.023999   2.039670   2.629341   2.959494
    22  H    2.808489   2.542396   1.600718   2.613676   1.516814
    23  H    4.035693   2.702306   2.242907   1.169391   2.562689
    24  H    5.133130   4.384015   3.063330   2.680450   2.313051
    25  H    5.300146   4.569519   3.301186   2.851820   2.327860
    26  H    3.540144   4.792958   5.308402   6.690296   5.550405
    27  H    3.514789   4.779343   5.234969   6.676085   5.587589
                   11         12         13         14         15
    11  C    0.000000
    12  C    2.240761   0.000000
    13  C    4.526621   2.315641   0.000000
    14  H    9.556043   7.405931   5.384073   0.000000
    15  H    9.910926   7.678606   5.485477   1.734976   0.000000
    16  H    9.937472   7.763100   5.541446   1.744928   1.753250
    17  H    7.851465   5.807189   4.114962   1.979898   3.227392
    18  H    5.606295   3.481843   1.599215   4.074558   4.551932
    19  H    5.801084   4.139709   3.521422   4.600653   5.660184
    20  H    3.599592   1.602371   1.566839   5.975550   6.458794
    21  H    4.273821   3.556732   4.393417   7.061540   8.021925
    22  H    1.557251   1.612160   3.542194   8.357229   8.842554
    23  H    3.733110   4.383562   6.093762   9.495954  10.387363
    24  H    1.612228   3.759521   5.986508  10.870001  11.348164
    25  H    1.551109   3.745291   6.052026  11.013524  11.390612
    26  H    5.732057   3.537960   1.392289   4.834077   4.535318
    27  H    5.715664   3.624064   1.476381   4.897543   4.833447
                   16         17         18         19         20
    16  H    0.000000
    17  H    3.228088   0.000000
    18  H    4.354575   2.709717   0.000000
    19  H    5.660520   2.621419   2.598130   0.000000
    20  H    6.405765   4.311879   2.054893   2.742452   0.000000
    21  H    8.021540   5.085461   4.223555   2.468172   2.937899
    22  H    8.684772   6.655116   4.362884   4.678690   2.422191
    23  H   10.382037   7.524883   6.334340   4.913945   4.582068
    24  H   11.253513   9.101867   6.918178   6.884572   4.917150
    25  H   11.461521   9.256422   7.119900   7.055187   5.085928
    26  H    4.822827   4.021458   2.077352   4.242999   2.907435
    27  H    4.614529   4.083273   1.725606   4.285333   2.788727
                   21         22         23         24         25
    21  H    0.000000
    22  H    3.464053   0.000000
    23  H    2.448072   3.636298   0.000000
    24  H    5.001497   2.572365   3.708882   0.000000
    25  H    5.185998   2.976591   3.891942   1.091613   0.000000
    26  H    5.544782   4.885447   7.366213   7.249910   7.222783
    27  H    5.561641   4.615294   7.360552   7.087724   7.260581
                   26         27
    26  H    0.000000
    27  H    1.360310   0.000000
 Stoichiometry    C12H14N(2)
 Framework group  C1[X(C12H14N)]
 Deg. of freedom    75
 Full point group                 C1      NOp   1
 Largest Abelian subgroup         C1      NOp   1
 Largest concise Abelian subgroup C1      NOp   1
                         Standard orientation:                         
 ---------------------------------------------------------------------
 Center     Atomic      Atomic             Coordinates (Angstroms)
 Number     Number       Type             X           Y           Z
 ---------------------------------------------------------------------
      1          6           0       -4.971274    0.139787    0.049960
      2          7           0       -3.029330    0.866964   -0.114182
      3          6           0       -3.159372   -0.562007   -0.043570
      4          6           0       -1.950622   -0.478027    0.044867
      5          6           0       -0.825511   -1.058147   -0.027844
      6          6           0        0.320448   -0.560083    0.064700
      7          6           0        1.489797   -1.206057   -0.002974
      8          6           0        2.603123   -0.528358    0.214916
      9          6           0        3.903250   -1.110499   -0.052384
     10          6           0        3.249220    0.181203   -0.226234
     11          6           0        3.712830    1.445988    0.008874
     12          6           0        1.486688    1.335753   -0.221664
     13          6           0       -0.813436    1.499471   -0.009962
     14          1           0       -5.467037   -1.207751   -0.066411
     15          1           0       -6.088347    0.228264   -0.816064
     16          1           0       -6.087367    0.082558    0.931120
     17          1           0       -3.525402   -1.594323   -0.091113
     18          1           0       -1.755500    0.346690    0.574077
     19          1           0       -0.938666   -2.017755   -0.127678
     20          1           0        0.275871    0.408672    0.270309
     21          1           0        1.521162   -2.219944   -0.143066
     22          1           0        2.557470    0.914115    0.907366
     23          1           0        3.968473   -2.276154   -0.119240
     24          1           0        5.114491    1.143505    0.745848
     25          1           0        5.230405    1.400644   -0.308696
     26          1           0       -1.956230    2.079267   -0.554318
     27          1           0       -1.914862    2.049329    0.805033
 ---------------------------------------------------------------------
 Rotational constants (GHZ):           2.7786342           0.3531563           0.3158770
 Standard basis: 6-31G(2df,p) (6D, 7F)
 There are   473 symmetry adapted cartesian basis functions of A   symmetry.
 There are   434 symmetry adapted basis functions of A   symmetry.
   434 basis functions,   670 primitive gaussians,   473 cartesian basis functions
    47 alpha electrons       46 beta electrons
       nuclear repulsion energy       721.7203731361 Hartrees.
 NAtoms=   27 NActive=   27 NUniq=   27 SFac= 1.00D+00 NAtFMM=   60 NAOKFM=F Big=F
 Integral buffers will be    131072 words long.
 Raffenetti 2 integral format.
 Two-electron integral symmetry is turned on.
 One-electron integrals computed using PRISM.
 PrsmSu:  requested number of processors reduced to:  13 ShMem   1 Linda.
 NBasis=   434 RedAO= T EigKep=  1.20D-04  NBF=   434
 NBsUse=   434 1.00D-06 EigRej= -1.00D+00 NBFU=   434
 ExpMin= 1.61D-01 ExpMax= 4.17D+03 ExpMxC= 6.27D+02 IAcc=3 IRadAn=         5 AccDes= 0.00D+00
 Harris functional with IExCor=  402 and IRadAn=       5 diagonalized for initial guess.
 HarFok:  IExCor=  402 AccDes= 0.00D+00 IRadAn=         5 IDoV= 1 UseB2=F ITyADJ=14
 ICtDFT=  3500011 ScaDFX=  1.000000  1.000000  1.000000  1.000000
 FoFCou: FMM=F IPFlag=           0 FMFlag=      100000 FMFlg1=           0
         NFxFlg=           0 DoJE=T BraDBF=F KetDBF=T FulRan=T
         wScrn=  0.000000 ICntrl=       500 IOpCl=  0 I1Cent=   200000004 NGrid=           0
         NMat0=    1 NMatS0=      1 NMatT0=    0 NMatD0=    1 NMtDS0=    0 NMtDT0=    0
 Petite list used in FoFCou.
 Initial guess <Sx>= 0.0000 <Sy>= 0.0000 <Sz>= 0.5000 <S**2>= 0.7500 S= 0.5000
 Requested convergence on RMS density matrix=1.00D-08 within 128 cycles.
 Requested convergence on MAX density matrix=1.00D-06.
 Requested convergence on             energy=1.00D-06.
 No special actions if energy rises.
 Integral accuracy reduced to 1.0D-05 until final iterations.
 EnCoef did     5 forward-backward iterations
 EnCoef did     3 forward-backward iterations
 EnCoef did     6 forward-backward iterations
 EnCoef did     8 forward-backward iterations
 EnCoef did     3 forward-backward iterations
 Restarting incremental Fock formation.
 Initial convergence to 1.0D-05 achieved.  Increase integral accuracy.
 Restarting incremental Fock formation.
 SCF Done:  E(UB3LYP) =  -518.554991732     A.U. after   53 cycles
            NFock= 53  Conv=0.69D-08     -V/T= 1.9999
 <Sx>= 0.0000 <Sy>= 0.0000 <Sz>= 0.5000 <S**2>= 1.1608 S= 0.6878
 <L.S>=  0.00000000000    
 Annihilation of the first spin contaminant:
 S**2 before annihilation     1.1608,   after     0.8541

 **********************************************************************

            Population analysis using the SCF density.

 **********************************************************************

 Orbital symmetries:
 Alpha Orbitals:
       Occupied  (A) (A) (A) (A) (A) (A) (A) (A) (A) (A) (A) (A)
                 (A) (A) (A) (A) (A) (A) (A) (A) (A) (A) (A) (A)
                 (A) (A) (A) (A) (A) (A) (A) (A) (A) (A) (A) (A)
                 (A) (A) (A) (A) (A) (A) (A) (A) (A) (A) (A)
       Virtual   (A) (A) (A) (A) (A) (A) (A) (A) (A) (A) (A) (A)
                 (A) (A) (A) (A) (A) (A) (A) (A) (A) (A) (A) (A)
                 (A) (A) (A) (A) (A) (A) (A) (A) (A) (A) (A) (A)
                 (A) (A) (A) (A) (A) (A) (A) (A) (A) (A) (A) (A)
                 (A) (A) (A) (A) (A) (A) (A) (A) (A) (A) (A) (A)
                 (A) (A) (A) (A) (A) (A) (A) (A) (A) (A) (A) (A)
                 (A) (A) (A) (A) (A) (A) (A) (A) (A) (A) (A) (A)
                 (A) (A) (A) (A) (A) (A) (A) (A) (A) (A) (A) (A)
                 (A) (A) (A) (A) (A) (A) (A) (A) (A) (A) (A) (A)
                 (A) (A) (A) (A) (A) (A) (A) (A) (A) (A) (A) (A)
                 (A) (A) (A) (A) (A) (A) (A) (A) (A) (A) (A) (A)
                 (A) (A) (A) (A) (A) (A) (A) (A) (A) (A) (A) (A)
                 (A) (A) (A) (A) (A) (A) (A) (A) (A) (A) (A) (A)
                 (A) (A) (A) (A) (A) (A) (A) (A) (A) (A) (A) (A)
                 (A) (A) (A) (A) (A) (A) (A) (A) (A) (A) (A) (A)
                 (A) (A) (A) (A) (A) (A) (A) (A) (A) (A) (A) (A)
                 (A) (A) (A) (A) (A) (A) (A) (A) (A) (A) (A) (A)
                 (A) (A) (A) (A) (A) (A) (A) (A) (A) (A) (A) (A)
                 (A) (A) (A) (A) (A) (A) (A) (A) (A) (A) (A) (A)
                 (A) (A) (A) (A) (A) (A) (A) (A) (A) (A) (A) (A)
                 (A) (A) (A) (A) (A) (A) (A) (A) (A) (A) (A) (A)
                 (A) (A) (A) (A) (A) (A) (A) (A) (A) (A) (A) (A)
                 (A) (A) (A) (A) (A) (A) (A) (A) (A) (A) (A) (A)
                 (A) (A) (A) (A) (A) (A) (A) (A) (A) (A) (A) (A)
                 (A) (A) (A) (A) (A) (A) (A) (A) (A) (A) (A) (A)
                 (A) (A) (A) (A) (A) (A) (A) (A) (A) (A) (A) (A)
                 (A) (A) (A) (A) (A) (A) (A) (A) (A) (A) (A) (A)
                 (A) (A) (A) (A) (A) (A) (A) (A) (A) (A) (A) (A)
                 (A) (A) (A) (A) (A) (A) (A) (A) (A) (A) (A) (A)
                 (A) (A) (A) (A) (A) (A) (A) (A) (A) (A) (A) (A)
                 (A) (A) (A) (A) (A) (A) (A) (A) (A) (A) (A) (A)
                 (A) (A) (A) (A) (A) (A) (A) (A) (A) (A) (A) (A)
                 (A) (A) (A)
 Beta  Orbitals:
       Occupied  (A) (A) (A) (A) (A) (A) (A) (A) (A) (A) (A) (A)
                 (A) (A) (A) (A) (A) (A) (A) (A) (A) (A) (A) (A)
                 (A) (A) (A) (A) (A) (A) (A) (A) (A) (A) (A) (A)
                 (A) (A) (A) (A) (A) (A) (A) (A) (A) (A)
       Virtual   (A) (A) (A) (A) (A) (A) (A) (A) (A) (A) (A) (A)
                 (A) (A) (A) (A) (A) (A) (A) (A) (A) (A) (A) (A)
                 (A) (A) (A) (A) (A) (A) (A) (A) (A) (A) (A) (A)
                 (A) (A) (A) (A) (A) (A) (A) (A) (A) (A) (A) (A)
                 (A) (A) (A) (A) (A) (A) (A) (A) (A) (A) (A) (A)
                 (A) (A) (A) (A) (A) (A) (A) (A) (A) (A) (A) (A)
                 (A) (A) (A) (A) (A) (A) (A) (A) (A) (A) (A) (A)
                 (A) (A) (A) (A) (A) (A) (A) (A) (A) (A) (A) (A)
                 (A) (A) (A) (A) (A) (A) (A) (A) (A) (A) (A) (A)
                 (A) (A) (A) (A) (A) (A) (A) (A) (A) (A) (A) (A)
                 (A) (A) (A) (A) (A) (A) (A) (A) (A) (A) (A) (A)
                 (A) (A) (A) (A) (A) (A) (A) (A) (A) (A) (A) (A)
                 (A) (A) (A) (A) (A) (A) (A) (A) (A) (A) (A) (A)
                 (A) (A) (A) (A) (A) (A) (A) (A) (A) (A) (A) (A)
                 (A) (A) (A) (A) (A) (A) (A) (A) (A) (A) (A) (A)
                 (A) (A) (A) (A) (A) (A) (A) (A) (A) (A) (A) (A)
                 (A) (A) (A) (A) (A) (A) (A) (A) (A) (A) (A) (A)
                 (A) (A) (A) (A) (A) (A) (A) (A) (A) (A) (A) (A)
                 (A) (A) (A) (A) (A) (A) (A) (A) (A) (A) (A) (A)
                 (A) (A) (A) (A) (A) (A) (A) (A) (A) (A) (A) (A)
                 (A) (A) (A) (A) (A) (A) (A) (A) (A) (A) (A) (A)
                 (A) (A) (A) (A) (A) (A) (A) (A) (A) (A) (A) (A)
                 (A) (A) (A) (A) (A) (A) (A) (A) (A) (A) (A) (A)
                 (A) (A) (A) (A) (A) (A) (A) (A) (A) (A) (A) (A)
                 (A) (A) (A) (A) (A) (A) (A) (A) (A) (A) (A) (A)
                 (A) (A) (A) (A) (A) (A) (A) (A) (A) (A) (A) (A)
                 (A) (A) (A) (A) (A) (A) (A) (A) (A) (A) (A) (A)
                 (A) (A) (A) (A) (A) (A) (A) (A) (A) (A) (A) (A)
                 (A) (A) (A) (A) (A) (A) (A) (A) (A) (A) (A) (A)
                 (A) (A) (A) (A) (A) (A) (A) (A) (A) (A) (A) (A)
                 (A) (A) (A) (A) (A) (A) (A) (A) (A) (A) (A) (A)
                 (A) (A) (A) (A) (A) (A) (A) (A) (A) (A) (A) (A)
                 (A) (A) (A) (A)
 The electronic state is 2-A.
 Alpha  occ. eigenvalues --  -14.40566 -10.29995 -10.26830 -10.26292 -10.26161
 Alpha  occ. eigenvalues --  -10.25003 -10.22890 -10.22629 -10.21947 -10.21243
 Alpha  occ. eigenvalues --  -10.20587 -10.19695 -10.19435  -1.03669  -1.00531
 Alpha  occ. eigenvalues --   -0.90235  -0.81699  -0.78688  -0.73596  -0.70103
 Alpha  occ. eigenvalues --   -0.67628  -0.64813  -0.61434  -0.59167  -0.57673
 Alpha  occ. eigenvalues --   -0.54052  -0.52484  -0.51877  -0.50773  -0.49039
 Alpha  occ. eigenvalues --   -0.47248  -0.46135  -0.43264  -0.41662  -0.38097
 Alpha  occ. eigenvalues --   -0.36573  -0.33213  -0.31235  -0.29398  -0.28451
 Alpha  occ. eigenvalues --   -0.27017  -0.25475  -0.24352  -0.22758  -0.21471
 Alpha  occ. eigenvalues --   -0.20937  -0.19623
 Alpha virt. eigenvalues --   -0.12542  -0.10767  -0.09260  -0.07373  -0.06734
 Alpha virt. eigenvalues --   -0.03518  -0.00330   0.00133   0.01959   0.02195
 Alpha virt. eigenvalues --    0.04150   0.05542   0.07679   0.08253   0.10626
 Alpha virt. eigenvalues --    0.10813   0.12123   0.12514   0.14238   0.18257
 Alpha virt. eigenvalues --    0.19197   0.22416   0.24674   0.26237   0.29722
 Alpha virt. eigenvalues --    0.30378   0.30657   0.33661   0.35905   0.36820
 Alpha virt. eigenvalues --    0.38375   0.40679   0.40793   0.42950   0.44384
 Alpha virt. eigenvalues --    0.44858   0.45401   0.46775   0.48075   0.48416
 Alpha virt. eigenvalues --    0.49445   0.50669   0.51508   0.52717   0.53758
 Alpha virt. eigenvalues --    0.54593   0.55375   0.56524   0.57872   0.59267
 Alpha virt. eigenvalues --    0.60035   0.60113   0.60875   0.61941   0.62848
 Alpha virt. eigenvalues --    0.63615   0.64681   0.65545   0.65744   0.66351
 Alpha virt. eigenvalues --    0.67212   0.67512   0.68878   0.69837   0.70432
 Alpha virt. eigenvalues --    0.71921   0.72391   0.72788   0.73515   0.74111
 Alpha virt. eigenvalues --    0.74622   0.75200   0.77077   0.77374   0.78253
 Alpha virt. eigenvalues --    0.79080   0.79836   0.80388   0.81171   0.82102
 Alpha virt. eigenvalues --    0.84392   0.85584   0.86547   0.87605   0.88304
 Alpha virt. eigenvalues --    0.89821   0.90031   0.91552   0.92032   0.92816
 Alpha virt. eigenvalues --    0.93237   0.94220   0.96846   0.97722   0.99230
 Alpha virt. eigenvalues --    1.02358   1.03593   1.04579   1.05785   1.06897
 Alpha virt. eigenvalues --    1.07338   1.09562   1.10684   1.13948   1.14862
 Alpha virt. eigenvalues --    1.15463   1.17244   1.18099   1.19055   1.20703
 Alpha virt. eigenvalues --    1.22305   1.24755   1.26095   1.26817   1.28123
 Alpha virt. eigenvalues --    1.28843   1.30439   1.30823   1.33091   1.33886
 Alpha virt. eigenvalues --    1.34984   1.35526   1.37494   1.38019   1.40241
 Alpha virt. eigenvalues --    1.42803   1.45006   1.46496   1.49572   1.50155
 Alpha virt. eigenvalues --    1.53765   1.55903   1.56547   1.58190   1.59547
 Alpha virt. eigenvalues --    1.60522   1.62612   1.65172   1.65967   1.67725
 Alpha virt. eigenvalues --    1.68923   1.70917   1.71585   1.72438   1.75066
 Alpha virt. eigenvalues --    1.76348   1.78010   1.80424   1.83244   1.84564
 Alpha virt. eigenvalues --    1.85351   1.90027   1.92858   1.94083   1.96767
 Alpha virt. eigenvalues --    1.99906   2.02549   2.05769   2.06831   2.07235
 Alpha virt. eigenvalues --    2.09999   2.11293   2.13209   2.14043   2.15060
 Alpha virt. eigenvalues --    2.16926   2.17979   2.20144   2.22934   2.23426
 Alpha virt. eigenvalues --    2.24526   2.26534   2.27993   2.29617   2.30353
 Alpha virt. eigenvalues --    2.31600   2.33240   2.33951   2.36942   2.38725
 Alpha virt. eigenvalues --    2.39991   2.40891   2.42347   2.43718   2.45157
 Alpha virt. eigenvalues --    2.46197   2.47969   2.51560   2.53407   2.54272
 Alpha virt. eigenvalues --    2.55292   2.55901   2.58017   2.58936   2.61687
 Alpha virt. eigenvalues --    2.64296   2.65423   2.66519   2.66898   2.70428
 Alpha virt. eigenvalues --    2.71201   2.73572   2.74804   2.76610   2.78537
 Alpha virt. eigenvalues --    2.81150   2.83132   2.84926   2.86408   2.87473
 Alpha virt. eigenvalues --    2.90628   2.91456   2.92479   2.93889   2.95487
 Alpha virt. eigenvalues --    2.96028   2.96536   2.98312   2.99893   3.00192
 Alpha virt. eigenvalues --    3.02141   3.02740   3.03179   3.04923   3.06601
 Alpha virt. eigenvalues --    3.07504   3.08490   3.08783   3.09753   3.11289
 Alpha virt. eigenvalues --    3.11686   3.12416   3.14244   3.16977   3.17894
 Alpha virt. eigenvalues --    3.19693   3.21582   3.22029   3.23626   3.25295
 Alpha virt. eigenvalues --    3.26550   3.27373   3.28773   3.30485   3.32382
 Alpha virt. eigenvalues --    3.34708   3.35038   3.36148   3.37450   3.38381
 Alpha virt. eigenvalues --    3.40995   3.41893   3.42637   3.44212   3.45163
 Alpha virt. eigenvalues --    3.46552   3.49264   3.50963   3.51148   3.54304
 Alpha virt. eigenvalues --    3.54530   3.56671   3.59476   3.60169   3.61069
 Alpha virt. eigenvalues --    3.63628   3.67843   3.68335   3.69755   3.71246
 Alpha virt. eigenvalues --    3.72422   3.75447   3.76708   3.77586   3.79307
 Alpha virt. eigenvalues --    3.83551   3.84425   3.84734   3.85495   3.87964
 Alpha virt. eigenvalues --    3.91881   3.92102   3.95303   3.96453   3.98353
 Alpha virt. eigenvalues --    3.99861   4.02277   4.03189   4.05276   4.11999
 Alpha virt. eigenvalues --    4.15612   4.16181   4.17671   4.17835   4.20800
 Alpha virt. eigenvalues --    4.22368   4.26013   4.26929   4.29786   4.31502
 Alpha virt. eigenvalues --    4.33347   4.35527   4.36061   4.36882   4.38444
 Alpha virt. eigenvalues --    4.40833   4.41994   4.43217   4.43962   4.46313
 Alpha virt. eigenvalues --    4.46909   4.48775   4.49740   4.50786   4.52290
 Alpha virt. eigenvalues --    4.54266   4.57665   4.58242   4.59012   4.61043
 Alpha virt. eigenvalues --    4.62733   4.63729   4.67272   4.69100   4.70085
 Alpha virt. eigenvalues --    4.71115   4.73025   4.73978   4.74326   4.76092
 Alpha virt. eigenvalues --    4.78559   4.80791   4.84411   4.86717   4.87164
 Alpha virt. eigenvalues --    4.89624   4.92612   4.92795   4.97449   4.99577
 Alpha virt. eigenvalues --    5.00759   5.06517   5.08350   5.09639   5.15333
 Alpha virt. eigenvalues --    5.16825   5.17638   5.21097   5.21724   5.24104
 Alpha virt. eigenvalues --    5.27009   5.32181   5.34710   5.35902   5.43149
 Alpha virt. eigenvalues --    5.45706   5.50110   5.52443   5.60034   5.67574
 Alpha virt. eigenvalues --    5.70875   5.74137   5.80285   5.83595   5.94067
 Alpha virt. eigenvalues --    6.00275   6.06944   6.13129   6.41101   6.51531
 Alpha virt. eigenvalues --    6.88834   6.92849   7.83172  10.11820  10.13725
 Alpha virt. eigenvalues --   10.32691  10.44957  10.61082  10.66544  10.79391
 Alpha virt. eigenvalues --   10.96390  11.22429  11.78407  11.92731  12.15091
 Alpha virt. eigenvalues --   12.42768  12.58970
  Beta  occ. eigenvalues --  -14.40954 -10.28700 -10.26590 -10.26242 -10.26129
  Beta  occ. eigenvalues --  -10.25308 -10.22499 -10.22388 -10.21856 -10.21104
  Beta  occ. eigenvalues --  -10.20618 -10.19762 -10.19396  -1.03398  -1.00825
  Beta  occ. eigenvalues --   -0.90253  -0.81597  -0.78094  -0.73571  -0.69919
  Beta  occ. eigenvalues --   -0.67057  -0.64726  -0.61167  -0.59007  -0.56916
  Beta  occ. eigenvalues --   -0.53678  -0.51967  -0.51643  -0.50328  -0.48752
  Beta  occ. eigenvalues --   -0.47291  -0.44966  -0.42499  -0.41085  -0.38108
  Beta  occ. eigenvalues --   -0.36828  -0.32766  -0.30255  -0.29006  -0.28141
  Beta  occ. eigenvalues --   -0.26666  -0.24658  -0.24117  -0.22448  -0.21180
  Beta  occ. eigenvalues --   -0.19097
  Beta virt. eigenvalues --   -0.13375  -0.11698  -0.09692  -0.08807  -0.06881
  Beta virt. eigenvalues --   -0.05954  -0.02152   0.00157   0.00623   0.02426
  Beta virt. eigenvalues --    0.03191   0.04575   0.06279   0.08097   0.08549
  Beta virt. eigenvalues --    0.10850   0.10969   0.12467   0.12894   0.14404
  Beta virt. eigenvalues --    0.18347   0.19349   0.22421   0.24714   0.26263
  Beta virt. eigenvalues --    0.29999   0.30583   0.30657   0.33892   0.35913
  Beta virt. eigenvalues --    0.37130   0.38397   0.40511   0.40857   0.42976
  Beta virt. eigenvalues --    0.44617   0.45038   0.45510   0.46991   0.48136
  Beta virt. eigenvalues --    0.48337   0.49670   0.50576   0.52548   0.52942
  Beta virt. eigenvalues --    0.53961   0.54846   0.55626   0.57190   0.58248
  Beta virt. eigenvalues --    0.59644   0.60228   0.60503   0.61108   0.62154
  Beta virt. eigenvalues --    0.63176   0.63775   0.64960   0.65731   0.66130
  Beta virt. eigenvalues --    0.66450   0.67429   0.67674   0.69032   0.69986
  Beta virt. eigenvalues --    0.70769   0.72026   0.72572   0.73141   0.73532
  Beta virt. eigenvalues --    0.74842   0.75036   0.75775   0.77229   0.77793
  Beta virt. eigenvalues --    0.78566   0.79540   0.80135   0.80667   0.81401
  Beta virt. eigenvalues --    0.82257   0.84465   0.85574   0.86623   0.87732
  Beta virt. eigenvalues --    0.88597   0.89921   0.90382   0.91959   0.92045
  Beta virt. eigenvalues --    0.92964   0.94139   0.94448   0.97087   0.97799
  Beta virt. eigenvalues --    1.00012   1.02558   1.03792   1.05009   1.05889
  Beta virt. eigenvalues --    1.07231   1.07706   1.09831   1.11030   1.14515
  Beta virt. eigenvalues --    1.15014   1.15572   1.17517   1.18021   1.19609
  Beta virt. eigenvalues --    1.20748   1.22573   1.24793   1.26240   1.26822
  Beta virt. eigenvalues --    1.28118   1.29179   1.30745   1.30994   1.33582
  Beta virt. eigenvalues --    1.33952   1.35218   1.35799   1.37602   1.37994
  Beta virt. eigenvalues --    1.40326   1.42931   1.45216   1.47069   1.49688
  Beta virt. eigenvalues --    1.50275   1.53947   1.56355   1.56812   1.58437
  Beta virt. eigenvalues --    1.60068   1.60651   1.62808   1.65685   1.66054
  Beta virt. eigenvalues --    1.67949   1.69081   1.71513   1.71737   1.72634
  Beta virt. eigenvalues --    1.75468   1.76719   1.78188   1.80565   1.83597
  Beta virt. eigenvalues --    1.85019   1.85690   1.90124   1.93207   1.94407
  Beta virt. eigenvalues --    1.96970   2.00013   2.02803   2.05853   2.07063
  Beta virt. eigenvalues --    2.07363   2.10057   2.11549   2.13564   2.14620
  Beta virt. eigenvalues --    2.15347   2.16940   2.18487   2.20277   2.23296
  Beta virt. eigenvalues --    2.23660   2.24811   2.26686   2.28213   2.29990
  Beta virt. eigenvalues --    2.30670   2.32069   2.33344   2.34398   2.37087
  Beta virt. eigenvalues --    2.38997   2.40575   2.41075   2.42472   2.44219
  Beta virt. eigenvalues --    2.45515   2.46399   2.48089   2.51866   2.53635
  Beta virt. eigenvalues --    2.54516   2.55569   2.56035   2.58194   2.59206
  Beta virt. eigenvalues --    2.61887   2.64520   2.65684   2.67020   2.67239
  Beta virt. eigenvalues --    2.70845   2.71407   2.74599   2.75588   2.77185
  Beta virt. eigenvalues --    2.78849   2.81896   2.83756   2.85398   2.86826
  Beta virt. eigenvalues --    2.88261   2.90772   2.91612   2.92803   2.93984
  Beta virt. eigenvalues --    2.95864   2.96389   2.96882   2.98923   3.00149
  Beta virt. eigenvalues --    3.00981   3.02389   3.02941   3.03372   3.05509
  Beta virt. eigenvalues --    3.07104   3.08103   3.08758   3.09210   3.10641
  Beta virt. eigenvalues --    3.11544   3.12384   3.13023   3.14569   3.17227
  Beta virt. eigenvalues --    3.18132   3.20171   3.21871   3.22409   3.23759
  Beta virt. eigenvalues --    3.25556   3.26757   3.27572   3.29373   3.30783
  Beta virt. eigenvalues --    3.32547   3.34912   3.35362   3.36260   3.37605
  Beta virt. eigenvalues --    3.38761   3.41158   3.42261   3.42887   3.44722
  Beta virt. eigenvalues --    3.45327   3.46867   3.49672   3.51095   3.51281
  Beta virt. eigenvalues --    3.54528   3.54676   3.57000   3.59714   3.60254
  Beta virt. eigenvalues --    3.61246   3.63922   3.68120   3.68462   3.70134
  Beta virt. eigenvalues --    3.71419   3.72885   3.75416   3.76461   3.77598
  Beta virt. eigenvalues --    3.79294   3.83611   3.84321   3.84787   3.85613
  Beta virt. eigenvalues --    3.87926   3.91746   3.92181   3.95341   3.96487
  Beta virt. eigenvalues --    3.98304   3.99996   4.02504   4.03159   4.05129
  Beta virt. eigenvalues --    4.12028   4.15726   4.16497   4.17666   4.17749
  Beta virt. eigenvalues --    4.20807   4.22493   4.26155   4.28156   4.30085
  Beta virt. eigenvalues --    4.31310   4.33788   4.35649   4.36343   4.36880
  Beta virt. eigenvalues --    4.38864   4.41425   4.42264   4.43583   4.43922
  Beta virt. eigenvalues --    4.46574   4.46738   4.49032   4.49704   4.51541
  Beta virt. eigenvalues --    4.52673   4.54565   4.57960   4.58514   4.60254
  Beta virt. eigenvalues --    4.61422   4.63220   4.64036   4.68047   4.69511
  Beta virt. eigenvalues --    4.70439   4.71513   4.73119   4.74409   4.74975
  Beta virt. eigenvalues --    4.76471   4.79639   4.80958   4.84454   4.86970
  Beta virt. eigenvalues --    4.87659   4.89879   4.92645   4.92796   4.97723
  Beta virt. eigenvalues --    4.99883   5.01160   5.06883   5.08420   5.09888
  Beta virt. eigenvalues --    5.15879   5.17641   5.18004   5.21192   5.22035
  Beta virt. eigenvalues --    5.25140   5.27187   5.32483   5.34976   5.35990
  Beta virt. eigenvalues --    5.43251   5.46250   5.50047   5.52527   5.60061
  Beta virt. eigenvalues --    5.67601   5.70985   5.74245   5.80374   5.83746
  Beta virt. eigenvalues --    5.94168   6.00292   6.07004   6.13358   6.41287
  Beta virt. eigenvalues --    6.51841   6.88840   6.92975   7.83169  10.12374
  Beta virt. eigenvalues --   10.14431  10.33205  10.44725  10.61420  10.66688
  Beta virt. eigenvalues --   10.80099  10.96376  11.22078  11.78345  11.92514
  Beta virt. eigenvalues --   12.15144  12.42914  12.58951
          Condensed to atoms (all electrons):
               1          2          3          4          5          6
     1  C    5.640985  -0.031309   0.054115   0.047950  -0.000494  -0.000022
     2  N   -0.031309   7.331623   0.347988  -0.224070   0.009818  -0.002197
     3  C    0.054115   0.347988   5.241160   0.352101  -0.028032   0.014331
     4  C    0.047950  -0.224070   0.352101   4.730357   0.426264   0.049496
     5  C   -0.000494   0.009818  -0.028032   0.426264   5.172810   0.411284
     6  C   -0.000022  -0.002197   0.014331   0.049496   0.411284   4.959763
     7  C   -0.000000   0.000043  -0.001176   0.009327   0.009721   0.309696
     8  C    0.000000  -0.000006   0.000023  -0.001207   0.002272   0.092245
     9  C    0.000000   0.000000  -0.000000   0.000011  -0.001009   0.013549
    10  C    0.000000   0.000000  -0.000000   0.000123  -0.000224  -0.039446
    11  C   -0.000000   0.000000   0.000000  -0.000004  -0.000079   0.003442
    12  C    0.000001   0.000267  -0.000134   0.004462  -0.009567   0.014969
    13  C    0.000592  -0.096984  -0.011568   0.010855  -0.016834  -0.077215
    14  H    0.260712  -0.002850  -0.025896   0.001842   0.000041  -0.000002
    15  H    0.218815  -0.000194  -0.001146  -0.000504   0.000029   0.000000
    16  H    0.233443  -0.000184  -0.001921  -0.002071   0.000005   0.000000
    17  H   -0.070215   0.020610   0.334421  -0.042702  -0.003864  -0.000253
    18  H    0.007730  -0.043053  -0.065704   0.304836  -0.061738  -0.034243
    19  H    0.000058   0.000246  -0.021742  -0.018334   0.303086  -0.033776
    20  H   -0.000005  -0.000008   0.002589  -0.036981  -0.030006   0.304732
    21  H    0.000000   0.000002  -0.000017   0.000529  -0.009525  -0.046769
    22  H   -0.000000  -0.000002   0.000002  -0.000015   0.000012   0.003394
    23  H    0.000000   0.000000  -0.000000   0.000000   0.000012   0.000306
    24  H    0.000000  -0.000000   0.000000   0.000000  -0.000000  -0.000025
    25  H   -0.000000  -0.000000   0.000000  -0.000000   0.000000   0.000013
    26  H    0.002912  -0.002867  -0.004842   0.019020   0.003388   0.003616
    27  H    0.000670   0.004399   0.004867  -0.032741   0.000708   0.000988
               7          8          9         10         11         12
     1  C   -0.000000   0.000000   0.000000   0.000000  -0.000000   0.000001
     2  N    0.000043  -0.000006   0.000000   0.000000   0.000000   0.000267
     3  C   -0.001176   0.000023  -0.000000  -0.000000   0.000000  -0.000134
     4  C    0.009327  -0.001207   0.000011   0.000123  -0.000004   0.004462
     5  C    0.009721   0.002272  -0.001009  -0.000224  -0.000079  -0.009567
     6  C    0.309696   0.092245   0.013549  -0.039446   0.003442   0.014969
     7  C    5.506089   0.189813  -0.081553   0.088862   0.005181  -0.036983
     8  C    0.189813   4.876759   0.268151   0.403788  -0.074263   0.012934
     9  C   -0.081553   0.268151   5.604954   0.301451  -0.047978   0.000326
    10  C    0.088862   0.403788   0.301451   4.631767   0.547369  -0.008896
    11  C    0.005181  -0.074263  -0.047978   0.547369   5.881013  -0.006762
    12  C   -0.036983   0.012934   0.000326  -0.008896  -0.006762   6.066838
    13  C    0.004107   0.001822  -0.000100   0.000080   0.000061   0.027126
    14  H    0.000000  -0.000000  -0.000000   0.000000   0.000000  -0.000000
    15  H   -0.000000   0.000000   0.000000  -0.000000   0.000000  -0.000000
    16  H   -0.000000  -0.000000   0.000000  -0.000000  -0.000000  -0.000000
    17  H    0.000013  -0.000001   0.000000  -0.000000  -0.000000   0.000000
    18  H    0.001016  -0.000097  -0.000002   0.000015   0.000001   0.000163
    19  H   -0.021771   0.000860  -0.000050  -0.000025  -0.000000   0.000184
    20  H   -0.087230   0.006478   0.001358  -0.001608  -0.001487  -0.019913
    21  H    0.377785  -0.045428  -0.019695   0.004582  -0.000500   0.001625
    22  H   -0.038178   0.032923   0.015462  -0.086378   0.023550   0.146939
    23  H   -0.000985  -0.021176   0.331053  -0.018466   0.003472  -0.000433
    24  H    0.000686  -0.003086  -0.006192  -0.047595   0.054398   0.001612
    25  H   -0.000785  -0.002954  -0.007941  -0.006163   0.071917   0.001766
    26  H   -0.000152   0.000014   0.000000  -0.000005  -0.000003   0.000801
    27  H   -0.000003  -0.000036  -0.000000   0.000006  -0.000003   0.000820
              13         14         15         16         17         18
     1  C    0.000592   0.260712   0.218815   0.233443  -0.070215   0.007730
     2  N   -0.096984  -0.002850  -0.000194  -0.000184   0.020610  -0.043053
     3  C   -0.011568  -0.025896  -0.001146  -0.001921   0.334421  -0.065704
     4  C    0.010855   0.001842  -0.000504  -0.002071  -0.042702   0.304836
     5  C   -0.016834   0.000041   0.000029   0.000005  -0.003864  -0.061738
     6  C   -0.077215  -0.000002   0.000000   0.000000  -0.000253  -0.034243
     7  C    0.004107   0.000000  -0.000000  -0.000000   0.000013   0.001016
     8  C    0.001822  -0.000000   0.000000  -0.000000  -0.000001  -0.000097
     9  C   -0.000100  -0.000000   0.000000   0.000000   0.000000  -0.000002
    10  C    0.000080   0.000000  -0.000000  -0.000000  -0.000000   0.000015
    11  C    0.000061   0.000000   0.000000  -0.000000  -0.000000   0.000001
    12  C    0.027126  -0.000000  -0.000000  -0.000000   0.000000   0.000163
    13  C    6.133370  -0.000023   0.000002   0.000002   0.000223   0.081869
    14  H   -0.000023   0.879235  -0.044034  -0.053718  -0.015827  -0.000332
    15  H    0.000002  -0.044034   0.827584  -0.022823   0.004343  -0.000087
    16  H    0.000002  -0.053718  -0.022823   0.810873   0.004130  -0.000102
    17  H    0.000223  -0.015827   0.004343   0.004130   0.586381   0.004199
    18  H    0.081869  -0.000332  -0.000087  -0.000102   0.004199   0.599708
    19  H    0.002870  -0.000109  -0.000000  -0.000001   0.003983   0.011561
    20  H   -0.011103   0.000000  -0.000000   0.000000  -0.000030   0.004835
    21  H   -0.000391  -0.000000   0.000000  -0.000000  -0.000001  -0.000041
    22  H    0.000741   0.000000   0.000000   0.000000   0.000000  -0.000106
    23  H   -0.000000  -0.000000  -0.000000  -0.000000  -0.000000   0.000000
    24  H   -0.000001   0.000000  -0.000000  -0.000000  -0.000000   0.000000
    25  H   -0.000001   0.000000   0.000000   0.000000   0.000000  -0.000000
    26  H    0.217775  -0.000039  -0.000058  -0.000041  -0.000406  -0.040927
    27  H    0.155998   0.000004  -0.000010  -0.000029  -0.000228   0.030750
              19         20         21         22         23         24
     1  C    0.000058  -0.000005   0.000000  -0.000000   0.000000   0.000000
     2  N    0.000246  -0.000008   0.000002  -0.000002   0.000000  -0.000000
     3  C   -0.021742   0.002589  -0.000017   0.000002  -0.000000   0.000000
     4  C   -0.018334  -0.036981   0.000529  -0.000015   0.000000   0.000000
     5  C    0.303086  -0.030006  -0.009525   0.000012   0.000012  -0.000000
     6  C   -0.033776   0.304732  -0.046769   0.003394   0.000306  -0.000025
     7  C   -0.021771  -0.087230   0.377785  -0.038178  -0.000985   0.000686
     8  C    0.000860   0.006478  -0.045428   0.032923  -0.021176  -0.003086
     9  C   -0.000050   0.001358  -0.019695   0.015462   0.331053  -0.006192
    10  C   -0.000025  -0.001608   0.004582  -0.086378  -0.018466  -0.047595
    11  C   -0.000000  -0.001487  -0.000500   0.023550   0.003472   0.054398
    12  C    0.000184  -0.019913   0.001625   0.146939  -0.000433   0.001612
    13  C    0.002870  -0.011103  -0.000391   0.000741  -0.000000  -0.000001
    14  H   -0.000109   0.000000  -0.000000   0.000000  -0.000000   0.000000
    15  H   -0.000000  -0.000000   0.000000   0.000000  -0.000000  -0.000000
    16  H   -0.000001   0.000000  -0.000000   0.000000  -0.000000  -0.000000
    17  H    0.003983  -0.000030  -0.000001   0.000000  -0.000000  -0.000000
    18  H    0.011561   0.004835  -0.000041  -0.000106   0.000000   0.000000
    19  H    0.668698   0.008639   0.004516  -0.000002  -0.000007  -0.000000
    20  H    0.008639   0.570571   0.005549   0.010936  -0.000000  -0.000035
    21  H    0.004516   0.005549   0.617887  -0.000402   0.002496  -0.000006
    22  H   -0.000002   0.010936  -0.000402   0.698259  -0.000621   0.002969
    23  H   -0.000007  -0.000000   0.002496  -0.000621   0.510054   0.000193
    24  H   -0.000000  -0.000035  -0.000006   0.002969   0.000193   0.764041
    25  H   -0.000000   0.000023   0.000008   0.001894  -0.000024   0.141772
    26  H    0.000013  -0.003194   0.000003   0.000009   0.000000  -0.000000
    27  H   -0.000166   0.007870   0.000003  -0.000094   0.000000  -0.000000
              25         26         27
     1  C   -0.000000   0.002912   0.000670
     2  N   -0.000000  -0.002867   0.004399
     3  C    0.000000  -0.004842   0.004867
     4  C   -0.000000   0.019020  -0.032741
     5  C    0.000000   0.003388   0.000708
     6  C    0.000013   0.003616   0.000988
     7  C   -0.000785  -0.000152  -0.000003
     8  C   -0.002954   0.000014  -0.000036
     9  C   -0.007941   0.000000  -0.000000
    10  C   -0.006163  -0.000005   0.000006
    11  C    0.071917  -0.000003  -0.000003
    12  C    0.001766   0.000801   0.000820
    13  C   -0.000001   0.217775   0.155998
    14  H    0.000000  -0.000039   0.000004
    15  H    0.000000  -0.000058  -0.000010
    16  H    0.000000  -0.000041  -0.000029
    17  H    0.000000  -0.000406  -0.000228
    18  H   -0.000000  -0.040927   0.030750
    19  H   -0.000000   0.000013  -0.000166
    20  H    0.000023  -0.003194   0.007870
    21  H    0.000008   0.000003   0.000003
    22  H    0.001894   0.000009  -0.000094
    23  H   -0.000024   0.000000   0.000000
    24  H    0.141772  -0.000000  -0.000000
    25  H    0.691530   0.000000  -0.000000
    26  H    0.000000   0.640724  -0.033523
    27  H   -0.000000  -0.033523   0.747911
          Atomic-Atomic Spin Densities.
               1          2          3          4          5          6
     1  C    0.090567  -0.018919  -0.001832   0.004017  -0.000006  -0.000018
     2  N   -0.018919  -0.241527   0.035780   0.010566  -0.001825  -0.000371
     3  C   -0.001832   0.035780   0.033787  -0.041312  -0.001531   0.001724
     4  C    0.004017   0.010566  -0.041312   0.006491   0.017886   0.001648
     5  C   -0.000006  -0.001825  -0.001531   0.017886   0.053758  -0.035703
     6  C   -0.000018  -0.000371   0.001724   0.001648  -0.035703  -0.030872
     7  C   -0.000000  -0.000006   0.000053   0.000744  -0.006071   0.012827
     8  C    0.000000   0.000001  -0.000004  -0.000083   0.001330   0.004029
     9  C    0.000000   0.000000   0.000000  -0.000005  -0.000042  -0.001147
    10  C   -0.000000  -0.000000   0.000000   0.000003  -0.000223   0.002328
    11  C   -0.000000  -0.000000   0.000000  -0.000001  -0.000046   0.000376
    12  C    0.000001   0.000054  -0.000092   0.001123   0.001450  -0.002361
    13  C   -0.000657   0.006881   0.006590  -0.053085  -0.007875   0.012685
    14  H   -0.009756   0.000886  -0.001560  -0.000749   0.000011   0.000001
    15  H   -0.009002   0.000585  -0.000238  -0.000029   0.000000   0.000000
    16  H   -0.002744   0.000542  -0.000372  -0.000069   0.000001   0.000000
    17  H   -0.002054  -0.000113  -0.000258   0.000202   0.000105   0.000001
    18  H   -0.000328   0.009872  -0.004163   0.002980   0.004751   0.000470
    19  H   -0.000005   0.000151  -0.001117   0.000326   0.003636  -0.000908
    20  H    0.000009   0.000194  -0.000298   0.001262   0.005793  -0.004561
    21  H    0.000000   0.000000  -0.000009   0.000014   0.001699  -0.006142
    22  H    0.000000   0.000001  -0.000000  -0.000033   0.000072  -0.000747
    23  H    0.000000   0.000000  -0.000000  -0.000000   0.000029  -0.000241
    24  H   -0.000000  -0.000000   0.000000  -0.000000  -0.000001   0.000003
    25  H    0.000000   0.000000   0.000000  -0.000000  -0.000000  -0.000005
    26  H    0.000774   0.002252  -0.002090   0.008164   0.000385  -0.000694
    27  H    0.000396  -0.001082  -0.001395   0.004850  -0.000364   0.000310
               7          8          9         10         11         12
     1  C   -0.000000   0.000000   0.000000  -0.000000  -0.000000   0.000001
     2  N   -0.000006   0.000001   0.000000  -0.000000  -0.000000   0.000054
     3  C    0.000053  -0.000004   0.000000   0.000000   0.000000  -0.000092
     4  C    0.000744  -0.000083  -0.000005   0.000003  -0.000001   0.001123
     5  C   -0.006071   0.001330  -0.000042  -0.000223  -0.000046   0.001450
     6  C    0.012827   0.004029  -0.001147   0.002328   0.000376  -0.002361
     7  C    0.099379  -0.025580  -0.003249  -0.007709  -0.002316  -0.003408
     8  C   -0.025580   0.042631   0.034328   0.032374  -0.003289  -0.025214
     9  C   -0.003249   0.034328  -0.241013  -0.012993  -0.000994   0.003995
    10  C   -0.007709   0.032374  -0.012993  -0.011010   0.000104  -0.001943
    11  C   -0.002316  -0.003289  -0.000994   0.000104   0.329147  -0.016103
    12  C   -0.003408  -0.025214   0.003995  -0.001943  -0.016103   0.883849
    13  C   -0.000103  -0.000771   0.000019   0.000100   0.000172  -0.025592
    14  H    0.000000  -0.000000  -0.000000   0.000000   0.000000  -0.000000
    15  H    0.000000  -0.000000  -0.000000   0.000000   0.000000  -0.000000
    16  H    0.000000  -0.000000  -0.000000   0.000000   0.000000  -0.000000
    17  H    0.000001  -0.000000  -0.000000   0.000000   0.000000  -0.000000
    18  H    0.000075  -0.000013  -0.000000  -0.000002  -0.000001   0.000163
    19  H   -0.000564  -0.000161   0.000010  -0.000008  -0.000000   0.000091
    20  H   -0.002095   0.000351  -0.000119   0.000606  -0.000050   0.018635
    21  H    0.006932  -0.005671  -0.002229  -0.000135  -0.000096   0.000005
    22  H    0.006864  -0.035672  -0.000502   0.024264   0.024744   0.026836
    23  H   -0.000111   0.000516  -0.004685   0.005862  -0.000500  -0.000324
    24  H   -0.000026  -0.001560   0.001815  -0.026119  -0.100309   0.002112
    25  H    0.000000  -0.000238   0.000680  -0.003656  -0.015913   0.000837
    26  H   -0.000016   0.000011  -0.000000  -0.000002  -0.000003   0.001758
    27  H    0.000039   0.000002  -0.000000   0.000000  -0.000001   0.001339
              13         14         15         16         17         18
     1  C   -0.000657  -0.009756  -0.009002  -0.002744  -0.002054  -0.000328
     2  N    0.006881   0.000886   0.000585   0.000542  -0.000113   0.009872
     3  C    0.006590  -0.001560  -0.000238  -0.000372  -0.000258  -0.004163
     4  C   -0.053085  -0.000749  -0.000029  -0.000069   0.000202   0.002980
     5  C   -0.007875   0.000011   0.000000   0.000001   0.000105   0.004751
     6  C    0.012685   0.000001   0.000000   0.000000   0.000001   0.000470
     7  C   -0.000103   0.000000   0.000000   0.000000   0.000001   0.000075
     8  C   -0.000771  -0.000000  -0.000000  -0.000000  -0.000000  -0.000013
     9  C    0.000019  -0.000000  -0.000000  -0.000000  -0.000000  -0.000000
    10  C    0.000100   0.000000   0.000000   0.000000   0.000000  -0.000002
    11  C    0.000172   0.000000   0.000000   0.000000   0.000000  -0.000001
    12  C   -0.025592  -0.000000  -0.000000  -0.000000  -0.000000   0.000163
    13  C    0.199080   0.000016   0.000005   0.000003   0.000111  -0.014232
    14  H    0.000016   0.020384   0.003685   0.003230   0.000616  -0.000007
    15  H    0.000005   0.003685   0.014533   0.001918   0.000146   0.000007
    16  H    0.000003   0.003230   0.001918  -0.010019   0.000059   0.000004
    17  H    0.000111   0.000616   0.000146   0.000059   0.000620   0.000188
    18  H   -0.014232  -0.000007   0.000007   0.000004   0.000188  -0.007868
    19  H   -0.000413  -0.000003   0.000000  -0.000000   0.000207  -0.000257
    20  H   -0.022152  -0.000000  -0.000000  -0.000000  -0.000013  -0.000528
    21  H   -0.000098  -0.000000  -0.000000  -0.000000  -0.000000   0.000015
    22  H    0.000105   0.000000  -0.000000  -0.000000  -0.000000   0.000005
    23  H   -0.000001  -0.000000  -0.000000  -0.000000  -0.000000   0.000000
    24  H    0.000001   0.000000   0.000000   0.000000   0.000000  -0.000000
    25  H    0.000000   0.000000  -0.000000  -0.000000  -0.000000  -0.000000
    26  H   -0.025212  -0.000012  -0.000018  -0.000008  -0.000005   0.000737
    27  H   -0.022099  -0.000008  -0.000002  -0.000009   0.000006   0.004009
              19         20         21         22         23         24
     1  C   -0.000005   0.000009   0.000000   0.000000   0.000000  -0.000000
     2  N    0.000151   0.000194   0.000000   0.000001   0.000000  -0.000000
     3  C   -0.001117  -0.000298  -0.000009  -0.000000  -0.000000   0.000000
     4  C    0.000326   0.001262   0.000014  -0.000033  -0.000000  -0.000000
     5  C    0.003636   0.005793   0.001699   0.000072   0.000029  -0.000001
     6  C   -0.000908  -0.004561  -0.006142  -0.000747  -0.000241   0.000003
     7  C   -0.000564  -0.002095   0.006932   0.006864  -0.000111  -0.000026
     8  C   -0.000161   0.000351  -0.005671  -0.035672   0.000516  -0.001560
     9  C    0.000010  -0.000119  -0.002229  -0.000502  -0.004685   0.001815
    10  C   -0.000008   0.000606  -0.000135   0.024264   0.005862  -0.026119
    11  C   -0.000000  -0.000050  -0.000096   0.024744  -0.000500  -0.100309
    12  C    0.000091   0.018635   0.000005   0.026836  -0.000324   0.002112
    13  C   -0.000413  -0.022152  -0.000098   0.000105  -0.000001   0.000001
    14  H   -0.000003  -0.000000  -0.000000   0.000000  -0.000000   0.000000
    15  H    0.000000  -0.000000  -0.000000  -0.000000  -0.000000   0.000000
    16  H   -0.000000  -0.000000  -0.000000  -0.000000  -0.000000   0.000000
    17  H    0.000207  -0.000013  -0.000000  -0.000000  -0.000000   0.000000
    18  H   -0.000257  -0.000528   0.000015   0.000005   0.000000  -0.000000
    19  H   -0.003619  -0.000269   0.000272  -0.000002   0.000004  -0.000000
    20  H   -0.000269  -0.000469  -0.000101  -0.003184   0.000011  -0.000009
    21  H    0.000272  -0.000101   0.005496  -0.000161   0.001223  -0.000010
    22  H   -0.000002  -0.003184  -0.000161  -0.130790  -0.000231   0.004107
    23  H    0.000004   0.000011   0.001223  -0.000231   0.019433  -0.000511
    24  H   -0.000000  -0.000009  -0.000010   0.004107  -0.000511   0.306738
    25  H   -0.000000  -0.000004  -0.000004  -0.001479  -0.000153   0.022703
    26  H    0.000003   0.000970   0.000000  -0.000004   0.000000  -0.000000
    27  H    0.000014   0.000438   0.000001  -0.000016   0.000000  -0.000000
              25         26         27
     1  C    0.000000   0.000774   0.000396
     2  N    0.000000   0.002252  -0.001082
     3  C    0.000000  -0.002090  -0.001395
     4  C   -0.000000   0.008164   0.004850
     5  C   -0.000000   0.000385  -0.000364
     6  C   -0.000005  -0.000694   0.000310
     7  C    0.000000  -0.000016   0.000039
     8  C   -0.000238   0.000011   0.000002
     9  C    0.000680  -0.000000  -0.000000
    10  C   -0.003656  -0.000002   0.000000
    11  C   -0.015913  -0.000003  -0.000001
    12  C    0.000837   0.001758   0.001339
    13  C    0.000000  -0.025212  -0.022099
    14  H    0.000000  -0.000012  -0.000008
    15  H   -0.000000  -0.000018  -0.000002
    16  H   -0.000000  -0.000008  -0.000009
    17  H   -0.000000  -0.000005   0.000006
    18  H   -0.000000   0.000737   0.004009
    19  H   -0.000000   0.000003   0.000014
    20  H   -0.000004   0.000970   0.000438
    21  H   -0.000004   0.000000   0.000001
    22  H   -0.001479  -0.000004  -0.000016
    23  H   -0.000153   0.000000   0.000000
    24  H    0.022703  -0.000000  -0.000000
    25  H   -0.039820  -0.000000  -0.000000
    26  H   -0.000000   0.026423   0.004918
    27  H   -0.000000   0.004918   0.039504
 Mulliken charges and spin densities:
               1          2
     1  C   -0.365939   0.050444
     2  N   -0.311273  -0.196079
     3  C   -0.189419   0.021663
     4  C    0.401455  -0.035093
     5  C   -0.178075   0.037221
     6  C    0.052124  -0.047369
     7  C   -0.233522   0.075659
     8  C    0.260174   0.017315
     9  C   -0.371794  -0.226132
    10  C    0.230763   0.001841
    11  C   -0.459325   0.214920
    12  C   -0.198142   0.867211
    13  C   -0.423272   0.053478
    14  H    0.000995   0.016733
    15  H    0.018084   0.011590
    16  H    0.032436  -0.007464
    17  H    0.175221  -0.000181
    18  H    0.199750  -0.004122
    19  H    0.091272  -0.002612
    20  H    0.268022  -0.005586
    21  H    0.107791   0.001000
    22  H    0.188709  -0.085824
    23  H    0.194126   0.020320
    24  H    0.091271   0.208936
    25  H    0.108945  -0.037052
    26  H    0.197782   0.018333
    27  H    0.111841   0.030849
 Sum of Mulliken charges =  -0.00000   1.00000
 Mulliken charges and spin densities with hydrogens summed into heavy atoms:
               1          2
     1  C   -0.314424   0.071303
     2  N   -0.311273  -0.196079
     3  C   -0.014198   0.021482
     4  C    0.601206  -0.039215
     5  C   -0.086804   0.034609
     6  C    0.320146  -0.052954
     7  C   -0.125731   0.076659
     8  C    0.260174   0.017315
     9  C   -0.177668  -0.205812
    10  C    0.419472  -0.083983
    11  C   -0.259109   0.386804
    12  C   -0.198142   0.867211
    13  C   -0.113649   0.102660
 Electronic spatial extent (au):  <R**2>=           3494.7009
 Charge=             -0.0000 electrons
 Dipole moment (field-independent basis, Debye):
    X=              5.1755    Y=             -5.3473    Z=              0.6903  Tot=              7.4737
 Quadrupole moment (field-independent basis, Debye-Ang):
   XX=           -101.8860   YY=            -79.1324   ZZ=            -84.5093
   XY=             -1.6556   XZ=              1.1750   YZ=              1.3824
 Traceless Quadrupole moment (field-independent basis, Debye-Ang):
   XX=            -13.3767   YY=              9.3768   ZZ=              3.9999
   XY=             -1.6556   XZ=              1.1750   YZ=              1.3824
 Octapole moment (field-independent basis, Debye-Ang**2):
  XXX=            185.5653  YYY=            -41.0497  ZZZ=              0.5770  XYY=             -3.8456
  XXY=            -47.6773  XXZ=              8.2539  XZZ=              7.5624  YZZ=             -7.4009
  YYZ=             -1.0463  XYZ=              1.9815
 Hexadecapole moment (field-independent basis, Debye-Ang**3):
 XXXX=          -5143.8955 YYYY=           -601.4306 ZZZZ=           -120.2832 XXXY=            110.1886
 XXXZ=             21.6579 YYYX=            -96.1809 YYYZ=              2.8063 ZZZX=              3.2346
 ZZZY=              1.0529 XXYY=           -858.9820 XXZZ=           -813.1648 YYZZ=           -132.3528
 XXYZ=             10.2389 YYXZ=             -0.1094 ZZXY=             -5.6241
 N-N= 7.217203731361D+02 E-N=-2.646171736051D+03  KE= 5.186037996941D+02
                          Isotropic Fermi Contact Couplings
        Atom                 a.u.       MegaHertz       Gauss      10(-4) cm-1
     1  C(13)              0.10414     117.07380      41.77484      39.05162
     2  N(14)              0.00991       3.20232       1.14267       1.06818
     3  C(13)              0.00164       1.83872       0.65610       0.61333
     4  C(13)              0.01135      12.76457       4.55472       4.25780
     5  C(13)              0.00092       1.03608       0.36970       0.34560
     6  C(13)             -0.00132      -1.48595      -0.53022      -0.49566
     7  C(13)             -0.00784      -8.81336      -3.14482      -2.93982
     8  C(13)              0.05196      58.40980      20.84207      19.48341
     9  C(13)             -0.02910     -32.71926     -11.67505     -10.91397
    10  C(13)              0.02418      27.17799       9.69778       9.06560
[...]

                          Input orientation:                          
 ---------------------------------------------------------------------
 Center     Atomic      Atomic             Coordinates (Angstroms)
 Number     Number       Type             X           Y           Z
 ---------------------------------------------------------------------
      1          6           0        2.295956   -0.577059   -0.347540
      2          7           0        3.412238    0.148599    0.240004
      3          6           0        3.124863    0.780321    1.327128
      4          6           0        4.217115    1.591165    1.794782
      5          6           0        4.704738    2.460924    2.733246
      6          6           0        6.116561    2.610699    2.617089
      7          6           0        7.097602    3.139056    3.404397
      8          6           0        8.451836    2.777889    3.128891
      9          6           0        9.715000    2.979285    3.647796
     10          6           0        9.505605    1.827284    2.875021
     11          6           0        9.947166    0.807108    1.981845
     12          6           0        7.592483    0.978597    0.962242
     13          6           0        6.512247    0.645461    0.248311
     14          1           0        1.385523   -0.484821    0.244555
     15          1           0        2.554482   -1.623107   -0.439673
     16          1           0        2.125241   -0.173978   -1.336317
     17          1           0        2.126358    0.710198    1.789293
     18          1           0        4.939891    1.533292    0.969126
     19          1           0        4.130941    2.834549    3.580771
     20          1           0        6.487009    2.058321    1.725125
     21          1           0        6.930924    3.770367    4.276473
     22          1           0        8.303763    1.790411    1.082866
     23          1           0       10.153524    3.850008    4.113120
     24          1           0       10.767954    1.413866    1.594510
     25          1           0       10.873015    0.398176    2.438402
     26          1           0        5.830761   -0.225978    0.217314
     27          1           0        6.280353    1.315786   -0.607688
 ---------------------------------------------------------------------
                    Distance matrix (angstroms):
                    1          2          3          4          5
     1  C    0.000000
     2  N    1.455292   0.000000
     3  C    2.309563   1.289766   0.000000
     4  C    3.602998   2.268514   1.438466   0.000000
     5  C    4.952051   3.637809   2.701407   1.369295   0.000000
     6  C    5.792051   4.361861   3.736916   2.307278   1.424489
     7  C    7.137390   5.704219   5.065701   3.644726   2.576063
     8  C    7.825350   6.376235   5.967685   4.595761   3.781236
     9  C    9.146174   7.703936   7.324674   5.965507   5.119358
    10  C    8.254987   6.847657   6.648757   5.402851   4.844577
    11  C    8.116833   6.795066   6.853699   5.786469   5.548222
    12  C    5.673517   4.322611   4.486879   3.530081   3.697678
    13  C    4.430203   3.139585   3.557584   2.924647   3.569019
    14  H    1.089941   2.123397   2.407873   3.838077   5.088043
    15  H    1.081453   2.082462   3.037002   4.253079   5.600921
    16  H    1.081341   2.060390   3.000645   4.158780   5.491617
    17  H    2.500370   2.090258   1.102509   2.268788   3.256398
    18  H    3.630094   2.186942   1.997363   1.098846   2.006967
    19  H    5.517052   4.346445   3.211067   2.177886   1.089558
    20  H    5.367131   3.912396   3.618800   2.318514   2.086837
    21  H    7.859042   6.464629   5.667902   4.274631   3.008670
    22  H    6.613979   5.228095   5.282135   4.152977   4.015759
    23  H   10.061699   8.610829   8.160074   6.761510   5.789895
    24  H    8.916843   7.585653   7.673963   6.556297   6.257446
    25  H    9.070750   7.781930   7.836761   6.792531   6.510722
    26  H    3.596827   2.447463   3.092929   2.897286   3.849322
    27  H    4.418819   3.210450   3.739967   3.178781   3.867266
                    6          7          8          9         10
     6  C    0.000000
     7  C    1.364351   0.000000
     8  C    2.396539   1.428389   0.000000
     9  C    3.761246   2.633542   1.380365   0.000000
    10  C    3.487964   2.792752   1.441711   1.402902   0.000000
    11  C    4.281356   3.947360   2.726848   2.747298   1.426007
    12  C    2.753293   3.297970   2.944538   3.964849   2.835318
    13  C    3.103198   4.064669   4.075168   5.221193   4.154095
    14  H    6.131385   7.466252   8.300448   9.641694   8.843128
    15  H    6.321180   7.622007   8.178153   9.442586   8.438632
    16  H    6.270126   7.627249   8.287183   9.611914   8.729845
    17  H    4.496540   5.763781   6.788338   8.135741   7.541881
    18  H    2.293718   3.628324   4.306665   5.662847   4.956270
    19  H    2.218440   2.987458   4.344828   5.586336   5.513590
    20  H    1.112634   2.088244   2.519698   3.868431   3.238450
    21  H    2.182103   1.089427   2.148285   2.961777   3.516905
    22  H    2.794739   2.943326   2.276676   3.159727   2.158148
    23  H    4.480074   3.216583   2.239172   1.080272   2.458475
    24  H    4.910553   4.441110   3.095042   2.788410   1.845033
    25  H    5.248909   4.764379   3.464378   3.076646   2.025535
    26  H    3.726572   4.804772   4.936651   6.093376   4.978330
    27  H    3.478910   4.482079   4.562357   5.716045   4.774216
                   11         12         13         14         15
    11  C    0.000000
    12  C    2.571679   0.000000
    13  C    3.850966   1.337007   0.000000
    14  H    8.831137   6.417400   5.249842   0.000000
    15  H    8.149937   5.840863   4.613417   1.769272   0.000000
    16  H    8.553084   6.041733   4.735858   1.772840   1.757326
    17  H    7.823779   5.534851   4.649176   2.088809   3.255133
    18  H    5.160015   2.709978   1.944254   4.151062   4.199731
    19  H    6.363611   4.720543   4.644137   5.448475   6.206439
    20  H    3.688377   1.723330   2.043965   5.889382   5.805518
    21  H    4.810814   4.383579   5.115312   8.069353   8.395525
    22  H    2.115614   1.086053   2.284059   7.330858   6.857438
    23  H    3.720773   4.973124   6.201997  10.518288  10.412893
    24  H    1.091731   3.266931   4.529210   9.667336   8.990118
    25  H    1.110345   3.643875   4.886098   9.777789   9.031439
    26  H    4.596262   2.260439   1.106701   4.452851   3.621823
    27  H    4.517738   2.073659   1.111686   5.284682   4.748414
                   16         17         18         19         20
    16  H    0.000000
    17  H    3.248262   0.000000
    18  H    4.018967   3.044031   0.000000
    19  H    6.103427   3.426458   3.027929   0.000000
    20  H    5.777596   4.564738   1.800213   3.097904   0.000000
    21  H    8.375910   6.215670   4.461755   3.033094   3.104438
    22  H    6.919928   6.310803   3.375601   4.974152   1.945473
    23  H   10.504388   8.927148   6.514126   6.130747   4.728212
    24  H    9.263233   8.672385   5.862737   7.072023   4.331151
    25  H    9.544602   8.776258   6.216850   7.259234   4.743616
    26  H    4.018377   4.131603   2.110427   4.854797   2.814637
    27  H    4.473841   4.834039   2.080983   4.946696   2.456844
                   21         22         23         24         25
    21  H    0.000000
    22  H    4.000504   0.000000
    23  H    3.227720   4.104387   0.000000
    24  H    5.241070   2.544760   3.557486   0.000000
    25  H    5.503658   3.221312   3.903522   1.324695   0.000000
    26  H    5.801543   3.306167   7.104734   5.381601   5.545009
    27  H    5.504838   2.679073   6.611336   4.999786   5.586879
                   26         27
    26  H    0.000000
    27  H    1.805490   0.000000
 Stoichiometry    C12H14N(2)
 Framework group  C1[X(C12H14N)]
 Deg. of freedom    75
 Full point group                 C1      NOp   1
 Largest Abelian subgroup         C1      NOp   1
 Largest concise Abelian subgroup C1      NOp   1
                         Standard orientation:                         
 ---------------------------------------------------------------------
 Center     Atomic      Atomic             Coordinates (Angstroms)
 Number     Number       Type             X           Y           Z
 ---------------------------------------------------------------------
      1          6           0       -4.889493    0.828175   -0.162811
      2          7           0       -3.477583    0.514930   -0.000758
      3          6           0       -3.161053   -0.696617   -0.309724
      4          6           0       -1.788343   -0.999208   -0.004292
      5          6           0       -0.767405   -1.911703   -0.007052
      6          6           0        0.488128   -1.285459    0.239167
      7          6           0        1.793613   -1.662029    0.115235
      8          6           0        2.792207   -0.640800    0.101183
      9          6           0        4.157115   -0.513843   -0.061031
     10          6           0        3.359858    0.599782   -0.364926
     11          6           0        3.135987    2.004632   -0.463802
     12          6           0        0.732539    1.456804    0.268902
     13          6           0       -0.577908    1.619029    0.478661
     14          1           0       -5.459782   -0.019078   -0.543473
     15          1           0       -4.997968    1.662524   -0.842249
     16          1           0       -5.275762    1.117015    0.805004
     17          1           0       -3.903177   -1.400585   -0.721071
     18          1           0       -1.457827   -0.113029    0.555090
     19          1           0       -0.865779   -2.941881   -0.347922
     20          1           0        0.338021   -0.208220    0.473642
     21          1           0        2.140540   -2.682970   -0.040239
     22          1           0        1.643705    1.196703    0.799595
     23          1           0        4.966168   -1.152468    0.262357
     24          1           0        3.903555    2.242586    0.275179
     25          1           0        4.001223    2.399898   -1.036511
     26          1           0       -1.448085    1.874037   -0.155808
     27          1           0       -0.893218    1.628371    1.544653
 ---------------------------------------------------------------------
 Rotational constants (GHZ):           1.6657256           0.3576005           0.3004876
 Standard basis: 6-31G(2df,p) (6D, 7F)
 There are   473 symmetry adapted cartesian basis functions of A   symmetry.
 There are   434 symmetry adapted basis functions of A   symmetry.
   434 basis functions,   670 primitive gaussians,   473 cartesian basis functions
    47 alpha electrons       46 beta electrons
       nuclear repulsion energy       684.6640364712 Hartrees.
 NAtoms=   27 NActive=   27 NUniq=   27 SFac= 1.00D+00 NAtFMM=   60 NAOKFM=F Big=F
 Integral buffers will be    131072 words long.
 Raffenetti 2 integral format.
 Two-electron integral symmetry is turned on.
 One-electron integrals computed using PRISM.
 PrsmSu:  requested number of processors reduced to:  13 ShMem   1 Linda.
 NBasis=   434 RedAO= T EigKep=  2.82D-04  NBF=   434
 NBsUse=   434 1.00D-06 EigRej= -1.00D+00 NBFU=   434
 Initial guess from the checkpoint file:  "CN1CdCCdCCdCCdC2C[C]2C1.chk"
 B after Tr=     0.000000    0.000000    0.000000
         Rot=    1.000000   -0.000633   -0.000157   -0.000132 Ang=  -0.08 deg.
 Initial guess <Sx>= 0.0000 <Sy>= 0.0000 <Sz>= 0.5000 <S**2>= 0.7632 S= 0.5066
 ExpMin= 1.61D-01 ExpMax= 4.17D+03 ExpMxC= 6.27D+02 IAcc=2 IRadAn=         4 AccDes= 0.00D+00
 Harris functional with IExCor=  402 and IRadAn=       4 diagonalized for initial guess.
 HarFok:  IExCor=  402 AccDes= 0.00D+00 IRadAn=         4 IDoV= 1 UseB2=F ITyADJ=14
 ICtDFT=  3500011 ScaDFX=  1.000000  1.000000  1.000000  1.000000
 FoFCou: FMM=F IPFlag=           0 FMFlag=      100000 FMFlg1=           0
         NFxFlg=           0 DoJE=T BraDBF=F KetDBF=T FulRan=T
         wScrn=  0.000000 ICntrl=       500 IOpCl=  0 I1Cent=   200000004 NGrid=           0
         NMat0=    1 NMatS0=      1 NMatT0=    0 NMatD0=    1 NMtDS0=    0 NMtDT0=    0
 Petite list used in FoFCou.
 Requested convergence on RMS density matrix=1.00D-08 within 128 cycles.
 Requested convergence on MAX density matrix=1.00D-06.
 Requested convergence on             energy=1.00D-06.
 No special actions if energy rises.
 Integral accuracy reduced to 1.0D-05 until final iterations.
 Initial convergence to 1.0D-05 achieved.  Increase integral accuracy.
 SCF Done:  E(UB3LYP) =  -520.009301367     A.U. after   20 cycles
            NFock= 20  Conv=0.58D-08     -V/T= 2.0078
 <Sx>= 0.0000 <Sy>= 0.0000 <Sz>= 0.5000 <S**2>= 0.7611 S= 0.5055
 <L.S>=  0.00000000000    
 Annihilation of the first spin contaminant:
 S**2 before annihilation     0.7611,   after     0.7501
 PrsmSu:  requested number of processors reduced to:  13 ShMem   1 Linda.
 Calling FoFJK, ICntrl=      2127 FMM=F ISym2X=0 I1Cent= 0 IOpClX= 1 NMat=1 NMatS=1 NMatT=0.
 ***** Axes restored to original set *****
 -------------------------------------------------------------------
 Center     Atomic                   Forces (Hartrees/Bohr)
 Number     Number              X              Y              Z
 -------------------------------------------------------------------
      1        6           0.007596835    0.003656367    0.008568924
      2        7          -0.025328794   -0.000819940    0.004893614
      3        6          -0.003413950    0.003474975    0.000622692
      4        6           0.022576499    0.024167828   -0.016629353
      5        6          -0.024853826   -0.012367493    0.009991656
      6        6           0.011188027    0.006954659   -0.003180583
      7        6          -0.010556811   -0.000532696   -0.013871966
      8        6           0.017572098   -0.014986010    0.040812775
      9        6          -0.029992201    0.012262805   -0.017391448
     10        6           0.007790686    0.023616974   -0.012210670
     11        6           0.011973070   -0.007874933    0.024255864
     12        6          -0.012561735   -0.026106880   -0.016286645
     13        6           0.031483897    0.000849751   -0.027900894
     14        1          -0.006634143   -0.001103106    0.001065134
     15        1           0.002176945   -0.008955537   -0.003386349
     16        1          -0.002101632    0.000913004   -0.009709975
     17        1           0.004970858    0.001766474    0.001899387
     18        1          -0.004398274   -0.007590345    0.012235548
     19        1           0.001153668   -0.001298920    0.002272359
     20        1          -0.007586909    0.017710121    0.024167173
     21        1          -0.001023537   -0.000670253   -0.001400302
     22        1          -0.017383707   -0.006108328   -0.019307797
     23        1           0.014372778   -0.010506281    0.008426970
     24        1           0.005027148    0.024826501   -0.031216334
     25        1          -0.007401965   -0.024689545    0.019066625
     26        1           0.017421334    0.006042396    0.011077881
     27        1          -0.002066358   -0.002631590    0.003135716
 -------------------------------------------------------------------
 Cartesian Forces:  Max     0.040812775 RMS     0.014591761

 GradGradGradGradGradGradGradGradGradGradGradGradGradGradGradGradGradGrad
 Berny optimization.
 Using GEDIIS/GDIIS optimizer.
 FormGI is forming the generalized inverse of G from B-inverse, IUseBI=4.
 Internal  Forces:  Max     0.033513599 RMS     0.005818710
 Search for a local minimum.
 Step number  13 out of a maximum of  162
 All quantities printed in internal units (Hartrees-Bohrs-Radians)
 Mixed Optimization -- RFO/linear search
 Update second derivatives using D2CorX and points   11   12   13
 DE= -1.07D-02 DEPred=-9.60D-03 R= 1.11D+00
 TightC=F SS=  1.41D+00  RLast= 1.95D-01 DXNew= 4.0363D+00 5.8470D-01
 Trust test= 1.11D+00 RLast= 1.95D-01 DXMaxT set to 2.40D+00
 ITU=  1  1  0  1  0  1  1  0  1  0  0  1  0
 Use linear search instead of GDIIS.
     Eigenvalues ---    0.00291   0.00311   0.00361   0.00657   0.00783
     Eigenvalues ---    0.01235   0.01421   0.01845   0.01922   0.02165
     Eigenvalues ---    0.02265   0.02428   0.02774   0.02875   0.02989
     Eigenvalues ---    0.03037   0.03208   0.03418   0.03967   0.04279
     Eigenvalues ---    0.04389   0.04568   0.04730   0.04804   0.05555
     Eigenvalues ---    0.06546   0.07158   0.07556   0.07992   0.08280
     Eigenvalues ---    0.08459   0.08855   0.09140   0.09366   0.09607
     Eigenvalues ---    0.09699   0.09945   0.10097   0.10195   0.10672
     Eigenvalues ---    0.10902   0.11859   0.12132   0.12776   0.13378
     Eigenvalues ---    0.13582   0.13710   0.13842   0.14854   0.15597
     Eigenvalues ---    0.15840   0.15915   0.16244   0.16783   0.17246
     Eigenvalues ---    0.17483   0.18674   0.26473   0.27327   0.29331
     Eigenvalues ---    0.30350   0.32729   0.35460   0.36577   0.42837
     Eigenvalues ---    0.44127   0.46143   0.49823   0.54919   0.56983
     Eigenvalues ---    0.62789   0.72518   0.77515   0.97420   2.15492
 RFO step:  Lambda=-4.21101597D-02 EMin= 2.90830837D-03
 Quartic linear search produced a step of  0.58307.
 Iteration  1 RMS(Cart)=  0.00463497 RMS(Int)=  0.45100344
 Iteration  2 RMS(Cart)=  0.04303272 RMS(Int)=  0.44651095
 Iteration  3 RMS(Cart)=  0.00400710 RMS(Int)=  0.43716700
 Iteration  4 RMS(Cart)=  0.02856971 RMS(Int)=  0.41913719
 Iteration  5 RMS(Cart)=  0.00559183 RMS(Int)=  0.39319807
 Iteration  6 RMS(Cart)=  0.00219911 RMS(Int)=  0.36486260
 Iteration  7 RMS(Cart)=  0.00171990 RMS(Int)=  0.33923583
 Iteration  8 RMS(Cart)=  0.00145086 RMS(Int)=  0.32499914
 Iteration  9 RMS(Cart)=  0.00064164 RMS(Int)=  0.32020136
 Iteration 10 RMS(Cart)=  0.00043276 RMS(Int)=  0.31709499
 Iteration 11 RMS(Cart)=  0.00036783 RMS(Int)=  0.31446250
 Iteration 12 RMS(Cart)=  0.00033722 RMS(Int)=  0.31203189
 Iteration 13 RMS(Cart)=  0.00031900 RMS(Int)=  0.30970464
 Iteration 14 RMS(Cart)=  0.00030645 RMS(Int)=  0.30743317
 Iteration 15 RMS(Cart)=  0.00029691 RMS(Int)=  0.30518900
 Iteration 16 RMS(Cart)=  0.00028914 RMS(Int)=  0.30295116
 Iteration 17 RMS(Cart)=  0.00028249 RMS(Int)=  0.30070039
 Iteration 18 RMS(Cart)=  0.00027662 RMS(Int)=  0.29841438
 Iteration 19 RMS(Cart)=  0.00027137 RMS(Int)=  0.29606084
 Iteration 20 RMS(Cart)=  0.00026672 RMS(Int)=  0.29358182
 Iteration 21 RMS(Cart)=  0.00026283 RMS(Int)=  0.29084276
 Iteration 22 RMS(Cart)=  0.00026030 RMS(Int)=  0.28735560
 Iteration 23 RMS(Cart)=  0.00026131 RMS(Int)=  0.27058584
 Iteration 24 RMS(Cart)=  0.00015786 RMS(Int)=  0.17936636
 Iteration 25 RMS(Cart)=  0.00131660 RMS(Int)=  0.17694106
 Iteration 26 RMS(Cart)=  0.00027219 RMS(Int)=  0.14885743
 Iteration 27 RMS(Cart)=  0.00021183 RMS(Int)=  0.14661348
 Iteration 28 RMS(Cart)=  0.00021483 RMS(Int)=  0.14432805
 Iteration 29 RMS(Cart)=  0.00021894 RMS(Int)=  0.14194537
 Iteration 30 RMS(Cart)=  0.00022440 RMS(Int)=  0.13935291
 Iteration 31 RMS(Cart)=  0.00023183 RMS(Int)=  0.13619284
 Iteration 32 RMS(Cart)=  0.00024406 RMS(Int)=  0.12838990
 Iteration 33 RMS(Cart)=  0.00029625 RMS(Int)=  0.32125381
 Iteration 34 RMS(Cart)=  0.00002439 RMS(Int)=  0.31892781
 Iteration 35 RMS(Cart)=  0.00004127 RMS(Int)=  0.31656257
 Iteration 36 RMS(Cart)=  0.00005564 RMS(Int)=  0.31373802
 Iteration 37 RMS(Cart)=  0.00006795 RMS(Int)=  0.30850835
 Iteration 38 RMS(Cart)=  0.00010888 RMS(Int)=  0.14074077
 Iteration 39 RMS(Cart)=  0.00018816 RMS(Int)=  0.30839503
 Iteration 40 RMS(Cart)=  0.00011566 RMS(Int)=  0.24716879
 New curvilinear step failed, DQL= 6.28D+00 SP=-5.06D-01.
 ITry= 1 IFail=1 DXMaxC= 2.33D-01 DCOld= 1.00D+10 DXMaxT= 2.40D+00 DXLimC= 3.00D+00 Rises=F
slurmstepd: error: *** JOB 27448857 ON lewis4-r630-hpc4-node229 CANCELLED AT 2023-05-20T20:05:39 ***
