### Starting Gaussian ###
 Entering Gaussian System, Link 0=g16
 Initial command:
 /cluster/software/gaussian/gaussian-16-A.03/avx2/g16/l1.exe "/local/scratch/linjian/Gau-5960.inp" -scrdir="/local/scratch/linjian/"
 Entering Link 1 = /cluster/software/gaussian/gaussian-16-A.03/avx2/g16/l1.exe PID=      5961.
  
 Copyright (c) 1988,1990,1992,1993,1995,1998,2003,2009,2016,
            Gaussian, Inc.  All Rights Reserved.
  
 This is part of the Gaussian(R) 16 program.  It is based on
 the Gaussian(R) 09 system (copyright 2009, Gaussian, Inc.),
 the Gaussian(R) 03 system (copyright 2003, Gaussian, Inc.),
 the Gaussian(R) 98 system (copyright 1998, Gaussian, Inc.),
 the Gaussian(R) 94 system (copyright 1995, Gaussian, Inc.),
 the Gaussian 92(TM) system (copyright 1992, Gaussian, Inc.),
 the Gaussian 90(TM) system (copyright 1990, Gaussian, Inc.),
 the Gaussian 88(TM) system (copyright 1988, Gaussian, Inc.),
 the Gaussian 86(TM) system (copyright 1986, Carnegie Mellon
 University), and the Gaussian 82(TM) system (copyright 1983,
 Carnegie Mellon University). Gaussian is a federally registered
 trademark of Gaussian, Inc.
  
 This software contains proprietary and confidential information,
 including trade secrets, belonging to Gaussian, Inc.
  
 This software is provided under written license and may be
 used, copied, transmitted, or stored only in accord with that
 written license.
  
 The following legend is applicable only to US Government
 contracts under FAR:
  
                    RESTRICTED RIGHTS LEGEND
  
 Use, reproduction and disclosure by the US Government is
 subject to restrictions as set forth in subparagraphs (a)
 and (c) of the Commercial Computer Software - Restricted
 Rights clause in FAR 52.227-19.
  
 Gaussian, Inc.
 340 Quinnipiac St., Bldg. 40, Wallingford CT 06492
  
  
 ---------------------------------------------------------------
 Warning -- This program may not be used in any manner that
 competes with the business of Gaussian, Inc. or will provide
 assistance to any competitor of Gaussian, Inc.  The licensee
 of this program is prohibited from giving any competitor of
 Gaussian, Inc. access to this program.  By using this program,
 the user acknowledges that Gaussian, Inc. is engaged in the
 business of creating and licensing software in the field of
 computational chemistry and represents and warrants to the
 licensee that it is not a competitor of Gaussian, Inc. and that
 it will not use this program in any manner prohibited above.
 ---------------------------------------------------------------
  

 Cite this work as:
 Gaussian 16, Revision A.03,
 M. J. Frisch, G. W. Trucks, H. B. Schlegel, G. E. Scuseria, 
 M. A. Robb, J. R. Cheeseman, G. Scalmani, V. Barone, 
 G. A. Petersson, H. Nakatsuji, X. Li, M. Caricato, A. V. Marenich, 
 J. Bloino, B. G. Janesko, R. Gomperts, B. Mennucci, H. P. Hratchian, 
 J. V. Ortiz, A. F. Izmaylov, J. L. Sonnenberg, D. Williams-Young, 
 F. Ding, F. Lipparini, F. Egidi, J. Goings, B. Peng, A. Petrone, 
 T. Henderson, D. Ranasinghe, V. G. Zakrzewski, J. Gao, N. Rega, 
 G. Zheng, W. Liang, M. Hada, M. Ehara, K. Toyota, R. Fukuda, 
 J. Hasegawa, M. Ishida, T. Nakajima, Y. Honda, O. Kitao, H. Nakai, 
 T. Vreven, K. Throssell, J. A. Montgomery, Jr., J. E. Peralta, 
 F. Ogliaro, M. J. Bearpark, J. J. Heyd, E. N. Brothers, K. N. Kudin, 
 V. N. Staroverov, T. A. Keith, R. Kobayashi, J. Normand, 
 K. Raghavachari, A. P. Rendell, J. C. Burant, S. S. Iyengar, 
 J. Tomasi, M. Cossi, J. M. Millam, M. Klene, C. Adamo, R. Cammi, 
 J. W. Ochterski, R. L. Martin, K. Morokuma, O. Farkas, 
 J. B. Foresman, and D. J. Fox, Gaussian, Inc., Wallingford CT, 2016.
 
 ******************************************
 Gaussian 16:  ES64L-G16RevA.03 25-Dec-2016
                15-May-2023 
 ******************************************
 %chk=CN1CdCCdNNdCNdc2ncccc2dNNS1.chk
 %NProcShared=20
 Will use up to   20 processors via shared memory.
 -----------------------------
 # opt freq b3lyp/6-31g(2df,p)
 -----------------------------
 1/18=20,19=15,26=3,38=1/1,3;
 2/9=110,12=2,17=6,18=5,40=1/2;
 3/5=1,6=6,7=104,11=2,25=1,30=1,71=1,74=-5/1,2,3;
 4//1;
 5/5=2,38=5/2;
 6/7=2,8=2,9=2,10=2,28=1/1;
 7//1,2,3,16;
 1/18=20,19=15,26=3/3(2);
 2/9=110/2;
 99//99;
 2/9=110/2;
 3/5=1,6=6,7=104,11=2,25=1,30=1,71=1,74=-5/1,2,3;
 4/5=5,16=3,69=1/1;
 5/5=2,38=5/2;
 7//1,2,3,16;
 1/18=20,19=15,26=3/3(-5);
 2/9=110/2;
 6/7=2,8=2,9=2,10=2,19=2,28=1/1;
 99/9=1/99;
 -------------------
 Title Card Required
 -------------------
 Symbolic Z-matrix:
 Charge =  0 Multiplicity = 1
 C                     2.27891  -0.40883   0.07613 
 N                     3.98944  -0.14879  -0.47641 
 C                     3.71379   0.52198  -1.60457 
 C                     4.69756   1.41586  -1.83728 
 C                     5.24253   1.36586  -3.12665 
 N                     6.5089    1.46207  -3.02584 
 N                     7.15406   1.42505  -4.17449 
 C                     8.31961   1.83765  -3.87613 
 N                     9.14663   1.95824  -4.89759 
 C                     10.28891   1.49579  -4.59249 
 N                     11.1685   1.77859  -5.66638 
 C                     12.41478   2.03816  -5.50969 
 C                     13.00925   1.94228  -4.16986 
 C                     12.3135   1.31637  -3.12459 
 C                     10.53341   0.81582  -2.99698 
 N                     9.56385   0.24598  -1.87717 
 N                     7.75233  -0.04071  -1.72417 
 S                     6.10933  -0.74697  -0.48111 
 H                     1.58951   0.01445  -0.77123 
 H                     1.79218   0.35586   0.76968 
 H                     1.71735  -1.37488   0.11003 
 H                     2.77054   0.48037  -2.12412 
 H                     5.39742   1.45251  -1.02013 
 H                     4.65745   1.2503   -4.03031 
 H                     8.67711   2.06968  -2.8444 
 H                     13.10337   2.26836  -6.39358 
 H                     14.04356   2.36665  -4.20419 
 H                     12.97846   1.17592  -2.27942 
 H                     7.46011  -0.28625  -2.66482 
 
 Add virtual bond connecting atoms N2         and C1         Dist= 3.43D+00.
 Add virtual bond connecting atoms H22        and H19        Dist= 3.51D+00.
 Add virtual bond connecting atoms N17        and N16        Dist= 3.48D+00.
 Add virtual bond connecting atoms S18        and N2         Dist= 4.16D+00.
 Add virtual bond connecting atoms S18        and N17        Dist= 4.12D+00.

 GradGradGradGradGradGradGradGradGradGradGradGradGradGradGradGradGradGrad
 Berny optimization.
 Initialization pass.
                           ----------------------------
                           !    Initial Parameters    !
                           ! (Angstroms and Degrees)  !
 --------------------------                            --------------------------
 ! Name  Definition              Value          Derivative Info.                !
 --------------------------------------------------------------------------------
 ! R1    R(1,2)                  1.8163         estimate D2E/DX2                !
 ! R2    R(1,19)                 1.1715         estimate D2E/DX2                !
 ! R3    R(1,20)                 1.1413         estimate D2E/DX2                !
 ! R4    R(1,21)                 1.1179         estimate D2E/DX2                !
 ! R5    R(2,3)                  1.3411         estimate D2E/DX2                !
 ! R6    R(2,18)                 2.2027         estimate D2E/DX2                !
 ! R7    R(3,4)                  1.3494         estimate D2E/DX2                !
 ! R8    R(3,22)                 1.0777         estimate D2E/DX2                !
 ! R9    R(4,5)                  1.4007         estimate D2E/DX2                !
 ! R10   R(4,23)                 1.0765         estimate D2E/DX2                !
 ! R11   R(5,6)                  1.274          estimate D2E/DX2                !
 ! R12   R(5,24)                 1.0827         estimate D2E/DX2                !
 ! R13   R(6,7)                  1.318          estimate D2E/DX2                !
 ! R14   R(7,8)                  1.2719         estimate D2E/DX2                !
 ! R15   R(8,9)                  1.3198         estimate D2E/DX2                !
 ! R16   R(8,25)                 1.1163         estimate D2E/DX2                !
 ! R17   R(9,10)                 1.2695         estimate D2E/DX2                !
 ! R18   R(10,11)                1.4166         estimate D2E/DX2                !
 ! R19   R(10,15)                1.7515         estimate D2E/DX2                !
 ! R20   R(11,12)                1.2826         estimate D2E/DX2                !
 ! R21   R(12,13)                1.4689         estimate D2E/DX2                !
 ! R22   R(12,26)                1.1439         estimate D2E/DX2                !
 ! R23   R(13,14)                1.403          estimate D2E/DX2                !
 ! R24   R(13,27)                1.1185         estimate D2E/DX2                !
 ! R25   R(14,28)                1.0845         estimate D2E/DX2                !
 ! R26   R(15,16)                1.5871         estimate D2E/DX2                !
 ! R27   R(16,17)                1.8404         estimate D2E/DX2                !
 ! R28   R(17,18)                2.1779         estimate D2E/DX2                !
 ! R29   R(17,29)                1.0151         estimate D2E/DX2                !
 ! R30   R(19,22)                1.8553         estimate D2E/DX2                !
 ! A1    A(2,1,19)             106.4057         estimate D2E/DX2                !
 ! A2    A(2,1,20)             119.3775         estimate D2E/DX2                !
 ! A3    A(2,1,21)             127.3028         estimate D2E/DX2                !
 ! A4    A(19,1,20)             86.9329         estimate D2E/DX2                !
 ! A5    A(19,1,21)             92.2096         estimate D2E/DX2                !
 ! A6    A(20,1,21)            110.2627         estimate D2E/DX2                !
 ! A7    A(1,2,3)               97.6976         estimate D2E/DX2                !
 ! A8    A(1,2,18)             150.2449         estimate D2E/DX2                !
 ! A9    A(3,2,18)             109.3805         estimate D2E/DX2                !
 ! A10   A(2,3,4)              109.0582         estimate D2E/DX2                !
 ! A11   A(2,3,22)             124.4806         estimate D2E/DX2                !
 ! A12   A(4,3,22)             125.4875         estimate D2E/DX2                !
 ! A13   A(3,4,5)              114.7549         estimate D2E/DX2                !
 ! A14   A(3,4,23)             111.4445         estimate D2E/DX2                !
 ! A15   A(5,4,23)             116.5521         estimate D2E/DX2                !
 ! A16   A(4,5,6)              108.1316         estimate D2E/DX2                !
 ! A17   A(4,5,24)             124.1837         estimate D2E/DX2                !
 ! A18   A(6,5,24)             127.6793         estimate D2E/DX2                !
 ! A19   A(5,6,7)              114.5505         estimate D2E/DX2                !
 ! A20   A(6,7,8)              103.5932         estimate D2E/DX2                !
 ! A21   A(7,8,9)              114.9806         estimate D2E/DX2                !
 ! A22   A(7,8,25)             125.2895         estimate D2E/DX2                !
 ! A23   A(9,8,25)             119.7124         estimate D2E/DX2                !
 ! A24   A(8,9,10)             110.1529         estimate D2E/DX2                !
 ! A25   A(9,10,11)            107.6836         estimate D2E/DX2                !
 ! A26   A(9,10,15)            119.0735         estimate D2E/DX2                !
 ! A27   A(11,10,15)           132.9499         estimate D2E/DX2                !
 ! A28   A(10,11,12)           123.4419         estimate D2E/DX2                !
 ! A29   A(11,12,13)           119.4357         estimate D2E/DX2                !
 ! A30   A(11,12,26)           122.0904         estimate D2E/DX2                !
 ! A31   A(13,12,26)           118.3158         estimate D2E/DX2                !
 ! A32   A(12,13,14)           120.5292         estimate D2E/DX2                !
 ! A33   A(12,13,27)           108.752          estimate D2E/DX2                !
 ! A34   A(14,13,27)           130.5942         estimate D2E/DX2                !
 ! A35   A(13,14,28)           109.5309         estimate D2E/DX2                !
 ! A36   A(10,15,16)           134.1754         estimate D2E/DX2                !
 ! A37   A(15,16,17)           135.7177         estimate D2E/DX2                !
 ! A38   A(16,17,18)           147.1918         estimate D2E/DX2                !
 ! A39   A(16,17,29)           104.1219         estimate D2E/DX2                !
 ! A40   A(18,17,29)           103.49           estimate D2E/DX2                !
 ! A41   A(2,18,17)            129.7308         estimate D2E/DX2                !
 ! A42   A(1,19,22)            104.097          estimate D2E/DX2                !
 ! A43   A(3,22,19)            102.4337         estimate D2E/DX2                !
 ! D1    D(19,1,2,3)             4.3327         estimate D2E/DX2                !
 ! D2    D(19,1,2,18)         -151.3323         estimate D2E/DX2                !
 ! D3    D(20,1,2,3)           -91.5067         estimate D2E/DX2                !
 ! D4    D(20,1,2,18)          112.8283         estimate D2E/DX2                !
 ! D5    D(21,1,2,3)           110.2853         estimate D2E/DX2                !
 ! D6    D(21,1,2,18)          -45.3796         estimate D2E/DX2                !
 ! D7    D(2,1,19,22)            5.5196         estimate D2E/DX2                !
 ! D8    D(20,1,19,22)         125.2778         estimate D2E/DX2                !
 ! D9    D(21,1,19,22)        -124.5396         estimate D2E/DX2                !
 ! D10   D(1,2,3,4)            147.5188         estimate D2E/DX2                !
 ! D11   D(1,2,3,22)           -21.6995         estimate D2E/DX2                !
 ! D12   D(18,2,3,4)           -45.0019         estimate D2E/DX2                !
 ! D13   D(18,2,3,22)          145.7797         estimate D2E/DX2                !
 ! D14   D(1,2,18,17)          169.772          estimate D2E/DX2                !
 ! D15   D(3,2,18,17)           15.423          estimate D2E/DX2                !
 ! D16   D(2,3,4,5)            128.9672         estimate D2E/DX2                !
 ! D17   D(2,3,4,23)            -6.266          estimate D2E/DX2                !
 ! D18   D(22,3,4,5)           -61.9495         estimate D2E/DX2                !
 ! D19   D(22,3,4,23)          162.8173         estimate D2E/DX2                !
 ! D20   D(2,3,22,19)           24.9177         estimate D2E/DX2                !
 ! D21   D(4,3,22,19)         -142.5406         estimate D2E/DX2                !
 ! D22   D(3,4,5,6)           -136.9558         estimate D2E/DX2                !
 ! D23   D(3,4,5,24)            42.2592         estimate D2E/DX2                !
 ! D24   D(23,4,5,6)            -4.0738         estimate D2E/DX2                !
 ! D25   D(23,4,5,24)          175.1412         estimate D2E/DX2                !
 ! D26   D(4,5,6,7)            179.8223         estimate D2E/DX2                !
 ! D27   D(24,5,6,7)             0.6427         estimate D2E/DX2                !
 ! D28   D(5,6,7,8)            165.5851         estimate D2E/DX2                !
 ! D29   D(6,7,8,9)           -176.5347         estimate D2E/DX2                !
 ! D30   D(6,7,8,25)             4.9976         estimate D2E/DX2                !
 ! D31   D(7,8,9,10)          -136.4964         estimate D2E/DX2                !
 ! D32   D(25,8,9,10)           42.0636         estimate D2E/DX2                !
 ! D33   D(8,9,10,11)         -173.8942         estimate D2E/DX2                !
 ! D34   D(8,9,10,15)            0.6774         estimate D2E/DX2                !
 ! D35   D(9,10,11,12)         146.4404         estimate D2E/DX2                !
 ! D36   D(15,10,11,12)        -27.0736         estimate D2E/DX2                !
 ! D37   D(9,10,15,16)          20.2904         estimate D2E/DX2                !
 ! D38   D(11,10,15,16)       -166.7829         estimate D2E/DX2                !
 ! D39   D(10,11,12,13)          4.9471         estimate D2E/DX2                !
 ! D40   D(10,11,12,26)       -179.702          estimate D2E/DX2                !
 ! D41   D(11,12,13,14)         13.0639         estimate D2E/DX2                !
 ! D42   D(11,12,13,27)       -170.5803         estimate D2E/DX2                !
 ! D43   D(26,12,13,14)       -162.4624         estimate D2E/DX2                !
 ! D44   D(26,12,13,27)         13.8935         estimate D2E/DX2                !
 ! D45   D(12,13,14,28)        169.2532         estimate D2E/DX2                !
 ! D46   D(27,13,14,28)         -6.2007         estimate D2E/DX2                !
 ! D47   D(10,15,16,17)          2.9569         estimate D2E/DX2                !
 ! D48   D(15,16,17,18)        179.8561         estimate D2E/DX2                !
 ! D49   D(15,16,17,29)         33.3217         estimate D2E/DX2                !
 ! D50   D(16,17,18,2)         152.0068         estimate D2E/DX2                !
 ! D51   D(29,17,18,2)         -61.3563         estimate D2E/DX2                !
 ! D52   D(1,19,22,3)          -17.7082         estimate D2E/DX2                !
 --------------------------------------------------------------------------------
 Trust Radius=3.00D-01 FncErr=1.00D-07 GrdErr=1.00D-06 EigMax=2.50D+02 EigMin=1.00D-04
 Number of steps in this run=    135 maximum allowed number of steps=    174.
 GradGradGradGradGradGradGradGradGradGradGradGradGradGradGradGradGradGrad

                          Input orientation:                          
 ---------------------------------------------------------------------
 Center     Atomic      Atomic             Coordinates (Angstroms)
 Number     Number       Type             X           Y           Z
 ---------------------------------------------------------------------
      1          6           0        2.278910   -0.408830    0.076130
      2          7           0        3.989440   -0.148790   -0.476410
      3          6           0        3.713790    0.521980   -1.604570
      4          6           0        4.697560    1.415860   -1.837280
      5          6           0        5.242530    1.365860   -3.126650
      6          7           0        6.508900    1.462070   -3.025840
      7          7           0        7.154060    1.425050   -4.174490
      8          6           0        8.319610    1.837650   -3.876130
      9          7           0        9.146630    1.958240   -4.897590
     10          6           0       10.288910    1.495790   -4.592490
     11          7           0       11.168500    1.778590   -5.666380
     12          6           0       12.414780    2.038160   -5.509690
     13          6           0       13.009250    1.942280   -4.169860
     14          6           0       12.313500    1.316370   -3.124590
     15          6           0       10.533410    0.815820   -2.996980
     16          7           0        9.563850    0.245980   -1.877170
     17          7           0        7.752330   -0.040710   -1.724170
     18         16           0        6.109330   -0.746970   -0.481110
     19          1           0        1.589510    0.014450   -0.771230
     20          1           0        1.792180    0.355860    0.769680
     21          1           0        1.717350   -1.374880    0.110030
     22          1           0        2.770540    0.480370   -2.124120
     23          1           0        5.397420    1.452510   -1.020130
     24          1           0        4.657450    1.250300   -4.030310
     25          1           0        8.677110    2.069680   -2.844400
     26          1           0       13.103370    2.268360   -6.393580
     27          1           0       14.043560    2.366650   -4.204190
     28          1           0       12.978460    1.175920   -2.279420
     29          1           0        7.460110   -0.286250   -2.664820
 ---------------------------------------------------------------------
                    Distance matrix (angstroms):
                    1          2          3          4          5
     1  C    0.000000
     2  N    1.816269   0.000000
     3  C    2.397924   1.341141   0.000000
     4  C    3.583364   2.191240   1.349436   0.000000
     5  C    4.710665   3.299723   2.316443   1.400702   0.000000
     6  N    5.569138   3.929649   3.273594   2.166971   1.274014
     7  N    6.722944   5.115426   4.388107   3.390727   2.180692
     8  C    7.560231   5.852727   5.301372   4.177806   3.201988
     9  N    8.803777   7.112174   6.513261   5.427144   4.327718
    10  C    9.464866   7.702602   7.287536   6.233840   5.256569
    11  N   10.806759   9.065842   8.581962   7.527725   6.460472
    12  C   11.828990  10.054999   9.656914   8.569092   7.587624
    13  C   11.776941   9.968506   9.746976   8.648829   7.857639
    14  C   10.673046   8.857174   8.769067   7.724611   7.071143
    15  C    8.892724   7.078650   6.966517   5.980142   5.320974
    16  N    7.570635   5.761251   5.862908   5.005096   4.635638
    17  N    5.773640   3.965845   4.079305   3.386150   3.200701
    18  S    3.885482   2.202675   2.934452   2.917212   3.494893
    19  H    1.171519   2.423475   2.337650   3.572168   4.551798
    20  H    1.141345   2.575920   3.058961   4.044882   5.301547
    21  H    1.117923   2.647565   3.244026   4.523483   5.514948
    22  H    2.423526   2.143947   1.077675   2.161209   2.810675
    23  H    3.793610   2.200500   2.010489   1.076514   2.113983
    24  H    5.027227   3.877357   2.702806   2.199636   1.082716
    25  H    7.457176   5.701161   5.344820   4.156752   3.517295
    26  H   12.891603  11.131902  10.684038   9.599181   8.560382
    27  H   12.823081  11.014042  10.810411   9.687826   8.923049
    28  H   11.069798   9.263271   9.312205   8.296166   7.784503
    29  H    5.862821   4.105312   3.976466   3.348684   2.803643
                    6          7          8          9         10
     6  N    0.000000
     7  N    1.317952   0.000000
     8  C    2.035368   1.271914   0.000000
     9  N    3.272194   2.185749   1.319805   0.000000
    10  C    4.091944   3.163386   2.123248   1.269547   0.000000
    11  N    5.365120   4.297261   3.365213   2.170546   1.416649
    12  C    6.432792   5.462036   4.413518   3.325937   2.377971
    13  C    6.617699   5.877993   4.699994   3.930608   2.788946
    14  C    5.807268   5.266301   4.097280   3.685728   2.507167
    15  C    4.076169   3.630110   2.591901   2.615454   1.751511
    16  N    3.482964   3.531993   2.842075   3.496976   3.075825
    17  N    2.344954   2.917267   2.912211   4.001308   4.125813
    18  S    3.393400   4.410237   4.805389   6.004053   6.277126
    19  H    5.601720   6.673544   7.632739   8.826960   9.616442
    20  H    6.154439   7.371414   8.147797   9.421969  10.111712
    21  H    6.390690   7.466896   8.354619   9.559296  10.189508
    22  H    3.968900   4.930688   5.975276   7.108499   7.978083
    23  H    2.293110   3.610613   4.104176   5.417290   6.057252
    24  H    2.116996   2.506868   3.712165   4.626672   5.664773
    25  H    2.259036   2.122350   1.116293   2.109137   2.446031
    26  H    7.448410   6.405452   5.422861   4.241456   3.429574
    27  H    7.679705   6.953611   5.757696   4.962613   3.873832
    28  H    6.518760   6.130007   4.969130   4.706353   3.561782
    29  H    2.022810   2.302459   2.591711   3.587108   3.859234
                   11         12         13         14         15
    11  N    0.000000
    12  C    1.282631   0.000000
    13  C    2.377967   1.468922   0.000000
    14  C    2.825839   2.493981   1.403004   0.000000
    15  C    2.907914   3.368587   2.962152   1.853525   0.000000
    16  N    4.391117   4.953273   4.472655   3.203493   1.587053
    17  N    5.524590   6.355337   6.127712   4.960556   3.176176
    18  S    7.672071   8.532424   8.273321   7.052452   5.323946
    19  H   10.900997  11.988948  12.069701  11.056096   9.251460
    20  H   11.461344  12.453925  12.358740  11.259933   9.529344
    21  H   11.516750  12.556477  12.523099  11.401052   9.600812
    22  H    9.206450  10.339253  10.542932   9.631611   7.818987
    23  H    7.416153   8.351196   8.252311   7.230453   5.540009
    24  H    6.734210   7.936338   8.381579   7.709721   5.981927
    25  H    3.775623   4.590745   4.532164   3.724153   2.245283
    26  H    2.124245   1.143857   2.249470   3.495207   4.500162
    27  H    3.278686   2.113093   1.118510   2.293847   4.022882
    28  H    3.887244   3.390551   2.040103   1.084532   2.573487
    29  H    5.198565   6.168057   6.166397   5.131781   3.281777
                   16         17         18         19         20
    16  N    0.000000
    17  N    1.840436   0.000000
    18  S    3.855988   2.177946   0.000000
    19  H    8.053993   6.236304   4.592679   0.000000
    20  H    8.210770   6.473017   4.628012   1.591238   0.000000
    21  H    8.254921   6.447114   4.475847   1.650212   1.853699
    22  H    6.801837   5.024910   3.918337   1.855323   3.057249
    23  H    4.421467   2.875931   2.373830   4.078008   4.171788
    24  H    5.451370   4.069800   4.323640   4.643402   5.661245
    25  H    2.246714   2.562007   4.484657   7.665251   7.962475
    26  H    6.084093   7.467853   9.641894  13.009992  13.524532
    27  H    5.475405   7.178123   9.300966  13.130934  13.374564
    28  H    3.561763   5.394527   7.356383  11.546940  11.623354
    29  H    2.308546   1.015138   2.608727   6.175763   6.658343
                   21         22         23         24         25
    21  H    0.000000
    22  H    3.089108   0.000000
    23  H    4.776433   3.010706   0.000000
    24  H    5.716483   2.790481   3.106385   0.000000
    25  H    8.308544   6.158919   3.803318   4.270297   0.000000
    26  H   13.609247  11.322216   9.429806   8.829216   5.676965
    27  H   13.584807  11.617475   9.259029   9.453863   5.544006
    28  H   11.791041  10.232768   7.689895   8.503550   4.429404
    29  H    6.470255   4.782482   3.159586   3.475694   2.657771
                   26         27         28         29
    26  H    0.000000
    27  H    2.384753   0.000000
    28  H    4.258561   2.501403   0.000000
    29  H    7.230219   7.262875   5.721771   0.000000
 Stoichiometry    C10H11N7S
 Framework group  C1[X(C10H11N7S)]
 Deg. of freedom    81
 Full point group                 C1      NOp   1
 Largest Abelian subgroup         C1      NOp   1
 Largest concise Abelian subgroup C1      NOp   1
                         Standard orientation:                         
 ---------------------------------------------------------------------
 Center     Atomic      Atomic             Coordinates (Angstroms)
 Number     Number       Type             X           Y           Z
 ---------------------------------------------------------------------
      1          6           0        6.287492    0.179703    0.030443
      2          7           0        4.488976    0.430550    0.065821
      3          6           0        4.127106   -0.860721    0.047624
      4          6           0        2.984005   -1.007912    0.749502
      5          6           0        1.967362   -1.697715    0.076765
      6          7           0        0.869558   -1.084516    0.281521
      7          7           0       -0.179009   -1.629034   -0.302436
      8          6           0       -1.165683   -1.065427    0.269041
      9          7           0       -2.352311   -1.506146   -0.104545
     10          6           0       -3.145537   -0.530733   -0.280927
     11          7           0       -4.432345   -1.063847   -0.539397
     12          6           0       -5.520529   -0.496032   -0.167128
     13          6           0       -5.463468    0.826293    0.470001
     14          6           0       -4.284898    1.586420    0.429991
     15          6           0       -2.557227    1.100287   -0.033021
     16          7           0       -1.115606    1.763243   -0.002080
     17          7           0        0.609063    1.179590   -0.270542
     18         16           0        2.725620    1.689474   -0.330992
     19          1           0        6.458562   -0.974063   -0.079170
     20          1           0        6.862475    0.109518    1.013874
     21          1           0        6.986832    0.407153   -0.811543
     22          1           0        4.751550   -1.664387   -0.306742
     23          1           0        2.701582   -0.091364    1.238437
     24          1           0        2.126977   -2.588449   -0.517702
     25          1           0       -1.092355   -0.239317    1.016220
     26          1           0       -6.547835   -0.949905   -0.384040
     27          1           0       -6.476472    1.074846    0.873870
     28          1           0       -4.490191    2.592345    0.779534
     29          1           0        0.518946    0.458169   -0.979016
 ---------------------------------------------------------------------
 Rotational constants (GHZ):           1.1517918           0.1575201           0.1410577
 Standard basis: 6-31G(2df,p) (6D, 7F)
 There are   617 symmetry adapted cartesian basis functions of A   symmetry.
 There are   563 symmetry adapted basis functions of A   symmetry.
   563 basis functions,   893 primitive gaussians,   617 cartesian basis functions
    68 alpha electrons       68 beta electrons
       nuclear repulsion energy      1291.6690561558 Hartrees.
 NAtoms=   29 NActive=   29 NUniq=   29 SFac= 1.00D+00 NAtFMM=   60 NAOKFM=F Big=F
 Integral buffers will be    131072 words long.
 Raffenetti 2 integral format.
 Two-electron integral symmetry is turned on.
 One-electron integrals computed using PRISM.
 PrsmSu:  requested number of processors reduced to:  12 ShMem   1 Linda.
 NBasis=   563 RedAO= T EigKep=  1.43D-04  NBF=   563
 NBsUse=   563 1.00D-06 EigRej= -1.00D+00 NBFU=   563
 ExpMin= 1.17D-01 ExpMax= 2.19D+04 ExpMxC= 3.30D+03 IAcc=3 IRadAn=         5 AccDes= 0.00D+00
 Harris functional with IExCor=  402 and IRadAn=       5 diagonalized for initial guess.
 HarFok:  IExCor=  402 AccDes= 0.00D+00 IRadAn=         5 IDoV= 1 UseB2=F ITyADJ=14
 ICtDFT=  3500011 ScaDFX=  1.000000  1.000000  1.000000  1.000000
 FoFCou: FMM=F IPFlag=           0 FMFlag=      100000 FMFlg1=           0
         NFxFlg=           0 DoJE=T BraDBF=F KetDBF=T FulRan=T
         wScrn=  0.000000 ICntrl=       500 IOpCl=  0 I1Cent=   200000004 NGrid=           0
         NMat0=    1 NMatS0=      1 NMatT0=    0 NMatD0=    1 NMtDS0=    0 NMtDT0=    0
 Petite list used in FoFCou.
 Requested convergence on RMS density matrix=1.00D-08 within 128 cycles.
 Requested convergence on MAX density matrix=1.00D-06.
 Requested convergence on             energy=1.00D-06.
 No special actions if energy rises.
 Integral accuracy reduced to 1.0D-05 until final iterations.
 EnCoef did     8 forward-backward iterations
 EnCoef did     5 forward-backward iterations
 EnCoef did     5 forward-backward iterations
 Initial convergence to 1.0D-05 achieved.  Increase integral accuracy.
 SCF Done:  E(RB3LYP) =  -1168.41985816     A.U. after   22 cycles
            NFock= 22  Conv=0.90D-08     -V/T= 2.0066

 **********************************************************************

            Population analysis using the SCF density.

 **********************************************************************

 Orbital symmetries:
       Occupied  (A) (A) (A) (A) (A) (A) (A) (A) (A) (A) (A) (A)
                 (A) (A) (A) (A) (A) (A) (A) (A) (A) (A) (A) (A)
                 (A) (A) (A) (A) (A) (A) (A) (A) (A) (A) (A) (A)
                 (A) (A) (A) (A) (A) (A) (A) (A) (A) (A) (A) (A)
                 (A) (A) (A) (A) (A) (A) (A) (A) (A) (A) (A) (A)
                 (A) (A) (A) (A) (A) (A) (A) (A)
       Virtual   (A) (A) (A) (A) (A) (A) (A) (A) (A) (A) (A) (A)
                 (A) (A) (A) (A) (A) (A) (A) (A) (A) (A) (A) (A)
                 (A) (A) (A) (A) (A) (A) (A) (A) (A) (A) (A) (A)
                 (A) (A) (A) (A) (A) (A) (A) (A) (A) (A) (A) (A)
                 (A) (A) (A) (A) (A) (A) (A) (A) (A) (A) (A) (A)
                 (A) (A) (A) (A) (A) (A) (A) (A) (A) (A) (A) (A)
                 (A) (A) (A) (A) (A) (A) (A) (A) (A) (A) (A) (A)
                 (A) (A) (A) (A) (A) (A) (A) (A) (A) (A) (A) (A)
                 (A) (A) (A) (A) (A) (A) (A) (A) (A) (A) (A) (A)
                 (A) (A) (A) (A) (A) (A) (A) (A) (A) (A) (A) (A)
                 (A) (A) (A) (A) (A) (A) (A) (A) (A) (A) (A) (A)
                 (A) (A) (A) (A) (A) (A) (A) (A) (A) (A) (A) (A)
                 (A) (A) (A) (A) (A) (A) (A) (A) (A) (A) (A) (A)
                 (A) (A) (A) (A) (A) (A) (A) (A) (A) (A) (A) (A)
                 (A) (A) (A) (A) (A) (A) (A) (A) (A) (A) (A) (A)
                 (A) (A) (A) (A) (A) (A) (A) (A) (A) (A) (A) (A)
                 (A) (A) (A) (A) (A) (A) (A) (A) (A) (A) (A) (A)
                 (A) (A) (A) (A) (A) (A) (A) (A) (A) (A) (A) (A)
                 (A) (A) (A) (A) (A) (A) (A) (A) (A) (A) (A) (A)
                 (A) (A) (A) (A) (A) (A) (A) (A) (A) (A) (A) (A)
                 (A) (A) (A) (A) (A) (A) (A) (A) (A) (A) (A) (A)
                 (A) (A) (A) (A) (A) (A) (A) (A) (A) (A) (A) (A)
                 (A) (A) (A) (A) (A) (A) (A) (A) (A) (A) (A) (A)
                 (A) (A) (A) (A) (A) (A) (A) (A) (A) (A) (A) (A)
                 (A) (A) (A) (A) (A) (A) (A) (A) (A) (A) (A) (A)
                 (A) (A) (A) (A) (A) (A) (A) (A) (A) (A) (A) (A)
                 (A) (A) (A) (A) (A) (A) (A) (A) (A) (A) (A) (A)
                 (A) (A) (A) (A) (A) (A) (A) (A) (A) (A) (A) (A)
                 (A) (A) (A) (A) (A) (A) (A) (A) (A) (A) (A) (A)
                 (A) (A) (A) (A) (A) (A) (A) (A) (A) (A) (A) (A)
                 (A) (A) (A) (A) (A) (A) (A) (A) (A) (A) (A) (A)
                 (A) (A) (A) (A) (A) (A) (A) (A) (A) (A) (A) (A)
                 (A) (A) (A) (A) (A) (A) (A) (A) (A) (A) (A) (A)
                 (A) (A) (A) (A) (A) (A) (A) (A) (A) (A) (A) (A)
                 (A) (A) (A) (A) (A) (A) (A) (A) (A) (A) (A) (A)
                 (A) (A) (A) (A) (A) (A) (A) (A) (A) (A) (A) (A)
                 (A) (A) (A) (A) (A) (A) (A) (A) (A) (A) (A) (A)
                 (A) (A) (A) (A) (A) (A) (A) (A) (A) (A) (A) (A)
                 (A) (A) (A) (A) (A) (A) (A) (A) (A) (A) (A) (A)
                 (A) (A) (A) (A) (A) (A) (A) (A) (A) (A) (A) (A)
                 (A) (A) (A) (A) (A) (A) (A) (A) (A) (A) (A) (A)
                 (A) (A) (A)
 The electronic state is 1-A.
 Alpha  occ. eigenvalues --  -88.90025 -14.41799 -14.39718 -14.39252 -14.37469
 Alpha  occ. eigenvalues --  -14.36244 -14.35316 -14.34778 -10.32128 -10.29320
 Alpha  occ. eigenvalues --  -10.26335 -10.26036 -10.25213 -10.24646 -10.24466
 Alpha  occ. eigenvalues --  -10.23816 -10.23583 -10.20261  -7.95696  -5.92639
 Alpha  occ. eigenvalues --   -5.91565  -5.91088  -1.06159  -1.00019  -0.93785
 Alpha  occ. eigenvalues --   -0.92677  -0.86727  -0.83872  -0.79267  -0.76815
 Alpha  occ. eigenvalues --   -0.76126  -0.71381  -0.69001  -0.66080  -0.63897
 Alpha  occ. eigenvalues --   -0.61192  -0.59642  -0.58949  -0.56277  -0.54645
 Alpha  occ. eigenvalues --   -0.52753  -0.49242  -0.47920  -0.46388  -0.45879
 Alpha  occ. eigenvalues --   -0.44483  -0.43496  -0.42462  -0.42220  -0.41424
 Alpha  occ. eigenvalues --   -0.41139  -0.39377  -0.39158  -0.37152  -0.35778
 Alpha  occ. eigenvalues --   -0.35114  -0.34310  -0.32245  -0.32087  -0.30652
 Alpha  occ. eigenvalues --   -0.28869  -0.27848  -0.27347  -0.25860  -0.25633
 Alpha  occ. eigenvalues --   -0.22615  -0.22273  -0.21787
 Alpha virt. eigenvalues --   -0.14622  -0.12434  -0.11246  -0.05653  -0.04801
 Alpha virt. eigenvalues --   -0.03119  -0.01418   0.01725   0.02290   0.02793
 Alpha virt. eigenvalues --    0.04358   0.05858   0.08130   0.08254   0.09805
 Alpha virt. eigenvalues --    0.11694   0.12410   0.12957   0.13294   0.15046
 Alpha virt. eigenvalues --    0.15633   0.16425   0.16936   0.18142   0.20538
 Alpha virt. eigenvalues --    0.23732   0.24543   0.24791   0.26496   0.28167
 Alpha virt. eigenvalues --    0.28899   0.30221   0.30903   0.32945   0.33993
 Alpha virt. eigenvalues --    0.34636   0.36362   0.37520   0.38686   0.39224
 Alpha virt. eigenvalues --    0.39474   0.39861   0.40833   0.41928   0.43077
 Alpha virt. eigenvalues --    0.44376   0.44847   0.45823   0.46696   0.47551
 Alpha virt. eigenvalues --    0.48883   0.49369   0.49651   0.50475   0.51147
 Alpha virt. eigenvalues --    0.51901   0.52129   0.52328   0.53307   0.53447
 Alpha virt. eigenvalues --    0.53947   0.55388   0.56467   0.56708   0.57456
 Alpha virt. eigenvalues --    0.58541   0.58920   0.59281   0.60154   0.60715
 Alpha virt. eigenvalues --    0.62588   0.63286   0.63774   0.64607   0.65337
 Alpha virt. eigenvalues --    0.66691   0.67091   0.68581   0.68880   0.69510
 Alpha virt. eigenvalues --    0.70306   0.70669   0.71133   0.71762   0.71947
 Alpha virt. eigenvalues --    0.72514   0.73244   0.73923   0.74280   0.75009
 Alpha virt. eigenvalues --    0.76274   0.76829   0.77468   0.78724   0.79358
 Alpha virt. eigenvalues --    0.79467   0.80179   0.80713   0.81147   0.81762
 Alpha virt. eigenvalues --    0.81883   0.82835   0.83764   0.84134   0.85583
 Alpha virt. eigenvalues --    0.86569   0.87736   0.87831   0.88609   0.89554
 Alpha virt. eigenvalues --    0.90423   0.92146   0.92378   0.93402   0.93772
 Alpha virt. eigenvalues --    0.96376   0.97177   0.97710   0.99716   1.00139
 Alpha virt. eigenvalues --    1.00682   1.01624   1.03295   1.03816   1.04404
 Alpha virt. eigenvalues --    1.06441   1.07437   1.07966   1.09466   1.10325
 Alpha virt. eigenvalues --    1.11528   1.13125   1.13797   1.14564   1.16668
 Alpha virt. eigenvalues --    1.17707   1.18018   1.19429   1.20786   1.21349
 Alpha virt. eigenvalues --    1.22469   1.23957   1.24736   1.25951   1.27068
 Alpha virt. eigenvalues --    1.27414   1.28591   1.29747   1.30109   1.31793
 Alpha virt. eigenvalues --    1.32192   1.33495   1.33737   1.35392   1.37069
 Alpha virt. eigenvalues --    1.38310   1.39341   1.39592   1.40449   1.41353
 Alpha virt. eigenvalues --    1.42583   1.44767   1.46007   1.47049   1.47699
 Alpha virt. eigenvalues --    1.49162   1.51173   1.52481   1.53386   1.54027
 Alpha virt. eigenvalues --    1.55449   1.56561   1.58007   1.59010   1.59929
 Alpha virt. eigenvalues --    1.60368   1.61215   1.61619   1.63023   1.64113
 Alpha virt. eigenvalues --    1.65023   1.66323   1.66693   1.68414   1.69275
 Alpha virt. eigenvalues --    1.71189   1.72596   1.72832   1.74036   1.74623
 Alpha virt. eigenvalues --    1.76420   1.77747   1.78521   1.80525   1.80807
 Alpha virt. eigenvalues --    1.81639   1.83330   1.85761   1.86697   1.88995
 Alpha virt. eigenvalues --    1.90007   1.91891   1.94867   1.96423   1.97603
 Alpha virt. eigenvalues --    1.98809   2.01341   2.02410   2.03487   2.03927
 Alpha virt. eigenvalues --    2.07349   2.08123   2.09339   2.10569   2.12285
 Alpha virt. eigenvalues --    2.12829   2.16228   2.17974   2.18623   2.20503
 Alpha virt. eigenvalues --    2.22523   2.23589   2.23993   2.26621   2.26979
 Alpha virt. eigenvalues --    2.27452   2.30334   2.31684   2.35661   2.37673
 Alpha virt. eigenvalues --    2.38304   2.40014   2.43161   2.44761   2.45546
 Alpha virt. eigenvalues --    2.47241   2.51005   2.54236   2.55879   2.58975
 Alpha virt. eigenvalues --    2.60227   2.62616   2.64531   2.66305   2.67105
 Alpha virt. eigenvalues --    2.68287   2.70050   2.71375   2.73556   2.74515
 Alpha virt. eigenvalues --    2.76518   2.76999   2.77648   2.80389   2.80941
 Alpha virt. eigenvalues --    2.82920   2.83330   2.84519   2.87196   2.88122
 Alpha virt. eigenvalues --    2.89416   2.90824   2.91165   2.91787   2.93569
 Alpha virt. eigenvalues --    2.94470   2.95716   2.97305   2.97718   2.98215
 Alpha virt. eigenvalues --    2.99512   3.00822   3.01238   3.02580   3.04412
 Alpha virt. eigenvalues --    3.06207   3.08853   3.09559   3.10249   3.11436
 Alpha virt. eigenvalues --    3.11928   3.13024   3.15960   3.16270   3.17004
 Alpha virt. eigenvalues --    3.18829   3.19541   3.20529   3.22099   3.22554
 Alpha virt. eigenvalues --    3.24342   3.25218   3.25881   3.28834   3.29898
 Alpha virt. eigenvalues --    3.31014   3.31861   3.33264   3.34184   3.35142
 Alpha virt. eigenvalues --    3.36083   3.36970   3.37626   3.38592   3.41404
 Alpha virt. eigenvalues --    3.42580   3.44104   3.46632   3.47633   3.49602
 Alpha virt. eigenvalues --    3.50633   3.52340   3.52629   3.54561   3.54958
 Alpha virt. eigenvalues --    3.58270   3.58862   3.60388   3.62781   3.63537
 Alpha virt. eigenvalues --    3.64842   3.66198   3.67575   3.68086   3.68486
 Alpha virt. eigenvalues --    3.69695   3.71554   3.72584   3.74079   3.75429
 Alpha virt. eigenvalues --    3.77094   3.77981   3.80368   3.81519   3.82237
 Alpha virt. eigenvalues --    3.83606   3.83628   3.85172   3.86656   3.88433
 Alpha virt. eigenvalues --    3.89969   3.90840   3.91907   3.93658   3.94441
 Alpha virt. eigenvalues --    3.95456   3.97246   3.97942   3.99170   4.00714
 Alpha virt. eigenvalues --    4.02804   4.04380   4.06053   4.06150   4.09127
 Alpha virt. eigenvalues --    4.09935   4.10750   4.12136   4.12875   4.15251
 Alpha virt. eigenvalues --    4.16978   4.19185   4.19412   4.20759   4.21128
 Alpha virt. eigenvalues --    4.22523   4.23049   4.24170   4.25758   4.27069
 Alpha virt. eigenvalues --    4.27852   4.28331   4.29173   4.29713   4.31544
 Alpha virt. eigenvalues --    4.31985   4.32751   4.32817   4.34093   4.36184
 Alpha virt. eigenvalues --    4.36444   4.38265   4.38800   4.39892   4.40123
 Alpha virt. eigenvalues --    4.41463   4.42747   4.43634   4.45306   4.45957
 Alpha virt. eigenvalues --    4.46027   4.47598   4.48953   4.49617   4.51127
 Alpha virt. eigenvalues --    4.51982   4.52614   4.53089   4.54023   4.54281
 Alpha virt. eigenvalues --    4.56936   4.58294   4.58788   4.59756   4.60375
 Alpha virt. eigenvalues --    4.61111   4.63118   4.63884   4.64792   4.66913
 Alpha virt. eigenvalues --    4.68233   4.68801   4.69388   4.70980   4.72216
 Alpha virt. eigenvalues --    4.72461   4.74738   4.75678   4.76267   4.77898
 Alpha virt. eigenvalues --    4.78248   4.80980   4.82576   4.84578   4.85542
 Alpha virt. eigenvalues --    4.85946   4.87044   4.88263   4.90115   4.92567
 Alpha virt. eigenvalues --    4.93549   4.95194   4.96199   4.97904   4.98749
 Alpha virt. eigenvalues --    5.00973   5.02339   5.03943   5.05495   5.08806
 Alpha virt. eigenvalues --    5.11370   5.13589   5.16464   5.17799   5.20161
 Alpha virt. eigenvalues --    5.22082   5.26940   5.27244   5.29070   5.30591
 Alpha virt. eigenvalues --    5.32628   5.34763   5.40204   5.40692   5.43474
 Alpha virt. eigenvalues --    5.44876   5.46896   5.49894   5.52796   5.54274
 Alpha virt. eigenvalues --    5.58181   5.63681   5.66931   5.69397   5.74792
 Alpha virt. eigenvalues --    5.78799   5.88595   5.93740   5.97824   6.21905
 Alpha virt. eigenvalues --    6.39573   7.24925   9.49458   9.85272  10.05815
 Alpha virt. eigenvalues --   10.54313  10.58297  10.77988  11.07736  11.13714
 Alpha virt. eigenvalues --   11.23706  11.27381  11.28558  11.31629  11.36318
 Alpha virt. eigenvalues --   11.39725  11.40623  11.48379  11.63595  11.71172
 Alpha virt. eigenvalues --   11.98923  12.92520  14.94707  17.27524  22.61513
          Condensed to atoms (all electrons):
               1          2          3          4          5          6
     1  C    5.141138   0.241229  -0.053092   0.008102  -0.000314  -0.000009
     2  N    0.241229   6.531706   0.499394  -0.050590   0.000906   0.000082
     3  C   -0.053092   0.499394   4.728222   0.463820  -0.038885   0.000870
     4  C    0.008102  -0.050590   0.463820   5.139573   0.413946  -0.024299
     5  C   -0.000314   0.000906  -0.038885   0.413946   4.785275   0.563126
     6  N   -0.000009   0.000082   0.000870  -0.024299   0.563126   6.392859
     7  N   -0.000000  -0.000001  -0.000174   0.004373  -0.081335   0.265841
     8  C    0.000000  -0.000001   0.000013  -0.000172   0.000064  -0.085581
     9  N   -0.000000  -0.000000  -0.000000   0.000007  -0.000890  -0.003618
    10  C   -0.000000  -0.000000   0.000000   0.000000   0.000001   0.000469
    11  N    0.000000  -0.000000   0.000000   0.000000  -0.000000  -0.000002
    12  C   -0.000000   0.000000   0.000000  -0.000000  -0.000000   0.000000
    13  C   -0.000000  -0.000000  -0.000000  -0.000000   0.000000  -0.000000
    14  C    0.000000  -0.000000  -0.000000   0.000000  -0.000000  -0.000001
    15  C   -0.000000   0.000000   0.000000   0.000001  -0.000028   0.000307
    16  N    0.000000  -0.000001  -0.000003   0.000059  -0.000021  -0.002264
    17  N   -0.000004   0.000512  -0.000043  -0.009396   0.002594   0.012502
    18  S   -0.000495   0.101055  -0.057094   0.009583  -0.001978  -0.018504
    19  H    0.335739  -0.015818  -0.015614   0.000311   0.000043   0.000000
    20  H    0.368884  -0.009474   0.000438  -0.000282  -0.000001   0.000000
    21  H    0.365721  -0.010194   0.001444  -0.000135   0.000011   0.000000
    22  H   -0.023746  -0.029771   0.363860  -0.058818   0.005020   0.000173
    23  H    0.000256  -0.012251  -0.028610   0.364083  -0.024652   0.002660
    24  H   -0.000001  -0.000131   0.007205  -0.062223   0.353406  -0.030707
    25  H   -0.000000   0.000000   0.000015   0.000115   0.002348   0.025909
    26  H    0.000000  -0.000000   0.000000   0.000000  -0.000000   0.000000
    27  H    0.000000  -0.000000  -0.000000   0.000000  -0.000000  -0.000000
    28  H   -0.000000   0.000000   0.000000  -0.000000   0.000000   0.000000
    29  H    0.000002  -0.000135   0.000062   0.001279   0.000064  -0.006237
               7          8          9         10         11         12
     1  C   -0.000000   0.000000  -0.000000  -0.000000   0.000000  -0.000000
     2  N   -0.000001  -0.000001  -0.000000  -0.000000  -0.000000   0.000000
     3  C   -0.000174   0.000013  -0.000000   0.000000   0.000000   0.000000
     4  C    0.004373  -0.000172   0.000007   0.000000   0.000000  -0.000000
     5  C   -0.081335   0.000064  -0.000890   0.000001  -0.000000  -0.000000
     6  N    0.265841  -0.085581  -0.003618   0.000469  -0.000002   0.000000
     7  N    6.506842   0.558412  -0.022709  -0.003271  -0.000025  -0.000002
     8  C    0.558412   4.750249   0.416262  -0.099892  -0.002076  -0.000150
     9  N   -0.022709   0.416262   6.355759   0.569011  -0.041262  -0.000422
    10  C   -0.003271  -0.099892   0.569011   4.753458   0.399275  -0.072355
    11  N   -0.000025  -0.002076  -0.041262   0.399275   6.354220   0.617333
    12  C   -0.000002  -0.000150  -0.000422  -0.072355   0.617333   4.733922
    13  C    0.000000  -0.000103   0.000214  -0.019631  -0.026081   0.413940
    14  C   -0.000003   0.000573   0.000735  -0.025694  -0.030097  -0.009787
    15  C    0.000697   0.004319  -0.071578   0.281244  -0.037416  -0.002214
    16  N   -0.000063  -0.002698  -0.000580  -0.017597   0.000392  -0.000011
    17  N   -0.009863  -0.005476   0.000770  -0.000641   0.000002  -0.000000
    18  S    0.000610   0.000572  -0.000010  -0.000004  -0.000000   0.000000
    19  H   -0.000000  -0.000000  -0.000000   0.000000   0.000000  -0.000000
    20  H    0.000000  -0.000000  -0.000000  -0.000000  -0.000000   0.000000
    21  H    0.000000  -0.000000   0.000000   0.000000   0.000000  -0.000000
    22  H    0.000007  -0.000000   0.000000   0.000000   0.000000  -0.000000
    23  H   -0.000461   0.000011  -0.000001   0.000000   0.000000  -0.000000
    24  H    0.004655   0.001767  -0.000045   0.000004   0.000000   0.000000
    25  H   -0.072743   0.379715  -0.071630  -0.003013  -0.000624   0.000050
    26  H   -0.000000  -0.000001  -0.000041   0.004106  -0.026407   0.365640
    27  H   -0.000000  -0.000004   0.000012  -0.000318   0.005052  -0.040920
    28  H    0.000000   0.000006  -0.000076   0.001683   0.000118   0.004158
    29  H    0.001798   0.003776  -0.001379   0.000450  -0.000005   0.000000
              13         14         15         16         17         18
     1  C   -0.000000   0.000000  -0.000000   0.000000  -0.000004  -0.000495
     2  N   -0.000000  -0.000000   0.000000  -0.000001   0.000512   0.101055
     3  C   -0.000000  -0.000000   0.000000  -0.000003  -0.000043  -0.057094
     4  C   -0.000000   0.000000   0.000001   0.000059  -0.009396   0.009583
     5  C    0.000000  -0.000000  -0.000028  -0.000021   0.002594  -0.001978
     6  N   -0.000000  -0.000001   0.000307  -0.002264   0.012502  -0.018504
     7  N    0.000000  -0.000003   0.000697  -0.000063  -0.009863   0.000610
     8  C   -0.000103   0.000573   0.004319  -0.002698  -0.005476   0.000572
     9  N    0.000214   0.000735  -0.071578  -0.000580   0.000770  -0.000010
    10  C   -0.019631  -0.025694   0.281244  -0.017597  -0.000641  -0.000004
    11  N   -0.026081  -0.030097  -0.037416   0.000392   0.000002  -0.000000
    12  C    0.413940  -0.009787  -0.002214  -0.000011  -0.000000   0.000000
    13  C    4.845616   0.599107  -0.006519   0.000348   0.000000  -0.000000
    14  C    0.599107   5.057943   0.287494  -0.009924   0.000100   0.000000
    15  C   -0.006519   0.287494   5.148864   0.359763  -0.006923  -0.000140
    16  N    0.000348  -0.009924   0.359763   6.800260   0.116250   0.003156
    17  N    0.000000   0.000100  -0.006923   0.116250   6.839070   0.120232
    18  S   -0.000000   0.000000  -0.000140   0.003156   0.120232  15.891821
    19  H    0.000000  -0.000000   0.000000  -0.000000   0.000000   0.000024
    20  H    0.000000  -0.000000   0.000000  -0.000000   0.000000   0.000024
    21  H    0.000000  -0.000000   0.000000   0.000000  -0.000000  -0.000010
    22  H   -0.000000  -0.000000   0.000000  -0.000000  -0.000013   0.000978
    23  H    0.000000  -0.000000   0.000003  -0.000045   0.000138  -0.004159
    24  H   -0.000000  -0.000000   0.000000  -0.000002  -0.000121  -0.000701
    25  H   -0.000059   0.000369   0.005808   0.006450  -0.001214  -0.000143
    26  H   -0.062376   0.003187  -0.000089   0.000000   0.000000   0.000000
    27  H    0.355800  -0.037844   0.001314  -0.000000   0.000000   0.000000
    28  H   -0.040213   0.351631  -0.025829   0.000109  -0.000005   0.000000
    29  H   -0.000000   0.000005  -0.001141  -0.003941   0.256603  -0.008061
              19         20         21         22         23         24
     1  C    0.335739   0.368884   0.365721  -0.023746   0.000256  -0.000001
     2  N   -0.015818  -0.009474  -0.010194  -0.029771  -0.012251  -0.000131
     3  C   -0.015614   0.000438   0.001444   0.363860  -0.028610   0.007205
     4  C    0.000311  -0.000282  -0.000135  -0.058818   0.364083  -0.062223
     5  C    0.000043  -0.000001   0.000011   0.005020  -0.024652   0.353406
     6  N    0.000000   0.000000   0.000000   0.000173   0.002660  -0.030707
     7  N   -0.000000   0.000000   0.000000   0.000007  -0.000461   0.004655
     8  C   -0.000000  -0.000000  -0.000000  -0.000000   0.000011   0.001767
     9  N   -0.000000  -0.000000   0.000000   0.000000  -0.000001  -0.000045
    10  C    0.000000  -0.000000   0.000000   0.000000   0.000000   0.000004
    11  N    0.000000  -0.000000   0.000000   0.000000   0.000000   0.000000
    12  C   -0.000000   0.000000  -0.000000  -0.000000  -0.000000   0.000000
    13  C    0.000000   0.000000   0.000000  -0.000000   0.000000  -0.000000
    14  C   -0.000000  -0.000000  -0.000000  -0.000000  -0.000000  -0.000000
    15  C    0.000000   0.000000   0.000000   0.000000   0.000003   0.000000
    16  N   -0.000000  -0.000000   0.000000  -0.000000  -0.000045  -0.000002
    17  N    0.000000   0.000000  -0.000000  -0.000013   0.000138  -0.000121
    18  S    0.000024   0.000024  -0.000010   0.000978  -0.004159  -0.000701
    19  H    0.663447  -0.048877  -0.042127   0.006882  -0.000054   0.000000
    20  H   -0.048877   0.560127  -0.032184   0.000213   0.000027   0.000000
    21  H   -0.042127  -0.032184   0.558124   0.002112   0.000000   0.000000
    22  H    0.006882   0.000213   0.002112   0.583692   0.004802   0.002680
    23  H   -0.000054   0.000027   0.000000   0.004802   0.513168   0.004590
    24  H    0.000000   0.000000   0.000000   0.002680   0.004590   0.588454
    25  H    0.000000  -0.000000   0.000000   0.000000   0.000137   0.000147
    26  H    0.000000   0.000000   0.000000   0.000000   0.000000  -0.000000
    27  H   -0.000000   0.000000   0.000000   0.000000  -0.000000  -0.000000
    28  H    0.000000   0.000000  -0.000000  -0.000000   0.000000   0.000000
    29  H   -0.000000  -0.000000  -0.000000  -0.000002  -0.000070   0.000231
              25         26         27         28         29
     1  C   -0.000000   0.000000   0.000000  -0.000000   0.000002
     2  N    0.000000  -0.000000  -0.000000   0.000000  -0.000135
     3  C    0.000015   0.000000  -0.000000   0.000000   0.000062
     4  C    0.000115   0.000000   0.000000  -0.000000   0.001279
     5  C    0.002348  -0.000000  -0.000000   0.000000   0.000064
     6  N    0.025909   0.000000  -0.000000   0.000000  -0.006237
     7  N   -0.072743  -0.000000  -0.000000   0.000000   0.001798
     8  C    0.379715  -0.000001  -0.000004   0.000006   0.003776
     9  N   -0.071630  -0.000041   0.000012  -0.000076  -0.001379
    10  C   -0.003013   0.004106  -0.000318   0.001683   0.000450
    11  N   -0.000624  -0.026407   0.005052   0.000118  -0.000005
    12  C    0.000050   0.365640  -0.040920   0.004158   0.000000
    13  C   -0.000059  -0.062376   0.355800  -0.040213  -0.000000
    14  C    0.000369   0.003187  -0.037844   0.351631   0.000005
    15  C    0.005808  -0.000089   0.001314  -0.025829  -0.001141
    16  N    0.006450   0.000000  -0.000000   0.000109  -0.003941
    17  N   -0.001214   0.000000   0.000000  -0.000005   0.256603
    18  S   -0.000143   0.000000   0.000000   0.000000  -0.008061
    19  H    0.000000   0.000000  -0.000000   0.000000  -0.000000
    20  H   -0.000000   0.000000   0.000000   0.000000  -0.000000
    21  H    0.000000   0.000000   0.000000  -0.000000  -0.000000
    22  H    0.000000   0.000000   0.000000  -0.000000  -0.000002
    23  H    0.000137   0.000000  -0.000000   0.000000  -0.000070
    24  H    0.000147  -0.000000  -0.000000   0.000000   0.000231
    25  H    0.554465   0.000000   0.000001   0.000002   0.001332
    26  H    0.000000   0.580758   0.001069  -0.000187  -0.000000
    27  H    0.000001   0.001069   0.590009  -0.006302  -0.000000
    28  H    0.000002  -0.000187  -0.006302   0.575265   0.000001
    29  H    0.001332  -0.000000  -0.000000   0.000001   0.471427
 Mulliken charges:
               1
     1  C   -0.383412
     2  N   -0.246516
     3  C    0.128173
     4  C   -0.199335
     5  C    0.021302
     6  N   -0.093573
     7  N   -0.152585
     8  C    0.080418
     9  N   -0.128528
    10  C    0.232716
    11  N   -0.212397
    12  C   -0.009180
    13  C   -0.060043
    14  C   -0.187793
    15  C    0.062062
    16  N   -0.249637
    17  N   -0.315072
    18  S   -0.036757
    19  H    0.116045
    20  H    0.161104
    21  H    0.157238
    22  H    0.141932
    23  H    0.180427
    24  H    0.130792
    25  H    0.172565
    26  H    0.134339
    27  H    0.132132
    28  H    0.139639
    29  H    0.283943
 Sum of Mulliken charges =  -0.00000
 Mulliken charges with hydrogens summed into heavy atoms:
               1
     1  C    0.050975
     2  N   -0.246516
     3  C    0.270105
     4  C   -0.018908
     5  C    0.152094
     6  N   -0.093573
     7  N   -0.152585
     8  C    0.252983
     9  N   -0.128528
    10  C    0.232716
    11  N   -0.212397
    12  C    0.125159
    13  C    0.072088
    14  C   -0.048153
    15  C    0.062062
    16  N   -0.249637
    17  N   -0.031129
    18  S   -0.036757
 Electronic spatial extent (au):  <R**2>=           7213.6709
 Charge=             -0.0000 electrons
 Dipole moment (field-independent basis, Debye):
    X=             -0.3659    Y=             -2.4113    Z=              0.9101  Tot=              2.6032
 Quadrupole moment (field-independent basis, Debye-Ang):
   XX=            -59.7870   YY=           -120.1629   ZZ=           -112.1475
   XY=            -22.5801   XZ=             -6.0156   YZ=             -0.8715
 Traceless Quadrupole moment (field-independent basis, Debye-Ang):
   XX=             37.5788   YY=            -22.7971   ZZ=            -14.7817
   XY=            -22.5801   XZ=             -6.0156   YZ=             -0.8715
 Octapole moment (field-independent basis, Debye-Ang**2):
  XXX=            -28.3246  YYY=            -13.5136  ZZZ=             -0.4648  XYY=             12.9575
  XXY=            -25.0641  XXZ=             21.0835  XZZ=              5.8593  YZZ=             -1.8714
  YYZ=              4.1223  XYZ=              1.6197
 Hexadecapole moment (field-independent basis, Debye-Ang**3):
 XXXX=          -5961.7553 YYYY=          -1182.7095 ZZZZ=           -208.2583 XXXY=           -360.4918
 XXXZ=           -133.5232 YYYX=            -95.1651 YYYZ=              0.6824 ZZZX=              5.5718
 ZZZY=              0.1455 XXYY=          -1629.7489 XXZZ=          -1472.8547 YYZZ=           -233.5824
 XXYZ=             19.9915 YYXZ=            -35.4410 ZZXY=             -0.4200
 N-N= 1.291669056156D+03 E-N=-5.321443431675D+03  KE= 1.160706008651D+03
 PrsmSu:  requested number of processors reduced to:  13 ShMem   1 Linda.
 Calling FoFJK, ICntrl=      2127 FMM=F ISym2X=0 I1Cent= 0 IOpClX= 0 NMat=1 NMatS=1 NMatT=0.
 ***** Axes restored to original set *****
 -------------------------------------------------------------------
 Center     Atomic                   Forces (Hartrees/Bohr)
 Number     Number              X              Y              Z
 -------------------------------------------------------------------
      1        6          -0.038365667    0.025062605   -0.039742699
      2        7          -0.104065897   -0.025661872    0.007592384
      3        6          -0.012554535   -0.012493972    0.059609007
      4        6           0.032519553   -0.005087350   -0.039441601
      5        6          -0.035929235    0.016183532    0.026281111
      6        7           0.001647297    0.031052448   -0.008678117
      7        7          -0.020201082   -0.002815776   -0.003597697
      8        6           0.019862013    0.022591557    0.003805700
      9        7          -0.003002147   -0.006572200    0.002533588
     10        6           0.027791993   -0.007947486    0.008622226
     11        7           0.011893175   -0.011788253    0.003513024
     12        6           0.006326120   -0.007387028    0.012765238
     13        6          -0.028766263   -0.014089373   -0.008624038
     14        6          -0.005344839    0.002092335    0.012278821
     15        6          -0.001554621    0.006632502   -0.016159569
     16        7           0.070372434    0.040963555   -0.072597516
     17        7           0.015668108   -0.017957026    0.016217683
     18       16           0.013165163    0.027879246   -0.023690719
     19        1           0.034296398   -0.011685184    0.007393502
     20        1           0.038065179   -0.021687361    0.008433271
     21        1           0.032265642   -0.001044411    0.016267286
     22        1          -0.001579630   -0.004152501   -0.005587077
     23        1           0.006517915    0.018657405    0.001559541
     24        1           0.002404783   -0.004018657   -0.006867489
     25        1          -0.016653682    0.001472920   -0.016374423
     26        1          -0.024221333   -0.004182177    0.020529745
     27        1          -0.013055723   -0.016150671    0.023638654
     28        1          -0.012287620   -0.005251286    0.012409076
     29        1           0.004786501   -0.012615521   -0.002088912
 -------------------------------------------------------------------
 Cartesian Forces:  Max     0.104065897 RMS     0.024443107

 GradGradGradGradGradGradGradGradGradGradGradGradGradGradGradGradGradGrad
 Berny optimization.
 FormGI is forming the generalized inverse of G from B-inverse, IUseBI=4.
 Internal  Forces:  Max     0.487411510 RMS     0.067687295
 Search for a local minimum.
 Step number   1 out of a maximum of  135
 All quantities printed in internal units (Hartrees-Bohrs-Radians)
 Mixed Optimization -- RFO/linear search
 Second derivative matrix not updated -- first step.
 ITU=  0
     Eigenvalues ---    0.00231   0.00264   0.00271   0.00481   0.00668
     Eigenvalues ---    0.00834   0.01177   0.01371   0.01462   0.01472
     Eigenvalues ---    0.01573   0.01919   0.01977   0.02049   0.02169
     Eigenvalues ---    0.02268   0.02526   0.02698   0.03136   0.03241
     Eigenvalues ---    0.03244   0.03393   0.03652   0.04031   0.04438
     Eigenvalues ---    0.05275   0.06080   0.09538   0.10137   0.10235
     Eigenvalues ---    0.12348   0.12655   0.13294   0.13685   0.15111
     Eigenvalues ---    0.15704   0.15804   0.15980   0.15982   0.15998
     Eigenvalues ---    0.15999   0.16000   0.16460   0.18277   0.20242
     Eigenvalues ---    0.21078   0.22005   0.22007   0.22527   0.22885
     Eigenvalues ---    0.23680   0.23925   0.24704   0.24810   0.24933
     Eigenvalues ---    0.24971   0.25000   0.25000   0.26065   0.29263
     Eigenvalues ---    0.29494   0.31715   0.31775   0.31943   0.34758
     Eigenvalues ---    0.35452   0.35668   0.35870   0.36419   0.42969
     Eigenvalues ---    0.45123   0.45126   0.45173   0.53445   0.54587
     Eigenvalues ---    0.61096   0.62261   0.72257   0.73766   0.75342
     Eigenvalues ---    0.76152
 RFO step:  Lambda=-6.45370004D-01 EMin= 2.30587725D-03
 Linear search not attempted -- first point.
 Maximum step size (   0.300) exceeded in Quadratic search.
    -- Step size scaled by   0.366
 Iteration  1 RMS(Cart)=  0.17484457 RMS(Int)=  0.01684384
 Iteration  2 RMS(Cart)=  0.18552022 RMS(Int)=  0.00877351
 Iteration  3 RMS(Cart)=  0.03722931 RMS(Int)=  0.00032827
 Iteration  4 RMS(Cart)=  0.00067402 RMS(Int)=  0.00013871
 Iteration  5 RMS(Cart)=  0.00000030 RMS(Int)=  0.00013871
 Variable       Old X    -DE/DX   Delta X   Delta X   Delta X     New X
                                 (Linear)    (Quad)   (Total)
    R1        3.43225  -0.06220   0.00000  -0.02930  -0.02932   3.40293
    R2        2.21385  -0.02345   0.00000  -0.00971  -0.00973   2.20412
    R3        2.15683  -0.02564   0.00000  -0.00998  -0.00998   2.14685
    R4        2.11257  -0.01481   0.00000  -0.00563  -0.00563   2.10694
    R5        2.53439   0.00435   0.00000   0.00172   0.00176   2.53615
    R6        4.16245   0.00277   0.00000   0.00040   0.00029   4.16274
    R7        2.55007   0.08027   0.00000   0.02531   0.02543   2.57550
    R8        2.03651   0.00119   0.00000   0.00049   0.00051   2.03702
    R9        2.64694   0.01761   0.00000   0.00630   0.00639   2.65333
   R10        2.03432   0.00606   0.00000   0.00220   0.00220   2.03651
   R11        2.40754   0.04280   0.00000   0.01185   0.01197   2.41951
   R12        2.04604   0.00486   0.00000   0.00178   0.00178   2.04781
   R13        2.49057   0.04432   0.00000   0.01322   0.01332   2.50389
   R14        2.40357   0.05129   0.00000   0.01401   0.01412   2.41769
   R15        2.49407   0.04318   0.00000   0.01305   0.01317   2.50724
   R16        2.10949  -0.02016   0.00000  -0.00765  -0.00765   2.10184
   R17        2.39910   0.05956   0.00000   0.01588   0.01596   2.41506
   R18        2.67708  -0.10997   0.00000  -0.03744  -0.03744   2.63964
   R19        3.30988  -0.09366   0.00000  -0.04294  -0.04298   3.26689
   R20        2.42382  -0.07534   0.00000  -0.02016  -0.02016   2.40366
   R21        2.77586   0.01433   0.00000   0.00522   0.00522   2.78108
   R22        2.16158  -0.03129   0.00000  -0.01221  -0.01221   2.14937
   R23        2.65129   0.02855   0.00000   0.00953   0.00953   2.66082
   R24        2.11368  -0.01893   0.00000  -0.00720  -0.00720   2.10648
   R25        2.04947   0.00282   0.00000   0.00103   0.00103   2.05050
   R26        2.99910  -0.13420   0.00000  -0.05591  -0.05603   2.94307
   R27        3.47792  -0.03112   0.00000  -0.01595  -0.01607   3.46185
   R28        4.11572  -0.03102   0.00000  -0.01642  -0.01655   4.09917
   R29        1.91833   0.00361   0.00000   0.00120   0.00120   1.91954
   R30        3.50605   0.00138   0.00000   0.00073   0.00075   3.50680
    A1        1.85713  -0.00882   0.00000  -0.00351  -0.00354   1.85359
    A2        2.08353  -0.01434   0.00000  -0.00674  -0.00679   2.07674
    A3        2.22185  -0.01288   0.00000  -0.00640  -0.00644   2.21541
    A4        1.51726   0.02554   0.00000   0.01291   0.01296   1.53022
    A5        1.60936   0.02321   0.00000   0.01124   0.01126   1.62062
    A6        1.92445   0.01542   0.00000   0.00694   0.00683   1.93128
    A7        1.70515   0.03424   0.00000   0.01518   0.01525   1.72040
    A8        2.62227  -0.04578   0.00000  -0.02077  -0.02069   2.60157
    A9        1.90905   0.00961   0.00000   0.00481   0.00469   1.91374
   A10        1.90342   0.05664   0.00000   0.02538   0.02549   1.92891
   A11        2.17260  -0.03576   0.00000  -0.01551  -0.01554   2.15705
   A12        2.19017  -0.01913   0.00000  -0.00914  -0.00921   2.18096
   A13        2.00285   0.01338   0.00000   0.00916   0.00907   2.01192
   A14        1.94507   0.00288   0.00000   0.00168   0.00174   1.94681
   A15        2.03422  -0.00947   0.00000  -0.00523  -0.00523   2.02899
   A16        1.88725  -0.00026   0.00000   0.00074   0.00093   1.88819
   A17        2.16742   0.00552   0.00000   0.00208   0.00190   2.16931
   A18        2.22842  -0.00578   0.00000  -0.00305  -0.00322   2.22520
   A19        1.99928   0.08423   0.00000   0.03382   0.03358   2.03287
   A20        1.80804  -0.00078   0.00000   0.00146   0.00193   1.80997
   A21        2.00679   0.06125   0.00000   0.02517   0.02491   2.03170
   A22        2.18671  -0.04021   0.00000  -0.01695  -0.01693   2.16979
   A23        2.08938  -0.02218   0.00000  -0.00876  -0.00874   2.08063
   A24        1.92253  -0.00543   0.00000   0.00220   0.00247   1.92501
   A25        1.87943   0.18717   0.00000   0.07538   0.07531   1.95475
   A26        2.07822   0.10815   0.00000   0.04610   0.04607   2.12429
   A27        2.32041  -0.29867   0.00000  -0.12330  -0.12333   2.19708
   A28        2.15447  -0.48741   0.00000  -0.19923  -0.19923   1.95524
   A29        2.08455  -0.19637   0.00000  -0.08307  -0.08310   2.00145
   A30        2.13088   0.09048   0.00000   0.03798   0.03796   2.16884
   A31        2.06500   0.10433   0.00000   0.04428   0.04426   2.10926
   A32        2.10363  -0.03863   0.00000  -0.01632  -0.01632   2.08731
   A33        1.89808   0.04559   0.00000   0.02013   0.02013   1.91821
   A34        2.27930  -0.00646   0.00000  -0.00352  -0.00353   2.27577
   A35        1.91167   0.03640   0.00000   0.01654   0.01654   1.92822
   A36        2.34180   0.04364   0.00000   0.01766   0.01737   2.35918
   A37        2.36872  -0.02758   0.00000  -0.01321  -0.01366   2.35506
   A38        2.56898   0.00960   0.00000   0.00486   0.00510   2.57408
   A39        1.81727  -0.00638   0.00000  -0.00318  -0.00327   1.81400
   A40        1.80624  -0.00134   0.00000  -0.00098  -0.00105   1.80519
   A41        2.26423   0.06407   0.00000   0.02545   0.02486   2.28909
   A42        1.81683   0.01057   0.00000   0.00427   0.00423   1.82107
   A43        1.78781  -0.00117   0.00000  -0.00102  -0.00097   1.78683
    D1        0.07562   0.00343   0.00000   0.00203   0.00202   0.07764
    D2       -2.64125  -0.00478   0.00000  -0.00215  -0.00210  -2.64335
    D3       -1.59709  -0.01691   0.00000  -0.00900  -0.00900  -1.60610
    D4        1.96923  -0.02512   0.00000  -0.01319  -0.01312   1.95610
    D5        1.92484   0.02056   0.00000   0.01091   0.01086   1.93570
    D6       -0.79202   0.01235   0.00000   0.00673   0.00674  -0.78528
    D7        0.09634   0.00071   0.00000  -0.00002   0.00001   0.09634
    D8        2.18651  -0.00738   0.00000  -0.00346  -0.00350   2.18301
    D9       -2.17363   0.00762   0.00000   0.00329   0.00335  -2.17028
   D10        2.57469   0.00984   0.00000   0.00332   0.00331   2.57800
   D11       -0.37873   0.00098   0.00000  -0.00028  -0.00030  -0.37903
   D12       -0.78543  -0.00467   0.00000  -0.00307  -0.00297  -0.78840
   D13        2.54434  -0.01352   0.00000  -0.00667  -0.00658   2.53776
   D14        2.96308   0.00202   0.00000  -0.00144  -0.00137   2.96171
   D15        0.26918  -0.00730   0.00000  -0.00606  -0.00599   0.26319
   D16        2.25090  -0.00378   0.00000  -0.00062  -0.00063   2.25027
   D17       -0.10936  -0.00626   0.00000  -0.00388  -0.00394  -0.11330
   D18       -1.08122   0.00308   0.00000   0.00223   0.00227  -1.07895
   D19        2.84170   0.00060   0.00000  -0.00104  -0.00104   2.84066
   D20        0.43490  -0.00764   0.00000  -0.00294  -0.00294   0.43196
   D21       -2.48780  -0.02538   0.00000  -0.01054  -0.01055  -2.49835
   D22       -2.39033   0.02401   0.00000   0.00868   0.00863  -2.38170
   D23        0.73756  -0.01391   0.00000  -0.00892  -0.00897   0.72859
   D24       -0.07110   0.03302   0.00000   0.01575   0.01572  -0.05538
   D25        3.05679  -0.00491   0.00000  -0.00184  -0.00189   3.05490
   D26        3.13849  -0.05164   0.00000  -0.02526  -0.02531   3.11318
   D27        0.01122  -0.01211   0.00000  -0.00693  -0.00703   0.00419
   D28        2.89000   0.09275   0.00000   0.04514   0.04500   2.93500
   D29       -3.08111  -0.06435   0.00000  -0.03152  -0.03152  -3.11264
   D30        0.08722  -0.01430   0.00000  -0.00792  -0.00801   0.07921
   D31       -2.38231   0.04787   0.00000   0.02232   0.02229  -2.36002
   D32        0.73415   0.00044   0.00000  -0.00003  -0.00013   0.73402
   D33       -3.03503   0.04006   0.00000   0.02016   0.02047  -3.01456
   D34        0.01182  -0.00979   0.00000  -0.00450  -0.00518   0.00664
   D35        2.55587   0.04364   0.00000   0.02330   0.02346   2.57932
   D36       -0.47252   0.06484   0.00000   0.03685   0.03669  -0.43583
   D37        0.35413   0.01355   0.00000   0.00935   0.00893   0.36307
   D38       -2.91091  -0.00965   0.00000  -0.00562  -0.00549  -2.91640
   D39        0.08634   0.01550   0.00000   0.00837   0.00836   0.09471
   D40       -3.13639  -0.00300   0.00000  -0.00162  -0.00161  -3.13801
   D41        0.22801  -0.02206   0.00000  -0.01217  -0.01218   0.21582
   D42       -2.97719  -0.01473   0.00000  -0.00804  -0.00804  -2.98522
   D43       -2.83550  -0.00430   0.00000  -0.00255  -0.00256  -2.83806
   D44        0.24249   0.00304   0.00000   0.00158   0.00159   0.24408
   D45        2.95403   0.00833   0.00000   0.00458   0.00457   2.95859
   D46       -0.10822  -0.00249   0.00000  -0.00137  -0.00136  -0.10958
   D47        0.05161   0.01913   0.00000   0.01111   0.01106   0.06267
   D48        3.13908   0.01774   0.00000   0.00870   0.00888  -3.13522
   D49        0.58157   0.01572   0.00000   0.00851   0.00856   0.59013
   D50        2.65302  -0.00883   0.00000  -0.00440  -0.00445   2.64857
   D51       -1.07087  -0.00766   0.00000  -0.00458  -0.00450  -1.07537
   D52       -0.30907  -0.00603   0.00000  -0.00250  -0.00252  -0.31159
         Item               Value     Threshold  Converged?
 Maximum Force            0.487412     0.000450     NO 
 RMS     Force            0.067687     0.000300     NO 
 Maximum Displacement     2.351560     0.001800     NO 
 RMS     Displacement     0.389939     0.001200     NO 
 Predicted change in Energy=-2.247032D-01
 GradGradGradGradGradGradGradGradGradGradGradGradGradGradGradGradGradGrad

                          Input orientation:                          
 ---------------------------------------------------------------------
 Center     Atomic      Atomic             Coordinates (Angstroms)
 Number     Number       Type             X           Y           Z
 ---------------------------------------------------------------------
      1          6           0        2.566781   -0.449030    0.194564
      2          7           0        4.212482   -0.117212   -0.456798
      3          6           0        3.857138    0.524227   -1.580831
      4          6           0        4.783759    1.469770   -1.904560
      5          6           0        5.255832    1.418834   -3.225923
      6          7           0        6.526154    1.577077   -3.202782
      7          7           0        7.149475    1.523350   -4.370779
      8          6           0        8.324630    1.955135   -4.107334
      9          7           0        9.165523    2.039061   -5.130169
     10          6           0       10.308791    1.570416   -4.803710
     11          7           0       11.266609    1.788375   -5.796803
     12          6           0       12.429594    1.955315   -5.309473
     13          6           0       12.519915    1.758030   -3.853869
     14          6           0       11.445223    1.164267   -3.164612
     15          6           0       10.611730    0.929695   -3.226899
     16          7           0        9.727164    0.374218   -2.071695
     17          7           0        7.936834    0.054094   -1.852134
     18         16           0        6.349738   -0.642828   -0.547987
     19          1           0        1.814887   -0.075941   -0.615301
     20          1           0        2.096471    0.298467    0.909196
     21          1           0        2.067855   -1.442436    0.280112
     22          1           0        2.888714    0.424530   -2.043626
     23          1           0        5.531235    1.571182   -1.134897
     24          1           0        4.628835    1.241889   -4.091876
     25          1           0        8.683963    2.212531   -3.086687
     26          1           0       13.362148    2.150993   -5.930541
     27          1           0       13.523205    2.078668   -3.488956
     28          1           0       11.734068    0.922487   -2.147015
     29          1           0        7.623599   -0.227793   -2.776376
 ---------------------------------------------------------------------
                    Distance matrix (angstroms):
                    1          2          3          4          5
     1  C    0.000000
     2  N    1.800752   0.000000
     3  C    2.400891   1.342074   0.000000
     4  C    3.605982   2.222810   1.362894   0.000000
     5  C    4.734938   3.334077   2.337305   1.404082   0.000000
     6  N    5.596759   3.970407   3.295886   2.175508   1.280350
     7  N    6.762671   5.161067   4.429620   3.417853   2.215288
     8  C    7.578863   5.876291   5.328151   4.198280   3.237596
     9  N    8.836672   7.143005   6.562885   5.470694   4.392780
    10  C    9.433961   7.675202   7.287337   6.240286   5.295733
    11  N   10.797661   9.050284   8.618164   7.568250   6.547934
    12  C   11.547744   9.765488   9.457155   8.383792   7.489450
    13  C   10.969312   9.168973   9.040612   7.983170   7.299060
    14  C    9.628786   7.828601   7.777984   6.786469   6.194927
    15  C    8.850339   7.051231   6.964083   6.000459   5.378188
    16  N    7.555446   5.767246   5.892423   5.066105   4.734583
    17  N    5.768846   3.980843   4.115647   3.456699   3.307202
    18  S    3.860014   2.202829   2.939700   2.958995   3.552242
    19  H    1.166371   2.403183   2.337358   3.586867   4.570536
    20  H    1.136064   2.552691   3.057966   4.063336   5.323157
    21  H    1.114944   2.626533   3.245367   4.542012   5.535552
    22  H    2.424096   2.136322   1.077945   2.168655   2.826608
    23  H    3.825796   2.247132   2.024246   1.077675   2.114579
    24  H    5.048252   3.903114   2.723216   2.204605   1.083656
    25  H    7.434408   5.686665   5.330685   4.142548   3.521565
    26  H   12.681364  10.900597  10.578826   9.500597   8.576910
    27  H   11.832193  10.035210   9.974471   8.902751   8.297832
    28  H    9.560502   7.778950   7.907287   6.976037   6.586194
    29  H    5.869143   4.126547   4.022572   3.421473   2.918869
                    6          7          8          9         10
     6  N    0.000000
     7  N    1.325002   0.000000
     8  C    2.048330   1.279387   0.000000
     9  N    3.300684   2.215193   1.326776   0.000000
    10  C    4.107475   3.189188   2.137719   1.277993   0.000000
    11  N    5.407911   4.365155   3.396669   2.218515   1.396838
    12  C    6.279475   5.380279   4.277367   3.270065   2.213990
    13  C    6.031735   5.400361   4.207554   3.599981   2.413808
    14  C    4.936507   4.476296   3.354444   3.134599   2.035455
    15  C    4.136619   3.694333   2.656599   2.635270   1.728765
    16  N    3.601762   3.640160   2.934318   3.527237   3.038599
    17  N    2.476640   3.020301   2.974940   4.024335   4.078873
    18  S    3.465118   4.466055   4.828930   6.009789   6.219624
    19  H    5.623484   6.717081   7.661352   8.881954   9.612474
    20  H    6.177808   7.410218   8.167013   9.459128  10.084511
    21  H    6.412834   7.499968   8.363038   9.579605  10.140786
    22  H    3.987854   4.977663   6.012556   7.178564   7.999291
    23  H    2.294787   3.618275   4.097054   5.421176   6.023722
    24  H    2.121947   2.551594   3.764022   4.721765   5.733806
    25  H    2.252425   2.116250   1.112246   2.106611   2.449601
    26  H    7.382470   6.436156   5.360880   4.273733   3.306026
    27  H    7.020841   6.458361   5.236681   4.656666   3.509894
    28  H    5.354017   5.130756   4.066138   4.091866   3.083708
    29  H    2.154940   2.415246   2.651051   3.613378   3.814957
                   11         12         13         14         15
    11  N    0.000000
    12  C    1.271965   0.000000
    13  C    2.312291   1.471687   0.000000
    14  C    2.711059   2.489010   1.408045   0.000000
    15  C    2.787581   2.948498   2.172648   0.868109   0.000000
    16  N    4.271552   4.504020   3.590339   2.184117   1.557404
    17  N    5.445690   5.979358   5.283461   3.906900   3.132367
    18  S    7.591867   8.147806   7.400274   6.006354   5.273895
    19  H   10.938862  11.782753  11.333552  10.038948   9.231262
    20  H   11.457823  12.173349  11.552719  10.234485   9.487644
    21  H   11.488434  12.253726  11.686673  10.324536   9.535404
    22  H    9.280924  10.199875   9.890158   8.661274   7.829451
    23  H    7.394259   8.072298   7.501291   6.265826   5.531673
    24  H    6.874989   7.927380   7.911522   6.879606   6.053155
    25  H    3.767586   4.363105   3.938231   2.954570   2.319831
    26  H    2.130883   1.137398   2.275158   3.506935   4.045498
    27  H    3.240780   2.127318   1.114702   2.293324   3.140939
    28  H    3.780111   3.398769   2.056463   1.085078   1.557512
    29  H    5.143874   5.854924   5.392439   4.085752   3.235997
                   16         17         18         19         20
    16  N    0.000000
    17  N    1.831930   0.000000
    18  S    3.842275   2.169188   0.000000
    19  H    8.057783   6.246992   4.570642   0.000000
    20  H    8.192615   6.464868   4.593442   1.594855   0.000000
    21  H    8.215610   6.421136   4.433920   1.653199   1.851299
    22  H    6.838693   5.065315   3.918531   1.855718   3.059853
    23  H    4.462750   2.933069   2.432335   4.098077   4.194726
    24  H    5.552202   4.167752   4.367244   4.662784   5.684509
    25  H    2.344754   2.596376   4.477352   7.650429   7.938878
    26  H    5.591129   7.103831   9.270988  12.905435  13.308995
    27  H    4.395873   6.163247   8.216718  12.246834  12.372676
    28  H    2.081810   3.906410   5.830790  10.086286  10.129813
    29  H    2.298691   1.015775   2.600133   6.199552   6.664048
                   21         22         23         24         25
    21  H    0.000000
    22  H    3.091784   0.000000
    23  H    4.804076   3.020516   0.000000
    24  H    5.733978   2.809168   3.109097   0.000000
[...]
   A14        2.00929   0.00079  -0.00286  -0.00317  -0.00619   2.00310
   A15        2.05159   0.00055  -0.00012   0.00319   0.00301   2.05460
   A16        1.99005   0.00016   0.00093   0.00740   0.00767   1.99772
   A17        2.19253  -0.00060   0.00013  -0.00681  -0.00631   2.18622
   A18        2.07471   0.00025  -0.00017  -0.00118  -0.00113   2.07358
   A19        1.98103   0.00278  -0.00027   0.00293   0.00428   1.98530
   A20        1.85962   0.00023  -0.00202  -0.00087  -0.00482   1.85480
   A21        2.02848   0.00047  -0.00147  -0.00105  -0.00153   2.02695
   A22        2.04002   0.00013   0.00145   0.00827   0.00883   2.04884
   A23        2.20197  -0.00075   0.00027  -0.00244  -0.00285   2.19912
   A24        2.09780  -0.00049   0.00194   0.00742   0.00689   2.10470
   A25        2.04698   0.01162   0.00093   0.01278   0.01448   2.06147
   A26        2.07485   0.00718  -0.00274  -0.00837  -0.01281   2.06205
   A27        2.16106  -0.01882   0.00214  -0.00494  -0.00210   2.15897
   A28        2.07043  -0.04529   0.00102  -0.00379  -0.00277   2.06766
   A29        2.15270  -0.02626   0.00001  -0.00101  -0.00101   2.15169
   A30        2.02171   0.01287   0.00022   0.00006   0.00028   2.02199
   A31        2.10873   0.01339  -0.00022   0.00099   0.00076   2.10949
   A32        2.05918  -0.01049  -0.00116   0.00100  -0.00019   2.05899
   A33        2.10734   0.00553   0.00049  -0.00031   0.00014   2.10748
   A34        2.11646   0.00497   0.00064  -0.00057   0.00004   2.11650
   A35        2.12782   0.00042   0.00092   0.00194   0.00286   2.13067
   A36        2.25101  -0.00147   0.00168  -0.01081  -0.01154   2.23947
   A37        2.08485  -0.00459   0.00285  -0.00577  -0.00521   2.07963
   A38        2.21890   0.00040  -0.00230  -0.00764  -0.00870   2.21020
   A39        2.05388  -0.00147   0.00114   0.00120   0.00147   2.05535
   A40        2.01009   0.00114   0.00126   0.00678   0.00721   2.01729
   A41        2.42202   0.00006  -0.02468  -0.07270  -0.09892   2.32311
   A42        1.63497   0.00105  -0.00168  -0.00046  -0.00242   1.63254
   A43        1.53441   0.00423  -0.00351   0.00951   0.00588   1.54029
    D1       -0.10553   0.00004  -0.00774  -0.01378  -0.02145  -0.12698
    D2       -2.20807   0.00127   0.02678   0.08225   0.10879  -2.09928
    D3       -2.24299  -0.00006  -0.00816  -0.01643  -0.02456  -2.26755
    D4        1.93765   0.00117   0.02636   0.07961   0.10569   2.04334
    D5        2.02013  -0.00065  -0.00727  -0.01572  -0.02276   1.99738
    D6       -0.08241   0.00058   0.02725   0.08031   0.10749   0.02508
    D7        0.08952  -0.00005   0.00593   0.01350   0.01948   0.10901
    D8        2.22246   0.00111   0.00536   0.01886   0.02435   2.24681
    D9       -2.03175  -0.00053   0.00658   0.01341   0.01983  -2.01192
   D10       -3.02499  -0.00045   0.00868   0.01217   0.02114  -3.00385
   D11        0.01848  -0.00028   0.00300  -0.00323  -0.00040   0.01808
   D12       -0.69642  -0.00010  -0.02030  -0.06148  -0.08065  -0.77707
   D13        2.34706   0.00007  -0.02598  -0.07688  -0.10220   2.24486
   D14        2.52053   0.00048   0.01046   0.09234   0.10644   2.62698
   D15        0.24316   0.00023   0.03445   0.15240   0.18489   0.42805
   D16        2.51432   0.00042   0.03258   0.08319   0.11556   2.62987
   D17       -0.37411   0.00014   0.03169   0.07165   0.10339  -0.27072
   D18       -0.53457   0.00040   0.03788   0.09797   0.13593  -0.39864
   D19        2.86019   0.00012   0.03699   0.08643   0.12376   2.98395
   D20        0.02872   0.00026   0.00053   0.00888   0.00946   0.03818
   D21        3.06906   0.00083  -0.00549  -0.00622  -0.01206   3.05700
   D22       -2.75137   0.00015  -0.00462  -0.02516  -0.02929  -2.78066
   D23        0.14335  -0.00066  -0.00059  -0.02788  -0.02813   0.11522
   D24        0.13158   0.00046  -0.00406  -0.01418  -0.01797   0.11362
   D25        3.02630  -0.00035  -0.00003  -0.01690  -0.01681   3.00949
   D26        2.53876  -0.00121   0.00872  -0.00857   0.00060   2.53936
   D27       -0.37400  -0.00033   0.00495  -0.00507   0.00043  -0.37357
   D28       -2.86585   0.00378  -0.01192   0.01940   0.00870  -2.85716
   D29        2.31430  -0.00231  -0.02321  -0.08647  -0.10907   2.20524
   D30       -0.66732  -0.00132  -0.02477  -0.11600  -0.13958  -0.80690
   D31       -2.87617   0.00095  -0.00384  -0.06317  -0.06497  -2.94115
   D32        0.08853  -0.00004  -0.00202  -0.02939  -0.03024   0.05829
   D33       -1.59048  -0.00025   0.05406   0.09702   0.15246  -1.43802
   D34        1.57568   0.00109   0.04608   0.12022   0.16683   1.74251
   D35       -3.09126   0.00144   0.00894   0.02748   0.03596  -3.05530
   D36        0.02444   0.00046   0.01714   0.00299   0.02059   0.04503
   D37       -0.13471   0.00044  -0.02136   0.10223   0.08374  -0.05097
   D38        3.03316   0.00138  -0.02983   0.12679   0.09874   3.13190
   D39       -0.01833   0.00252  -0.00347  -0.00861  -0.01208  -0.03041
   D40        3.13407   0.00254  -0.00432  -0.01274  -0.01705   3.11702
   D41       -0.01885   0.00185  -0.00926   0.01392   0.00466  -0.01418
   D42       -3.13864   0.00083  -0.00302   0.00809   0.00507  -3.13358
   D43        3.11141   0.00181  -0.00836   0.01824   0.00988   3.12129
   D44       -0.00838   0.00079  -0.00213   0.01241   0.01028   0.00190
   D45       -3.11729   0.00016   0.00652   0.01126   0.01778  -3.09951
   D46        0.00238   0.00119   0.00026   0.01713   0.01738   0.01976
   D47        0.39364  -0.00268  -0.01060  -0.20980  -0.21628   0.17736
   D48       -3.05654   0.00031  -0.00597  -0.00376  -0.00953  -3.06607
   D49        0.11374  -0.00308   0.00897  -0.01891  -0.00893   0.10481
   D50        2.27546  -0.00140   0.02031   0.04576   0.06792   2.34338
   D51       -0.89419   0.00189   0.00569   0.06051   0.06725  -0.82694
   D52       -0.08184  -0.00049  -0.00441  -0.01588  -0.02027  -0.10211
         Item               Value     Threshold  Converged?
 Maximum Force            0.045286     0.000450     NO 
 RMS     Force            0.005985     0.000300     NO 
 Maximum Displacement     0.338822     0.001800     NO 
 RMS     Displacement     0.089303     0.001200     NO 
 Predicted change in Energy=-3.387347D-03
 GradGradGradGradGradGradGradGradGradGradGradGradGradGradGradGradGradGrad

                          Input orientation:                          
 ---------------------------------------------------------------------
 Center     Atomic      Atomic             Coordinates (Angstroms)
 Number     Number       Type             X           Y           Z
 ---------------------------------------------------------------------
      1          6           0        2.726359   -0.617930    0.207040
      2          7           0        3.621497    0.367342   -0.335595
      3          6           0        3.423036    0.783816   -1.524826
      4          6           0        4.452364    1.640888   -2.086190
      5          6           0        4.770056    1.750050   -3.388290
      6          7           0        6.044177    2.264319   -3.630970
      7          7           0        6.605042    1.771974   -4.644990
      8          6           0        7.997583    2.096634   -4.531428
      9          7           0        8.803879    1.126066   -4.609774
     10          6           0       10.167024    1.293864   -4.272679
     11          7           0       10.977398    1.800903   -5.187032
     12          6           0       12.286141    1.869734   -4.912349
     13          6           0       12.832561    1.467579   -3.701118
     14          6           0       11.970712    0.986865   -2.726132
     15          6           0       10.597479    0.864159   -2.989888
     16          7           0        9.828847    0.327519   -1.952348
     17          7           0        8.609726   -0.003470   -2.183524
     18         16           0        7.519934   -0.552425   -1.087520
     19          1           0        1.852931   -0.844207   -0.421636
     20          1           0        2.382947   -0.280264    1.190501
     21          1           0        3.290481   -1.543358    0.371419
     22          1           0        2.595842    0.450766   -2.167850
     23          1           0        5.147157    2.052091   -1.360824
     24          1           0        4.227773    1.283609   -4.208591
     25          1           0        8.254554    3.127202   -4.263035
     26          1           0       12.915396    2.271109   -5.701775
     27          1           0       13.897562    1.548301   -3.519908
     28          1           0       12.320458    0.691097   -1.743713
     29          1           0        8.273432    0.053136   -3.154735
 ---------------------------------------------------------------------
                    Distance matrix (angstroms):
                    1          2          3          4          5
     1  C    0.000000
     2  N    1.437528   0.000000
     3  C    2.334440   1.275581   0.000000
     4  C    3.652431   2.318802   1.452315   0.000000
     5  C    4.765546   3.542600   2.494107   1.344734   0.000000
     6  N    5.834860   4.508591   3.673978   2.304100   1.395260
     7  N    6.655676   5.426363   4.564762   3.346441   2.224174
     8  C    7.589976   6.304410   5.629354   4.330758   3.441485
     9  N    7.948551   6.760277   6.211884   5.056599   4.260646
    10  C    8.893050   7.694348   7.300152   6.128499   5.487943
    11  N   10.150193   8.927531   8.456631   7.226126   6.462907
    12  C   11.125917   9.913622   9.550349   8.331122   7.669982
    13  C   11.034417   9.868180   9.682094   8.536143   8.073515
    14  C    9.830408   8.706771   8.634068   7.573825   7.271201
    15  C    8.623889   7.480402   7.322943   6.259586   5.907825
    16  N    7.483459   6.414567   6.436256   5.536192   5.447651
    17  N    6.380154   5.332426   5.287292   4.471805   4.389689
    18  S    4.965736   4.075435   4.331437   3.901018   4.261076
    19  H    1.099687   2.145479   2.516489   3.962763   4.903144
    20  H    1.095056   2.069389   3.096296   4.325508   5.548495
    21  H    1.096207   2.064029   3.004838   4.186793   5.212590
    22  H    2.607537   2.101448   1.099387   2.206747   2.811551
    23  H    3.930327   2.493414   2.146628   1.085348   2.084240
    24  H    5.036655   4.025818   2.846049   2.163949   1.088362
    25  H    8.035454   6.671344   6.027671   4.626492   3.847526
    26  H   12.127535  10.899393  10.476824   9.224562   8.483530
    27  H   11.974075  10.822755  10.690205   9.553841   9.130685
    28  H    9.877536   8.818136   8.900597   7.932609   7.799653
    29  H    6.520879   5.448556   5.168833   4.273558   3.899706
                    6          7          8          9         10
     6  N    0.000000
     7  N    1.259052   0.000000
     8  C    2.157484   1.434388   0.000000
     9  N    3.141597   2.292012   1.264221   0.000000
    10  C    4.283858   3.613159   2.327631   1.414198   0.000000
    11  N    5.193531   4.405921   3.065383   2.347939   1.322814
    12  C    6.384336   5.688227   4.311417   3.573618   2.287239
    13  C    6.835341   6.305993   4.945922   4.143980   2.731656
    14  C    6.129799   5.752289   4.502937   3.687318   2.395693
    15  C    4.806662   4.416226   3.264170   2.430973   1.419680
    16  N    4.570853   4.441812   3.624218   2.958065   2.536163
    17  N    3.717527   3.637276   3.209020   2.683325   2.910811
    18  S    4.071982   4.346890   4.371060   4.107568   4.534436
    19  H    6.126116   6.874859   7.955858   8.350937   9.408827
    20  H    6.567046   7.489375   8.361475   8.766374   9.639299
    21  H    6.172549   6.866011   7.710010   7.895294   8.769511
    22  H    4.161815   4.894436   6.121617   6.705128   7.903412
    23  H    2.450153   3.604115   4.263759   4.978434   5.852595
    24  H    2.143540   2.465838   3.869975   4.596359   5.939606
    25  H    2.455574   2.168738   1.095509   2.103932   2.649295
    26  H    7.176485   6.417670   5.058166   4.405470   3.248210
    27  H    7.886741   7.382187   6.011123   5.226060   3.814225
    28  H    6.740064   6.500129   5.332367   4.557393   3.375836
    29  H    3.175800   2.821133   2.479367   1.884062   2.524856
                   11         12         13         14         15
    11  N    0.000000
    12  C    1.339028   0.000000
    13  C    2.400141   1.388302   0.000000
    14  C    2.775853   2.378760   1.387252   0.000000
    15  C    2.418527   2.749294   2.421891   1.403706   0.000000
    16  N    3.735400   4.144674   3.657900   2.370878   1.398308
    17  N    4.228793   4.946858   4.722225   3.545619   2.313907
    18  S    5.856467   6.573652   6.255823   4.986370   3.885486
    19  H   10.628335  11.678350  11.689809  10.537220   9.272624
    20  H   10.902696  11.829646  11.669505  10.434121   9.287836
    21  H   10.058288  10.976762  10.802898   9.557367   8.395638
    22  H    9.010484  10.170922  10.400733   9.406767   8.054368
    23  H    6.978157   7.975693   8.055065   7.039863   5.811286
    24  H    6.839765   8.110248   8.621703   7.889161   6.498795
    25  H    3.166500   4.272766   4.901862   4.555540   3.497366
    26  H    2.059585   1.086396   2.157579   3.375820   3.834916
    27  H    3.372012   2.153808   1.083319   2.158250   3.411674
    28  H    3.859005   3.380919   2.167166   1.083950   2.133438
    29  H    3.807408   4.742475   4.804669   3.837373   2.467008
                   16         17         18         19         20
    16  N    0.000000
    17  N    1.284232   0.000000
    18  S    2.617883   1.640190   0.000000
    19  H    8.205563   7.033162   5.713445   0.000000
    20  H    8.104834   7.087556   5.626019   1.788277   0.000000
    21  H    7.186815   6.098636   4.582436   1.784460   1.757816
    22  H    7.237265   6.031035   5.140057   2.297419   3.443581
    23  H    5.024169   4.109933   3.533874   4.485816   4.426059
    24  H    6.113655   4.995897   4.893918   4.950606   5.916019
    25  H    3.956753   3.775132   4.915609   8.456312   8.707908
    26  H    5.230920   6.007544   7.640334  12.647655  12.843109
    27  H    4.527913   5.670549   7.141688  12.664775  12.574497
    28  H    2.526626   3.800708   5.002196  10.661808  10.407078
    29  H    1.985028   1.029344   2.282069   7.035473   7.327349
                   21         22         23         24         25
    21  H    0.000000
    22  H    3.302566   0.000000
    23  H    4.401723   3.118452   0.000000
    24  H    5.463218   2.742526   3.089597   0.000000
    25  H    8.242228   6.601071   4.385728   4.429082   0.000000
    26  H   12.003034  11.058728   8.901537   8.870150   4.952405
    27  H   11.713708  11.435101   9.026907   9.697896   5.906666
    28  H    9.539762   9.736827   7.311303   8.480463   5.367789
    29  H    6.309703   5.776424   4.121593   4.357985   3.267808
                   26         27         28         29
    26  H    0.000000
    27  H    2.499528   0.000000
    28  H    4.303096   2.525258   0.000000
    29  H    5.740614   5.830927   4.333174   0.000000
 Stoichiometry    C10H11N7S
 Framework group  C1[X(C10H11N7S)]
 Deg. of freedom    81
 Full point group                 C1      NOp   1
 Largest Abelian subgroup         C1      NOp   1
 Largest concise Abelian subgroup C1      NOp   1
                         Standard orientation:                         
 ---------------------------------------------------------------------
 Center     Atomic      Atomic             Coordinates (Angstroms)
 Number     Number       Type             X           Y           Z
 ---------------------------------------------------------------------
      1          6           0        5.977757    1.276942   -0.158266
      2          7           0        4.835815    0.656149    0.455793
      3          6           0        4.548837   -0.545251    0.137378
      4          6           0        3.291414   -1.062840    0.647485
      5          6           0        2.523207   -1.998422    0.061948
      6          7           0        1.193105   -2.000409    0.483344
      7          7           0        0.374384   -2.304948   -0.423387
      8          6           0       -0.916554   -1.890842    0.045085
      9          7           0       -1.573973   -1.136835   -0.727914
     10          6           0       -2.739545   -0.478656   -0.271625
     11          7           0       -3.876068   -1.155506   -0.266577
     12          6           0       -5.001199   -0.511179    0.067966
     13          6           0       -5.030916    0.824819    0.444277
     14          6           0       -3.828421    1.515083    0.489096
     15          6           0       -2.633057    0.884821    0.109271
     16          7           0       -1.488103    1.686470    0.150565
     17          7           0       -0.398815    1.248798   -0.370152
     18         16           0        1.066178    1.985706   -0.338738
     19          1           0        6.593167    0.604958   -0.773911
     20          1           0        6.602814    1.719984    0.624144
     21          1           0        5.625258    2.104063   -0.785390
     22          1           0        5.129287   -1.153973   -0.570568
     23          1           0        2.853362   -0.481289    1.452401
     24          1           0        2.792972   -2.567476   -0.825710
     25          1           0       -1.185431   -2.148785    1.075284
     26          1           0       -5.912718   -1.101357    0.035106
     27          1           0       -5.964466    1.303618    0.714120
     28          1           0       -3.769550    2.548597    0.810547
     29          1           0       -0.437096    0.357475   -0.883598
 ---------------------------------------------------------------------
 Rotational constants (GHZ):           0.8250547           0.1803561           0.1518051
 Standard basis: 6-31G(2df,p) (6D, 7F)
 There are   617 symmetry adapted cartesian basis functions of A   symmetry.
 There are   563 symmetry adapted basis functions of A   symmetry.
   563 basis functions,   893 primitive gaussians,   617 cartesian basis functions
    68 alpha electrons       68 beta electrons
       nuclear repulsion energy      1307.6063635250 Hartrees.
 NAtoms=   29 NActive=   29 NUniq=   29 SFac= 1.00D+00 NAtFMM=   60 NAOKFM=F Big=F
 Integral buffers will be    131072 words long.
 Raffenetti 2 integral format.
 Two-electron integral symmetry is turned on.
 One-electron integrals computed using PRISM.
 PrsmSu:  requested number of processors reduced to:  12 ShMem   1 Linda.
 NBasis=   563 RedAO= T EigKep=  1.16D-04  NBF=   563
 NBsUse=   563 1.00D-06 EigRej= -1.00D+00 NBFU=   563
 Initial guess from the checkpoint file:  "CN1CdCCdNNdCNdc2ncccc2dNNS1.chk"
 B after Tr=    -0.000000    0.000000    0.000000
         Rot=    0.999983   -0.005039    0.000159   -0.002972 Ang=  -0.67 deg.
 ExpMin= 1.17D-01 ExpMax= 2.19D+04 ExpMxC= 3.30D+03 IAcc=2 IRadAn=         4 AccDes= 0.00D+00
 Harris functional with IExCor=  402 and IRadAn=       4 diagonalized for initial guess.
 HarFok:  IExCor=  402 AccDes= 0.00D+00 IRadAn=         4 IDoV= 1 UseB2=F ITyADJ=14
 ICtDFT=  3500011 ScaDFX=  1.000000  1.000000  1.000000  1.000000
 FoFCou: FMM=F IPFlag=           0 FMFlag=      100000 FMFlg1=           0
         NFxFlg=           0 DoJE=T BraDBF=F KetDBF=T FulRan=T
         wScrn=  0.000000 ICntrl=       500 IOpCl=  0 I1Cent=   200000004 NGrid=           0
         NMat0=    1 NMatS0=      1 NMatT0=    0 NMatD0=    1 NMtDS0=    0 NMtDT0=    0
 Petite list used in FoFCou.
 Requested convergence on RMS density matrix=1.00D-08 within 128 cycles.
 Requested convergence on MAX density matrix=1.00D-06.
 Requested convergence on             energy=1.00D-06.
 No special actions if energy rises.
 Integral accuracy reduced to 1.0D-05 until final iterations.
slurmstepd: error: *** JOB 27446539 ON lewis4-r630-hpc4-node224 CANCELLED AT 2023-05-16T07:49:25 DUE TO TIME LIMIT ***
