### Starting Gaussian ###
 Entering Gaussian System, Link 0=g16
 Initial command:
 /cluster/software/gaussian/gaussian-16-A.03/avx2/g16/l1.exe "/local/scratch/cz9n3/Gau-21293.inp" -scrdir="/local/scratch/cz9n3/"
 Entering Link 1 = /cluster/software/gaussian/gaussian-16-A.03/avx2/g16/l1.exe PID=     21294.
  
 Copyright (c) 1988,1990,1992,1993,1995,1998,2003,2009,2016,
            Gaussian, Inc.  All Rights Reserved.
  
 This is part of the Gaussian(R) 16 program.  It is based on
 the Gaussian(R) 09 system (copyright 2009, Gaussian, Inc.),
 the Gaussian(R) 03 system (copyright 2003, Gaussian, Inc.),
 the Gaussian(R) 98 system (copyright 1998, Gaussian, Inc.),
 the Gaussian(R) 94 system (copyright 1995, Gaussian, Inc.),
 the Gaussian 92(TM) system (copyright 1992, Gaussian, Inc.),
 the Gaussian 90(TM) system (copyright 1990, Gaussian, Inc.),
 the Gaussian 88(TM) system (copyright 1988, Gaussian, Inc.),
 the Gaussian 86(TM) system (copyright 1986, Carnegie Mellon
 University), and the Gaussian 82(TM) system (copyright 1983,
 Carnegie Mellon University). Gaussian is a federally registered
 trademark of Gaussian, Inc.
  
 This software contains proprietary and confidential information,
 including trade secrets, belonging to Gaussian, Inc.
  
 This software is provided under written license and may be
 used, copied, transmitted, or stored only in accord with that
 written license.
  
 The following legend is applicable only to US Government
 contracts under FAR:
  
                    RESTRICTED RIGHTS LEGEND
  
 Use, reproduction and disclosure by the US Government is
 subject to restrictions as set forth in subparagraphs (a)
 and (c) of the Commercial Computer Software - Restricted
 Rights clause in FAR 52.227-19.
  
 Gaussian, Inc.
 340 Quinnipiac St., Bldg. 40, Wallingford CT 06492
  
  
 ---------------------------------------------------------------
 Warning -- This program may not be used in any manner that
 competes with the business of Gaussian, Inc. or will provide
 assistance to any competitor of Gaussian, Inc.  The licensee
 of this program is prohibited from giving any competitor of
 Gaussian, Inc. access to this program.  By using this program,
 the user acknowledges that Gaussian, Inc. is engaged in the
 business of creating and licensing software in the field of
 computational chemistry and represents and warrants to the
 licensee that it is not a competitor of Gaussian, Inc. and that
 it will not use this program in any manner prohibited above.
 ---------------------------------------------------------------
  

 Cite this work as:
 Gaussian 16, Revision A.03,
 M. J. Frisch, G. W. Trucks, H. B. Schlegel, G. E. Scuseria, 
 M. A. Robb, J. R. Cheeseman, G. Scalmani, V. Barone, 
 G. A. Petersson, H. Nakatsuji, X. Li, M. Caricato, A. V. Marenich, 
 J. Bloino, B. G. Janesko, R. Gomperts, B. Mennucci, H. P. Hratchian, 
 J. V. Ortiz, A. F. Izmaylov, J. L. Sonnenberg, D. Williams-Young, 
 F. Ding, F. Lipparini, F. Egidi, J. Goings, B. Peng, A. Petrone, 
 T. Henderson, D. Ranasinghe, V. G. Zakrzewski, J. Gao, N. Rega, 
 G. Zheng, W. Liang, M. Hada, M. Ehara, K. Toyota, R. Fukuda, 
 J. Hasegawa, M. Ishida, T. Nakajima, Y. Honda, O. Kitao, H. Nakai, 
 T. Vreven, K. Throssell, J. A. Montgomery, Jr., J. E. Peralta, 
 F. Ogliaro, M. J. Bearpark, J. J. Heyd, E. N. Brothers, K. N. Kudin, 
 V. N. Staroverov, T. A. Keith, R. Kobayashi, J. Normand, 
 K. Raghavachari, A. P. Rendell, J. C. Burant, S. S. Iyengar, 
 J. Tomasi, M. Cossi, J. M. Millam, M. Klene, C. Adamo, R. Cammi, 
 J. W. Ochterski, R. L. Martin, K. Morokuma, O. Farkas, 
 J. B. Foresman, and D. J. Fox, Gaussian, Inc., Wallingford CT, 2016.
 
 ******************************************
 Gaussian 16:  ES64L-G16RevA.03 25-Dec-2016
                19-May-2023 
 ******************************************
 %chk=Cn1ccc2ccccscd2cnsnn1.chk
 %NProcShared=20
 Will use up to   20 processors via shared memory.
 -----------------------------
 # opt freq b3lyp/6-31g(2df,p)
 -----------------------------
 1/18=20,19=15,26=3,38=1/1,3;
 2/9=110,12=2,17=6,18=5,40=1/2;
 3/5=1,6=6,7=104,11=2,25=1,30=1,71=1,74=-5/1,2,3;
 4//1;
 5/5=2,38=5/2;
 6/7=2,8=2,9=2,10=2,28=1/1;
 7//1,2,3,16;
 1/18=20,19=15,26=3/3(2);
 2/9=110/2;
 99//99;
 2/9=110/2;
 3/5=1,6=6,7=104,11=2,25=1,30=1,71=1,74=-5/1,2,3;
 4/5=5,16=3,69=1/1;
 5/5=2,38=5/2;
 7//1,2,3,16;
 1/18=20,19=15,26=3/3(-5);
 2/9=110/2;
 6/7=2,8=2,9=2,10=2,19=2,28=1/1;
 99/9=1/99;
 -------------------
 Title Card Required
 -------------------
 Symbolic Z-matrix:
 Charge =  0 Multiplicity = 1
 C                     1.1722    0.0538   -0.21569 
 N                     2.6263    0.35221  -0.20089 
 C                     3.24589   0.21888   1.03828 
 C                     4.51086  -0.13865   1.28746 
 C                     5.26969   0.34175   2.4613 
 C                     4.8422   -0.27431   3.70645 
 C                     5.27485  -0.18322   4.94907 
 C                     6.35223   0.58942   5.48374 
 C                     7.19245   1.44165   4.9131 
 S                     7.38342   2.0197    3.32396 
 C                     6.24391   1.28325   2.26233 
 C                     6.41894   1.88903   0.84901 
 N                     5.52981   1.59706  -0.02864 
 S                     5.26438   1.9675   -1.56139 
 N                     4.11014   0.82643  -1.9802 
 N                     3.23895   0.10029  -1.42279 
 H                     0.72555   0.18117   0.78182 
 H                     0.95506  -0.9832   -0.51034 
 H                     0.6434    0.73727  -0.88424 
 H                     2.60431   0.54798   1.85466 
 H                     5.10625  -0.50493   0.45466 
 H                     3.99056  -0.94953   3.56512 
 H                     4.7529   -0.79482   5.68822 
 H                     6.48073   0.43011   6.55538 
 H                     7.92085   1.88183   5.59396 
 H                     7.2838    2.5606    0.68472 
 

 GradGradGradGradGradGradGradGradGradGradGradGradGradGradGradGradGradGrad
 Berny optimization.
 Initialization pass.
                           ----------------------------
                           !    Initial Parameters    !
                           ! (Angstroms and Degrees)  !
 --------------------------                            --------------------------
 ! Name  Definition              Value          Derivative Info.                !
 --------------------------------------------------------------------------------
 ! R1    R(1,2)                  1.4845         estimate D2E/DX2                !
 ! R2    R(1,17)                 1.1003         estimate D2E/DX2                !
 ! R3    R(1,18)                 1.0997         estimate D2E/DX2                !
 ! R4    R(1,19)                 1.0926         estimate D2E/DX2                !
 ! R5    R(2,3)                  1.3918         estimate D2E/DX2                !
 ! R6    R(2,16)                 1.3899         estimate D2E/DX2                !
 ! R7    R(3,4)                  1.3379         estimate D2E/DX2                !
 ! R8    R(3,20)                 1.0892         estimate D2E/DX2                !
 ! R9    R(4,5)                  1.478          estimate D2E/DX2                !
 ! R10   R(4,21)                 1.0873         estimate D2E/DX2                !
 ! R11   R(5,6)                  1.4535         estimate D2E/DX2                !
 ! R12   R(5,11)                 1.3693         estimate D2E/DX2                !
 ! R13   R(6,7)                  1.3189         estimate D2E/DX2                !
 ! R14   R(6,22)                 1.096          estimate D2E/DX2                !
 ! R15   R(7,8)                  1.4295         estimate D2E/DX2                !
 ! R16   R(7,23)                 1.0922         estimate D2E/DX2                !
 ! R17   R(8,9)                  1.3259         estimate D2E/DX2                !
 ! R18   R(8,24)                 1.091          estimate D2E/DX2                !
 ! R19   R(9,10)                 1.7018         estimate D2E/DX2                !
 ! R20   R(9,25)                 1.0899         estimate D2E/DX2                !
 ! R21   R(10,11)                1.7228         estimate D2E/DX2                !
 ! R22   R(11,12)                1.5476         estimate D2E/DX2                !
 ! R23   R(12,13)                1.283          estimate D2E/DX2                !
 ! R24   R(12,26)                1.1072         estimate D2E/DX2                !
 ! R25   R(13,14)                1.5991         estimate D2E/DX2                !
 ! R26   R(14,15)                1.6762         estimate D2E/DX2                !
 ! R27   R(15,16)                1.2637         estimate D2E/DX2                !
 ! A1    A(2,1,17)             111.4264         estimate D2E/DX2                !
 ! A2    A(2,1,18)             112.6837         estimate D2E/DX2                !
 ! A3    A(2,1,19)             110.7592         estimate D2E/DX2                !
 ! A4    A(17,1,18)            105.7775         estimate D2E/DX2                !
 ! A5    A(17,1,19)            106.6093         estimate D2E/DX2                !
 ! A6    A(18,1,19)            109.2915         estimate D2E/DX2                !
 ! A7    A(1,2,3)              115.1931         estimate D2E/DX2                !
 ! A8    A(1,2,16)             112.7409         estimate D2E/DX2                !
 ! A9    A(3,2,16)             124.6883         estimate D2E/DX2                !
 ! A10   A(2,3,4)              127.7557         estimate D2E/DX2                !
 ! A11   A(2,3,20)             112.0949         estimate D2E/DX2                !
 ! A12   A(4,3,20)             119.8713         estimate D2E/DX2                !
 ! A13   A(3,4,5)              123.1254         estimate D2E/DX2                !
 ! A14   A(3,4,21)             117.7165         estimate D2E/DX2                !
 ! A15   A(5,4,21)             115.8914         estimate D2E/DX2                !
 ! A16   A(4,5,6)              113.0538         estimate D2E/DX2                !
 ! A17   A(4,5,11)             118.2516         estimate D2E/DX2                !
 ! A18   A(6,5,11)             128.692          estimate D2E/DX2                !
 ! A19   A(5,6,7)              132.9483         estimate D2E/DX2                !
 ! A20   A(5,6,22)             112.2839         estimate D2E/DX2                !
 ! A21   A(7,6,22)             114.7675         estimate D2E/DX2                !
 ! A22   A(6,7,8)              129.5627         estimate D2E/DX2                !
 ! A23   A(6,7,23)             116.2427         estimate D2E/DX2                !
 ! A24   A(8,7,23)             114.1868         estimate D2E/DX2                !
 ! A25   A(7,8,9)              131.6087         estimate D2E/DX2                !
 ! A26   A(7,8,24)             112.1615         estimate D2E/DX2                !
 ! A27   A(9,8,24)             116.2297         estimate D2E/DX2                !
 ! A28   A(8,9,10)             133.7382         estimate D2E/DX2                !
 ! A29   A(8,9,25)             114.4725         estimate D2E/DX2                !
 ! A30   A(10,9,25)            111.7879         estimate D2E/DX2                !
 ! A31   A(9,10,11)            110.8562         estimate D2E/DX2                !
 ! A32   A(5,11,10)            132.451          estimate D2E/DX2                !
 ! A33   A(5,11,12)            118.8349         estimate D2E/DX2                !
 ! A34   A(10,11,12)           108.701          estimate D2E/DX2                !
 ! A35   A(11,12,13)           117.21           estimate D2E/DX2                !
 ! A36   A(11,12,26)           117.4682         estimate D2E/DX2                !
 ! A37   A(13,12,26)           125.2985         estimate D2E/DX2                !
 ! A38   A(12,13,14)           135.8906         estimate D2E/DX2                !
 ! A39   A(13,14,15)           101.3086         estimate D2E/DX2                !
 ! A40   A(14,15,16)           139.0836         estimate D2E/DX2                !
 ! A41   A(2,16,15)            125.9797         estimate D2E/DX2                !
 ! D1    D(17,1,2,3)            23.7805         estimate D2E/DX2                !
 ! D2    D(17,1,2,16)          175.3175         estimate D2E/DX2                !
 ! D3    D(18,1,2,3)           -94.9443         estimate D2E/DX2                !
 ! D4    D(18,1,2,16)           56.5927         estimate D2E/DX2                !
 ! D5    D(19,1,2,3)           142.279          estimate D2E/DX2                !
 ! D6    D(19,1,2,16)          -66.184          estimate D2E/DX2                !
 ! D7    D(1,2,3,4)            149.0597         estimate D2E/DX2                !
 ! D8    D(1,2,3,20)           -37.082          estimate D2E/DX2                !
 ! D9    D(16,2,3,4)             1.3733         estimate D2E/DX2                !
 ! D10   D(16,2,3,20)          175.2316         estimate D2E/DX2                !
 ! D11   D(1,2,16,15)          138.5382         estimate D2E/DX2                !
 ! D12   D(3,2,16,15)          -73.0948         estimate D2E/DX2                !
 ! D13   D(2,3,4,5)            149.3959         estimate D2E/DX2                !
 ! D14   D(2,3,4,21)            -9.3228         estimate D2E/DX2                !
 ! D15   D(20,3,4,5)           -24.0398         estimate D2E/DX2                !
 ! D16   D(20,3,4,21)          177.2414         estimate D2E/DX2                !
 ! D17   D(3,4,5,6)             73.4691         estimate D2E/DX2                !
 ! D18   D(3,4,5,11)          -105.9874         estimate D2E/DX2                !
 ! D19   D(21,4,5,6)          -127.4563         estimate D2E/DX2                !
 ! D20   D(21,4,5,11)           53.0872         estimate D2E/DX2                !
 ! D21   D(4,5,6,7)            176.5698         estimate D2E/DX2                !
 ! D22   D(4,5,6,22)            -3.1866         estimate D2E/DX2                !
 ! D23   D(11,5,6,7)            -4.0435         estimate D2E/DX2                !
 ! D24   D(11,5,6,22)          176.2001         estimate D2E/DX2                !
 ! D25   D(4,5,11,10)         -176.1217         estimate D2E/DX2                !
 ! D26   D(4,5,11,12)            5.3599         estimate D2E/DX2                !
 ! D27   D(6,5,11,10)            4.519          estimate D2E/DX2                !
 ! D28   D(6,5,11,12)         -173.9994         estimate D2E/DX2                !
 ! D29   D(5,6,7,8)              0.0516         estimate D2E/DX2                !
 ! D30   D(5,6,7,23)          -178.8592         estimate D2E/DX2                !
 ! D31   D(22,6,7,8)           179.8033         estimate D2E/DX2                !
 ! D32   D(22,6,7,23)            0.8925         estimate D2E/DX2                !
 ! D33   D(6,7,8,9)              1.721          estimate D2E/DX2                !
 ! D34   D(6,7,8,24)          -178.4206         estimate D2E/DX2                !
 ! D35   D(23,7,8,9)          -179.35           estimate D2E/DX2                !
 ! D36   D(23,7,8,24)            0.5084         estimate D2E/DX2                !
 ! D37   D(7,8,9,10)             0.539          estimate D2E/DX2                !
 ! D38   D(7,8,9,25)          -179.9371         estimate D2E/DX2                !
 ! D39   D(24,8,9,10)         -179.3149         estimate D2E/DX2                !
 ! D40   D(24,8,9,25)            0.2091         estimate D2E/DX2                !
 ! D41   D(8,9,10,11)           -1.7149         estimate D2E/DX2                !
 ! D42   D(25,9,10,11)         178.7517         estimate D2E/DX2                !
 ! D43   D(9,10,11,5)           -1.1324         estimate D2E/DX2                !
 ! D44   D(9,10,11,12)         177.4974         estimate D2E/DX2                !
 ! D45   D(5,11,12,13)           8.4365         estimate D2E/DX2                !
 ! D46   D(5,11,12,26)        -173.2245         estimate D2E/DX2                !
 ! D47   D(10,11,12,13)       -170.4093         estimate D2E/DX2                !
 ! D48   D(10,11,12,26)          7.9296         estimate D2E/DX2                !
 ! D49   D(11,12,13,14)        179.2472         estimate D2E/DX2                !
 ! D50   D(26,12,13,14)          1.053          estimate D2E/DX2                !
 ! D51   D(12,13,14,15)        165.9994         estimate D2E/DX2                !
 ! D52   D(13,14,15,16)         23.3458         estimate D2E/DX2                !
 ! D53   D(14,15,16,2)          24.1909         estimate D2E/DX2                !
 --------------------------------------------------------------------------------
 Trust Radius=3.00D-01 FncErr=1.00D-07 GrdErr=1.00D-06 EigMax=2.50D+02 EigMin=1.00D-04
 Number of steps in this run=    131 maximum allowed number of steps=    156.
 GradGradGradGradGradGradGradGradGradGradGradGradGradGradGradGradGradGrad

                          Input orientation:                          
 ---------------------------------------------------------------------
 Center     Atomic      Atomic             Coordinates (Angstroms)
 Number     Number       Type             X           Y           Z
 ---------------------------------------------------------------------
      1          6           0        1.172200    0.053800   -0.215690
      2          7           0        2.626300    0.352210   -0.200890
      3          6           0        3.245890    0.218880    1.038280
      4          6           0        4.510860   -0.138650    1.287460
      5          6           0        5.269690    0.341750    2.461300
      6          6           0        4.842200   -0.274310    3.706450
      7          6           0        5.274850   -0.183220    4.949070
      8          6           0        6.352230    0.589420    5.483740
      9          6           0        7.192450    1.441650    4.913100
     10         16           0        7.383420    2.019700    3.323960
     11          6           0        6.243910    1.283250    2.262330
     12          6           0        6.418940    1.889030    0.849010
     13          7           0        5.529810    1.597060   -0.028640
     14         16           0        5.264380    1.967500   -1.561390
     15          7           0        4.110140    0.826430   -1.980200
     16          7           0        3.238950    0.100290   -1.422790
     17          1           0        0.725550    0.181170    0.781820
     18          1           0        0.955060   -0.983200   -0.510340
     19          1           0        0.643400    0.737270   -0.884240
     20          1           0        2.604310    0.547980    1.854660
     21          1           0        5.106250   -0.504930    0.454660
     22          1           0        3.990560   -0.949530    3.565120
     23          1           0        4.752900   -0.794820    5.688220
     24          1           0        6.480730    0.430110    6.555380
     25          1           0        7.920850    1.881830    5.593960
     26          1           0        7.283800    2.560600    0.684720
 ---------------------------------------------------------------------
                    Distance matrix (angstroms):
                    1          2          3          4          5
     1  C    0.000000
     2  N    1.484478   0.000000
     3  C    2.428967   1.391837   0.000000
     4  C    3.666490   2.451060   1.337934   0.000000
     5  C    4.902919   3.751650   2.477065   1.478008   0.000000
     6  C    5.381425   4.535421   3.148106   2.445343   1.453505
     7  C    6.600202   5.815805   4.424098   3.740729   2.542562
     8  C    7.720305   6.801018   5.435877   4.639989   3.219996
     9  C    8.029572   6.941866   5.664339   4.778445   3.304256
    10  S    7.414387   6.151039   5.058304   4.130061   2.833294
    11  C    5.777056   4.474527   3.408710   2.444511   1.369349
    12  C    5.659500   4.224716   3.590748   2.818598   2.512833
    13  N    4.626597   3.163810   2.872976   2.404801   2.800583
    14  S    4.713713   3.379288   3.726964   3.622100   4.338793
    15  N    3.513110   2.364870   3.198010   3.430679   4.615885
    16  N    2.393890   1.389908   2.463935   3.003382   4.389574
    17  H    1.100339   2.146584   2.533635   3.832301   4.847231
    18  H    1.099699   2.161509   3.015149   4.072967   5.403903
    19  H    1.092575   2.132400   3.276853   4.521146   5.722904
    20  H    2.565444   2.064969   1.089224   2.104307   2.741312
    21  H    4.029677   2.704549   2.079772   1.087293   2.184075
    22  H    4.821239   4.211717   2.881776   2.473049   2.126499
    23  H    6.956847   6.365510   4.992055   4.455988   3.460040
    24  H    8.612171   7.778810   6.399000   5.652863   4.270353
    25  H    9.090545   7.997017   6.736087   5.852889   4.383384
    26  H    6.666816   5.230067   4.681172   3.916432   3.483701
                    6          7          8          9         10
     6  C    0.000000
     7  C    1.318934   0.000000
     8  C    2.486962   1.429543   0.000000
     9  C    3.150270   2.513700   1.325857   0.000000
    10  S    3.444790   3.455417   2.788136   1.701757   0.000000
    11  C    2.544851   3.210636   3.297062   2.819823   1.722759
    12  C    3.915496   4.734306   4.813955   4.161165   2.659450
    13  N    4.233879   5.292636   5.663748   5.216255   3.854143
    14  S    5.740565   6.856515   7.260605   6.775913   5.325383
    15  N    5.838281   7.098642   7.797021   7.576062   6.346051
    16  N    5.387006   6.695212   7.591569   7.587682   6.587291
    17  H    5.070279   6.180201   7.343994   7.776701   7.360020
    18  H    5.778728   7.007547   8.217760   8.613863   8.064929
    19  H    6.302987   7.505007   8.553582   8.774700   8.048692
    20  H    3.018847   4.152326   5.217168   5.586030   5.211976
    21  H    3.270634   4.509062   5.295443   5.293306   4.448836
    22  H    1.095987   2.037633   3.409832   4.217451   4.515084
    23  H    2.050931   1.092167   2.125039   3.399119   4.520054
    24  H    3.361159   2.100131   1.091011   2.055929   3.712643
    25  H    4.205915   3.417840   2.035446   1.089906   2.336822
    26  H    4.809260   5.454274   5.271050   4.374882   2.695939
                   11         12         13         14         15
    11  C    0.000000
    12  C    1.547604   0.000000
    13  N    2.420116   1.282992   0.000000
    14  S    4.006059   2.673798   1.599063   0.000000
    15  N    4.770820   3.803170   2.533361   1.676220   0.000000
    16  N    4.899927   4.298023   3.071158   2.758269   1.263708
    17  H    5.818830   5.944408   5.073707   5.411339   4.415944
    18  H    6.387208   6.320722   5.274288   5.327436   3.922981
    19  H    6.447070   6.139020   5.034709   4.829643   3.636944
    20  H    3.735439   4.166671   3.633998   4.556359   4.129311
    21  H    2.785593   2.758571   2.198032   3.194115   2.948440
    22  H    3.429308   4.618626   4.665782   6.034301   5.823994
    23  H    4.275302   5.778987   6.245572   7.774887   7.864239
    24  H    4.383402   5.890240   6.753913   8.350152   8.867519
    25  H    3.777590   4.976981   6.116518   7.633034   8.544196
    26  H    2.280756   1.107240   2.124564   3.078122   4.492356
                   16         17         18         19         20
    16  N    0.000000
    17  H    3.344253   0.000000
    18  H    2.687502   1.754454   0.000000
    19  H    2.726290   1.758338   1.788002   0.000000
    20  H    3.368215   2.194373   3.264623   3.373807   0.000000
    21  H    2.716233   4.446156   4.288630   4.822110   3.054230
    22  H    5.152309   4.436838   5.081808   5.817695   2.662686
    23  H    7.325280   6.422217   7.271948   7.901425   4.595186
    24  H    8.617953   8.155861   9.080467   9.461327   6.094038
    25  H    8.621418   8.821637   9.695004   9.810116   6.635293
    26  H    5.182233   6.977231   7.351166   7.062654   5.226569
                   21         22         23         24         25
    21  H    0.000000
    22  H    3.334276   0.000000
    23  H    5.253479   2.261117   0.000000
    24  H    6.323154   4.128681   2.288628   0.000000
    25  H    6.327006   5.251664   4.148403   2.259594   0.000000
    26  H    3.767244   5.609202   6.534471   6.296710   4.996719
                   26
    26  H    0.000000
 Stoichiometry    C10H10N4S2
 Framework group  C1[X(C10H10N4S2)]
 Deg. of freedom    72
 Full point group                 C1      NOp   1
 Largest Abelian subgroup         C1      NOp   1
 Largest concise Abelian subgroup C1      NOp   1
                         Standard orientation:                         
 ---------------------------------------------------------------------
 Center     Atomic      Atomic             Coordinates (Angstroms)
 Number     Number       Type             X           Y           Z
 ---------------------------------------------------------------------
      1          6           0        3.415155    2.491747    0.718127
      2          7           0        2.654446    1.292569    0.285728
      3          6           0        1.279561    1.473975    0.167437
      4          6           0        0.442208    0.861920   -0.677724
      5          6           0       -0.974620    0.590542   -0.356075
      6          6           0       -1.803879    1.783888   -0.386572
      7          6           0       -3.097540    1.983604   -0.224881
      8          6           0       -4.137647    1.040790    0.045066
      9          6           0       -4.108938   -0.270702    0.237576
     10         16           0       -2.862014   -1.428391    0.267789
     11          6           0       -1.337990   -0.697164   -0.064711
     12          6           0       -0.235816   -1.778752    0.037555
     13          7           0        0.982958   -1.379123    0.006661
     14         16           0        2.421225   -2.072977    0.090047
     15          7           0        3.417057   -0.828683   -0.429340
     16          7           0        3.409653    0.432844   -0.503181
     17          1           0        2.775181    3.196201    1.270326
     18          1           0        3.825968    3.061286   -0.128157
     19          1           0        4.227336    2.212413    1.393444
     20          1           0        0.884969    2.131300    0.941148
     21          1           0        0.875972    0.250078   -1.464937
     22          1           0       -1.221231    2.689789   -0.589183
     23          1           0       -3.443175    3.014820   -0.324669
     24          1           0       -5.118938    1.514625    0.098472
     25          1           0       -5.083669   -0.721021    0.424677
     26          1           0       -0.561562   -2.829928    0.159618
 ---------------------------------------------------------------------
 Rotational constants (GHZ):           0.8269535           0.2826758           0.2167695
 Standard basis: 6-31G(2df,p) (6D, 7F)
 There are   554 symmetry adapted cartesian basis functions of A   symmetry.
 There are   506 symmetry adapted basis functions of A   symmetry.
   506 basis functions,   822 primitive gaussians,   554 cartesian basis functions
    65 alpha electrons       65 beta electrons
       nuclear repulsion energy      1276.3041546242 Hartrees.
 NAtoms=   26 NActive=   26 NUniq=   26 SFac= 1.00D+00 NAtFMM=   60 NAOKFM=F Big=F
 Integral buffers will be    131072 words long.
 Raffenetti 2 integral format.
 Two-electron integral symmetry is turned on.
 One-electron integrals computed using PRISM.
 PrsmSu:  requested number of processors reduced to:  12 ShMem   1 Linda.
 NBasis=   506 RedAO= T EigKep=  2.00D-04  NBF=   506
 NBsUse=   506 1.00D-06 EigRej= -1.00D+00 NBFU=   506
 ExpMin= 1.17D-01 ExpMax= 2.19D+04 ExpMxC= 3.30D+03 IAcc=3 IRadAn=         5 AccDes= 0.00D+00
 Harris functional with IExCor=  402 and IRadAn=       5 diagonalized for initial guess.
 HarFok:  IExCor=  402 AccDes= 0.00D+00 IRadAn=         5 IDoV= 1 UseB2=F ITyADJ=14
 ICtDFT=  3500011 ScaDFX=  1.000000  1.000000  1.000000  1.000000
 FoFCou: FMM=F IPFlag=           0 FMFlag=      100000 FMFlg1=           0
         NFxFlg=           0 DoJE=T BraDBF=F KetDBF=T FulRan=T
         wScrn=  0.000000 ICntrl=       500 IOpCl=  0 I1Cent=   200000004 NGrid=           0
         NMat0=    1 NMatS0=      1 NMatT0=    0 NMatD0=    1 NMtDS0=    0 NMtDT0=    0
 Petite list used in FoFCou.
 Requested convergence on RMS density matrix=1.00D-08 within 128 cycles.
 Requested convergence on MAX density matrix=1.00D-06.
 Requested convergence on             energy=1.00D-06.
 No special actions if energy rises.
 Integral accuracy reduced to 1.0D-05 until final iterations.
 EnCoef did    10 forward-backward iterations
 EnCoef did     6 forward-backward iterations
 EnCoef did     4 forward-backward iterations
 Initial convergence to 1.0D-05 achieved.  Increase integral accuracy.
 SCF Done:  E(RB3LYP) =  -1402.25083831     A.U. after   19 cycles
            NFock= 19  Conv=0.73D-08     -V/T= 2.0048

 **********************************************************************

            Population analysis using the SCF density.

 **********************************************************************

 Orbital symmetries:
       Occupied  (A) (A) (A) (A) (A) (A) (A) (A) (A) (A) (A) (A)
                 (A) (A) (A) (A) (A) (A) (A) (A) (A) (A) (A) (A)
                 (A) (A) (A) (A) (A) (A) (A) (A) (A) (A) (A) (A)
                 (A) (A) (A) (A) (A) (A) (A) (A) (A) (A) (A) (A)
                 (A) (A) (A) (A) (A) (A) (A) (A) (A) (A) (A) (A)
                 (A) (A) (A) (A) (A)
       Virtual   (A) (A) (A) (A) (A) (A) (A) (A) (A) (A) (A) (A)
                 (A) (A) (A) (A) (A) (A) (A) (A) (A) (A) (A) (A)
                 (A) (A) (A) (A) (A) (A) (A) (A) (A) (A) (A) (A)
                 (A) (A) (A) (A) (A) (A) (A) (A) (A) (A) (A) (A)
                 (A) (A) (A) (A) (A) (A) (A) (A) (A) (A) (A) (A)
                 (A) (A) (A) (A) (A) (A) (A) (A) (A) (A) (A) (A)
                 (A) (A) (A) (A) (A) (A) (A) (A) (A) (A) (A) (A)
                 (A) (A) (A) (A) (A) (A) (A) (A) (A) (A) (A) (A)
                 (A) (A) (A) (A) (A) (A) (A) (A) (A) (A) (A) (A)
                 (A) (A) (A) (A) (A) (A) (A) (A) (A) (A) (A) (A)
                 (A) (A) (A) (A) (A) (A) (A) (A) (A) (A) (A) (A)
                 (A) (A) (A) (A) (A) (A) (A) (A) (A) (A) (A) (A)
                 (A) (A) (A) (A) (A) (A) (A) (A) (A) (A) (A) (A)
                 (A) (A) (A) (A) (A) (A) (A) (A) (A) (A) (A) (A)
                 (A) (A) (A) (A) (A) (A) (A) (A) (A) (A) (A) (A)
                 (A) (A) (A) (A) (A) (A) (A) (A) (A) (A) (A) (A)
                 (A) (A) (A) (A) (A) (A) (A) (A) (A) (A) (A) (A)
                 (A) (A) (A) (A) (A) (A) (A) (A) (A) (A) (A) (A)
                 (A) (A) (A) (A) (A) (A) (A) (A) (A) (A) (A) (A)
                 (A) (A) (A) (A) (A) (A) (A) (A) (A) (A) (A) (A)
                 (A) (A) (A) (A) (A) (A) (A) (A) (A) (A) (A) (A)
                 (A) (A) (A) (A) (A) (A) (A) (A) (A) (A) (A) (A)
                 (A) (A) (A) (A) (A) (A) (A) (A) (A) (A) (A) (A)
                 (A) (A) (A) (A) (A) (A) (A) (A) (A) (A) (A) (A)
                 (A) (A) (A) (A) (A) (A) (A) (A) (A) (A) (A) (A)
                 (A) (A) (A) (A) (A) (A) (A) (A) (A) (A) (A) (A)
                 (A) (A) (A) (A) (A) (A) (A) (A) (A) (A) (A) (A)
                 (A) (A) (A) (A) (A) (A) (A) (A) (A) (A) (A) (A)
                 (A) (A) (A) (A) (A) (A) (A) (A) (A) (A) (A) (A)
                 (A) (A) (A) (A) (A) (A) (A) (A) (A) (A) (A) (A)
                 (A) (A) (A) (A) (A) (A) (A) (A) (A) (A) (A) (A)
                 (A) (A) (A) (A) (A) (A) (A) (A) (A) (A) (A) (A)
                 (A) (A) (A) (A) (A) (A) (A) (A) (A) (A) (A) (A)
                 (A) (A) (A) (A) (A) (A) (A) (A) (A) (A) (A) (A)
                 (A) (A) (A) (A) (A) (A) (A) (A) (A) (A) (A) (A)
                 (A) (A) (A) (A) (A) (A) (A) (A) (A) (A) (A) (A)
                 (A) (A) (A) (A) (A) (A) (A) (A) (A)
 The electronic state is 1-A.
 Alpha  occ. eigenvalues --  -88.95266 -88.89392 -14.41596 -14.39413 -14.38702
 Alpha  occ. eigenvalues --  -14.35665 -10.25748 -10.22986 -10.22827 -10.22007
 Alpha  occ. eigenvalues --  -10.21804 -10.21178 -10.19011 -10.18807 -10.18739
 Alpha  occ. eigenvalues --  -10.17527  -8.00705  -7.95812  -5.97273  -5.96832
 Alpha  occ. eigenvalues --   -5.96338  -5.92312  -5.91844  -5.91415  -1.05449
 Alpha  occ. eigenvalues --   -0.96335  -0.92895  -0.86291  -0.81319  -0.80982
 Alpha  occ. eigenvalues --   -0.78724  -0.75204  -0.71040  -0.69466  -0.67656
 Alpha  occ. eigenvalues --   -0.63135  -0.60826  -0.57083  -0.54069  -0.52040
 Alpha  occ. eigenvalues --   -0.51665  -0.50480  -0.49153  -0.47255  -0.45301
 Alpha  occ. eigenvalues --   -0.44932  -0.43196  -0.42675  -0.41721  -0.40379
 Alpha  occ. eigenvalues --   -0.39428  -0.39162  -0.38037  -0.36960  -0.36061
 Alpha  occ. eigenvalues --   -0.34702  -0.33209  -0.32665  -0.31247  -0.29525
 Alpha  occ. eigenvalues --   -0.29087  -0.23790  -0.22161  -0.19953  -0.17043
 Alpha virt. eigenvalues --   -0.09235  -0.06193  -0.01279   0.01104   0.02117
 Alpha virt. eigenvalues --    0.05887   0.06514   0.06717   0.07868   0.09315
 Alpha virt. eigenvalues --    0.10038   0.11489   0.12254   0.12912   0.13674
 Alpha virt. eigenvalues --    0.14324   0.14971   0.16382   0.17309   0.18071
 Alpha virt. eigenvalues --    0.19805   0.20679   0.21153   0.21996   0.22713
 Alpha virt. eigenvalues --    0.25213   0.26466   0.27840   0.28856   0.31617
 Alpha virt. eigenvalues --    0.32205   0.32809   0.33767   0.33856   0.34929
 Alpha virt. eigenvalues --    0.37014   0.37375   0.39168   0.40413   0.40569
 Alpha virt. eigenvalues --    0.41013   0.41664   0.41771   0.42525   0.42955
 Alpha virt. eigenvalues --    0.43488   0.44718   0.46957   0.47891   0.48994
 Alpha virt. eigenvalues --    0.49183   0.49894   0.50363   0.51162   0.52043
 Alpha virt. eigenvalues --    0.53146   0.53985   0.55617   0.56547   0.57131
 Alpha virt. eigenvalues --    0.57794   0.59206   0.60058   0.61202   0.62231
 Alpha virt. eigenvalues --    0.63286   0.63877   0.64917   0.65611   0.66431
 Alpha virt. eigenvalues --    0.67698   0.68510   0.69413   0.70458   0.71116
 Alpha virt. eigenvalues --    0.71230   0.72104   0.72222   0.72595   0.73233
 Alpha virt. eigenvalues --    0.73909   0.74552   0.75443   0.76967   0.77722
 Alpha virt. eigenvalues --    0.77799   0.78176   0.78600   0.79431   0.80618
 Alpha virt. eigenvalues --    0.81420   0.81913   0.82893   0.83384   0.85420
 Alpha virt. eigenvalues --    0.86206   0.87135   0.87299   0.88705   0.89145
 Alpha virt. eigenvalues --    0.89621   0.90609   0.92150   0.93425   0.93885
 Alpha virt. eigenvalues --    0.94892   0.95914   0.98799   0.99782   1.01379
 Alpha virt. eigenvalues --    1.02229   1.03047   1.04796   1.05127   1.06194
 Alpha virt. eigenvalues --    1.08643   1.09147   1.09643   1.11032   1.12907
 Alpha virt. eigenvalues --    1.14077   1.15575   1.16155   1.18112   1.19984
 Alpha virt. eigenvalues --    1.20922   1.22639   1.23547   1.26990   1.27815
 Alpha virt. eigenvalues --    1.28095   1.29097   1.30576   1.31292   1.32798
 Alpha virt. eigenvalues --    1.34280   1.35165   1.37197   1.37779   1.37931
 Alpha virt. eigenvalues --    1.38996   1.39765   1.41197   1.42056   1.43008
 Alpha virt. eigenvalues --    1.44875   1.45833   1.46104   1.48017   1.49563
 Alpha virt. eigenvalues --    1.50222   1.51067   1.52397   1.54574   1.55548
 Alpha virt. eigenvalues --    1.57780   1.58337   1.58509   1.61075   1.64107
 Alpha virt. eigenvalues --    1.66383   1.67410   1.69138   1.70604   1.71400
 Alpha virt. eigenvalues --    1.72230   1.72705   1.74085   1.76581   1.77320
 Alpha virt. eigenvalues --    1.78738   1.80393   1.80946   1.82896   1.83349
 Alpha virt. eigenvalues --    1.83777   1.84938   1.87323   1.87700   1.89970
 Alpha virt. eigenvalues --    1.92401   1.93224   1.94128   1.95175   1.95523
 Alpha virt. eigenvalues --    1.96254   1.96884   1.98994   2.00492   2.01771
 Alpha virt. eigenvalues --    2.02128   2.03701   2.04777   2.07316   2.08610
 Alpha virt. eigenvalues --    2.10095   2.10867   2.12804   2.14294   2.16337
 Alpha virt. eigenvalues --    2.20424   2.21397   2.22143   2.23226   2.24695
 Alpha virt. eigenvalues --    2.28144   2.28793   2.30069   2.31014   2.31992
 Alpha virt. eigenvalues --    2.32743   2.34910   2.35920   2.37020   2.39645
 Alpha virt. eigenvalues --    2.41027   2.43115   2.45763   2.46859   2.50120
 Alpha virt. eigenvalues --    2.51252   2.54940   2.56076   2.59531   2.61265
 Alpha virt. eigenvalues --    2.61929   2.62344   2.67984   2.68956   2.72118
 Alpha virt. eigenvalues --    2.72910   2.76052   2.78109   2.78792   2.79210
 Alpha virt. eigenvalues --    2.82215   2.84580   2.85980   2.86691   2.88997
 Alpha virt. eigenvalues --    2.90249   2.90332   2.91924   2.92985   2.94048
 Alpha virt. eigenvalues --    2.95924   2.96430   2.99434   2.99930   3.02223
 Alpha virt. eigenvalues --    3.04429   3.04924   3.06014   3.06814   3.09923
 Alpha virt. eigenvalues --    3.10649   3.11953   3.12930   3.13400   3.15864
 Alpha virt. eigenvalues --    3.17450   3.18868   3.19727   3.21434   3.22368
 Alpha virt. eigenvalues --    3.24085   3.24245   3.24939   3.26548   3.28174
 Alpha virt. eigenvalues --    3.29682   3.30351   3.31447   3.33123   3.34344
 Alpha virt. eigenvalues --    3.35413   3.35865   3.36827   3.38066   3.39597
 Alpha virt. eigenvalues --    3.42095   3.42418   3.44037   3.45299   3.47721
 Alpha virt. eigenvalues --    3.48480   3.51585   3.52397   3.54576   3.54988
 Alpha virt. eigenvalues --    3.55972   3.57221   3.58208   3.59159   3.59319
 Alpha virt. eigenvalues --    3.61029   3.61736   3.63196   3.63604   3.65554
 Alpha virt. eigenvalues --    3.66993   3.69228   3.71922   3.73052   3.74835
 Alpha virt. eigenvalues --    3.77057   3.77713   3.82131   3.82749   3.83564
 Alpha virt. eigenvalues --    3.84890   3.85875   3.87016   3.88135   3.92018
 Alpha virt. eigenvalues --    3.93296   3.95862   3.96147   3.97499   3.99789
 Alpha virt. eigenvalues --    4.00330   4.01430   4.03262   4.06065   4.10483
 Alpha virt. eigenvalues --    4.11460   4.13951   4.14101   4.15240   4.16201
 Alpha virt. eigenvalues --    4.18371   4.19804   4.20984   4.21744   4.23600
 Alpha virt. eigenvalues --    4.24825   4.27187   4.28166   4.29844   4.32920
 Alpha virt. eigenvalues --    4.33356   4.34097   4.35431   4.37108   4.38687
 Alpha virt. eigenvalues --    4.39559   4.40420   4.40670   4.42605   4.43496
 Alpha virt. eigenvalues --    4.44564   4.46710   4.47386   4.48227   4.49215
 Alpha virt. eigenvalues --    4.49990   4.52073   4.53271   4.54995   4.55895
 Alpha virt. eigenvalues --    4.57725   4.59015   4.60173   4.60577   4.62227
 Alpha virt. eigenvalues --    4.62538   4.63860   4.65610   4.67551   4.68949
 Alpha virt. eigenvalues --    4.70000   4.70715   4.72838   4.74076   4.74580
 Alpha virt. eigenvalues --    4.76237   4.78339   4.80149   4.81802   4.82404
 Alpha virt. eigenvalues --    4.83964   4.85954   4.87466   4.88211   4.89889
 Alpha virt. eigenvalues --    4.93840   4.95368   4.97791   5.01036   5.02733
 Alpha virt. eigenvalues --    5.05815   5.07003   5.08108   5.12375   5.14995
 Alpha virt. eigenvalues --    5.18025   5.20789   5.25103   5.26118   5.29311
 Alpha virt. eigenvalues --    5.30818   5.32069   5.32400   5.35091   5.40746
 Alpha virt. eigenvalues --    5.44955   5.50108   5.53654   5.55544   5.56079
 Alpha virt. eigenvalues --    5.59114   5.60462   5.65291   5.70650   5.76090
 Alpha virt. eigenvalues --    5.77638   5.85196   5.88625   5.91988   5.93955
 Alpha virt. eigenvalues --    6.04732   6.31941   6.74667   6.90455   9.95505
 Alpha virt. eigenvalues --   10.34011  10.69904  10.84052  11.19239  11.22122
 Alpha virt. eigenvalues --   11.29553  11.37319  11.42513  11.50130  11.54871
 Alpha virt. eigenvalues --   11.98551  12.11157  12.38733  14.30809  15.79694
 Alpha virt. eigenvalues --   17.56776
          Condensed to atoms (all electrons):
               1          2          3          4          5          6
     1  C    4.944956   0.374407  -0.078506   0.005347   0.000021  -0.000011
     2  N    0.374407   6.245685   0.384106  -0.012994   0.000811   0.000076
     3  C   -0.078506   0.384106   4.744324   0.624617  -0.019271  -0.008944
     4  C    0.005347  -0.012994   0.624617   5.147934   0.364073  -0.045073
     5  C    0.000021   0.000811  -0.019271   0.364073   4.738772   0.339979
     6  C   -0.000011   0.000076  -0.008944  -0.045073   0.339979   4.945277
     7  C   -0.000000  -0.000001   0.000277   0.009233   0.015515   0.519966
     8  C   -0.000000  -0.000000  -0.000008   0.000068  -0.027675   0.021448
     9  C   -0.000000  -0.000000  -0.000002  -0.000037   0.002818  -0.030791
    10  S    0.000000   0.000000   0.000321   0.007914  -0.027131  -0.008387
    11  C    0.000000   0.000018   0.000354  -0.040368   0.547596   0.002047
    12  C    0.000002  -0.000374  -0.000922  -0.024624  -0.008994   0.005007
    13  N   -0.000092   0.002519  -0.018515  -0.015678  -0.015580   0.001133
    14  S   -0.000188   0.011904   0.003243  -0.003058   0.000372  -0.000014
    15  N    0.002340  -0.101495   0.004072   0.000652  -0.000006  -0.000002
    16  N   -0.045073   0.260580  -0.041854  -0.004725  -0.000269  -0.000010
    17  H    0.377268  -0.020985  -0.000752   0.000537  -0.000027  -0.000004
    18  H    0.364505  -0.028103   0.005228   0.000198  -0.000003   0.000001
    19  H    0.381096  -0.028672   0.002476  -0.000193   0.000002   0.000000
    20  H   -0.004535  -0.036599   0.347304  -0.050507  -0.007449   0.002327
    21  H    0.000022  -0.012074  -0.032229   0.336316  -0.027568   0.001747
    22  H   -0.000003  -0.000109   0.002842  -0.004679  -0.065095   0.365359
    23  H    0.000000  -0.000000  -0.000010  -0.000278   0.007576  -0.030506
    24  H   -0.000000  -0.000000   0.000000   0.000002   0.000257   0.005729
    25  H    0.000000   0.000000   0.000000   0.000002  -0.000186   0.000240
    26  H   -0.000000   0.000000  -0.000126   0.000443   0.003515  -0.000054
               7          8          9         10         11         12
     1  C   -0.000000  -0.000000  -0.000000   0.000000   0.000000   0.000002
     2  N   -0.000001  -0.000000  -0.000000   0.000000   0.000018  -0.000374
     3  C    0.000277  -0.000008  -0.000002   0.000321   0.000354  -0.000922
     4  C    0.009233   0.000068  -0.000037   0.007914  -0.040368  -0.024624
     5  C    0.015515  -0.027675   0.002818  -0.027131   0.547596  -0.008994
     6  C    0.519966   0.021448  -0.030791  -0.008387   0.002047   0.005007
     7  C    4.888110   0.400500   0.014668  -0.011648  -0.024228   0.000114
     8  C    0.400500   4.777983   0.654402  -0.029927   0.000975   0.000052
     9  C    0.014668   0.654402   4.863260   0.320169  -0.001219   0.000895
    10  S   -0.011648  -0.029927   0.320169  15.666456   0.276719  -0.064883
    11  C   -0.024228   0.000975  -0.001219   0.276719   4.977853   0.343052
    12  C    0.000114   0.000052   0.000895  -0.064883   0.343052   4.911421
    13  N    0.000014  -0.000002  -0.000010   0.001076  -0.039112   0.640066
    14  S   -0.000002   0.000000   0.000001  -0.000314   0.008001  -0.089177
    15  N   -0.000000   0.000000  -0.000000  -0.000001   0.000109   0.000557
    16  N   -0.000000  -0.000000   0.000000   0.000001   0.000031   0.000118
    17  H   -0.000000   0.000000  -0.000000   0.000000  -0.000000   0.000000
    18  H    0.000000   0.000000   0.000000  -0.000000   0.000000  -0.000000
    19  H    0.000000   0.000000  -0.000000   0.000000  -0.000000   0.000000
    20  H   -0.000587  -0.000002  -0.000002   0.000032   0.000516  -0.000182
    21  H   -0.000307  -0.000002  -0.000001  -0.000060  -0.004347   0.000709
    22  H   -0.040705   0.008165   0.000050  -0.000481   0.005907  -0.000043
    23  H    0.363566  -0.060441   0.006607  -0.000211   0.000192   0.000002
    24  H   -0.041637   0.361119  -0.049743   0.007425  -0.000214   0.000000
    25  H    0.004681  -0.022388   0.358942  -0.052926   0.001701  -0.000057
    26  H    0.000005   0.000003   0.000029   0.006099  -0.065568   0.359189
              13         14         15         16         17         18
     1  C   -0.000092  -0.000188   0.002340  -0.045073   0.377268   0.364505
     2  N    0.002519   0.011904  -0.101495   0.260580  -0.020985  -0.028103
     3  C   -0.018515   0.003243   0.004072  -0.041854  -0.000752   0.005228
     4  C   -0.015678  -0.003058   0.000652  -0.004725   0.000537   0.000198
     5  C   -0.015580   0.000372  -0.000006  -0.000269  -0.000027  -0.000003
     6  C    0.001133  -0.000014  -0.000002  -0.000010  -0.000004   0.000001
     7  C    0.000014  -0.000002  -0.000000  -0.000000  -0.000000   0.000000
     8  C   -0.000002   0.000000   0.000000  -0.000000   0.000000   0.000000
     9  C   -0.000010   0.000001  -0.000000   0.000000  -0.000000   0.000000
    10  S    0.001076  -0.000314  -0.000001   0.000001   0.000000  -0.000000
    11  C   -0.039112   0.008001   0.000109   0.000031  -0.000000   0.000000
    12  C    0.640066  -0.089177   0.000557   0.000118   0.000000  -0.000000
    13  N    6.294113   0.358028  -0.050300   0.000945   0.000001  -0.000005
    14  S    0.358028  15.444710   0.288079  -0.076361  -0.000008   0.000151
    15  N   -0.050300   0.288079   6.400694   0.534293  -0.000072  -0.000011
    16  N    0.000945  -0.076361   0.534293   6.444954   0.002399   0.003931
    17  H    0.000001  -0.000008  -0.000072   0.002399   0.558600  -0.032042
    18  H   -0.000005   0.000151  -0.000011   0.003931  -0.032042   0.580838
    19  H    0.000010  -0.000184   0.000985   0.001913  -0.030826  -0.037703
    20  H   -0.000301  -0.000298  -0.000318   0.004574   0.002757  -0.000739
    21  H   -0.006209  -0.002000  -0.000565   0.010000  -0.000007   0.000028
    22  H    0.000050  -0.000001   0.000000  -0.000005   0.000002   0.000006
    23  H    0.000000   0.000000  -0.000000   0.000000   0.000000  -0.000000
    24  H   -0.000000   0.000000  -0.000000  -0.000000   0.000000   0.000000
    25  H    0.000000  -0.000000   0.000000   0.000000  -0.000000  -0.000000
    26  H   -0.041195  -0.008285  -0.000157   0.000003  -0.000000  -0.000000
              19         20         21         22         23         24
     1  C    0.381096  -0.004535   0.000022  -0.000003   0.000000  -0.000000
     2  N   -0.028672  -0.036599  -0.012074  -0.000109  -0.000000  -0.000000
     3  C    0.002476   0.347304  -0.032229   0.002842  -0.000010   0.000000
     4  C   -0.000193  -0.050507   0.336316  -0.004679  -0.000278   0.000002
     5  C    0.000002  -0.007449  -0.027568  -0.065095   0.007576   0.000257
     6  C    0.000000   0.002327   0.001747   0.365359  -0.030506   0.005729
     7  C    0.000000  -0.000587  -0.000307  -0.040705   0.363566  -0.041637
     8  C    0.000000  -0.000002  -0.000002   0.008165  -0.060441   0.361119
     9  C   -0.000000  -0.000002  -0.000001   0.000050   0.006607  -0.049743
    10  S    0.000000   0.000032  -0.000060  -0.000481  -0.000211   0.007425
    11  C   -0.000000   0.000516  -0.004347   0.005907   0.000192  -0.000214
    12  C    0.000000  -0.000182   0.000709  -0.000043   0.000002   0.000000
    13  N    0.000010  -0.000301  -0.006209   0.000050   0.000000  -0.000000
    14  S   -0.000184  -0.000298  -0.002000  -0.000001   0.000000   0.000000
    15  N    0.000985  -0.000318  -0.000565   0.000000  -0.000000  -0.000000
    16  N    0.001913   0.004574   0.010000  -0.000005   0.000000  -0.000000
    17  H   -0.030826   0.002757  -0.000007   0.000002   0.000000   0.000000
    18  H   -0.037703  -0.000739   0.000028   0.000006  -0.000000   0.000000
    19  H    0.568165   0.000430  -0.000005  -0.000000  -0.000000   0.000000
    20  H    0.000430   0.634968   0.007434   0.000506   0.000011  -0.000000
    21  H   -0.000005   0.007434   0.621401   0.000372   0.000004  -0.000000
    22  H   -0.000000   0.000506   0.000372   0.654232  -0.016131  -0.000273
    23  H   -0.000000   0.000011   0.000004  -0.016131   0.648249  -0.010885
    24  H    0.000000  -0.000000  -0.000000  -0.000273  -0.010885   0.648289
    25  H    0.000000  -0.000000  -0.000000   0.000007  -0.000234  -0.014678
    26  H    0.000000  -0.000001  -0.000125   0.000003  -0.000000  -0.000000
              25         26
     1  C    0.000000  -0.000000
     2  N    0.000000   0.000000
     3  C    0.000000  -0.000126
     4  C    0.000002   0.000443
     5  C   -0.000186   0.003515
     6  C    0.000240  -0.000054
     7  C    0.004681   0.000005
     8  C   -0.022388   0.000003
     9  C    0.358942   0.000029
    10  S   -0.052926   0.006099
    11  C    0.001701  -0.065568
    12  C   -0.000057   0.359189
    13  N    0.000000  -0.041195
    14  S   -0.000000  -0.008285
    15  N    0.000000  -0.000157
    16  N    0.000000   0.000003
    17  H   -0.000000  -0.000000
    18  H   -0.000000  -0.000000
    19  H    0.000000   0.000000
    20  H   -0.000000  -0.000001
    21  H   -0.000000  -0.000125
    22  H    0.000007   0.000003
    23  H   -0.000234  -0.000000
    24  H   -0.014678  -0.000000
    25  H    0.595195   0.000002
    26  H    0.000002   0.614692
 Mulliken charges:
               1
     1  C   -0.321557
     2  N   -0.038700
     3  C    0.081978
     4  C   -0.295123
     5  C    0.177947
     6  C   -0.086538
     7  C   -0.097533
     8  C   -0.084272
     9  C   -0.140035
    10  S   -0.090242
    11  C    0.009988
    12  C   -0.071926
    13  N   -0.110956
    14  S    0.065403
    15  N   -0.078854
    16  N   -0.095445
    17  H    0.143159
    18  H    0.143721
    19  H    0.142506
    20  H    0.100662
    21  H    0.107463
    22  H    0.090025
    23  H    0.092490
    24  H    0.094610
    25  H    0.129700
    26  H    0.131530
 Sum of Mulliken charges =  -0.00000
 Mulliken charges with hydrogens summed into heavy atoms:
               1
     1  C    0.107829
     2  N   -0.038700
     3  C    0.182640
     4  C   -0.187660
     5  C    0.177947
     6  C    0.003487
     7  C   -0.005044
     8  C    0.010338
     9  C   -0.010335
    10  S   -0.090242
    11  C    0.009988
    12  C    0.059604
    13  N   -0.110956
    14  S    0.065403
    15  N   -0.078854
    16  N   -0.095445
 Electronic spatial extent (au):  <R**2>=           4758.0423
 Charge=             -0.0000 electrons
 Dipole moment (field-independent basis, Debye):
    X=             -1.6367    Y=              1.8696    Z=              1.4606  Tot=              2.8823
 Quadrupole moment (field-independent basis, Debye-Ang):
   XX=           -105.0115   YY=            -95.3646   ZZ=           -108.5202
   XY=              3.5010   XZ=              4.9973   YZ=              1.6645
 Traceless Quadrupole moment (field-independent basis, Debye-Ang):
   XX=             -2.0461   YY=              7.6008   ZZ=             -5.5548
   XY=              3.5010   XZ=              4.9973   YZ=              1.6645
 Octapole moment (field-independent basis, Debye-Ang**2):
  XXX=            -63.4996  YYY=             10.6868  ZZZ=              1.5395  XYY=             18.5745
  XXY=             31.4488  XXZ=             28.6507  XZZ=             14.1981  YZZ=              0.4896
  YYZ=              8.7448  XYZ=              6.3771
 Hexadecapole moment (field-independent basis, Debye-Ang**3):
 XXXX=          -4400.4780 YYYY=          -1535.6797 ZZZZ=           -214.2822 XXXY=             54.7111
 XXXZ=             61.6687 YYYX=             15.5402 YYYZ=              7.9034 ZZZX=              4.8128
 ZZZY=              9.7019 XXYY=           -962.4647 XXZZ=           -835.8506 YYZZ=           -312.1688
 XXYZ=              6.6107 YYXZ=             23.2012 ZZXY=             12.2072
 N-N= 1.276304154624D+03 E-N=-5.852839296245D+03  KE= 1.395491925499D+03
 PrsmSu:  requested number of processors reduced to:  13 ShMem   1 Linda.
 Calling FoFJK, ICntrl=      2127 FMM=F ISym2X=0 I1Cent= 0 IOpClX= 0 NMat=1 NMatS=1 NMatT=0.
 ***** Axes restored to original set *****
 -------------------------------------------------------------------
 Center     Atomic                   Forces (Hartrees/Bohr)
 Number     Number              X              Y              Z
 -------------------------------------------------------------------
      1        6          -0.000145270   -0.006245549   -0.005023851
      2        7          -0.002672831   -0.001025217    0.027926557
      3        6          -0.002907079    0.004144584    0.013325771
      4        6           0.006129019    0.001635197   -0.015791282
      5        6           0.003805785    0.002565277   -0.002787679
      6        6          -0.021454616   -0.013061734   -0.010433564
      7        6          -0.005410762   -0.009099752    0.014745727
      8        6           0.004337141   -0.002150702    0.022263701
      9        6           0.002460066   -0.005372293    0.027124243
     10       16           0.028356462    0.027048759   -0.007270955
     11        6          -0.021965105   -0.008560022   -0.050619306
     12        6          -0.007924579   -0.013927935    0.024198201
     13        7           0.021050568    0.024347326    0.022604502
     14       16           0.001736156    0.003812019    0.003074010
     15        7          -0.021156887   -0.035147059   -0.014081024
     16        7          -0.003858483    0.017955202   -0.029965052
     17        1           0.010198772    0.002354287   -0.002475050
     18        1           0.003142519    0.002205100   -0.002654889
     19        1           0.003119973   -0.000938950   -0.003259257
     20        1           0.001134528    0.003393703   -0.001178006
     21        1          -0.002485638   -0.002750170    0.001782655
     22        1           0.004848954    0.003526669   -0.001624906
     23        1           0.000952522    0.002350959   -0.002259342
     24        1           0.003587984    0.003345387   -0.001825256
     25        1           0.002110057    0.003583115   -0.007230748
     26        1          -0.006989258   -0.003988199    0.001434799
 -------------------------------------------------------------------
 Cartesian Forces:  Max     0.050619306 RMS     0.013576004

 GradGradGradGradGradGradGradGradGradGradGradGradGradGradGradGradGradGrad
 Berny optimization.
 FormGI is forming the generalized inverse of G from B-inverse, IUseBI=4.
 Internal  Forces:  Max     0.032974199 RMS     0.009344178
 Search for a local minimum.
 Step number   1 out of a maximum of  131
 All quantities printed in internal units (Hartrees-Bohrs-Radians)
 Mixed Optimization -- RFO/linear search
 Second derivative matrix not updated -- first step.
 ITU=  0
     Eigenvalues ---    0.00574   0.00650   0.01293   0.01498   0.01519
     Eigenvalues ---    0.01680   0.01774   0.01821   0.01971   0.02174
     Eigenvalues ---    0.02255   0.02307   0.02378   0.02399   0.02467
     Eigenvalues ---    0.02565   0.02665   0.02826   0.02910   0.03159
     Eigenvalues ---    0.05267   0.06860   0.07135   0.14913   0.15929
     Eigenvalues ---    0.15996   0.15998   0.16000   0.16000   0.16000
     Eigenvalues ---    0.16000   0.16000   0.16000   0.16580   0.20448
     Eigenvalues ---    0.21670   0.21999   0.22157   0.22804   0.23625
     Eigenvalues ---    0.23729   0.24793   0.24925   0.24942   0.24985
     Eigenvalues ---    0.27713   0.32888   0.32894   0.33645   0.33715
     Eigenvalues ---    0.34062   0.34130   0.34390   0.34517   0.34563
     Eigenvalues ---    0.34696   0.34823   0.34903   0.35110   0.35127
     Eigenvalues ---    0.37316   0.38576   0.40354   0.45979   0.46904
     Eigenvalues ---    0.49263   0.50782   0.56806   0.59273   0.61028
     Eigenvalues ---    0.71005   0.77581
 RFO step:  Lambda=-3.32931817D-02 EMin= 5.74300873D-03
 Linear search not attempted -- first point.
 Iteration  1 RMS(Cart)=  0.06615418 RMS(Int)=  0.00174803
 Iteration  2 RMS(Cart)=  0.00230321 RMS(Int)=  0.00045780
 Iteration  3 RMS(Cart)=  0.00000470 RMS(Int)=  0.00045779
 Iteration  4 RMS(Cart)=  0.00000000 RMS(Int)=  0.00045779
 Variable       Old X    -DE/DX   Delta X   Delta X   Delta X     New X
                                 (Linear)    (Quad)   (Total)
    R1        2.80526  -0.01532   0.00000  -0.04097  -0.04097   2.76428
    R2        2.07934  -0.00611   0.00000  -0.01653  -0.01653   2.06281
    R3        2.07813  -0.00199   0.00000  -0.00537  -0.00537   2.07276
    R4        2.06467  -0.00010   0.00000  -0.00027  -0.00027   2.06439
    R5        2.63019   0.00708   0.00000   0.01378   0.01334   2.64353
    R6        2.62654   0.01508   0.00000   0.02973   0.02961   2.65616
    R7        2.52833   0.00107   0.00000   0.00150   0.00108   2.52941
    R8        2.05833  -0.00053   0.00000  -0.00138  -0.00138   2.05696
    R9        2.79303   0.00673   0.00000   0.01697   0.01664   2.80967
   R10        2.05469  -0.00180   0.00000  -0.00468  -0.00468   2.05001
   R11        2.74673   0.01703   0.00000   0.04112   0.04104   2.78777
   R12        2.58769  -0.00056   0.00000  -0.00274  -0.00280   2.58489
   R13        2.49242   0.03093   0.00000   0.04783   0.04780   2.54023
   R14        2.07111  -0.00573   0.00000  -0.01530  -0.01530   2.05582
   R15        2.70144   0.02481   0.00000   0.05746   0.05750   2.75894
   R16        2.06390  -0.00330   0.00000  -0.00871  -0.00871   2.05519
   R17        2.50551   0.01434   0.00000   0.02323   0.02331   2.52882
   R18        2.06171  -0.00186   0.00000  -0.00489  -0.00489   2.05682
   R19        3.21585   0.02759   0.00000   0.07069   0.07076   3.28661
   R20        2.05962  -0.00166   0.00000  -0.00435  -0.00435   2.05527
   R21        3.25554   0.03297   0.00000   0.08826   0.08824   3.34378
   R22        2.92455  -0.03062   0.00000  -0.09835  -0.09799   2.82656
   R23        2.42450  -0.01365   0.00000  -0.01773  -0.01737   2.40714
   R24        2.09238  -0.00809   0.00000  -0.02234  -0.02234   2.07004
   R25        3.02179   0.01582   0.00000   0.02901   0.02940   3.05119
   R26        3.16760   0.02425   0.00000   0.05821   0.05834   3.22594
   R27        2.38806  -0.02028   0.00000  -0.02451  -0.02457   2.36349
    A1        1.94476  -0.01075   0.00000  -0.05352  -0.05381   1.89095
    A2        1.96670  -0.00165   0.00000  -0.00913  -0.00930   1.95740
    A3        1.93311  -0.00201   0.00000  -0.01191  -0.01215   1.92096
    A4        1.84617   0.00745   0.00000   0.04125   0.04103   1.88720
    A5        1.86068   0.00690   0.00000   0.03689   0.03654   1.89722
    A6        1.90750   0.00100   0.00000   0.00148   0.00135   1.90885
    A7        2.01050   0.00688   0.00000   0.02064   0.02137   2.03187
    A8        1.96770  -0.02320   0.00000  -0.08976  -0.08975   1.87796
    A9        2.17622   0.01608   0.00000   0.06651   0.06636   2.24258
   A10        2.22976  -0.00342   0.00000  -0.01030  -0.01074   2.21901
   A11        1.95642   0.00122   0.00000   0.00209   0.00227   1.95869
   A12        2.09215   0.00216   0.00000   0.00766   0.00786   2.10000
   A13        2.14894  -0.00384   0.00000  -0.01520  -0.01590   2.13304
   A14        2.05454   0.00011   0.00000   0.00424   0.00422   2.05877
   A15        2.02269   0.00430   0.00000   0.02336   0.02333   2.04602
   A16        1.97316   0.00583   0.00000   0.02425   0.02473   1.99789
   A17        2.06388  -0.00553   0.00000  -0.02155  -0.02215   2.04172
   A18        2.24610  -0.00031   0.00000  -0.00276  -0.00265   2.24345
   A19        2.32039  -0.00106   0.00000  -0.00317  -0.00338   2.31701
   A20        1.95972  -0.00186   0.00000  -0.01081  -0.01073   1.94899
   A21        2.00307   0.00292   0.00000   0.01394   0.01402   2.01709
   A22        2.26130   0.00317   0.00000   0.01718   0.01712   2.27842
   A23        2.02882  -0.00181   0.00000  -0.00976  -0.00973   2.01908
   A24        1.99294  -0.00135   0.00000  -0.00738  -0.00735   1.98558
   A25        2.29700  -0.00599   0.00000  -0.01874  -0.01866   2.27834
   A26        1.95759   0.00804   0.00000   0.03546   0.03542   1.99301
   A27        2.02859  -0.00205   0.00000  -0.01672  -0.01676   2.01183
   A28        2.33417   0.00069   0.00000   0.00435   0.00446   2.33863
   A29        1.99792   0.00807   0.00000   0.04136   0.04130   2.03922
   A30        1.95107  -0.00876   0.00000  -0.04573  -0.04579   1.90528
   A31        1.93481   0.00023   0.00000  -0.00494  -0.00493   1.92988
   A32        2.31171   0.00320   0.00000   0.00700   0.00684   2.31854
   A33        2.07406   0.00534   0.00000   0.01880   0.01882   2.09289
   A34        1.89719  -0.00856   0.00000  -0.02603  -0.02594   1.87125
   A35        2.04570   0.00250   0.00000   0.01069   0.01042   2.05613
   A36        2.05021  -0.00106   0.00000  -0.00362  -0.00448   2.04573
   A37        2.18687  -0.00138   0.00000  -0.00528  -0.00612   2.18075
   A38        2.37174   0.01748   0.00000   0.05953   0.05939   2.43113
   A39        1.76817   0.02962   0.00000   0.10839   0.10821   1.87638
   A40        2.42747  -0.01990   0.00000  -0.06760  -0.06831   2.35916
   A41        2.19876  -0.00466   0.00000  -0.01930  -0.02027   2.17849
    D1        0.41505  -0.00162   0.00000   0.00479   0.00450   0.41955
    D2        3.05987   0.00283   0.00000   0.02036   0.02053   3.08040
    D3       -1.65709  -0.00258   0.00000  -0.00472  -0.00499  -1.66208
    D4        0.98773   0.00186   0.00000   0.01085   0.01105   0.99878
    D5        2.48324  -0.00121   0.00000   0.00874   0.00861   2.49185
    D6       -1.15513   0.00323   0.00000   0.02432   0.02464  -1.13049
    D7        2.60158  -0.00465   0.00000  -0.04262  -0.04191   2.55967
    D8       -0.64720  -0.00496   0.00000  -0.04807  -0.04786  -0.69507
    D9        0.02397   0.00336   0.00000  -0.00788  -0.00769   0.01628
   D10        3.05837   0.00305   0.00000  -0.01333  -0.01364   3.04473
   D11        2.41795   0.00398   0.00000   0.07460   0.07628   2.49422
   D12       -1.27574   0.00416   0.00000   0.06992   0.07082  -1.20493
   D13        2.60745   0.00342   0.00000   0.04562   0.04472   2.65217
   D14       -0.16271   0.00068   0.00000   0.00163   0.00133  -0.16139
   D15       -0.41957   0.00385   0.00000   0.05186   0.05152  -0.36805
   D16        3.09345   0.00110   0.00000   0.00787   0.00813   3.10158
   D17        1.28228   0.00183   0.00000   0.02995   0.03017   1.31245
   D18       -1.84983   0.00206   0.00000   0.03602   0.03631  -1.81352
   D19       -2.22453   0.00375   0.00000   0.06966   0.06961  -2.15492
   D20        0.92655   0.00398   0.00000   0.07573   0.07574   1.00229
   D21        3.08172  -0.00072   0.00000  -0.01046  -0.01033   3.07139
   D22       -0.05562   0.00002   0.00000   0.00159   0.00162  -0.05399
   D23       -0.07057  -0.00101   0.00000  -0.01741  -0.01743  -0.08800
   D24        3.07527  -0.00027   0.00000  -0.00536  -0.00547   3.06980
   D25       -3.07390   0.00067   0.00000   0.00752   0.00755  -3.06635
   D26        0.09355   0.00198   0.00000   0.02061   0.02069   0.11424
   D27        0.07887   0.00091   0.00000   0.01454   0.01455   0.09342
   D28       -3.03686   0.00222   0.00000   0.02763   0.02769  -3.00918
   D29        0.00090   0.00009   0.00000   0.00306   0.00308   0.00398
   D30       -3.12168  -0.00002   0.00000   0.00048   0.00048  -3.12120
   D31        3.13816  -0.00067   0.00000  -0.00926  -0.00929   3.12887
   D32        0.01558  -0.00078   0.00000  -0.01184  -0.01189   0.00369
   D33        0.03004   0.00030   0.00000   0.00568   0.00565   0.03569
   D34       -3.11403   0.00017   0.00000   0.00369   0.00364  -3.11038
   D35       -3.13025   0.00039   0.00000   0.00820   0.00818  -3.12206
   D36        0.00887   0.00027   0.00000   0.00621   0.00617   0.01505
   D37        0.00941   0.00020   0.00000   0.00276   0.00276   0.01217
   D38       -3.14049  -0.00017   0.00000  -0.00210  -0.00213   3.14056
   D39       -3.12963   0.00031   0.00000   0.00476   0.00473  -3.12490
   D40        0.00365  -0.00006   0.00000  -0.00011  -0.00016   0.00349
   D41       -0.02993  -0.00064   0.00000  -0.00928  -0.00923  -0.03917
   D42        3.11981  -0.00033   0.00000  -0.00482  -0.00491   3.11490
   D43       -0.01976  -0.00005   0.00000  -0.00005  -0.00010  -0.01987
   D44        3.09791  -0.00111   0.00000  -0.01170  -0.01157   3.08634
   D45        0.14725  -0.00162   0.00000  -0.03742  -0.03738   0.10986
   D46       -3.02334   0.00060   0.00000   0.02613   0.02641  -2.99693
   D47       -2.97420  -0.00072   0.00000  -0.02753  -0.02759  -3.00180
   D48        0.13840   0.00150   0.00000   0.03602   0.03619   0.17459
   D49        3.12845   0.00631   0.00000   0.12989   0.13045  -3.02429
   D50        0.01838   0.00388   0.00000   0.06074   0.06117   0.07955
   D51        2.89724  -0.00397   0.00000  -0.04787  -0.04758   2.84966
   D52        0.40746  -0.00183   0.00000   0.01117   0.01330   0.42076
   D53        0.42221  -0.00890   0.00000  -0.12181  -0.11901   0.30320
         Item               Value     Threshold  Converged?
 Maximum Force            0.032974     0.000450     NO 
 RMS     Force            0.009344     0.000300     NO 
 Maximum Displacement     0.177808     0.001800     NO 
 RMS     Displacement     0.065888     0.001200     NO 
 Predicted change in Energy=-1.941412D-02
 GradGradGradGradGradGradGradGradGradGradGradGradGradGradGradGradGradGrad

                          Input orientation:                          
 ---------------------------------------------------------------------
 Center     Atomic      Atomic             Coordinates (Angstroms)
 Number     Number       Type             X           Y           Z
 ---------------------------------------------------------------------
      1          6           0        1.188980    0.070385   -0.271738
      2          7           0        2.621151    0.364687   -0.226534
      3          6           0        3.239565    0.256744    1.023598
      4          6           0        4.494841   -0.135201    1.273110
      5          6           0        5.248702    0.332078    2.466410
      6          6           0        4.837392   -0.299071    3.734781
      7          6           0        5.303053   -0.207984    4.992484
      8          6           0        6.405649    0.575617    5.541814
      9          6           0        7.233022    1.445955    4.951283
     10         16           0        7.388525    2.055292    3.329756
     11          6           0        6.205141    1.288173    2.261067
     12          6           0        6.351537    1.919353    0.912939
     13          7           0        5.488583    1.626634    0.022883
     14         16           0        5.218701    1.876425   -1.549304
     15          7           0        4.054632    0.736138   -2.058082
     16          7           0        3.154674    0.075432   -1.494339
     17          1           0        0.773625    0.231063    0.724875
     18          1           0        0.989204   -0.968525   -0.561313
     19          1           0        0.689869    0.744073   -0.972050
     20          1           0        2.614241    0.642072    1.826913
     21          1           0        5.071342   -0.548293    0.452241
     22          1           0        3.998131   -0.976541    3.592716
     23          1           0        4.792905   -0.823588    5.729751
     24          1           0        6.573218    0.424391    6.606576
     25          1           0        7.987208    1.911630    5.581547
     26          1           0        7.215739    2.574330    0.757679
 ---------------------------------------------------------------------
                    Distance matrix (angstroms):
                    1          2          3          4          5
     1  C    0.000000
     2  N    1.462796   0.000000
     3  C    2.432596   1.398898   0.000000
     4  C    3.654796   2.451435   1.338504   0.000000
     5  C    4.903802   3.762583   2.474674   1.486816   0.000000
     6  C    5.431353   4.587408   3.195699   2.490786   1.475225
     7  C    6.686936   5.895650   4.497333   3.806868   2.583731
     8  C    7.827277   6.902228   5.526304   4.730568   3.294836
     9  C    8.105713   7.017711   5.726135   4.850427   3.369397
    10  S    7.439420   6.183299   5.076121   4.171505   2.879874
    11  C    5.749780   4.459368   3.374880   2.434579   1.367867
    12  C    5.610182   4.198948   3.529998   2.792532   2.479710
    13  N    4.582063   3.142751   2.817110   2.377952   2.775652
    14  S    4.597021   3.283647   3.627695   3.540711   4.302543
    15  N    3.441833   2.355295   3.223493   3.471291   4.696818
    16  N    2.314893   1.405577   2.525883   3.082076   4.487578
    17  H    1.091593   2.082399   2.484101   3.779174   4.803068
    18  H    1.096858   2.133725   3.012865   4.043393   5.385351
    19  H    1.092431   2.104656   3.274302   4.504628   5.725007
    20  H    2.600486   2.072108   1.088496   2.108911   2.728633
    21  H    3.997455   2.701427   2.080851   1.084816   2.205309
    22  H    4.890950   4.275703   2.949031   2.516972   2.131895
    23  H    7.057288   6.450258   5.072263   4.519332   3.491805
    24  H    8.742227   7.893908   6.504689   5.751404   4.347854
    25  H    9.157894   8.057381   6.786284   5.911748   4.438296
    26  H    6.606910   5.192440   4.609975   3.874340   3.437542
                    6          7          8          9         10
     6  C    0.000000
     7  C    1.344230   0.000000
     8  C    2.547524   1.459970   0.000000
     9  C    3.203754   2.542045   1.338193   0.000000
    10  S    3.495046   3.498039   2.837020   1.739201   0.000000
    11  C    2.561623   3.242359   3.363219   2.884215   1.769453
    12  C    3.895745   4.718852   4.820273   4.160450   2.633406
    13  N    4.232089   5.300677   5.692472   5.231141   3.837829
    14  S    5.727105   6.866358   7.306497   6.819122   5.342786
    15  N    5.936466   7.222216   7.956850   7.728984   6.471770
    16  N    5.505950   6.839205   7.767012   7.749664   6.716936
    17  H    5.084759   6.238667   7.418983   7.814237   7.339627
    18  H    5.806302   7.073357   8.304843   8.672006   8.076831
    19  H    6.359587   7.600233   8.667695   8.853890   8.068260
    20  H    3.077030   4.239475   5.308454   5.633920   5.200915
    21  H    3.300290   4.558871   5.380269   5.375059   4.519744
    22  H    1.087891   2.062244   3.464724   4.263650   4.555867
    23  H    2.063250   1.087558   2.143371   3.422136   4.559075
    24  H    3.432738   2.149072   1.088424   2.054003   3.749948
    25  H    4.268382   3.470511   2.070710   1.087604   2.334442
    26  H    4.772432   5.416015   5.247766   4.342792   2.629608
                   11         12         13         14         15
    11  C    0.000000
    12  C    1.495750   0.000000
    13  N    2.374337   1.273803   0.000000
    14  S    3.979702   2.710683   1.614622   0.000000
    15  N    4.856385   3.937352   2.679481   1.707093   0.000000
    16  N    4.987902   4.406242   3.186742   2.739855   1.250705
    17  H    5.742712   5.830849   4.967016   5.257167   4.331854
    18  H    6.345433   6.266409   5.226907   5.192158   3.813534
    19  H    6.416176   6.081855   4.979605   4.703803   3.535698
    20  H    3.674303   4.053909   3.533515   4.439108   4.144485
    21  H    2.816018   2.817875   2.255825   3.147564   2.997530
    22  H    3.431197   4.594119   4.662797   6.005796   5.904912
    23  H    4.299502   5.758015   6.249471   7.775347   7.976724
    24  H    4.445790   5.890802   6.779884   8.394135   9.028663
    25  H    3.819692   4.946855   6.101073   7.649504   8.672420
    26  H    2.221640   1.095420   2.102645   3.130080   4.615198
                   16         17         18         19         20
    16  N    0.000000
    17  H    3.258608   0.000000
    18  H    2.578690   1.771938   0.000000
    19  H    2.606747   1.774753   1.786420   0.000000
    20  H    3.412310   2.184327   3.307324   3.398206   0.000000
    21  H    2.802111   4.376311   4.227025   4.784989   3.056802
    22  H    5.262718   4.481101   5.129296   5.894252   2.766428
    23  H    7.461870   6.505050   7.353002   8.012902   4.703922
    24  H    8.799604   8.262388   9.192391   9.599560   6.210158
    25  H    8.763171   8.857051   9.746901   9.877448   6.676663
    26  H    5.273360   6.855130   7.284319   6.994911   5.103985
                   21         22         23         24         25
    21  H    0.000000
    22  H    3.346306   0.000000
    23  H    5.292015   2.285164   0.000000
    24  H    6.409179   4.204406   2.344310   0.000000
    25  H    6.392439   5.311282   4.207964   2.293891   0.000000
    26  H    3.800329   5.567685   6.491338   6.264556   4.929913
                   26
    26  H    0.000000
 Stoichiometry    C10H10N4S2
 Framework group  C1[X(C10H10N4S2)]
 Deg. of freedom    72
 Full point group                 C1      NOp   1
 Largest Abelian subgroup         C1      NOp   1
 Largest concise Abelian subgroup C1      NOp   1
                         Standard orientation:                         
 ---------------------------------------------------------------------
 Center     Atomic      Atomic             Coordinates (Angstroms)
 Number     Number       Type             X           Y           Z
 ---------------------------------------------------------------------
      1          6           0        3.461931    2.402967    0.738787
      2          7           0        2.680188    1.243050    0.310721
      3          6           0        1.296850    1.426621    0.212768
      4          6           0        0.465186    0.850323   -0.663479
      5          6           0       -0.968170    0.605913   -0.353036
      6          6           0       -1.816770    1.811899   -0.395033
      7          6           0       -3.139433    2.002542   -0.249525
      8          6           0       -4.212794    1.047960    0.011589
      9          6           0       -4.170847   -0.274238    0.213566
     10         16           0       -2.887525   -1.446315    0.277922
     11          6           0       -1.327448   -0.678914   -0.051045
     12          6           0       -0.275709   -1.731724    0.099636
     13          7           0        0.943207   -1.364006    0.059637
     14         16           0        2.418988   -2.018601    0.035499
     15          7           0        3.507360   -0.812323   -0.488431
     16          7           0        3.514353    0.438357   -0.484442
     17          1           0        2.807634    3.068037    1.305490
     18          1           0        3.866711    2.965476   -0.111409
     19          1           0        4.282354    2.083905    1.385711
     20          1           0        0.903658    2.034729    1.025435
     21          1           0        0.899723    0.283883   -1.480271
     22          1           0       -1.232886    2.707051   -0.598229
     23          1           0       -3.482002    3.029414   -0.354229
     24          1           0       -5.205478    1.492638    0.050418
     25          1           0       -5.120190   -0.774107    0.391778
     26          1           0       -0.615449   -2.768005    0.202802
 ---------------------------------------------------------------------
 Rotational constants (GHZ):           0.8490581           0.2749834           0.2139104
 Standard basis: 6-31G(2df,p) (6D, 7F)
 There are   554 symmetry adapted cartesian basis functions of A   symmetry.
 There are   506 symmetry adapted basis functions of A   symmetry.
   506 basis functions,   822 primitive gaussians,   554 cartesian basis functions
    65 alpha electrons       65 beta electrons
       nuclear repulsion energy      1270.6579129209 Hartrees.
 NAtoms=   26 NActive=   26 NUniq=   26 SFac= 1.00D+00 NAtFMM=   60 NAOKFM=F Big=F
 Integral buffers will be    131072 words long.
 Raffenetti 2 integral format.
 Two-electron integral symmetry is turned on.
 One-electron integrals computed using PRISM.
 PrsmSu:  requested number of processors reduced to:  12 ShMem   1 Linda.
 NBasis=   506 RedAO= T EigKep=  1.99D-04  NBF=   506
 NBsUse=   506 1.00D-06 EigRej= -1.00D+00 NBFU=   506
 Initial guess from the checkpoint file:  "Cn1ccc2ccccscd2cnsnn1.chk"
 B after Tr=     0.000000   -0.000000   -0.000000
         Rot=    0.999992   -0.003636    0.000564    0.001357 Ang=  -0.45 deg.
 ExpMin= 1.17D-01 ExpMax= 2.19D+04 ExpMxC= 3.30D+03 IAcc=2 IRadAn=         4 AccDes= 0.00D+00
 Harris functional with IExCor=  402 and IRadAn=       4 diagonalized for initial guess.
 HarFok:  IExCor=  402 AccDes= 0.00D+00 IRadAn=         4 IDoV= 1 UseB2=F ITyADJ=14
 ICtDFT=  3500011 ScaDFX=  1.000000  1.000000  1.000000  1.000000
 FoFCou: FMM=F IPFlag=           0 FMFlag=      100000 FMFlg1=           0
         NFxFlg=           0 DoJE=T BraDBF=F KetDBF=T FulRan=T
         wScrn=  0.000000 ICntrl=       500 IOpCl=  0 I1Cent=   200000004 NGrid=           0
         NMat0=    1 NMatS0=      1 NMatT0=    0 NMatD0=    1 NMtDS0=    0 NMtDT0=    0
 Petite list used in FoFCou.
 Requested convergence on RMS density matrix=1.00D-08 within 128 cycles.
 Requested convergence on MAX density matrix=1.00D-06.
 Requested convergence on             energy=1.00D-06.
 No special actions if energy rises.
 Integral accuracy reduced to 1.0D-05 until final iterations.
 Initial convergence to 1.0D-05 achieved.  Increase integral accuracy.
 SCF Done:  E(RB3LYP) =  -1402.27060182     A.U. after   14 cycles
            NFock= 14  Conv=0.40D-08     -V/T= 2.0050
 PrsmSu:  requested number of processors reduced to:  13 ShMem   1 Linda.
 Calling FoFJK, ICntrl=      2127 FMM=F ISym2X=0 I1Cent= 0 IOpClX= 0 NMat=1 NMatS=1 NMatT=0.
 ***** Axes restored to original set *****
 -------------------------------------------------------------------
 Center     Atomic                   Forces (Hartrees/Bohr)
 Number     Number              X              Y              Z
 -------------------------------------------------------------------
      1        6          -0.003509758   -0.002603889    0.001202083
      2        7          -0.000542506   -0.002842606    0.007959851
      3        6           0.001360056   -0.001259447    0.005450285
      4        6          -0.001688312    0.001629915   -0.004873674
      5        6           0.001883347   -0.002688917    0.007546452
      6        6          -0.000781582   -0.001574195   -0.000220233
      7        6           0.001006483    0.000576885   -0.002237408
      8        6           0.000510183    0.000067809    0.001132190
      9        6          -0.003066122   -0.006400574    0.012222502
     10       16           0.009271386    0.008375610    0.000258672
     11        6          -0.011300548   -0.001500479   -0.018924357
     12        6          -0.001187769   -0.012167429    0.010016332
     13        7           0.004488764    0.015229164   -0.008375356
     14       16           0.007708188    0.006935450    0.007043901
     15        7          -0.009828670   -0.021244805   -0.000202923
     16        7           0.003645888    0.013603918   -0.010519878
     17        1           0.000006037    0.000816393   -0.000411120
     18        1           0.000692570    0.000650182   -0.000691412
     19        1           0.000201735   -0.001105414   -0.000957572
     20        1           0.000481080    0.002613655   -0.002011590
     21        1           0.000144972   -0.002382492    0.001448586
     22        1           0.000865510    0.000487647   -0.000232551
     23        1          -0.000310431    0.000673955   -0.000290820
     24        1           0.000467467    0.000441466   -0.001024755
     25        1           0.000909280    0.001591441   -0.002748709
     26        1          -0.001427248    0.002076755   -0.000558495
 -------------------------------------------------------------------
 Cartesian Forces:  Max     0.021244805 RMS     0.005891791

 GradGradGradGradGradGradGradGradGradGradGradGradGradGradGradGradGradGrad
 Berny optimization.
 Using GEDIIS/GDIIS optimizer.
 FormGI is forming the generalized inverse of G from B-inverse, IUseBI=4.
 Internal  Forces:  Max     0.015642025 RMS     0.003113704
[...]
 457,-0.00103500,0.00492263,0.00319519,0.00249042,0.02016900,0.06062092
 ,-0.00362825,-0.04945688,-0.02054763,0.00347900,-0.00008751,0.00994254
 ,0.00063867,-0.00106344,-0.00118557,0.00042034,0.00042979,0.00028634,-
 0.00004064,-0.00023135,0.00001381,-0.00000245,0.00002452,0.00001465,-0
 .00000261,-0.00000496,0.00000092,0.00000363,0.00001121,0.00000592,-0.0
 0000137,-0.00001004,0.00000564,0.00000600,0.00002449,-0.00000642,0.000
 11974,0.00012995,-0.00013699,-0.00006115,0.00003729,0.00031991,-0.0000
 8534,-0.00045183,-0.00033446,-0.00021765,0.00003173,0.00022874,0.00033
 609,-0.00002885,0.00002794,0.00040952,0.00082894,0.00057939,-0.0032027
 6,0.00070100,-0.02984871,0.00141874,0.00188147,0.02092500,0.00058791,0
 .04685538,-0.02342410,-0.01662365,-0.32195916,-0.00407638,-0.00103142,
 -0.00769203,-0.00120211,0.00145981,0.00021831,-0.00020368,-0.00049663,
 0.00010327,0.00007846,0.00013654,-0.00005203,-0.00004624,-0.00005790,-
 0.00005086,0.00003050,0.00002851,-0.00000502,0.00000062,-0.00002588,-0
 .00000638,-0.00000535,0.00000380,-0.00002018,-0.00000732,0.00000250,0.
 00001431,0.00001705,-0.00000501,0.00002945,0.00003026,0.00001039,-0.00
 002507,0.00001567,-0.00002811,0.00002733,0.00028863,0.00002585,0.00006
 423,-0.00065534,0.00056609,0.00051949,0.00309832,-0.00221529,-0.000077
 16,0.00026596,0.00051172,-0.00573982,-0.00058072,-0.00200923,-0.011759
 62,0.02619907,0.01956001,0.34635598,-0.00006574,-0.00072877,0.00003435
 ,0.00901601,-0.00946211,-0.00037459,-0.05916845,0.06035667,0.00313639,
 0.00851650,0.01330254,0.01242196,-0.00528625,-0.00292563,-0.00118065,0
 .00141021,-0.00051647,0.00073544,-0.00040798,-0.00028515,-0.00036413,0
 .00024059,0.00029225,0.00005411,-0.00018911,-0.00008011,0.00009818,-0.
 00000661,0.00001046,-0.00012912,-0.00023561,0.00229880,-0.00232772,-0.
 00135603,-0.00116399,0.00234248,-0.00017781,0.00018902,-0.00195089,0.0
 0057710,-0.00097571,0.00038987,0.00289891,0.00190767,-0.00079390,-0.00
 265152,-0.00030008,-0.00172169,-0.00006716,0.00008802,-0.00011740,0.00
 013803,0.00003983,-0.00016163,0.00023238,-0.00010433,0.00025588,0.0444
 3591,0.00023063,0.00029990,0.00044109,0.00244438,-0.00454302,-0.006154
 27,0.05913054,-0.28284994,-0.08286870,0.00577615,-0.01724526,-0.001839
 10,-0.00529729,-0.00185790,-0.00169591,0.00082027,-0.00046013,0.000930
 38,-0.00049202,-0.00022987,-0.00040769,0.00026862,0.00040782,-0.000016
 18,-0.00005325,-0.00020528,0.00022120,0.00008871,0.00011801,-0.0000625
 6,0.00012662,0.00203883,-0.00185144,-0.00047317,-0.00028598,0.00142891
 ,0.00029080,-0.00051976,-0.00130842,-0.00022794,-0.00013950,0.00038470
 ,0.00176476,0.00085037,-0.00013761,-0.00413697,0.00160294,0.00231174,-
 0.00048997,0.00030982,-0.00033352,-0.00015013,-0.00031984,-0.00008354,
 -0.00007406,0.00035491,0.00014779,-0.06358615,0.30314199,0.00245051,-0
 .00135096,0.00025534,0.00466126,-0.03066403,-0.02306939,0.01445359,-0.
 07963791,-0.06903285,-0.00864900,0.01662753,0.00197083,0.00340083,0.00
 430478,0.00182715,-0.00101748,0.00042417,-0.00044729,0.00039626,0.0002
 9206,0.00023101,-0.00003992,-0.00024555,0.00001123,-0.00006054,0.00009
 149,-0.00013003,-0.00025275,-0.00010394,-0.00019806,0.00191618,-0.0017
 0936,0.00057710,-0.00072180,0.00074960,0.00052584,0.00068867,-0.000820
 41,-0.00031764,-0.00028451,0.00097657,0.00086785,-0.00147278,-0.001058
 46,0.00013808,-0.00471518,-0.00198196,-0.00113405,-0.00062515,0.000771
 70,0.00015853,-0.00044879,0.00040223,0.00017416,-0.00002114,0.00019804
 ,0.00004085,-0.00555502,0.09116497,0.08694885,-0.00024607,0.00046412,-
 0.00058952,-0.00099900,-0.00102752,0.00714433,-0.00149656,0.02243454,-
 0.00221819,-0.03350773,-0.00335825,-0.00226260,-0.00458048,-0.02082858
 ,-0.01070251,0.00041907,-0.00125525,0.00321208,-0.00139548,-0.00030547
 ,-0.00095882,0.00053200,0.00078089,-0.00007870,0.00002103,-0.00083504,
 0.00045617,-0.00107625,-0.00116516,-0.00144956,0.00309186,0.00298186,-
 0.00547949,-0.00065467,0.00004391,0.00296135,0.00024945,-0.00230951,-0
 .00221251,-0.00115386,-0.00033506,0.00133777,0.00260509,0.00182101,-0.
 00124337,-0.00072202,-0.00201533,-0.00004384,0.00010515,-0.00001097,0.
 00013873,0.00017446,0.00003767,-0.00007640,-0.00000015,-0.00005030,-0.
 00002665,0.00221520,0.00433257,-0.00393633,0.03668527,0.00015750,-0.00
 015649,0.00006920,-0.00048198,0.00000913,-0.00204987,-0.00057396,-0.01
 630628,-0.00637062,-0.00002048,-0.31742149,-0.05504625,-0.00092086,-0.
 00693604,-0.00182022,0.00047796,-0.00028753,0.00222054,-0.00078539,0.0
 0004323,-0.00062193,0.00024673,0.00040496,-0.00001232,0.00002938,-0.00
 045114,0.00024388,-0.00028721,-0.00015003,-0.00040274,0.00064760,0.000
 93659,-0.00218496,-0.00009867,0.00029931,0.00025081,0.00027944,-0.0007
 5839,-0.00011068,-0.00080609,0.00018014,-0.00029994,0.00041608,0.00060
 246,-0.00027269,-0.00003899,0.00074965,0.00108080,-0.00005152,0.000088
 90,0.00000844,0.00002075,0.00000094,0.00006373,0.00000336,0.00002120,0
 .00001444,0.00162950,-0.00065721,0.00157285,0.00013549,0.33925822,-0.0
 0020797,-0.00034885,0.00068044,0.00226152,0.00150760,-0.00357249,0.000
 97345,0.01396396,0.01062795,-0.01450509,-0.05853439,-0.06899981,0.0036
 9903,-0.01828341,0.00436109,-0.00073263,-0.00065271,0.00013331,0.00070
 129,0.00048303,0.00056057,-0.00025579,-0.00031889,0.00000332,0.0001483
 7,-0.00004582,-0.00016187,-0.00065179,-0.00027101,0.00033313,-0.003573
 40,-0.00350420,-0.00009650,0.00084359,0.00000464,-0.00281645,-0.000352
 18,0.00133039,0.00187050,0.00024906,0.00018150,-0.00118175,0.00082025,
 -0.00043457,-0.00081901,-0.00057304,0.00096930,0.00095670,0.00001048,-
 0.00018166,-0.00014241,-0.00021667,-0.00003414,-0.00000837,0.00002252,
 0.00000464,0.00002580,-0.00506494,-0.00037828,0.00057306,0.01615373,0.
 06403587,0.05836217,-0.00000549,0.00006410,-0.00002655,0.00010245,0.00
 013425,0.00033685,-0.00020665,0.00026462,-0.00033971,-0.00029525,0.000
 59889,0.00025841,0.00461549,0.00624500,-0.00314112,-0.14519979,-0.1359
 0250,0.00475726,-0.01582998,-0.02069041,-0.00211501,0.00274057,-0.0013
 2251,-0.00608424,-0.00099067,0.00015111,0.00007787,0.00072270,-0.00064
 951,-0.00019984,0.00122462,-0.00069654,-0.00251040,0.00012659,0.000645
 61,-0.00064911,-0.00000153,0.00011054,0.00040207,0.00001307,-0.0000763
 4,-0.00002997,-0.00007106,0.00009598,0.00001810,0.00008658,-0.00017689
 ,-0.00008009,-0.00000313,-0.00000043,-0.00000177,0.00001960,-0.0000086
 1,-0.00000589,0.00000142,-0.00000369,0.00000284,-0.00002709,0.00002055
 ,0.00000351,0.00020210,0.00025354,0.00016169,0.15505275,-0.00011875,-0
 .00008228,-0.00000663,-0.00029193,-0.00021426,-0.00004496,0.00088032,-
 0.00001147,0.00047691,0.00016040,0.00028740,-0.00236430,-0.01259371,-0
 .01632416,0.00152047,-0.13883254,-0.22261210,0.01524676,0.00132278,0.0
 0003439,0.00364691,-0.00291894,0.00446138,0.00291758,0.00110399,0.0000
 7834,0.00007388,-0.00048886,0.00030757,0.00029180,-0.00026844,0.000376
 93,0.00505475,0.00055835,-0.00109704,-0.00068504,-0.00025225,0.0003412
 5,0.00052000,0.00005209,-0.00018480,-0.00023928,-0.00031067,-0.0001348
 0,0.00002097,0.00037426,0.00031838,0.00008444,0.00001491,-0.00001067,-
 0.00000036,0.00001473,0.00001274,0.00000236,0.00000401,0.00000531,0.00
 000288,0.00000847,0.00007323,-0.00005408,0.00014546,0.00039644,0.00049
 541,0.14939486,0.23458256,0.00001774,0.00007034,0.00000630,-0.00000688
 ,0.00025532,0.00030463,-0.00014689,-0.00041356,-0.00006152,0.00059057,
 0.00086823,0.00042079,0.01277573,0.02038340,0.00050633,0.00157001,0.01
 664765,-0.05153238,-0.01475727,-0.01749073,0.00357830,-0.00644150,0.00
 384346,0.00233389,0.00027998,0.00080604,-0.00060014,-0.00031723,0.0003
 3491,0.00034713,-0.00091388,0.00235259,-0.00298822,-0.00002143,0.00075
 683,0.00147681,-0.00014258,-0.00018731,-0.00059348,0.00003092,0.000015
 94,0.00020502,0.00003181,0.00013047,-0.00011241,0.00002603,-0.00040237
 ,-0.00016595,-0.00001573,0.00000716,0.00000100,0.00000322,-0.00000261,
 -0.00000566,0.00001174,-0.00000182,0.00000647,0.00013158,0.00002623,0.
 00000306,0.00000288,-0.00036052,-0.00056209,0.00546249,-0.02374225,0.0
 5127557,0.00001098,0.00002586,-0.00008721,-0.00009069,0.00003476,0.000
 13386,-0.00038281,-0.00006726,-0.00060002,0.00083001,0.00134250,-0.000
 13859,-0.00035068,-0.00412167,-0.00611034,0.00137621,0.01906820,-0.017
 61542,-0.05585117,0.00848288,-0.01590904,0.00425483,-0.01813578,0.0125
 0742,-0.00201443,-0.00426663,-0.00084333,-0.00007856,0.00037250,-0.000
 67740,-0.00032482,-0.00019890,0.00026831,-0.00063899,0.00050017,0.0000
 7140,0.00010238,-0.00029313,-0.00015109,-0.00000919,0.00005944,0.00013
 911,0.00017624,0.00008206,0.00000158,-0.00020686,0.00005446,0.00008822
 ,0.00000275,-0.00000512,-0.00000015,0.00001245,-0.00000469,0.00000523,
 -0.00002284,0.00000572,-0.00000770,-0.00000631,-0.00000541,0.00003699,
 -0.00009034,-0.00008675,0.00002953,-0.00174818,0.00253493,0.00224570,0
 .05388771,-0.00002495,-0.00003268,0.00003687,-0.00001338,0.00001049,-0
 .00001897,0.00026236,0.00005450,0.00017731,-0.00026921,-0.00064710,-0.
 00017062,-0.00188239,0.00432965,0.00252816,-0.00403576,0.00121357,-0.0
 0100194,0.01284744,-0.22315995,0.13907389,0.00043380,-0.01932822,0.013
 84037,-0.00485321,0.00106553,-0.00002393,-0.00017855,0.00010574,0.0004
 9458,-0.00026848,-0.00031472,-0.00072910,0.00058859,-0.00020817,-0.000
 05378,-0.00012570,0.00033907,0.00025718,0.00000959,-0.00014175,-0.0001
 4638,-0.00015275,-0.00002085,0.00002139,0.00017445,-0.00006336,-0.0000
 5082,0.00000163,0.00000275,0.00000313,-0.00000780,0.00000451,-0.000007
 56,0.00000996,-0.00000350,0.00000501,0.00000615,0.00000271,-0.00005475
 ,0.00003736,0.00002978,0.00002236,0.00178237,-0.00007431,-0.00267419,-
 0.00475844,0.23733494,0.00006779,-0.00016711,0.00008825,-0.00030520,0.
 00000512,-0.00035230,0.00062652,-0.00020846,0.00034432,-0.00071901,-0.
 00004990,-0.00100533,-0.00578271,0.00319156,0.00521415,-0.00584227,0.0
 1906069,-0.01343126,-0.01269737,0.13676953,-0.13972476,-0.00336252,-0.
 00637498,0.00501909,-0.00135988,0.00105431,0.00051258,-0.00029655,0.00
 001113,0.00069005,-0.00001676,-0.00060945,-0.00066811,0.00076954,-0.00
 046936,0.00002728,-0.00003551,0.00043585,0.00015845,-0.00000498,-0.000
 09072,-0.00011294,-0.00019359,-0.00014363,-0.00007169,0.00019528,-0.00
 000017,-0.00005009,0.00000434,0.00001052,0.00000715,-0.00006744,0.0000
 0920,-0.00001153,-0.00000562,-0.00000528,-0.00000375,0.00011724,0.0000
 5196,-0.00011538,0.00000147,0.00001885,-0.00005791,0.00302329,-0.00271
 089,-0.00280279,0.02577114,-0.14929943,0.14736312,0.00008223,-0.000033
 24,0.00002182,-0.00011406,0.00013564,-0.00006347,0.00004386,-0.0001106
 7,0.00013503,-0.00018161,0.00021667,-0.00025322,0.00003896,-0.00057111
 ,0.00097335,-0.00203986,-0.00288401,0.00038847,-0.01636389,0.00991762,
 -0.01061352,-0.24394023,0.07862359,-0.09706980,-0.00041433,-0.00023294
 ,-0.00268295,0.00297813,-0.00080789,-0.00182531,-0.00029152,0.00015635
 ,-0.00066043,0.00016105,-0.00026841,0.00014854,0.00005960,0.00026484,-
 0.00000914,-0.00001817,-0.00010042,0.00000189,-0.00006880,0.00000001,-
 0.00004296,0.00005804,-0.00012878,-0.00004258,-0.00000658,0.00000777,0
 .00000232,-0.00002628,-0.00000208,-0.00000102,-0.00000790,-0.00000020,
 -0.00000779,0.00000948,0.00001557,-0.00002775,0.00004465,0.00004705,0.
 00002744,-0.00033525,-0.00037153,-0.00113008,0.00070695,0.00011070,0.0
 0022474,0.25940841,-0.00003355,0.00003396,-0.00003589,0.00004144,0.000
 04680,0.00020515,-0.00010461,0.00011301,-0.00026071,0.00042733,0.00006
 571,0.00008857,-0.00024693,-0.00045471,0.00026488,-0.00206070,-0.00239
 620,0.00081208,-0.02133163,0.00696317,-0.00991609,0.08001991,-0.084366
 82,0.04592047,0.02675549,-0.01231103,0.01392819,0.00067648,-0.00447775
 ,0.00215093,-0.00023771,0.00048888,-0.00065126,0.00003032,0.00013857,0
 .00017098,-0.00010221,0.00007762,0.00000972,0.00001372,-0.00008079,0.0
 0001594,0.00005085,0.00009644,0.00004451,-0.00004056,-0.00006963,-0.00
 001240,0.00000152,-0.00000222,0.00000176,0.00002152,-0.00000179,-0.000
 00114,0.00000173,0.00000017,0.00000191,-0.00004355,-0.00001624,-0.0000
 0090,0.00000326,0.00001418,0.00006532,-0.00025632,-0.00048015,-0.00094
 857,0.00042824,0.00052342,-0.00030208,-0.08442353,0.09561833,-0.000033
 62,0.00001066,-0.00000939,0.00008969,-0.00006388,0.00006249,-0.0000642
 8,0.00019062,-0.00017714,0.00054254,-0.00023015,0.00032186,-0.00008111
 ,0.00138097,-0.00155454,0.00072656,-0.00074068,0.00491659,-0.00839702,
 -0.00063025,-0.00163765,-0.09651413,0.05017117,-0.08542283,-0.00706991
 ,0.00139737,0.00289728,-0.00234945,0.00191937,0.00534644,0.00072421,-0
 .00073513,0.00168198,-0.00026538,0.00039951,0.00020789,-0.00006650,-0.
 00019995,-0.00014858,-0.00001411,0.00000678,0.00008389,0.00010506,0.00
 004032,-0.00001981,-0.00011525,0.00003334,0.00003835,0.00000373,-0.000
 00601,0.00000151,0.00001026,0.00000212,0.00000075,0.00000135,0.0000004
 3,0.00000242,-0.00001461,-0.00003752,0.00002386,-0.00010391,-0.0000768
 4,0.00004626,-0.00009680,-0.00008494,-0.00016445,0.00103127,-0.0015112
 4,-0.00040958,0.10971595,-0.04998034,0.07876771,0.00008797,-0.00000044
 ,0.00002087,0.00008540,0.00003171,-0.00004160,-0.00016523,0.00021941,-
 0.00010975,0.00063180,-0.00037056,0.00032138,-0.00027182,0.00106366,-0
 .00237245,0.00013161,-0.00015334,0.00145491,0.00118833,-0.00044987,-0.
 00346890,0.00415830,0.00449260,-0.00079836,-0.23166008,-0.14070444,-0.
 04545750,-0.01156132,-0.00393990,-0.00461428,-0.00146328,-0.00065088,-
 0.00125425,-0.00094115,-0.00043508,0.00160772,0.00023195,-0.00048361,-
 0.00109582,-0.00008392,0.00022442,0.00036819,0.00041211,0.00017975,-0.
 00009601,-0.00040316,-0.00012224,0.00006844,-0.00000580,0.00000122,0.0
 0000642,-0.00001439,-0.00000326,0.00000215,-0.00000371,-0.00000578,-0.
 00000923,0.00000130,-0.00004861,0.00003996,-0.00018900,-0.00011514,-0.
 00001935,-0.00022566,0.00016011,0.00036852,0.00042662,0.00029459,-0.00
 015114,0.00020565,0.00036418,0.00221132,0.23938390,-0.00002747,-0.0000
 0775,-0.00000593,-0.00006586,0.00001827,0.00001612,0.00007979,-0.00012
 067,0.00005682,-0.00033577,0.00036059,-0.00022830,0.00021981,-0.000348
 78,0.00134050,0.00000206,-0.00008385,-0.00038186,0.00208949,-0.0026927
 9,0.00353416,-0.02706850,-0.01409016,-0.00566208,-0.12834381,-0.143456
 17,-0.02560458,0.01161231,0.00532894,0.00473059,0.00185844,0.00037203,
 0.00009514,0.00035878,0.00018562,-0.00072961,-0.00012427,0.00032707,0.
 00054833,0.00002340,-0.00017814,-0.00018898,-0.00020523,-0.00007002,0.
 00003764,0.00019364,0.00002410,-0.00005130,0.00000269,0.00000078,-0.00
 000333,0.00000281,0.00000116,-0.00000159,0.00000046,0.00000373,0.00000
 273,0.00000021,0.00001648,-0.00002228,0.00013456,0.00008481,0.00003879
 ,-0.00014883,0.00001932,-0.00021409,-0.00104370,-0.00106655,-0.0002446
 8,0.00037659,0.00048724,-0.00119163,0.14040356,0.15492286,-0.00011492,
 -0.00009615,0.00001700,-0.00000204,-0.00066987,-0.00066825,0.00031189,
 -0.00006104,0.00073073,-0.00065573,-0.00018693,-0.00033026,0.00044963,
 -0.00105679,0.00126607,0.00042296,0.00198513,-0.00240415,-0.00191797,0
 .00192334,0.01094086,0.00147542,0.00760103,0.00519097,-0.04248204,-0.0
 3348041,-0.04334158,-0.01280836,0.00124835,-0.00176096,-0.00142554,0.0
 0085799,0.00189213,-0.00023287,0.00039975,-0.00112656,0.00054251,-0.00
 076094,-0.00011684,-0.00009485,0.00065940,-0.00020493,-0.00011023,-0.0
 0063687,0.00002300,0.00009234,0.00092184,0.00027520,0.00002695,-0.0000
 1852,-0.00000055,-0.00000351,0.00002291,0.00001251,-0.00000127,0.00000
 190,0.00000223,0.00009116,0.00007821,-0.00001014,0.00008758,0.00003172
 ,-0.00021173,0.00090289,-0.00066629,-0.00071603,-0.00020102,-0.0006494
 5,-0.00054559,0.00278480,-0.00148661,-0.00485779,0.05297609,0.02414986
 ,0.03594054,-0.00019371,-0.00018454,-0.00007650,0.00034545,-0.00197309
 ,-0.00053350,-0.00019286,-0.00027862,0.00050840,0.00011695,0.00078295,
 0.00036580,0.00304211,-0.00280715,0.00429917,-0.00109824,-0.00079730,-
 0.00092363,-0.00006551,0.00002368,0.00010086,-0.00012917,0.00035310,0.
 00002752,0.00075121,-0.00007312,-0.00010465,-0.00102462,0.00072973,-0.
 00074153,-0.00364355,-0.01633696,-0.00228451,-0.11493027,-0.11514993,-
 0.00772920,0.00658441,0.00368164,-0.00791497,0.00471483,0.00005866,0.0
 0174155,0.00109665,-0.00194783,0.00235789,-0.00102971,0.00363650,0.000
 41248,0.00010672,-0.00005183,0.00006515,0.00001975,0.00004912,0.000015
 36,0.00004148,-0.00001884,-0.00003067,-0.00004595,-0.00027522,-0.00021
 961,-0.00023372,-0.00007733,0.00005091,0.00003179,-0.00028204,0.000344
 55,0.00002873,0.00001162,0.00003920,0.00001146,0.00004530,0.00002412,0
 .00004357,0.00000485,-0.00011390,0.10565217,0.00020968,0.00005089,0.00
 007539,-0.00024106,0.00091121,0.00031018,0.00009418,0.00029538,-0.0000
 8908,0.00019790,-0.00026032,-0.00002369,-0.00221472,0.00226972,0.00041
 602,0.00042224,-0.00009234,0.00042453,-0.00062110,-0.00024298,-0.00006
 040,0.00019998,0.00049650,0.00018029,0.00059035,-0.00091990,0.00051464
 ,0.00134779,0.00131159,-0.00146770,-0.01098344,-0.01078144,-0.00069495
 ,-0.11593650,-0.23362783,-0.02405317,-0.00167599,-0.01409207,-0.017926
 10,-0.00265485,0.00428375,0.00251090,0.00030903,0.00055467,-0.00142028
 ,-0.00024077,-0.00175401,-0.00030124,-0.00008191,0.00004482,-0.0000316
 7,-0.00003275,-0.00002113,-0.00000132,-0.00002813,-0.00000272,0.000013
 16,0.00004247,0.00011292,0.00012858,0.00014373,0.00000465,-0.00011487,
 0.00017117,-0.00006920,-0.00006054,-0.00000427,0.00004448,0.00005743,0
 .00006241,-0.00001018,-0.00006408,0.00004791,-0.00003813,-0.00011157,0
 .13087665,0.25153167,0.00009691,0.00010058,0.00006477,-0.00008733,0.00
 011167,0.00139743,-0.00047788,0.00006652,-0.00068859,0.00013325,-0.000
 03174,0.00020786,0.00117073,0.00013061,-0.00378413,0.00008088,0.000856
 88,0.00046539,0.00007199,0.00008745,-0.00008051,0.00025380,0.00006405,
 0.00014918,-0.00030439,-0.00004729,-0.00021189,0.00121654,0.00183740,-
 0.00061923,0.01592708,0.02006726,-0.00101611,-0.01777672,-0.02866034,-
 0.04118910,-0.01087649,-0.03155462,-0.02499368,-0.00041492,-0.00291386
 ,-0.00126969,0.00120302,-0.00292683,-0.00068368,-0.00031984,0.00098132
 ,-0.00040049,-0.00003718,0.00000809,0.00001977,0.00000595,0.00000527,-
 0.00000324,0.00004777,-0.00004894,-0.00001905,-0.00005233,-0.00001245,
 0.00012801,-0.00011368,0.00001847,0.00009610,-0.00012676,0.00024390,-0
 .00016017,0.00001154,-0.00006807,-0.00006143,0.00000565,-0.00008443,0.
 00000248,0.00004270,-0.00002044,0.00000412,0.01031972,0.04178956,0.072
 64588\\0.00001322,-0.00001156,0.00000156,-0.00002245,0.00001045,-0.000
 01344,0.00001067,-0.00000362,0.00000530,0.00000210,0.00000219,-0.00000
 574,0.00000182,0.00002040,0.00000519,0.00000034,-0.00001486,-0.0000011
 6,-0.00001319,-0.00001880,0.00000719,0.00001093,0.00001626,-0.00000202
 ,-0.00000292,0.00000738,0.00000091,0.00000780,0.00000009,0.00000136,-0
 .00000281,-0.00001383,-0.00000440,-0.00000597,0.00001080,0.00000289,0.
 00000894,-0.00001958,-0.00000695,-0.00002130,0.00000015,0.00000251,0.0
 0002876,0.00001203,0.00000322,-0.00001205,0.00000316,0.00000500,-0.000
 00063,0.00000019,0.00000063,-0.00000120,0.00000208,0.00000029,-0.00000
 086,0.00000172,-0.00000031,0.00000089,-0.00000242,0.00000152,0.0000026
 2,0.00000113,-0.00000065,0.00000294,0.00000201,-0.00000274,0.00000079,
 0.00000499,0.00000077,-0.00000148,-0.00000065,-0.00000418,0.00000098,-
 0.00000530,-0.00000043,-0.00000794,-0.00000440,0.00000371\\\@


 THERE IS AN OLD, OLD RECIPE IN MAINE FOR STEWING COOT. PLACE THE
 BIRD IN A KETTLE OF WATER WITH A RED BUILDING BRICK FREE OF MORTAR AND
 BLEMISHES. PARBOIL THE COOT AND BRICK TOGETHER FOR THREE HOURS.
 POUR OFF THE WATER, REFILL THE KETTLE, AND AGAIN PARBOIL FOR THREE HOURS.
 ONCE AGAIN POUR OFF THE WATER, FOR THE LAST TIME ADD FRESH WATER,
 AND LET THE COOT AND BRICK SIMMER TOGETHER OVERNIGHT. IN THE MORNING,
 THROW AWAY THE COOT AND EAT THE BRICK.
 Job cpu time:       0 days  8 hours 37 minutes 45.6 seconds.
 Elapsed time:       0 days  2 hours  9 minutes 28.1 seconds.
 File lengths (MBytes):  RWF=    541 Int=      0 D2E=      0 Chk=     21 Scr=      1
 Normal termination of Gaussian 16 at Sat May 20 12:13:05 2023.
### All Done ###
