### Starting Gaussian ###
 Entering Gaussian System, Link 0=g16
 Initial command:
 /cluster/software/gaussian/gaussian-16-A.03/avx2/g16/l1.exe "/local/scratch/yxie/Gau-4441.inp" -scrdir="/local/scratch/yxie/"
 Entering Link 1 = /cluster/software/gaussian/gaussian-16-A.03/avx2/g16/l1.exe PID=      4442.
  
 Copyright (c) 1988,1990,1992,1993,1995,1998,2003,2009,2016,
            Gaussian, Inc.  All Rights Reserved.
  
 This is part of the Gaussian(R) 16 program.  It is based on
 the Gaussian(R) 09 system (copyright 2009, Gaussian, Inc.),
 the Gaussian(R) 03 system (copyright 2003, Gaussian, Inc.),
 the Gaussian(R) 98 system (copyright 1998, Gaussian, Inc.),
 the Gaussian(R) 94 system (copyright 1995, Gaussian, Inc.),
 the Gaussian 92(TM) system (copyright 1992, Gaussian, Inc.),
 the Gaussian 90(TM) system (copyright 1990, Gaussian, Inc.),
 the Gaussian 88(TM) system (copyright 1988, Gaussian, Inc.),
 the Gaussian 86(TM) system (copyright 1986, Carnegie Mellon
 University), and the Gaussian 82(TM) system (copyright 1983,
 Carnegie Mellon University). Gaussian is a federally registered
 trademark of Gaussian, Inc.
  
 This software contains proprietary and confidential information,
 including trade secrets, belonging to Gaussian, Inc.
  
 This software is provided under written license and may be
 used, copied, transmitted, or stored only in accord with that
 written license.
  
 The following legend is applicable only to US Government
 contracts under FAR:
  
                    RESTRICTED RIGHTS LEGEND
  
 Use, reproduction and disclosure by the US Government is
 subject to restrictions as set forth in subparagraphs (a)
 and (c) of the Commercial Computer Software - Restricted
 Rights clause in FAR 52.227-19.
  
 Gaussian, Inc.
 340 Quinnipiac St., Bldg. 40, Wallingford CT 06492
  
  
 ---------------------------------------------------------------
 Warning -- This program may not be used in any manner that
 competes with the business of Gaussian, Inc. or will provide
 assistance to any competitor of Gaussian, Inc.  The licensee
 of this program is prohibited from giving any competitor of
 Gaussian, Inc. access to this program.  By using this program,
 the user acknowledges that Gaussian, Inc. is engaged in the
 business of creating and licensing software in the field of
 computational chemistry and represents and warrants to the
 licensee that it is not a competitor of Gaussian, Inc. and that
 it will not use this program in any manner prohibited above.
 ---------------------------------------------------------------
  

 Cite this work as:
 Gaussian 16, Revision A.03,
 M. J. Frisch, G. W. Trucks, H. B. Schlegel, G. E. Scuseria, 
 M. A. Robb, J. R. Cheeseman, G. Scalmani, V. Barone, 
 G. A. Petersson, H. Nakatsuji, X. Li, M. Caricato, A. V. Marenich, 
 J. Bloino, B. G. Janesko, R. Gomperts, B. Mennucci, H. P. Hratchian, 
 J. V. Ortiz, A. F. Izmaylov, J. L. Sonnenberg, D. Williams-Young, 
 F. Ding, F. Lipparini, F. Egidi, J. Goings, B. Peng, A. Petrone, 
 T. Henderson, D. Ranasinghe, V. G. Zakrzewski, J. Gao, N. Rega, 
 G. Zheng, W. Liang, M. Hada, M. Ehara, K. Toyota, R. Fukuda, 
 J. Hasegawa, M. Ishida, T. Nakajima, Y. Honda, O. Kitao, H. Nakai, 
 T. Vreven, K. Throssell, J. A. Montgomery, Jr., J. E. Peralta, 
 F. Ogliaro, M. J. Bearpark, J. J. Heyd, E. N. Brothers, K. N. Kudin, 
 V. N. Staroverov, T. A. Keith, R. Kobayashi, J. Normand, 
 K. Raghavachari, A. P. Rendell, J. C. Burant, S. S. Iyengar, 
 J. Tomasi, M. Cossi, J. M. Millam, M. Klene, C. Adamo, R. Cammi, 
 J. W. Ochterski, R. L. Martin, K. Morokuma, O. Farkas, 
 J. B. Foresman, and D. J. Fox, Gaussian, Inc., Wallingford CT, 2016.
 
 ******************************************
 Gaussian 16:  ES64L-G16RevA.03 25-Dec-2016
                16-May-2023 
 ******************************************
 %chk=CN1Nc2c3cc1cccccccc-3sc2dO.chk
 %NProcShared=20
 Will use up to   20 processors via shared memory.
 -----------------------------
 # opt freq b3lyp/6-31g(2df,p)
 -----------------------------
 1/18=20,19=15,26=3,38=1/1,3;
 2/9=110,12=2,17=6,18=5,40=1/2;
 3/5=1,6=6,7=104,11=2,25=1,30=1,71=1,74=-5/1,2,3;
 4//1;
 5/5=2,38=5/2;
 6/7=2,8=2,9=2,10=2,28=1/1;
 7//1,2,3,16;
 1/18=20,19=15,26=3/3(2);
 2/9=110/2;
 99//99;
 2/9=110/2;
 3/5=1,6=6,7=104,11=2,25=1,30=1,71=1,74=-5/1,2,3;
 4/5=5,16=3,69=1/1;
 5/5=2,38=5/2;
 7//1,2,3,16;
 1/18=20,19=15,26=3/3(-5);
 2/9=110/2;
 6/7=2,8=2,9=2,10=2,19=2,28=1/1;
 99/9=1/99;
 -------------------
 Title Card Required
 -------------------
 Symbolic Z-matrix:
 Charge =  0 Multiplicity = 1
 C                     4.04279  -0.40445  -0.05767 
 N                     6.26923  -0.64412   0.089 
 N                     4.476    -0.43762   0.94796 
 C                     5.13701   0.24874   1.78094 
 C                     6.02679  -0.76654   2.20779 
 C                     7.54041  -1.66994   1.73282 
 C                     8.5628   -0.88319   0.45405 
 C                     10.84703  -0.76142   0.34971 
 C                     12.77273  -0.11097   0.36476 
 C                     12.96949   0.33201   1.83266 
 C                     11.83343   0.98204   1.46913 
 C                     10.78345   0.02858   2.22614 
 C                     9.63738   0.62202   1.92574 
 C                     8.62793  -0.11971   2.55302 
 C                     7.32336   0.08473   2.0479 
 S                     7.15149   1.49197   0.87048 
 C                     5.49951   1.28363   0.55869 
 O                     4.9685    1.64509  -0.50082 
 H                     2.44541  -0.68898  -0.33617 
 H                     2.58409   0.39832  -0.24735 
 H                     2.48323  -0.19288   0.59193 
 H                     3.27584  -0.02649   1.69207 
 H                     6.4802   -1.87049   2.77224 
 H                     12.56917  -0.99554   0.71585 
 H                     14.05402   0.94675   0.0753 
 H                     13.48958  -0.7401    2.34363 
 H                     11.82532   1.15209   0.21299 
 H                     11.12213  -1.07066   2.50793 
 H                     9.50672   0.9285    0.67925 
 H                     9.00404  -1.24394   2.84425 
 
 Add virtual bond connecting atoms H21        and H20        Dist= 1.95D+00.
 Add virtual bond connecting atoms H20        and H19        Dist= 2.08D+00.
 Add virtual bond connecting atoms H21        and H19        Dist= 1.99D+00.
 Add virtual bond connecting atoms H23        and C5         Dist= 2.49D+00.
 Add virtual bond connecting atoms H22        and H21        Dist= 2.58D+00.
 Add virtual bond connecting atoms H22        and N3         Dist= 2.78D+00.
 Add virtual bond connecting atoms H25        and C9         Dist= 3.19D+00.
 Add virtual bond connecting atoms H24        and C8         Dist= 3.36D+00.
 Add virtual bond connecting atoms N3         and N2         Dist= 3.78D+00.
 Add virtual bond connecting atoms C5         and N2         Dist= 4.04D+00.
 Add virtual bond connecting atoms C17        and N2         Dist= 4.02D+00.

 GradGradGradGradGradGradGradGradGradGradGradGradGradGradGradGradGradGrad
 Berny optimization.
 Initialization pass.
                           ----------------------------
                           !    Initial Parameters    !
                           ! (Angstroms and Degrees)  !
 --------------------------                            --------------------------
 ! Name  Definition              Value          Derivative Info.                !
 --------------------------------------------------------------------------------
 ! R1    R(1,3)                  1.0955         estimate D2E/DX2                !
 ! R2    R(2,3)                  1.999          estimate D2E/DX2                !
 ! R3    R(2,5)                  2.1361         estimate D2E/DX2                !
 ! R4    R(2,17)                 2.1282         estimate D2E/DX2                !
 ! R5    R(3,4)                  1.2657         estimate D2E/DX2                !
 ! R6    R(3,22)                 1.4708         estimate D2E/DX2                !
 ! R7    R(4,5)                  1.4159         estimate D2E/DX2                !
 ! R8    R(4,17)                 1.642          estimate D2E/DX2                !
 ! R9    R(5,6)                  1.8256         estimate D2E/DX2                !
 ! R10   R(5,15)                 1.5593         estimate D2E/DX2                !
 ! R11   R(5,23)                 1.3202         estimate D2E/DX2                !
 ! R12   R(6,7)                  1.8165         estimate D2E/DX2                !
 ! R13   R(6,15)                 1.7959         estimate D2E/DX2                !
 ! R14   R(8,24)                 1.7761         estimate D2E/DX2                !
 ! R15   R(9,10)                 1.5459         estimate D2E/DX2                !
 ! R16   R(9,11)                 1.8157         estimate D2E/DX2                !
 ! R17   R(9,24)                 0.9732         estimate D2E/DX2                !
 ! R18   R(9,25)                 1.6865         estimate D2E/DX2                !
 ! R19   R(10,11)                1.3584         estimate D2E/DX2                !
 ! R20   R(10,26)                1.2965         estimate D2E/DX2                !
 ! R21   R(11,12)                1.6077         estimate D2E/DX2                !
 ! R22   R(11,27)                1.2676         estimate D2E/DX2                !
 ! R23   R(12,13)                1.3251         estimate D2E/DX2                !
 ! R24   R(12,28)                1.1842         estimate D2E/DX2                !
 ! R25   R(13,14)                1.4009         estimate D2E/DX2                !
 ! R26   R(13,29)                1.2902         estimate D2E/DX2                !
 ! R27   R(14,15)                1.4138         estimate D2E/DX2                !
 ! R28   R(14,30)                1.2207         estimate D2E/DX2                !
 ! R29   R(15,16)                1.8429         estimate D2E/DX2                !
 ! R30   R(16,17)                1.694          estimate D2E/DX2                !
 ! R31   R(17,18)                1.239          estimate D2E/DX2                !
 ! R32   R(19,20)                1.0997         estimate D2E/DX2                !
 ! R33   R(19,21)                1.0531         estimate D2E/DX2                !
 ! R34   R(20,21)                1.0315         estimate D2E/DX2                !
 ! R35   R(21,22)                1.3661         estimate D2E/DX2                !
 ! A1    A(3,2,5)               58.5274         estimate D2E/DX2                !
 ! A2    A(3,2,17)              59.1468         estimate D2E/DX2                !
 ! A3    A(5,2,17)              77.9923         estimate D2E/DX2                !
 ! A4    A(1,3,2)               87.9038         estimate D2E/DX2                !
 ! A5    A(1,3,4)              142.5871         estimate D2E/DX2                !
 ! A6    A(1,3,22)              97.6593         estimate D2E/DX2                !
 ! A7    A(2,3,4)               82.5486         estimate D2E/DX2                !
 ! A8    A(4,3,22)              86.6525         estimate D2E/DX2                !
 ! A9    A(3,4,5)               97.9181         estimate D2E/DX2                !
 ! A10   A(3,4,17)              88.1198         estimate D2E/DX2                !
 ! A11   A(5,4,17)             122.5203         estimate D2E/DX2                !
 ! A12   A(2,5,4)               74.4072         estimate D2E/DX2                !
 ! A13   A(2,5,6)               71.1069         estimate D2E/DX2                !
 ! A14   A(2,5,15)              76.8577         estimate D2E/DX2                !
 ! A15   A(2,5,23)             115.6598         estimate D2E/DX2                !
 ! A16   A(4,5,6)              142.8872         estimate D2E/DX2                !
 ! A17   A(4,5,15)              95.7486         estimate D2E/DX2                !
 ! A18   A(4,5,23)             160.7947         estimate D2E/DX2                !
 ! A19   A(6,5,23)              54.0332         estimate D2E/DX2                !
 ! A20   A(15,5,23)            102.4027         estimate D2E/DX2                !
 ! A21   A(5,6,7)              115.8167         estimate D2E/DX2                !
 ! A22   A(7,6,15)              76.6061         estimate D2E/DX2                !
 ! A23   A(10,9,24)             86.8197         estimate D2E/DX2                !
 ! A24   A(10,9,25)             83.4861         estimate D2E/DX2                !
 ! A25   A(11,9,24)            102.6811         estimate D2E/DX2                !
 ! A26   A(11,9,25)             96.8853         estimate D2E/DX2                !
 ! A27   A(24,9,25)            142.2663         estimate D2E/DX2                !
 ! A28   A(9,10,26)            100.8554         estimate D2E/DX2                !
 ! A29   A(11,10,26)           146.7857         estimate D2E/DX2                !
 ! A30   A(9,11,12)            105.5013         estimate D2E/DX2                !
 ! A31   A(9,11,27)             58.7567         estimate D2E/DX2                !
 ! A32   A(10,11,12)            97.8391         estimate D2E/DX2                !
 ! A33   A(10,11,27)           109.5561         estimate D2E/DX2                !
 ! A34   A(12,11,27)           122.8191         estimate D2E/DX2                !
 ! A35   A(11,12,13)           101.0997         estimate D2E/DX2                !
 ! A36   A(11,12,28)           118.4089         estimate D2E/DX2                !
 ! A37   A(13,12,28)           135.8066         estimate D2E/DX2                !
 ! A38   A(12,13,14)           106.5339         estimate D2E/DX2                !
 ! A39   A(12,13,29)           114.392          estimate D2E/DX2                !
 ! A40   A(14,13,29)           119.0365         estimate D2E/DX2                !
 ! A41   A(13,14,15)           115.3627         estimate D2E/DX2                !
 ! A42   A(13,14,30)           111.8648         estimate D2E/DX2                !
 ! A43   A(15,14,30)           120.1793         estimate D2E/DX2                !
 ! A44   A(5,15,14)            130.6697         estimate D2E/DX2                !
 ! A45   A(5,15,16)            113.8819         estimate D2E/DX2                !
 ! A46   A(6,15,14)             79.0401         estimate D2E/DX2                !
 ! A47   A(6,15,16)            130.1852         estimate D2E/DX2                !
 ! A48   A(14,15,16)           115.1344         estimate D2E/DX2                !
 ! A49   A(15,16,17)            96.5822         estimate D2E/DX2                !
 ! A50   A(2,17,4)              70.9276         estimate D2E/DX2                !
 ! A51   A(2,17,16)             78.4233         estimate D2E/DX2                !
 ! A52   A(2,17,18)            103.3284         estimate D2E/DX2                !
 ! A53   A(4,17,16)             98.963          estimate D2E/DX2                !
 ! A54   A(4,17,18)            136.5315         estimate D2E/DX2                !
 ! A55   A(16,17,18)           122.646          estimate D2E/DX2                !
 ! A56   A(19,21,22)           141.997          estimate D2E/DX2                !
 ! A57   A(20,21,22)           121.9165         estimate D2E/DX2                !
 ! A58   A(3,22,21)             91.8318         estimate D2E/DX2                !
 ! A59   A(8,24,9)              90.4944         estimate D2E/DX2                !
 ! A60   L(2,3,22,1,-1)        185.5631         estimate D2E/DX2                !
 ! A61   L(2,3,22,1,-2)        190.6342         estimate D2E/DX2                !
 ! D1    D(5,2,3,1)           -174.4286         estimate D2E/DX2                !
 ! D2    D(5,2,3,4)             41.829          estimate D2E/DX2                !
 ! D3    D(17,2,3,1)            90.894          estimate D2E/DX2                !
 ! D4    D(17,2,3,4)           -52.8484         estimate D2E/DX2                !
 ! D5    D(3,2,5,4)            -37.8578         estimate D2E/DX2                !
 ! D6    D(3,2,5,6)            156.0763         estimate D2E/DX2                !
 ! D7    D(3,2,5,15)          -137.7588         estimate D2E/DX2                !
 ! D8    D(3,2,5,23)           124.6259         estimate D2E/DX2                !
 ! D9    D(17,2,5,4)            23.1594         estimate D2E/DX2                !
 ! D10   D(17,2,5,6)          -142.9064         estimate D2E/DX2                !
 ! D11   D(17,2,5,15)          -76.7416         estimate D2E/DX2                !
 ! D12   D(17,2,5,23)         -174.3569         estimate D2E/DX2                !
 ! D13   D(3,2,17,4)            40.1309         estimate D2E/DX2                !
 ! D14   D(3,2,17,16)          143.9639         estimate D2E/DX2                !
 ! D15   D(3,2,17,18)          -94.8807         estimate D2E/DX2                !
 ! D16   D(5,2,17,4)           -20.2192         estimate D2E/DX2                !
 ! D17   D(5,2,17,16)           83.6138         estimate D2E/DX2                !
 ! D18   D(5,2,17,18)         -155.2308         estimate D2E/DX2                !
 ! D19   D(5,2,22,21)         -160.8097         estimate D2E/DX2                !
 ! D20   D(17,2,22,21)          99.9609         estimate D2E/DX2                !
 ! D21   D(1,3,4,5)           -136.6463         estimate D2E/DX2                !
 ! D22   D(1,3,4,17)           -14.0648         estimate D2E/DX2                !
 ! D23   D(2,3,4,5)            -60.0437         estimate D2E/DX2                !
 ! D24   D(2,3,4,17)            62.5378         estimate D2E/DX2                !
 ! D25   D(22,3,4,5)           125.1158         estimate D2E/DX2                !
 ! D26   D(22,3,4,17)         -112.3026         estimate D2E/DX2                !
 ! D27   D(1,3,22,21)           11.8998         estimate D2E/DX2                !
 ! D28   D(4,3,22,21)          154.5487         estimate D2E/DX2                !
 ! D29   D(3,4,5,2)             56.5819         estimate D2E/DX2                !
 ! D30   D(3,4,5,6)             78.7664         estimate D2E/DX2                !
 ! D31   D(3,4,5,15)           131.1943         estimate D2E/DX2                !
 ! D32   D(3,4,5,23)           -67.8576         estimate D2E/DX2                !
 ! D33   D(17,4,5,2)           -36.2491         estimate D2E/DX2                !
 ! D34   D(17,4,5,6)           -14.0646         estimate D2E/DX2                !
 ! D35   D(17,4,5,15)           38.3633         estimate D2E/DX2                !
 ! D36   D(17,4,5,23)         -160.6886         estimate D2E/DX2                !
 ! D37   D(3,4,17,2)           -60.976          estimate D2E/DX2                !
 ! D38   D(3,4,17,16)         -135.3421         estimate D2E/DX2                !
 ! D39   D(3,4,17,18)           28.4409         estimate D2E/DX2                !
 ! D40   D(5,4,17,2)            37.2184         estimate D2E/DX2                !
 ! D41   D(5,4,17,16)          -37.1476         estimate D2E/DX2                !
 ! D42   D(5,4,17,18)          126.6354         estimate D2E/DX2                !
 ! D43   D(2,5,6,7)             40.6722         estimate D2E/DX2                !
 ! D44   D(4,5,6,7)             18.0655         estimate D2E/DX2                !
 ! D45   D(23,5,6,7)          -174.8547         estimate D2E/DX2                !
 ! D46   D(2,5,15,14)         -123.3557         estimate D2E/DX2                !
 ! D47   D(2,5,15,16)           49.7909         estimate D2E/DX2                !
 ! D48   D(4,5,15,14)          164.1577         estimate D2E/DX2                !
 ! D49   D(4,5,15,16)          -22.6957         estimate D2E/DX2                !
 ! D50   D(23,5,15,14)          -9.5302         estimate D2E/DX2                !
 ! D51   D(23,5,15,16)         163.6164         estimate D2E/DX2                !
 ! D52   D(7,6,15,14)          -74.8718         estimate D2E/DX2                !
 ! D53   D(7,6,15,16)           38.8777         estimate D2E/DX2                !
 ! D54   D(24,9,10,26)          35.3907         estimate D2E/DX2                !
 ! D55   D(25,9,10,26)        -108.0821         estimate D2E/DX2                !
 ! D56   D(24,9,11,12)         -15.8923         estimate D2E/DX2                !
 ! D57   D(24,9,11,27)        -135.2066         estimate D2E/DX2                !
 ! D58   D(25,9,11,12)        -163.4249         estimate D2E/DX2                !
 ! D59   D(25,9,11,27)          77.2608         estimate D2E/DX2                !
 ! D60   D(10,9,24,8)          106.3983         estimate D2E/DX2                !
 ! D61   D(11,9,24,8)           62.0356         estimate D2E/DX2                !
 ! D62   D(25,9,24,8)         -178.521          estimate D2E/DX2                !
 ! D63   D(26,10,11,12)         13.2958         estimate D2E/DX2                !
 ! D64   D(26,10,11,27)       -115.7174         estimate D2E/DX2                !
 ! D65   D(9,11,12,13)        -123.9215         estimate D2E/DX2                !
 ! D66   D(9,11,12,28)          35.6017         estimate D2E/DX2                !
 ! D67   D(10,11,12,13)        179.1905         estimate D2E/DX2                !
 ! D68   D(10,11,12,28)        -21.2863         estimate D2E/DX2                !
 ! D69   D(27,11,12,13)        -61.4127         estimate D2E/DX2                !
 ! D70   D(27,11,12,28)         98.1104         estimate D2E/DX2                !
 ! D71   D(11,12,13,14)       -179.2963         estimate D2E/DX2                !
 ! D72   D(11,12,13,29)         47.0315         estimate D2E/DX2                !
 ! D73   D(28,12,13,14)         26.8977         estimate D2E/DX2                !
 ! D74   D(28,12,13,29)       -106.7745         estimate D2E/DX2                !
 ! D75   D(12,13,14,15)       -161.5913         estimate D2E/DX2                !
 ! D76   D(12,13,14,30)        -19.4363         estimate D2E/DX2                !
 ! D77   D(29,13,14,15)        -30.4807         estimate D2E/DX2                !
 ! D78   D(29,13,14,30)        111.6744         estimate D2E/DX2                !
 ! D79   D(13,14,15,5)         162.8697         estimate D2E/DX2                !
 ! D80   D(13,14,15,6)         119.222          estimate D2E/DX2                !
 ! D81   D(13,14,15,16)        -10.2079         estimate D2E/DX2                !
 ! D82   D(30,14,15,5)          24.0683         estimate D2E/DX2                !
 ! D83   D(30,14,15,6)         -19.5794         estimate D2E/DX2                !
 ! D84   D(30,14,15,16)       -149.0093         estimate D2E/DX2                !
 ! D85   D(5,15,16,17)           4.4854         estimate D2E/DX2                !
 ! D86   D(6,15,16,17)          81.776          estimate D2E/DX2                !
 ! D87   D(14,15,16,17)        178.7477         estimate D2E/DX2                !
 ! D88   D(15,16,17,2)         -54.7695         estimate D2E/DX2                !
 ! D89   D(15,16,17,4)          13.5162         estimate D2E/DX2                !
 ! D90   D(15,16,17,18)       -153.294          estimate D2E/DX2                !
 ! D91   D(22,20,21,19)       -136.6805         estimate D2E/DX2                !
 ! D92   D(19,21,22,3)          21.2672         estimate D2E/DX2                !
 ! D93   D(20,21,22,3)         -65.7745         estimate D2E/DX2                !
 --------------------------------------------------------------------------------
 Trust Radius=3.00D-01 FncErr=1.00D-07 GrdErr=1.00D-06 EigMax=2.50D+02 EigMin=1.00D-04
 Number of steps in this run=    180 maximum allowed number of steps=    180.
 GradGradGradGradGradGradGradGradGradGradGradGradGradGradGradGradGradGrad

                          Input orientation:                          
 ---------------------------------------------------------------------
 Center     Atomic      Atomic             Coordinates (Angstroms)
 Number     Number       Type             X           Y           Z
 ---------------------------------------------------------------------
      1          6           0        4.042790   -0.404450   -0.057670
      2          7           0        6.269230   -0.644120    0.089000
      3          7           0        4.476000   -0.437620    0.947960
      4          6           0        5.137010    0.248740    1.780940
      5          6           0        6.026790   -0.766540    2.207790
      6          6           0        7.540410   -1.669940    1.732820
      7          6           0        8.562800   -0.883190    0.454050
      8          6           0       10.847030   -0.761420    0.349710
      9          6           0       12.772730   -0.110970    0.364760
     10          6           0       12.969490    0.332010    1.832660
     11          6           0       11.833430    0.982040    1.469130
     12          6           0       10.783450    0.028580    2.226140
     13          6           0        9.637380    0.622020    1.925740
     14          6           0        8.627930   -0.119710    2.553020
     15          6           0        7.323360    0.084730    2.047900
     16         16           0        7.151490    1.491970    0.870480
     17          6           0        5.499510    1.283630    0.558690
     18          8           0        4.968500    1.645090   -0.500820
     19          1           0        2.445410   -0.688980   -0.336170
     20          1           0        2.584090    0.398320   -0.247350
     21          1           0        2.483230   -0.192880    0.591930
     22          1           0        3.275840   -0.026490    1.692070
     23          1           0        6.480200   -1.870490    2.772240
     24          1           0       12.569170   -0.995540    0.715850
     25          1           0       14.054020    0.946750    0.075300
     26          1           0       13.489580   -0.740100    2.343630
     27          1           0       11.825320    1.152090    0.212990
     28          1           0       11.122130   -1.070660    2.507930
     29          1           0        9.506720    0.928500    0.679250
     30          1           0        9.004040   -1.243940    2.844250
 ---------------------------------------------------------------------
                    Distance matrix (angstroms):
                    1          2          3          4          5
     1  C    0.000000
     2  N    2.244101   0.000000
     3  N    1.095474   1.999032   0.000000
     4  C    2.237065   2.223012   1.265654   0.000000
     5  C    3.033096   2.136126   2.024922   1.415875   0.000000
     6  C    4.128034   2.317401   3.394882   3.075708   1.825589
     7  C    4.574007   2.334712   4.140581   3.844209   3.085540
     8  C    6.825765   4.586718   6.407244   5.972702   5.165966
     9  C    8.745080   6.531141   8.323614   7.774264   7.023834
    10  C    9.154327   6.991900   8.574054   7.833093   7.039078
    11  C    8.059004   5.958983   7.511247   6.743663   6.109028
    12  C    7.130203   5.039650   6.452520   5.668241   4.822693
    13  C    6.023869   4.039945   5.358986   4.518145   3.878661
    14  C    5.283965   3.451067   4.462713   3.594216   2.702499
    15  C    3.928723   2.340876   3.096801   2.208686   1.559269
    16  S    3.757910   2.439667   3.299631   2.536274   2.855559
    17  C    2.313341   2.128215   2.040050   1.642041   2.683422
    18  O    2.292146   2.698197   2.584415   2.680414   3.777897
    19  H    1.646251   3.847646   2.415671   3.550519   4.393635
    20  H    1.675776   3.844486   2.388909   3.264006   4.385977
    21  H    1.702636   3.845823   2.039065   2.941313   3.936611
    22  H    1.947474   3.451331   1.470752   1.883508   2.895059
    23  H    4.012310   2.957747   3.065605   2.697771   1.320186
    24  H    8.581776   6.340795   8.115698   7.610496   6.714243
    25  H   10.102878   7.945691   9.716814   9.105465   8.480525
    26  H    9.752986   7.564788   9.126008   8.429700   7.464073
    27  H    7.941275   5.840538   7.555122   6.928780   6.425210
    28  H    7.559312   5.439099   6.856040   6.171790   5.113224
    29  H    5.672243   3.647310   5.219831   4.557429   4.161671
    30  H    5.808604   3.928151   4.974858   4.279327   3.081722
                    6          7          8          9         10
     6  C    0.000000
     7  C    1.816455   0.000000
     8  C    3.697585   2.289852   0.000000
     9  C    5.628423   4.281099   2.032642   0.000000
    10  C    5.787286   4.774536   2.810617   1.545858   0.000000
    11  C    5.052974   3.899550   2.294720   1.815651   1.358428
    12  C    3.694001   2.983775   2.036942   2.727901   2.241800
    13  C    3.112488   2.363525   2.420956   3.578317   3.346002
    14  C    2.063647   2.234462   3.192299   4.686995   4.424038
    15  C    1.795899   2.239071   4.002008   5.706741   5.655640
    16  S    3.300388   2.794028   4.359585   5.867155   6.010027
    17  C    3.777225   3.753639   5.729038   7.408255   7.637354
    18  O    4.753240   4.496996   6.408729   8.046054   8.437129
    19  H    5.585877   6.171274   8.429881  10.367205  10.793633
    20  H    5.723974   6.154608   8.365265  10.219708  10.591854
    21  H    5.390585   6.120189   8.386600  10.292333  10.572444
    22  H    4.570465   5.497142   7.724310   9.589568   9.701296
    23  H    1.498219   3.268943   5.115456   6.963318   6.916986
    24  H    5.174695   4.016486   1.776130   0.973224   1.780424
    25  H    7.212597   5.800485   3.643889   1.686494   2.154629
    26  H    6.052298   5.278650   3.310475   2.196726   1.296535
    27  H    5.351092   3.852858   2.153431   1.586172   2.145923
    28  H    3.713307   3.286904   2.197549   2.870307   2.415825
    29  H    3.424657   2.055218   2.181939   3.441834   3.698234
    30  H    1.886522   2.457212   3.138816   4.651292   4.385399
                   11         12         13         14         15
    11  C    0.000000
    12  C    1.607672   0.000000
    13  C    2.271727   1.325099   0.000000
    14  C    3.558637   2.185202   1.400940   0.000000
    15  C    4.634746   3.465133   2.378716   1.413805   0.000000
    16  S    4.747523   4.143725   2.837258   2.758320   1.842873
    17  C    6.406122   5.681159   4.407780   3.966576   2.642260
    18  O    7.172698   6.622919   5.360346   5.082508   3.804742
    19  H    9.704964   8.752327   7.652411   6.847995   5.484233
    20  H    9.425355   8.572302   7.383851   6.681200   5.275148
    21  H    9.464468   8.462466   7.322907   6.450470   5.061993
    22  H    8.619697   7.526784   6.398778   5.421696   4.064653
    23  H    6.204200   4.735256   4.110590   2.779574   2.249105
    24  H    2.240439   2.553154   3.560299   4.435724   5.519045
    25  H    2.622027   4.020669   4.799613   6.059611   7.066542
    26  H    2.544278   2.815637   4.107243   4.905545   6.228167
    27  H    1.267624   2.529929   2.828704   4.161312   4.977328
    28  H    2.408035   1.184246   2.325638   2.669714   3.997150
    29  H    2.457714   2.198355   1.290248   2.319920   2.711496
    30  H    3.853750   2.273250   2.174072   1.220724   2.285656
                   16         17         18         19         20
    16  S    0.000000
    17  C    1.694006   0.000000
    18  O    2.582509   1.239026   0.000000
    19  H    5.325386   3.744261   3.441072   0.000000
    20  H    4.827707   3.151690   2.702609   1.099701   0.000000
    21  H    4.970811   3.358442   3.278537   1.053050   1.031543
    22  H    4.242805   2.818807   3.235436   2.289599   2.102458
    23  H    3.920900   3.976183   5.035619   5.228547   5.426334
    24  H    5.963461   7.429630   8.137776  10.182890  10.127804
    25  H    6.969541   8.574777   9.130513  11.730505  11.487566
    26  H    6.879222   8.433428   9.294559  11.364754  11.266716
    27  H    4.732071   6.336615   6.911480   9.574645   9.283341
    28  H    5.001429   6.399693   7.368517   9.138931   9.091072
    29  H    2.429234   4.024722   4.743575   7.315013   7.004462
    30  H    3.848755   4.888162   5.985112   7.310176   7.312371
                   21         22         23         24         25
    21  H    0.000000
    22  H    1.366098   0.000000
    23  H    4.852205   3.851626   0.000000
    24  H   10.118587   9.394575   6.486126   0.000000
    25  H   11.638249  10.942134   8.518983   2.527365   0.000000
    26  H   11.158299  10.259350   7.112868   1.887345   2.882599
    27  H    9.446014   8.756160   6.652523   2.327766   2.242371
    28  H    8.892252   7.957398   4.717743   2.304586   4.310871
    29  H    7.112983   6.384487   4.623286   3.616887   4.587268
    30  H    6.978441   5.968415   2.601445   4.159560   6.161859
                   26         27         28         29         30
    26  H    0.000000
    27  H    3.299965   0.000000
    28  H    2.396056   3.271367   0.000000
    29  H    4.627911   2.375562   3.154403   0.000000
    30  H    4.541425   4.541378   2.151614   3.107959   0.000000
 Stoichiometry    C14H12N2OS
 Framework group  C1[X(C14H12N2OS)]
 Deg. of freedom    84
 Full point group                 C1      NOp   1
 Largest Abelian subgroup         C1      NOp   1
 Largest concise Abelian subgroup C1      NOp   1
                         Standard orientation:                         
 ---------------------------------------------------------------------
 Center     Atomic      Atomic             Coordinates (Angstroms)
 Number     Number       Type             X           Y           Z
 ---------------------------------------------------------------------
      1          6           0       -3.938279    0.069044    0.982947
      2          7           0       -1.704258    0.183214    1.162121
      3          7           0       -3.404584    0.640103    0.215403
      4          6           0       -2.675706    0.508025   -0.810839
      5          6           0       -1.727778    1.515135   -0.507750
      6          6           0       -0.253131    1.867854    0.508999
      7          6           0        0.618708    0.417028    1.168174
      8          6           0        2.877747    0.088075    1.346930
      9          6           0        4.782127   -0.577336    1.097534
     10          6           0        5.118436   -0.112477   -0.337902
     11          6           0        3.939015   -0.766883   -0.499282
     12          6           0        2.989935    0.523116   -0.639848
     13          6           0        1.808061   -0.048186   -0.820611
     14          6           0        0.882036    0.991655   -0.975020
     15          6           0       -0.470796    0.632342   -0.776063
     16         16           0       -0.788467   -1.178096   -0.643464
     17          6           0       -2.459256   -1.063903   -0.388355
     18          8           0       -3.102024   -1.926517    0.226408
     19          1           0       -5.549912    0.260439    1.258902
     20          1           0       -5.423890   -0.586440    0.568788
     21          1           0       -5.427556    0.384472    0.220365
     22          1           0       -4.530628    0.820086   -0.713436
     23          1           0       -1.198193    2.705892   -0.296735
     24          1           0        4.632363    0.360946    1.308158
     25          1           0        6.006771   -1.701738    0.814284
     26          1           0        5.708298    1.016695   -0.096986
     27          1           0        3.800054   -1.624793    0.423512
     28          1           0        3.376597    1.556604   -0.209924
     29          1           0        1.545560   -1.002814    0.006745
     30          1           0        1.307368    2.048166   -0.535653
 ---------------------------------------------------------------------
 Rotational constants (GHZ):           1.2401998           0.2314095           0.2215141
 Standard basis: 6-31G(2df,p) (6D, 7F)
 There are   622 symmetry adapted cartesian basis functions of A   symmetry.
 There are   568 symmetry adapted basis functions of A   symmetry.
   568 basis functions,   900 primitive gaussians,   622 cartesian basis functions
    67 alpha electrons       67 beta electrons
       nuclear repulsion energy      1408.9443953934 Hartrees.
 NAtoms=   30 NActive=   30 NUniq=   30 SFac= 1.00D+00 NAtFMM=   60 NAOKFM=F Big=F
 Integral buffers will be    131072 words long.
 Raffenetti 2 integral format.
 Two-electron integral symmetry is turned on.
 One-electron integrals computed using PRISM.
 PrsmSu:  requested number of processors reduced to:  12 ShMem   1 Linda.
 NBasis=   568 RedAO= T EigKep=  1.75D-04  NBF=   568
 NBsUse=   568 1.00D-06 EigRej= -1.00D+00 NBFU=   568
 ExpMin= 1.17D-01 ExpMax= 2.19D+04 ExpMxC= 3.30D+03 IAcc=3 IRadAn=         5 AccDes= 0.00D+00
 Harris functional with IExCor=  402 and IRadAn=       5 diagonalized for initial guess.
 HarFok:  IExCor=  402 AccDes= 0.00D+00 IRadAn=         5 IDoV= 1 UseB2=F ITyADJ=14
 ICtDFT=  3500011 ScaDFX=  1.000000  1.000000  1.000000  1.000000
 FoFCou: FMM=F IPFlag=           0 FMFlag=      100000 FMFlg1=           0
         NFxFlg=           0 DoJE=T BraDBF=F KetDBF=T FulRan=T
         wScrn=  0.000000 ICntrl=       500 IOpCl=  0 I1Cent=   200000004 NGrid=           0
         NMat0=    1 NMatS0=      1 NMatT0=    0 NMatD0=    1 NMtDS0=    0 NMtDT0=    0
 Petite list used in FoFCou.
 Requested convergence on RMS density matrix=1.00D-08 within 128 cycles.
 Requested convergence on MAX density matrix=1.00D-06.
 Requested convergence on             energy=1.00D-06.
 No special actions if energy rises.
 Integral accuracy reduced to 1.0D-05 until final iterations.
 Rare condition: small coef for last iteration:  0.000D+00
 EnCoef did   100 forward-backward iterations
 EnCoef did   100 forward-backward iterations
 EnCoef did     2 forward-backward iterations
 EnCoef did   100 forward-backward iterations
 EnCoef did     1 forward-backward iterations
 EnCoef did     4 forward-backward iterations
 EnCoef did     1 forward-backward iterations
 Initial convergence to 1.0D-05 achieved.  Increase integral accuracy.
 SCF Done:  E(RB3LYP) =  -1121.45639776     A.U. after   36 cycles
            NFock= 36  Conv=0.48D-08     -V/T= 2.0043

 **********************************************************************

            Population analysis using the SCF density.

 **********************************************************************

 Orbital symmetries:
       Occupied  (A) (A) (A) (A) (A) (A) (A) (A) (A) (A) (A) (A)
                 (A) (A) (A) (A) (A) (A) (A) (A) (A) (A) (A) (A)
                 (A) (A) (A) (A) (A) (A) (A) (A) (A) (A) (A) (A)
                 (A) (A) (A) (A) (A) (A) (A) (A) (A) (A) (A) (A)
                 (A) (A) (A) (A) (A) (A) (A) (A) (A) (A) (A) (A)
                 (A) (A) (A) (A) (A) (A) (A)
       Virtual   (A) (A) (A) (A) (A) (A) (A) (A) (A) (A) (A) (A)
                 (A) (A) (A) (A) (A) (A) (A) (A) (A) (A) (A) (A)
                 (A) (A) (A) (A) (A) (A) (A) (A) (A) (A) (A) (A)
                 (A) (A) (A) (A) (A) (A) (A) (A) (A) (A) (A) (A)
                 (A) (A) (A) (A) (A) (A) (A) (A) (A) (A) (A) (A)
                 (A) (A) (A) (A) (A) (A) (A) (A) (A) (A) (A) (A)
                 (A) (A) (A) (A) (A) (A) (A) (A) (A) (A) (A) (A)
                 (A) (A) (A) (A) (A) (A) (A) (A) (A) (A) (A) (A)
                 (A) (A) (A) (A) (A) (A) (A) (A) (A) (A) (A) (A)
                 (A) (A) (A) (A) (A) (A) (A) (A) (A) (A) (A) (A)
                 (A) (A) (A) (A) (A) (A) (A) (A) (A) (A) (A) (A)
                 (A) (A) (A) (A) (A) (A) (A) (A) (A) (A) (A) (A)
                 (A) (A) (A) (A) (A) (A) (A) (A) (A) (A) (A) (A)
                 (A) (A) (A) (A) (A) (A) (A) (A) (A) (A) (A) (A)
                 (A) (A) (A) (A) (A) (A) (A) (A) (A) (A) (A) (A)
                 (A) (A) (A) (A) (A) (A) (A) (A) (A) (A) (A) (A)
                 (A) (A) (A) (A) (A) (A) (A) (A) (A) (A) (A) (A)
                 (A) (A) (A) (A) (A) (A) (A) (A) (A) (A) (A) (A)
                 (A) (A) (A) (A) (A) (A) (A) (A) (A) (A) (A) (A)
                 (A) (A) (A) (A) (A) (A) (A) (A) (A) (A) (A) (A)
                 (A) (A) (A) (A) (A) (A) (A) (A) (A) (A) (A) (A)
                 (A) (A) (A) (A) (A) (A) (A) (A) (A) (A) (A) (A)
                 (A) (A) (A) (A) (A) (A) (A) (A) (A) (A) (A) (A)
                 (A) (A) (A) (A) (A) (A) (A) (A) (A) (A) (A) (A)
                 (A) (A) (A) (A) (A) (A) (A) (A) (A) (A) (A) (A)
                 (A) (A) (A) (A) (A) (A) (A) (A) (A) (A) (A) (A)
                 (A) (A) (A) (A) (A) (A) (A) (A) (A) (A) (A) (A)
                 (A) (A) (A) (A) (A) (A) (A) (A) (A) (A) (A) (A)
                 (A) (A) (A) (A) (A) (A) (A) (A) (A) (A) (A) (A)
                 (A) (A) (A) (A) (A) (A) (A) (A) (A) (A) (A) (A)
                 (A) (A) (A) (A) (A) (A) (A) (A) (A) (A) (A) (A)
                 (A) (A) (A) (A) (A) (A) (A) (A) (A) (A) (A) (A)
                 (A) (A) (A) (A) (A) (A) (A) (A) (A) (A) (A) (A)
                 (A) (A) (A) (A) (A) (A) (A) (A) (A) (A) (A) (A)
                 (A) (A) (A) (A) (A) (A) (A) (A) (A) (A) (A) (A)
                 (A) (A) (A) (A) (A) (A) (A) (A) (A) (A) (A) (A)
                 (A) (A) (A) (A) (A) (A) (A) (A) (A) (A) (A) (A)
                 (A) (A) (A) (A) (A) (A) (A) (A) (A) (A) (A) (A)
                 (A) (A) (A) (A) (A) (A) (A) (A) (A) (A) (A) (A)
                 (A) (A) (A) (A) (A) (A) (A) (A) (A) (A) (A) (A)
                 (A) (A) (A) (A) (A) (A) (A) (A) (A) (A) (A) (A)
                 (A) (A) (A) (A) (A) (A) (A) (A) (A)
 The electronic state is 1-A.
 Alpha  occ. eigenvalues --  -88.90406 -19.16823 -14.38772 -14.37925 -10.31493
 Alpha  occ. eigenvalues --  -10.30101 -10.28341 -10.28175 -10.27338 -10.26946
 Alpha  occ. eigenvalues --  -10.26437 -10.25775 -10.24972 -10.24338 -10.23970
 Alpha  occ. eigenvalues --  -10.23012 -10.21687 -10.19668  -7.96656  -5.93153
 Alpha  occ. eigenvalues --   -5.92749  -5.92205  -1.09429  -1.04339  -0.93405
 Alpha  occ. eigenvalues --   -0.91834  -0.86465  -0.81230  -0.79398  -0.73645
 Alpha  occ. eigenvalues --   -0.70575  -0.66782  -0.64770  -0.63961  -0.62024
 Alpha  occ. eigenvalues --   -0.60147  -0.59168  -0.57040  -0.55821  -0.51769
 Alpha  occ. eigenvalues --   -0.50526  -0.49152  -0.46988  -0.46881  -0.44167
 Alpha  occ. eigenvalues --   -0.43890  -0.42686  -0.41731  -0.41387  -0.39245
 Alpha  occ. eigenvalues --   -0.37654  -0.37046  -0.35718  -0.34430  -0.33674
 Alpha  occ. eigenvalues --   -0.31891  -0.30284  -0.29467  -0.28108  -0.27965
 Alpha  occ. eigenvalues --   -0.26400  -0.24796  -0.22167  -0.21360  -0.18663
 Alpha  occ. eigenvalues --   -0.17300  -0.16685
 Alpha virt. eigenvalues --   -0.11748  -0.11396  -0.10120  -0.09931  -0.08583
 Alpha virt. eigenvalues --   -0.08136  -0.05930  -0.03802  -0.02737  -0.01779
 Alpha virt. eigenvalues --   -0.01353  -0.00253   0.00892   0.02172   0.02909
 Alpha virt. eigenvalues --    0.03788   0.05278   0.06333   0.07008   0.08397
 Alpha virt. eigenvalues --    0.08827   0.09243   0.10094   0.10348   0.13138
 Alpha virt. eigenvalues --    0.14752   0.15257   0.17938   0.20239   0.21054
 Alpha virt. eigenvalues --    0.22964   0.24664   0.26632   0.28360   0.30948
 Alpha virt. eigenvalues --    0.31754   0.33200   0.34469   0.35547   0.36865
 Alpha virt. eigenvalues --    0.37619   0.38846   0.38984   0.40656   0.40923
 Alpha virt. eigenvalues --    0.41815   0.42027   0.42455   0.43969   0.44573
 Alpha virt. eigenvalues --    0.45931   0.46927   0.47564   0.49003   0.49956
 Alpha virt. eigenvalues --    0.50576   0.51062   0.51750   0.53308   0.53533
 Alpha virt. eigenvalues --    0.54437   0.54624   0.56106   0.56675   0.57231
 Alpha virt. eigenvalues --    0.57363   0.58579   0.59224   0.60604   0.61027
 Alpha virt. eigenvalues --    0.61327   0.61938   0.63010   0.63737   0.64425
 Alpha virt. eigenvalues --    0.65381   0.65853   0.66157   0.67278   0.68106
 Alpha virt. eigenvalues --    0.68604   0.68779   0.69560   0.70409   0.71143
 Alpha virt. eigenvalues --    0.71753   0.72506   0.72747   0.73417   0.74401
 Alpha virt. eigenvalues --    0.75405   0.75765   0.76269   0.76481   0.77147
 Alpha virt. eigenvalues --    0.78448   0.78749   0.79087   0.80282   0.80884
 Alpha virt. eigenvalues --    0.82190   0.82875   0.83655   0.84174   0.85120
 Alpha virt. eigenvalues --    0.86129   0.86400   0.87088   0.87892   0.88705
 Alpha virt. eigenvalues --    0.89344   0.90473   0.91279   0.92111   0.92678
 Alpha virt. eigenvalues --    0.93092   0.94483   0.96029   0.97543   0.98105
 Alpha virt. eigenvalues --    0.99182   0.99442   1.00086   1.01445   1.03608
 Alpha virt. eigenvalues --    1.03676   1.04651   1.05020   1.05781   1.07093
 Alpha virt. eigenvalues --    1.07232   1.08621   1.10418   1.12105   1.13036
 Alpha virt. eigenvalues --    1.14729   1.15170   1.16223   1.17011   1.18974
 Alpha virt. eigenvalues --    1.19943   1.21728   1.22067   1.23975   1.25107
 Alpha virt. eigenvalues --    1.27396   1.27577   1.29544   1.31345   1.32072
 Alpha virt. eigenvalues --    1.34580   1.35853   1.36195   1.36895   1.37430
 Alpha virt. eigenvalues --    1.38467   1.39115   1.39603   1.42604   1.42958
 Alpha virt. eigenvalues --    1.44368   1.45549   1.45759   1.46931   1.48882
 Alpha virt. eigenvalues --    1.49267   1.50336   1.50857   1.52131   1.53186
 Alpha virt. eigenvalues --    1.53737   1.54753   1.55912   1.56383   1.58309
 Alpha virt. eigenvalues --    1.58543   1.59253   1.60262   1.61490   1.62694
 Alpha virt. eigenvalues --    1.63392   1.64152   1.65070   1.65293   1.67080
 Alpha virt. eigenvalues --    1.69125   1.69327   1.70837   1.71437   1.72575
 Alpha virt. eigenvalues --    1.72998   1.73987   1.75402   1.76681   1.77750
 Alpha virt. eigenvalues --    1.79614   1.80412   1.81481   1.83379   1.83521
 Alpha virt. eigenvalues --    1.86295   1.86646   1.87386   1.88661   1.90005
 Alpha virt. eigenvalues --    1.90109   1.92794   1.94441   1.95638   1.95855
 Alpha virt. eigenvalues --    1.96831   1.99050   2.00788   2.01548   2.03485
 Alpha virt. eigenvalues --    2.04123   2.06525   2.06797   2.08278   2.09682
 Alpha virt. eigenvalues --    2.11682   2.12558   2.13729   2.15480   2.16378
 Alpha virt. eigenvalues --    2.18179   2.19668   2.21076   2.23427   2.25309
 Alpha virt. eigenvalues --    2.26923   2.28223   2.29897   2.30742   2.32060
 Alpha virt. eigenvalues --    2.35009   2.36677   2.37205   2.38438   2.39905
 Alpha virt. eigenvalues --    2.42927   2.45026   2.45791   2.47424   2.48443
 Alpha virt. eigenvalues --    2.49079   2.50049   2.52751   2.56506   2.57934
 Alpha virt. eigenvalues --    2.58646   2.59383   2.60807   2.61521   2.62503
 Alpha virt. eigenvalues --    2.65949   2.68037   2.70414   2.71977   2.72183
 Alpha virt. eigenvalues --    2.72802   2.74794   2.75844   2.76657   2.78865
 Alpha virt. eigenvalues --    2.80117   2.80849   2.81455   2.83080   2.83360
 Alpha virt. eigenvalues --    2.85329   2.85743   2.86537   2.87580   2.88549
 Alpha virt. eigenvalues --    2.89839   2.90492   2.90886   2.91340   2.93087
 Alpha virt. eigenvalues --    2.93468   2.95666   2.95948   2.97346   2.99930
 Alpha virt. eigenvalues --    3.00068   3.00818   3.03272   3.03767   3.06216
 Alpha virt. eigenvalues --    3.06891   3.07425   3.09419   3.10680   3.11753
 Alpha virt. eigenvalues --    3.13284   3.14543   3.15605   3.17460   3.18895
 Alpha virt. eigenvalues --    3.19174   3.19931   3.21064   3.22126   3.23689
 Alpha virt. eigenvalues --    3.24223   3.25183   3.27084   3.28216   3.29082
 Alpha virt. eigenvalues --    3.29586   3.31745   3.33886   3.34201   3.35982
 Alpha virt. eigenvalues --    3.36934   3.37927   3.38708   3.41089   3.41460
 Alpha virt. eigenvalues --    3.43015   3.44114   3.46207   3.47224   3.48960
 Alpha virt. eigenvalues --    3.50078   3.51352   3.52731   3.53777   3.54822
 Alpha virt. eigenvalues --    3.56281   3.57053   3.57513   3.59991   3.60790
 Alpha virt. eigenvalues --    3.62280   3.63467   3.64065   3.65206   3.67339
 Alpha virt. eigenvalues --    3.68145   3.70421   3.71611   3.72520   3.73552
 Alpha virt. eigenvalues --    3.76017   3.79031   3.79614   3.81059   3.82635
 Alpha virt. eigenvalues --    3.83145   3.85537   3.87369   3.88607   3.90995
 Alpha virt. eigenvalues --    3.92129   3.92821   3.95205   3.97200   4.00084
 Alpha virt. eigenvalues --    4.00735   4.01796   4.03237   4.05307   4.05642
 Alpha virt. eigenvalues --    4.08651   4.11615   4.14145   4.15216   4.16573
 Alpha virt. eigenvalues --    4.17192   4.19335   4.21540   4.22327   4.23082
 Alpha virt. eigenvalues --    4.26338   4.27527   4.27979   4.29022   4.30627
 Alpha virt. eigenvalues --    4.31486   4.32371   4.35213   4.36310   4.37097
 Alpha virt. eigenvalues --    4.38058   4.39603   4.42037   4.43281   4.45601
 Alpha virt. eigenvalues --    4.46164   4.47444   4.49601   4.50566   4.51351
 Alpha virt. eigenvalues --    4.52599   4.53290   4.55202   4.56021   4.57417
 Alpha virt. eigenvalues --    4.57467   4.59362   4.60248   4.60724   4.61548
 Alpha virt. eigenvalues --    4.61895   4.63025   4.64940   4.66296   4.66477
 Alpha virt. eigenvalues --    4.68058   4.68811   4.70063   4.70302   4.70962
 Alpha virt. eigenvalues --    4.72912   4.73509   4.75360   4.77375   4.78312
 Alpha virt. eigenvalues --    4.80331   4.81164   4.82582   4.83560   4.84663
 Alpha virt. eigenvalues --    4.88143   4.88932   4.90079   4.91217   4.92041
 Alpha virt. eigenvalues --    4.93422   4.94736   4.95937   4.96953   4.99472
 Alpha virt. eigenvalues --    5.01033   5.02657   5.03327   5.04296   5.07030
 Alpha virt. eigenvalues --    5.07384   5.07858   5.10263   5.14282   5.15682
 Alpha virt. eigenvalues --    5.16739   5.17846   5.20838   5.21931   5.22730
 Alpha virt. eigenvalues --    5.24267   5.25042   5.28526   5.30046   5.31556
 Alpha virt. eigenvalues --    5.34409   5.36062   5.38350   5.42297   5.45185
 Alpha virt. eigenvalues --    5.47058   5.48366   5.51061   5.53285   5.55481
 Alpha virt. eigenvalues --    5.57044   5.60878   5.68727   5.73255   5.79878
 Alpha virt. eigenvalues --    5.84670   5.85445   6.00582   6.07758   6.18902
 Alpha virt. eigenvalues --    6.25012   6.34285   6.48582   6.51811   6.76768
 Alpha virt. eigenvalues --    6.94749   7.12379  10.21238  10.43061  10.62342
 Alpha virt. eigenvalues --   10.85994  11.11297  11.22013  11.34547  11.39574
 Alpha virt. eigenvalues --   11.50083  11.68327  11.80045  12.00675  12.04794
 Alpha virt. eigenvalues --   12.15788  12.38025  12.55394  12.77125  13.27928
 Alpha virt. eigenvalues --   24.47410
          Condensed to atoms (all electrons):
               1          2          3          4          5          6
     1  C    6.203435   0.021425   0.878275  -0.242707   0.014037   0.001860
     2  N    0.021425   7.366727   0.006124  -0.108039   0.059869   0.065370
     3  N    0.878275   0.006124   5.577222   0.448148  -0.088747   0.009652
     4  C   -0.242707  -0.108039   0.448148   5.663036   0.433563  -0.044130
     5  C    0.014037   0.059869  -0.088747   0.433563   5.424032  -0.175625
     6  C    0.001860   0.065370   0.009652  -0.044130  -0.175625   6.161243
     7  C    0.000065   0.020293   0.000436   0.004988   0.000794   0.146870
     8  C    0.000000   0.000215   0.000000  -0.000027  -0.000007  -0.000642
     9  C   -0.000000  -0.000000  -0.000000   0.000000   0.000000   0.000013
    10  C    0.000000   0.000000   0.000000  -0.000000  -0.000000  -0.000002
    11  C    0.000000   0.000001   0.000000  -0.000000   0.000002  -0.000054
    12  C   -0.000000   0.000041  -0.000000  -0.000004  -0.000166  -0.001816
    13  C    0.000001   0.000155   0.000009   0.000090   0.003088  -0.006173
    14  C   -0.000030  -0.000099  -0.000502   0.004261  -0.032167  -0.057525
    15  C    0.000202  -0.023068   0.000889  -0.054740   0.317960   0.058277
    16  S    0.007742  -0.079278   0.015233  -0.096181  -0.046108  -0.001181
    17  C   -0.014254   0.031105  -0.104180   0.318820  -0.027744  -0.001479
    18  O    0.023092  -0.026089  -0.024417  -0.024034   0.000819   0.000084
    19  H    0.016098  -0.002618   0.004923   0.005777  -0.000990   0.000006
    20  H   -0.187680  -0.001265  -0.018014   0.000115   0.000114   0.000015
    21  H   -0.235045   0.002015  -0.068262  -0.020754   0.000969  -0.000010
    22  H   -0.065643   0.010553   0.013475  -0.062630   0.013677   0.000167
    23  H    0.000104  -0.007067  -0.001892  -0.001306   0.261716   0.050135
    24  H    0.000000   0.000000   0.000000  -0.000000   0.000000  -0.000033
    25  H    0.000000   0.000000   0.000000   0.000000   0.000000  -0.000000
    26  H    0.000000   0.000000   0.000000  -0.000000  -0.000000  -0.000000
    27  H    0.000000   0.000000   0.000000  -0.000000  -0.000000  -0.000004
    28  H    0.000000   0.000000  -0.000000   0.000000  -0.000002   0.000374
    29  H    0.000003  -0.000026   0.000009  -0.000130  -0.000117   0.000106
    30  H   -0.000001   0.000120  -0.000015   0.000096  -0.002990   0.002390
               7          8          9         10         11         12
     1  C    0.000065   0.000000  -0.000000   0.000000   0.000000  -0.000000
     2  N    0.020293   0.000215  -0.000000   0.000000   0.000001   0.000041
     3  N    0.000436   0.000000  -0.000000   0.000000   0.000000  -0.000000
     4  C    0.004988  -0.000027   0.000000  -0.000000  -0.000000  -0.000004
     5  C    0.000794  -0.000007   0.000000  -0.000000   0.000002  -0.000166
     6  C    0.146870  -0.000642   0.000013  -0.000002  -0.000054  -0.001816
     7  C    5.821099   0.066263  -0.000788   0.000669   0.000748  -0.005952
     8  C    0.066263   6.128850   0.049921  -0.049307   0.001220   0.044541
     9  C   -0.000788   0.049921   5.463979   0.223908  -0.006421  -0.015561
    10  C    0.000669  -0.049307   0.223908   5.397713   0.440177  -0.068134
    11  C    0.000748   0.001220  -0.006421   0.440177   5.258454   0.324383
    12  C   -0.005952   0.044541  -0.015561  -0.068134   0.324383   5.117892
    13  C   -0.013885  -0.025048   0.006580  -0.012939  -0.032535   0.517215
    14  C   -0.008914   0.003737  -0.000365  -0.000486   0.003900  -0.050847
    15  C    0.006800  -0.000295   0.000014  -0.000032   0.000017  -0.002097
    16  S   -0.026090  -0.001997   0.000025   0.000009  -0.000200   0.002683
    17  C   -0.001818  -0.000007   0.000000   0.000000  -0.000000  -0.000007
    18  O    0.000133  -0.000000   0.000000  -0.000000  -0.000000   0.000000
    19  H   -0.000002   0.000000  -0.000000   0.000000   0.000000   0.000000
    20  H   -0.000001   0.000000  -0.000000   0.000000   0.000000  -0.000000
    21  H    0.000003  -0.000000   0.000000  -0.000000  -0.000000  -0.000000
    22  H    0.000012  -0.000000   0.000000  -0.000000  -0.000000  -0.000000
    23  H    0.001596  -0.000036   0.000000  -0.000000   0.000000  -0.000011
    24  H    0.001035  -0.013914   0.275774  -0.034670  -0.029603  -0.000236
    25  H   -0.000003  -0.001008   0.206186  -0.012743  -0.001479   0.002527
    26  H    0.000033  -0.001650  -0.070504   0.331413  -0.026452  -0.015171
    27  H    0.000661  -0.025680   0.081651  -0.035275   0.273193  -0.022130
    28  H    0.001367   0.021347  -0.009846   0.018170  -0.057323   0.332090
    29  H   -0.001854   0.037192   0.001159   0.000364  -0.004560  -0.063807
    30  H   -0.005154   0.001370  -0.000021   0.000122  -0.000204  -0.009956
              13         14         15         16         17         18
     1  C    0.000001  -0.000030   0.000202   0.007742  -0.014254   0.023092
     2  N    0.000155  -0.000099  -0.023068  -0.079278   0.031105  -0.026089
     3  N    0.000009  -0.000502   0.000889   0.015233  -0.104180  -0.024417
     4  C    0.000090   0.004261  -0.054740  -0.096181   0.318820  -0.024034
     5  C    0.003088  -0.032167   0.317960  -0.046108  -0.027744   0.000819
     6  C   -0.006173  -0.057525   0.058277  -0.001181  -0.001479   0.000084
     7  C   -0.013885  -0.008914   0.006800  -0.026090  -0.001818   0.000133
     8  C   -0.025048   0.003737  -0.000295  -0.001997  -0.000007  -0.000000
     9  C    0.006580  -0.000365   0.000014   0.000025   0.000000   0.000000
    10  C   -0.012939  -0.000486  -0.000032   0.000009   0.000000  -0.000000
    11  C   -0.032535   0.003900   0.000017  -0.000200  -0.000000  -0.000000
    12  C    0.517215  -0.050847  -0.002097   0.002683  -0.000007   0.000000
    13  C    5.053695   0.374005  -0.025984   0.003331   0.000133   0.000001
    14  C    0.374005   5.375489   0.425095  -0.052952   0.001832  -0.000001
    15  C   -0.025984   0.425095   4.772346   0.302398  -0.013691   0.000389
    16  S    0.003331  -0.052952   0.302398  15.760605   0.283604  -0.024723
    17  C    0.000133   0.001832  -0.013691   0.283604   4.528507   0.633151
    18  O    0.000001  -0.000001   0.000389  -0.024723   0.633151   7.747174
    19  H    0.000000   0.000000   0.000003  -0.000038  -0.000507  -0.000942
    20  H    0.000000  -0.000000   0.000001   0.000987  -0.007258   0.016588
    21  H   -0.000000  -0.000000  -0.000036  -0.000235   0.000436  -0.000550
    22  H    0.000000  -0.000033  -0.000057  -0.000328   0.009501  -0.002339
    23  H    0.000143  -0.000270  -0.036679   0.002223   0.000352  -0.000007
    24  H   -0.004030   0.000073  -0.000005   0.000008   0.000000   0.000000
    25  H   -0.000043   0.000002  -0.000000   0.000001   0.000000   0.000000
    26  H   -0.000280  -0.000015  -0.000001   0.000000   0.000000   0.000000
    27  H   -0.000229   0.000194  -0.000017  -0.000069   0.000000  -0.000000
    28  H   -0.051302  -0.004872   0.000258   0.000127   0.000000  -0.000000
    29  H    0.335954  -0.050699   0.000771  -0.003463   0.000062  -0.000008
    30  H   -0.039028   0.330235  -0.016672   0.003956  -0.000005   0.000000
              19         20         21         22         23         24
     1  C    0.016098  -0.187680  -0.235045  -0.065643   0.000104   0.000000
     2  N   -0.002618  -0.001265   0.002015   0.010553  -0.007067   0.000000
     3  N    0.004923  -0.018014  -0.068262   0.013475  -0.001892   0.000000
     4  C    0.005777   0.000115  -0.020754  -0.062630  -0.001306  -0.000000
     5  C   -0.000990   0.000114   0.000969   0.013677   0.261716   0.000000
     6  C    0.000006   0.000015  -0.000010   0.000167   0.050135  -0.000033
     7  C   -0.000002  -0.000001   0.000003   0.000012   0.001596   0.001035
     8  C    0.000000   0.000000  -0.000000  -0.000000  -0.000036  -0.013914
     9  C   -0.000000  -0.000000   0.000000   0.000000   0.000000   0.275774
    10  C    0.000000   0.000000  -0.000000  -0.000000  -0.000000  -0.034670
    11  C    0.000000   0.000000  -0.000000  -0.000000   0.000000  -0.029603
    12  C    0.000000  -0.000000  -0.000000  -0.000000  -0.000011  -0.000236
    13  C    0.000000   0.000000  -0.000000   0.000000   0.000143  -0.004030
    14  C    0.000000  -0.000000  -0.000000  -0.000033  -0.000270   0.000073
    15  C    0.000003   0.000001  -0.000036  -0.000057  -0.036679  -0.000005
    16  S   -0.000038   0.000987  -0.000235  -0.000328   0.002223   0.000008
    17  C   -0.000507  -0.007258   0.000436   0.009501   0.000352   0.000000
    18  O   -0.000942   0.016588  -0.000550  -0.002339  -0.000007   0.000000
    19  H    0.724682   0.174033  -0.034813  -0.080943   0.000003   0.000000
    20  H    0.174033   0.625033   0.192412  -0.027364  -0.000005   0.000000
    21  H   -0.034813   0.192412   0.931340   0.227915   0.000014  -0.000000
    22  H   -0.080943  -0.027364   0.227915   1.016963  -0.000304  -0.000000
    23  H    0.000003  -0.000005   0.000014  -0.000304   0.440175  -0.000000
    24  H    0.000000   0.000000  -0.000000  -0.000000  -0.000000   0.600290
    25  H   -0.000000   0.000000   0.000000   0.000000   0.000000   0.001863
    26  H    0.000000   0.000000  -0.000000  -0.000000  -0.000000   0.020863
    27  H    0.000000   0.000000  -0.000000  -0.000000  -0.000000   0.001532
    28  H   -0.000000   0.000000  -0.000000  -0.000000  -0.000013   0.018395
    29  H    0.000000   0.000000  -0.000000   0.000000  -0.000040  -0.001055
    30  H   -0.000000  -0.000000   0.000000  -0.000000   0.002605   0.000092
              25         26         27         28         29         30
     1  C    0.000000   0.000000   0.000000   0.000000   0.000003  -0.000001
     2  N    0.000000   0.000000   0.000000   0.000000  -0.000026   0.000120
     3  N    0.000000   0.000000   0.000000  -0.000000   0.000009  -0.000015
     4  C    0.000000  -0.000000  -0.000000   0.000000  -0.000130   0.000096
     5  C    0.000000  -0.000000  -0.000000  -0.000002  -0.000117  -0.002990
     6  C   -0.000000  -0.000000  -0.000004   0.000374   0.000106   0.002390
     7  C   -0.000003   0.000033   0.000661   0.001367  -0.001854  -0.005154
     8  C   -0.001008  -0.001650  -0.025680   0.021347   0.037192   0.001370
     9  C    0.206186  -0.070504   0.081651  -0.009846   0.001159  -0.000021
    10  C   -0.012743   0.331413  -0.035275   0.018170   0.000364   0.000122
    11  C   -0.001479  -0.026452   0.273193  -0.057323  -0.004560  -0.000204
    12  C    0.002527  -0.015171  -0.022130   0.332090  -0.063807  -0.009956
    13  C   -0.000043  -0.000280  -0.000229  -0.051302   0.335954  -0.039028
    14  C    0.000002  -0.000015   0.000194  -0.004872  -0.050699   0.330235
    15  C   -0.000000  -0.000001  -0.000017   0.000258   0.000771  -0.016672
    16  S    0.000001   0.000000  -0.000069   0.000127  -0.003463   0.003956
    17  C    0.000000   0.000000   0.000000   0.000000   0.000062  -0.000005
    18  O    0.000000   0.000000  -0.000000  -0.000000  -0.000008   0.000000
    19  H   -0.000000   0.000000   0.000000  -0.000000   0.000000  -0.000000
    20  H    0.000000   0.000000   0.000000   0.000000   0.000000  -0.000000
    21  H    0.000000  -0.000000  -0.000000  -0.000000  -0.000000   0.000000
    22  H    0.000000  -0.000000  -0.000000  -0.000000   0.000000  -0.000000
    23  H    0.000000  -0.000000  -0.000000  -0.000013  -0.000040   0.002605
    24  H    0.001863   0.020863   0.001532   0.018395  -0.001055   0.000092
    25  H    0.689753   0.001692  -0.011243   0.000101  -0.000158   0.000000
    26  H    0.001692   0.601375   0.004064   0.008227  -0.000067   0.000003
    27  H   -0.011243   0.004064   0.452205   0.001752   0.002934  -0.000019
    28  H    0.000101   0.008227   0.001752   0.551053   0.001676   0.008982
    29  H   -0.000158  -0.000067   0.002934   0.001676   0.548541   0.003077
    30  H    0.000000   0.000003  -0.000019   0.008982   0.003077   0.523163
 Mulliken charges:
               1
     1  C   -0.420979
     2  N   -0.336463
     3  N    0.351632
     4  C   -0.224212
     5  C   -0.155977
     6  C   -0.207889
     7  C   -0.009405
     8  C   -0.235038
     9  C   -0.205704
    10  C   -0.198958
    11  C   -0.143264
    12  C   -0.085476
    13  C   -0.082927
    14  C   -0.259045
    15  C    0.287952
    16  S   -0.050089
    17  C    0.363449
    18  O   -0.318323
    19  H    0.195330
    20  H    0.232289
    21  H    0.004602
    22  H   -0.052622
    23  H    0.288564
    24  H    0.163621
    25  H    0.124551
    26  H    0.146470
    27  H    0.276479
    28  H    0.159438
    29  H    0.194138
    30  H    0.197854
 Sum of Mulliken charges =  -0.00000
 Mulliken charges with hydrogens summed into heavy atoms:
               1
     1  C    0.011242
     2  N   -0.336463
     3  N    0.299010
     4  C   -0.224212
     5  C    0.132587
     6  C   -0.207889
     7  C   -0.009405
     8  C   -0.235038
     9  C    0.082469
    10  C   -0.052488
    11  C    0.133215
    12  C    0.073962
    13  C    0.111212
    14  C   -0.061190
    15  C    0.287952
    16  S   -0.050089
    17  C    0.363449
    18  O   -0.318323
 Electronic spatial extent (au):  <R**2>=           5052.5702
 Charge=             -0.0000 electrons
 Dipole moment (field-independent basis, Debye):
    X=              2.0480    Y=              2.4978    Z=             -0.5568  Tot=              3.2777
 Quadrupole moment (field-independent basis, Debye-Ang):
   XX=            -83.7105   YY=           -113.4934   ZZ=           -127.0995
   XY=             -0.4345   XZ=             -1.7378   YZ=             -0.4681
 Traceless Quadrupole moment (field-independent basis, Debye-Ang):
   XX=             24.3906   YY=             -5.3923   ZZ=            -18.9984
   XY=             -0.4345   XZ=             -1.7378   YZ=             -0.4681
 Octapole moment (field-independent basis, Debye-Ang**2):
  XXX=            -42.4542  YYY=             -1.9976  ZZZ=             -5.6901  XYY=             13.7960
  XXY=              4.0315  XXZ=             50.0643  XZZ=             -9.9220  YZZ=             -5.0231
  YYZ=             -3.5818  XYZ=             -9.8735
 Hexadecapole moment (field-independent basis, Debye-Ang**3):
 XXXX=          -4698.4600 YYYY=           -773.7834 ZZZZ=           -591.4376 XXXY=             62.7638
 XXXZ=           -125.4989 YYYX=              1.9014 YYYZ=            -10.5554 ZZZX=            -25.7773
 ZZZY=              5.0771 XXYY=          -1081.2609 XXZZ=          -1182.0023 YYZZ=           -241.6832
 XXYZ=             25.8143 YYXZ=              0.7125 ZZXY=             29.3014
 N-N= 1.408944395393D+03 E-N=-5.446093839876D+03  KE= 1.116670388617D+03
 PrsmSu:  requested number of processors reduced to:  13 ShMem   1 Linda.
 Calling FoFJK, ICntrl=      2127 FMM=F ISym2X=0 I1Cent= 0 IOpClX= 0 NMat=1 NMatS=1 NMatT=0.
 ***** Axes restored to original set *****
 -------------------------------------------------------------------
 Center     Atomic                   Forces (Hartrees/Bohr)
 Number     Number              X              Y              Z
 -------------------------------------------------------------------
      1        6          -0.017519328   -0.094490435   -0.313195465
      2        7           0.031413524   -0.078897869   -0.011141215
      3        7          -0.077984186   -0.063080303    0.145632816
      4        6          -0.015828460    0.049571831    0.045524309
      5        6           0.089489917    0.054851991    0.052665833
      6        6           0.063209536    0.014642033   -0.112364015
      7        6          -0.033952208   -0.047527027    0.025255518
      8        6          -0.045250872    0.010254513    0.024606267
      9        6           0.078179618    0.176170789   -0.015694293
     10        6           0.100442629   -0.059753510   -0.020070796
     11        6           0.003807840   -0.039761793    0.015002062
     12        6           0.111772390   -0.012801314   -0.068385221
     13        6          -0.059363145    0.001043879   -0.056621100
     14        6          -0.029848923   -0.045000443   -0.001001469
     15        6          -0.005305390   -0.025004174    0.030269317
     16       16           0.052298400    0.051945650    0.033325216
     17        6           0.041493522    0.014280487   -0.006630130
     18        8          -0.005689925   -0.003806558    0.065164059
     19        1           0.015859400    0.041280606   -0.009513552
     20        1          -0.048684831   -0.042020611    0.019070968
     21        1          -0.038697636    0.044994225    0.038115498
     22        1          -0.036788001    0.004841470    0.002228032
     23        1          -0.034780379    0.047355145   -0.021600808
     24        1          -0.003271672   -0.134896228    0.005377528
     25        1          -0.057095018   -0.053206037    0.001366423
     26        1          -0.043538538    0.071938876    0.000742549
     27        1          -0.000415942    0.004453069    0.044280140
     28        1          -0.017821654    0.053760853    0.005508513
     29        1           0.010541568    0.002650065    0.066948693
     30        1          -0.026672232    0.056210819    0.015134323
 -------------------------------------------------------------------
 Cartesian Forces:  Max     0.313195465 RMS     0.061906973

 GradGradGradGradGradGradGradGradGradGradGradGradGradGradGradGradGradGrad
 Berny optimization.
 FormGI is forming the generalized inverse of G from B-inverse, IUseBI=4.
 Internal  Forces:  Max     0.291575893 RMS     0.046157689
 Search for a local minimum.
 Step number   1 out of a maximum of  180
 All quantities printed in internal units (Hartrees-Bohrs-Radians)
 Mixed Optimization -- RFO/linear search
 Second derivative matrix not updated -- first step.
 ITU=  0
     Eigenvalues ---    0.00230   0.00230   0.00230   0.00862   0.01284
     Eigenvalues ---    0.01353   0.01780   0.01906   0.02065   0.02076
     Eigenvalues ---    0.02135   0.02395   0.02612   0.02855   0.02950
     Eigenvalues ---    0.03080   0.03600   0.04009   0.04037   0.04413
     Eigenvalues ---    0.04785   0.04837   0.05128   0.05548   0.05975
     Eigenvalues ---    0.06394   0.06828   0.06860   0.07610   0.07687
     Eigenvalues ---    0.07758   0.07999   0.08281   0.08554   0.08677
     Eigenvalues ---    0.09112   0.09251   0.10624   0.10892   0.11893
     Eigenvalues ---    0.12123   0.12512   0.12568   0.12875   0.13402
     Eigenvalues ---    0.13680   0.13730   0.14259   0.14527   0.14590
     Eigenvalues ---    0.15622   0.15886   0.15978   0.16385   0.16927
     Eigenvalues ---    0.17624   0.17634   0.18490   0.18775   0.19097
     Eigenvalues ---    0.20321   0.20529   0.20782   0.22040   0.22286
     Eigenvalues ---    0.22529   0.22575   0.22758   0.23212   0.23276
     Eigenvalues ---    0.24014   0.24293   0.25000   0.25852   0.33138
     Eigenvalues ---    0.34926   0.43407   0.45465   0.48667   0.52724
     Eigenvalues ---    0.54376   0.60678   0.87427   1.81363
 RFO step:  Lambda=-4.97459031D-01 EMin= 2.30000000D-03
 Linear search not attempted -- first point.
 Maximum step size (   0.300) exceeded in Quadratic search.
    -- Step size scaled by   0.401
 Iteration  1 RMS(Cart)=  0.11299792 RMS(Int)=  0.00543550
 Iteration  2 RMS(Cart)=  0.01006885 RMS(Int)=  0.00020378
 Iteration  3 RMS(Cart)=  0.00009316 RMS(Int)=  0.00020219
 Iteration  4 RMS(Cart)=  0.00000002 RMS(Int)=  0.00020219
 Variable       Old X    -DE/DX   Delta X   Delta X   Delta X     New X
                                 (Linear)    (Quad)   (Total)
    R1        2.07015   0.29158   0.00000   0.05064   0.05064   2.12078
    R2        3.77762   0.05709   0.00000   0.03621   0.03625   3.81387
    R3        4.03669  -0.00411   0.00000  -0.00798  -0.00788   4.02881
    R4        4.02174   0.05030   0.00000   0.03183   0.03171   4.05346
    R5        2.39174   0.14223   0.00000   0.05579   0.05599   2.44773
    R6        2.77932   0.12770   0.00000   0.08276   0.08276   2.86208
    R7        2.67562   0.03168   0.00000   0.01369   0.01364   2.68926
    R8        3.10301  -0.00866   0.00000  -0.00727  -0.00736   3.09565
    R9        3.44986   0.03509   0.00000   0.02261   0.02248   3.47234
   R10        2.94659   0.02261   0.00000   0.01093   0.01066   2.95726
   R11        2.49479  -0.06078   0.00000  -0.03621  -0.03621   2.45858
   R12        3.43260  -0.05748   0.00000  -0.03653  -0.03653   3.39607
   R13        3.39376   0.02668   0.00000   0.01674   0.01706   3.41081
   R14        3.35640   0.04015   0.00000   0.02871   0.02871   3.38511
   R15        2.92125   0.02232   0.00000   0.01220   0.01294   2.93418
   R16        3.43108  -0.04942   0.00000  -0.03286  -0.03353   3.39755
   R17        1.83913   0.13425   0.00000   0.05259   0.05259   1.89171
   R18        3.18701  -0.07698   0.00000  -0.05387  -0.05387   3.13314
   R19        2.56706   0.04689   0.00000   0.01889   0.01893   2.58599
   R20        2.45010  -0.07666   0.00000  -0.04490  -0.04490   2.40519
   R21        3.03806  -0.01943   0.00000  -0.01068  -0.01068   3.02738
   R22        2.39546  -0.04328   0.00000  -0.02479  -0.02479   2.37067
   R23        2.50407   0.10079   0.00000   0.03664   0.03664   2.54071
   R24        2.23790  -0.05369   0.00000  -0.02850  -0.02850   2.20940
   R25        2.64739   0.06533   0.00000   0.02754   0.02754   2.67494
   R26        2.43821  -0.06512   0.00000  -0.03796  -0.03796   2.40025
   R27        2.67170   0.02146   0.00000   0.00925   0.00925   2.68095
   R28        2.30683  -0.05638   0.00000  -0.03101  -0.03101   2.27582
   R29        3.48253   0.00095   0.00000   0.00003  -0.00001   3.48251
   R30        3.20121   0.05559   0.00000   0.02635   0.02639   3.22760
   R31        2.34142  -0.05439   0.00000  -0.01592  -0.01592   2.32550
   R32        2.07813  -0.03430   0.00000  -0.02034  -0.02034   2.05780
   R33        1.98998   0.00694   0.00000   0.00358   0.00357   1.99355
   R34        1.94933  -0.02676   0.00000  -0.01687  -0.01687   1.93246
   R35        2.58155  -0.00228   0.00000  -0.00160  -0.00160   2.57995
    A1        1.02149   0.02824   0.00000   0.01137   0.01137   1.03286
    A2        1.03231   0.02261   0.00000   0.01010   0.01035   1.04266
    A3        1.36122  -0.01761   0.00000  -0.01228  -0.01242   1.34880
    A4        1.53421   0.00122   0.00000  -0.00343  -0.00301   1.53120
    A5        2.48861   0.02017   0.00000   0.01660   0.01661   2.50522
    A6        1.70448   0.08656   0.00000   0.05985   0.05960   1.76408
    A7        1.44075  -0.02883   0.00000  -0.01368  -0.01361   1.42714
    A8        1.51237  -0.05564   0.00000  -0.03880  -0.03895   1.47342
    A9        1.70899  -0.00530   0.00000  -0.00052  -0.00042   1.70857
   A10        1.53798   0.02672   0.00000   0.02081   0.02099   1.55898
   A11        2.13838  -0.03301   0.00000  -0.02081  -0.02091   2.11747
   A12        1.29865   0.01667   0.00000   0.01094   0.01077   1.30943
   A13        1.24105  -0.02869   0.00000  -0.01815  -0.01821   1.22284
   A14        1.34142   0.03555   0.00000   0.02249   0.02252   1.36394
   A15        2.01864  -0.01525   0.00000  -0.00910  -0.00909   2.00956
   A16        2.49385  -0.01232   0.00000  -0.00665  -0.00692   2.48693
   A17        1.67113   0.01981   0.00000   0.01426   0.01431   1.68544
   A18        2.80640  -0.01153   0.00000  -0.00986  -0.00982   2.79658
   A19        0.94306   0.01963   0.00000   0.01312   0.01325   0.95631
   A20        1.78726  -0.01075   0.00000  -0.00593  -0.00606   1.78120
   A21        2.02138   0.03853   0.00000   0.01821   0.01800   2.03938
   A22        1.33703   0.05743   0.00000   0.03252   0.03255   1.36958
   A23        1.51529   0.04004   0.00000   0.02577   0.02577   1.54106
   A24        1.45711  -0.01778   0.00000  -0.00773  -0.00749   1.44961
   A25        1.79212  -0.00455   0.00000  -0.00211  -0.00227   1.78986
   A26        1.69097   0.04155   0.00000   0.02650   0.02633   1.71729
   A27        2.48302  -0.00367   0.00000  -0.00143  -0.00163   2.48139
   A28        1.76026  -0.00449   0.00000  -0.00208  -0.00252   1.75774
   A29        2.56189  -0.05078   0.00000  -0.02936  -0.02909   2.53280
   A30        1.84134  -0.06480   0.00000  -0.03876  -0.03865   1.80270
   A31        1.02550   0.00647   0.00000   0.00204   0.00213   1.02763
   A32        1.70761   0.03030   0.00000   0.01974   0.02008   1.72769
   A33        1.91211  -0.00693   0.00000  -0.00530  -0.00567   1.90644
   A34        2.14360  -0.03402   0.00000  -0.02090  -0.02102   2.12257
   A35        1.76452   0.06999   0.00000   0.03888   0.03890   1.80342
   A36        2.06663  -0.03153   0.00000  -0.01746  -0.01744   2.04918
   A37        2.37027  -0.04225   0.00000  -0.02482  -0.02480   2.34547
   A38        1.85937   0.04959   0.00000   0.02739   0.02741   1.88678
   A39        1.99652  -0.02611   0.00000  -0.01499  -0.01498   1.98154
   A40        2.07758  -0.01433   0.00000  -0.00763  -0.00758   2.07000
   A41        2.01346   0.03435   0.00000   0.01936   0.01935   2.03281
   A42        1.95241  -0.00176   0.00000   0.00039   0.00042   1.95283
   A43        2.09752  -0.02251   0.00000  -0.01296  -0.01300   2.08452
   A44        2.28062   0.00626   0.00000   0.00311   0.00295   2.28357
   A45        1.98761  -0.00068   0.00000  -0.00158  -0.00153   1.98608
   A46        1.37951   0.02300   0.00000   0.01333   0.01347   1.39298
   A47        2.27216  -0.02790   0.00000  -0.01577  -0.01582   2.25635
   A48        2.00947  -0.00465   0.00000  -0.00071  -0.00063   2.00884
   A49        1.68568  -0.01348   0.00000  -0.00854  -0.00868   1.67700
   A50        1.23792   0.00631   0.00000   0.00224   0.00215   1.24007
   A51        1.36875   0.03777   0.00000   0.02517   0.02506   1.39381
   A52        1.80342  -0.00507   0.00000  -0.00091  -0.00088   1.80254
   A53        1.72723   0.01805   0.00000   0.01321   0.01330   1.74053
   A54        2.38292  -0.01472   0.00000  -0.01189  -0.01214   2.37079
   A55        2.14058   0.00532   0.00000   0.00466   0.00455   2.14512
   A56        2.47832  -0.00050   0.00000  -0.00075  -0.00086   2.47746
   A57        2.12784   0.05034   0.00000   0.03263   0.03267   2.16052
   A58        1.60277   0.27592   0.00000   0.16872   0.16862   1.77139
   A59        1.57943   0.02912   0.00000   0.01564   0.01564   1.59506
   A60        3.23869   0.08778   0.00000   0.05642   0.05659   3.29528
   A61        3.32719   0.02833   0.00000   0.01577   0.01520   3.34239
    D1       -3.04435   0.01314   0.00000   0.01474   0.01504  -3.02931
    D2        0.73005  -0.01437   0.00000  -0.00669  -0.00664   0.72342
    D3        1.58640   0.07009   0.00000   0.04527   0.04540   1.63180
    D4       -0.92238   0.04258   0.00000   0.02385   0.02372  -0.89866
    D5       -0.66074  -0.01799   0.00000  -0.00458  -0.00451  -0.66525
    D6        2.72405  -0.01451   0.00000  -0.00452  -0.00426   2.71978
    D7       -2.40435  -0.02305   0.00000  -0.00953  -0.00977  -2.41412
    D8        2.17513  -0.02972   0.00000  -0.01462  -0.01455   2.16058
    D9        0.40421   0.02157   0.00000   0.01553   0.01556   0.41977
   D10       -2.49419   0.02506   0.00000   0.01559   0.01580  -2.47839
   D11       -1.33939   0.01652   0.00000   0.01059   0.01029  -1.32910
   D12       -3.04310   0.00985   0.00000   0.00549   0.00551  -3.03759
   D13        0.70042   0.02027   0.00000   0.00425   0.00379   0.70421
   D14        2.51264   0.02288   0.00000   0.00787   0.00766   2.52030
   D15       -1.65598   0.03464   0.00000   0.01662   0.01642  -1.63956
   D16       -0.35289  -0.02487   0.00000  -0.01696  -0.01711  -0.37000
   D17        1.45934  -0.02226   0.00000  -0.01333  -0.01324   1.44609
   D18       -2.70929  -0.01050   0.00000  -0.00459  -0.00448  -2.71377
   D19       -2.80666  -0.02764   0.00000  -0.01493  -0.01536  -2.82202
   D20        1.74465  -0.00177   0.00000  -0.00485  -0.00542   1.73923
   D21       -2.38493   0.06800   0.00000   0.04537   0.04552  -2.33940
   D22       -0.24548   0.03822   0.00000   0.02731   0.02750  -0.21798
   D23       -1.04796   0.02145   0.00000   0.01332   0.01315  -1.03481
   D24        1.09149  -0.00834   0.00000  -0.00474  -0.00488   1.08662
   D25        2.18368  -0.00450   0.00000  -0.00468  -0.00447   2.17921
   D26       -1.96005  -0.03428   0.00000  -0.02274  -0.02250  -1.98255
   D27        0.20769  -0.01165   0.00000  -0.01153  -0.01084   0.19685
   D28        2.69738   0.00760   0.00000   0.00442   0.00476   2.70214
   D29        0.98754  -0.00705   0.00000  -0.00145  -0.00153   0.98601
   D30        1.37473  -0.01196   0.00000  -0.00746  -0.00740   1.36733
   D31        2.28977   0.02715   0.00000   0.01971   0.01971   2.30949
   D32       -1.18434   0.00952   0.00000   0.01002   0.01005  -1.17429
   D33       -0.63267  -0.03001   0.00000  -0.02250  -0.02258  -0.65525
   D34       -0.24547  -0.03492   0.00000  -0.02851  -0.02845  -0.27393
   D35        0.66957   0.00419   0.00000  -0.00134  -0.00134   0.66822
   D36       -2.80455  -0.01344   0.00000  -0.01103  -0.01100  -2.81555
   D37       -1.06423   0.01384   0.00000   0.00605   0.00621  -1.05803
   D38       -2.36216  -0.02169   0.00000  -0.01663  -0.01634  -2.37851
   D39        0.49639   0.01817   0.00000   0.01130   0.01141   0.50780
   D40        0.64958   0.02269   0.00000   0.01753   0.01738   0.66697
   D41       -0.64835  -0.01284   0.00000  -0.00515  -0.00516  -0.65351
   D42        2.21020   0.02702   0.00000   0.02277   0.02259   2.23279
   D43        0.70986   0.00613   0.00000   0.00285   0.00287   0.71273
   D44        0.31530   0.00512   0.00000   0.00513   0.00501   0.32031
   D45       -3.05179  -0.00669   0.00000  -0.00527  -0.00539  -3.05718
[...]
 Iteration 39 RMS(Cart)=  0.00010199 RMS(Int)=  0.00905926
 Iteration 40 RMS(Cart)=  0.00009737 RMS(Int)=  0.00889411
 Iteration 41 RMS(Cart)=  0.00009310 RMS(Int)=  0.00873878
 Iteration 42 RMS(Cart)=  0.00008914 RMS(Int)=  0.00859242
 Iteration 43 RMS(Cart)=  0.00008546 RMS(Int)=  0.00845430
 Iteration 44 RMS(Cart)=  0.00008202 RMS(Int)=  0.00832376
 Iteration 45 RMS(Cart)=  0.00007882 RMS(Int)=  0.00820021
 Iteration 46 RMS(Cart)=  0.00007581 RMS(Int)=  0.00808312
 Iteration 47 RMS(Cart)=  0.00007299 RMS(Int)=  0.00797203
 Iteration 48 RMS(Cart)=  0.00007034 RMS(Int)=  0.00786650
 Iteration 49 RMS(Cart)=  0.00006785 RMS(Int)=  0.00776615
 Iteration 50 RMS(Cart)=  0.00006549 RMS(Int)=  0.00767061
 Iteration 51 RMS(Cart)=  0.00006327 RMS(Int)=  0.00757958
 Iteration 52 RMS(Cart)=  0.00006117 RMS(Int)=  0.00749275
 Iteration 53 RMS(Cart)=  0.00005917 RMS(Int)=  0.00740986
 Iteration 54 RMS(Cart)=  0.00005729 RMS(Int)=  0.00733065
 Iteration 55 RMS(Cart)=  0.00005549 RMS(Int)=  0.00725491
 Iteration 56 RMS(Cart)=  0.00005379 RMS(Int)=  0.00718241
 Iteration 57 RMS(Cart)=  0.00005217 RMS(Int)=  0.00711297
 Iteration 58 RMS(Cart)=  0.00005062 RMS(Int)=  0.00704641
 Iteration 59 RMS(Cart)=  0.00004915 RMS(Int)=  0.00698255
 Iteration 60 RMS(Cart)=  0.00004774 RMS(Int)=  0.00692124
 Iteration 61 RMS(Cart)=  0.00004640 RMS(Int)=  0.00686234
 Iteration 62 RMS(Cart)=  0.00004512 RMS(Int)=  0.00680571
 Iteration 63 RMS(Cart)=  0.00004389 RMS(Int)=  0.00675122
 Iteration 64 RMS(Cart)=  0.00004271 RMS(Int)=  0.00669875
 Iteration 65 RMS(Cart)=  0.00004158 RMS(Int)=  0.00664819
 Iteration 66 RMS(Cart)=  0.00004050 RMS(Int)=  0.00659943
 Iteration 67 RMS(Cart)=  0.00003946 RMS(Int)=  0.00655237
 Iteration 68 RMS(Cart)=  0.00003846 RMS(Int)=  0.00650690
 Iteration 69 RMS(Cart)=  0.00003750 RMS(Int)=  0.00646293
 Iteration 70 RMS(Cart)=  0.00003658 RMS(Int)=  0.00642037
 Iteration 71 RMS(Cart)=  0.00003569 RMS(Int)=  0.00637910
 Iteration 72 RMS(Cart)=  0.00003483 RMS(Int)=  0.00633905
 Iteration 73 RMS(Cart)=  0.00003400 RMS(Int)=  0.00630009
 Iteration 74 RMS(Cart)=  0.00003320 RMS(Int)=  0.00626212
 Iteration 75 RMS(Cart)=  0.00003243 RMS(Int)=  0.00622498
 Iteration 76 RMS(Cart)=  0.00003168 RMS(Int)=  0.00618849
 Iteration 77 RMS(Cart)=  0.00003095 RMS(Int)=  0.00615241
 Iteration 78 RMS(Cart)=  0.00003022 RMS(Int)=  0.00611632
 Iteration 79 RMS(Cart)=  0.00002952 RMS(Int)=  0.00607948
 Iteration 80 RMS(Cart)=  0.00002883 RMS(Int)=  0.00604013
 Iteration 81 RMS(Cart)=  0.00002813 RMS(Int)=  0.00599188
 New curvilinear step failed, DQL= 4.44D+00 SP=-7.36D-03.
 ITry= 1 IFail=1 DXMaxC= 8.41D-01 DCOld= 1.00D+10 DXMaxT= 3.00D+00 DXLimC= 3.00D+00 Rises=F
 Iteration  1 RMS(Cart)=  0.02674359 RMS(Int)=  0.22756513
 Iteration  2 RMS(Cart)=  0.10227644 RMS(Int)=  0.16677097
 Iteration  3 RMS(Cart)=  0.07612247 RMS(Int)=  0.14633346
 Iteration  4 RMS(Cart)=  0.00299135 RMS(Int)=  0.12722855
 Iteration  5 RMS(Cart)=  0.00116922 RMS(Int)=  0.10872907
 Iteration  6 RMS(Cart)=  0.00150297 RMS(Int)=  0.09050927
 Iteration  7 RMS(Cart)=  0.00179819 RMS(Int)=  0.07236920
 Iteration  8 RMS(Cart)=  0.00210878 RMS(Int)=  0.05368152
 Iteration  9 RMS(Cart)=  0.00260384 RMS(Int)=  0.03331730
 Iteration 10 RMS(Cart)=  0.00284361 RMS(Int)=  0.01861089
 Iteration 11 RMS(Cart)=  0.00082451 RMS(Int)=  0.01572591
 Iteration 12 RMS(Cart)=  0.00042426 RMS(Int)=  0.01451502
 Iteration 13 RMS(Cart)=  0.00031642 RMS(Int)=  0.01367581
 Iteration 14 RMS(Cart)=  0.00026167 RMS(Int)=  0.01301503
 Iteration 15 RMS(Cart)=  0.00022707 RMS(Int)=  0.01246325
 Iteration 16 RMS(Cart)=  0.00020242 RMS(Int)=  0.01198683
 Iteration 17 RMS(Cart)=  0.00018348 RMS(Int)=  0.01156708
 Iteration 18 RMS(Cart)=  0.00016822 RMS(Int)=  0.01119206
 Iteration 19 RMS(Cart)=  0.00015552 RMS(Int)=  0.01085355
 Iteration 20 RMS(Cart)=  0.00014470 RMS(Int)=  0.01054557
 Iteration 21 RMS(Cart)=  0.00013532 RMS(Int)=  0.01026362
 Iteration 22 RMS(Cart)=  0.00012707 RMS(Int)=  0.01000415
 Iteration 23 RMS(Cart)=  0.00011975 RMS(Int)=  0.00976433
 Iteration 24 RMS(Cart)=  0.00011319 RMS(Int)=  0.00954186
 Iteration 25 RMS(Cart)=  0.00010726 RMS(Int)=  0.00933481
 Iteration 26 RMS(Cart)=  0.00010188 RMS(Int)=  0.00914156
 Iteration 27 RMS(Cart)=  0.00009696 RMS(Int)=  0.00896074
 Iteration 28 RMS(Cart)=  0.00009245 RMS(Int)=  0.00879116
 Iteration 29 RMS(Cart)=  0.00008830 RMS(Int)=  0.00863181
 Iteration 30 RMS(Cart)=  0.00008446 RMS(Int)=  0.00848177
 Iteration 31 RMS(Cart)=  0.00008090 RMS(Int)=  0.00834027
 Iteration 32 RMS(Cart)=  0.00007759 RMS(Int)=  0.00820660
 Iteration 33 RMS(Cart)=  0.00007450 RMS(Int)=  0.00808014
 Iteration 34 RMS(Cart)=  0.00007162 RMS(Int)=  0.00796035
 Iteration 35 RMS(Cart)=  0.00006892 RMS(Int)=  0.00784672
 Iteration 36 RMS(Cart)=  0.00006639 RMS(Int)=  0.00773882
 Iteration 37 RMS(Cart)=  0.00006400 RMS(Int)=  0.00763622
 Iteration 38 RMS(Cart)=  0.00006176 RMS(Int)=  0.00753858
 Iteration 39 RMS(Cart)=  0.00005964 RMS(Int)=  0.00744555
 Iteration 40 RMS(Cart)=  0.00005764 RMS(Int)=  0.00735683
 Iteration 41 RMS(Cart)=  0.00005575 RMS(Int)=  0.00727215
 Iteration 42 RMS(Cart)=  0.00005396 RMS(Int)=  0.00719125
 Iteration 43 RMS(Cart)=  0.00005226 RMS(Int)=  0.00711389
 Iteration 44 RMS(Cart)=  0.00005065 RMS(Int)=  0.00703987
 Iteration 45 RMS(Cart)=  0.00004911 RMS(Int)=  0.00696899
 Iteration 46 RMS(Cart)=  0.00004765 RMS(Int)=  0.00690105
 Iteration 47 RMS(Cart)=  0.00004626 RMS(Int)=  0.00683590
 Iteration 48 RMS(Cart)=  0.00004493 RMS(Int)=  0.00677338
 Iteration 49 RMS(Cart)=  0.00004366 RMS(Int)=  0.00671333
 Iteration 50 RMS(Cart)=  0.00004245 RMS(Int)=  0.00665563
 Iteration 51 RMS(Cart)=  0.00004130 RMS(Int)=  0.00660015
 Iteration 52 RMS(Cart)=  0.00004019 RMS(Int)=  0.00654677
 Iteration 53 RMS(Cart)=  0.00003913 RMS(Int)=  0.00649538
 Iteration 54 RMS(Cart)=  0.00003811 RMS(Int)=  0.00644587
 Iteration 55 RMS(Cart)=  0.00003713 RMS(Int)=  0.00639815
 Iteration 56 RMS(Cart)=  0.00003620 RMS(Int)=  0.00635213
 Iteration 57 RMS(Cart)=  0.00003530 RMS(Int)=  0.00630772
 Iteration 58 RMS(Cart)=  0.00003443 RMS(Int)=  0.00626484
 Iteration 59 RMS(Cart)=  0.00003360 RMS(Int)=  0.00622341
 Iteration 60 RMS(Cart)=  0.00003280 RMS(Int)=  0.00618336
 Iteration 61 RMS(Cart)=  0.00003203 RMS(Int)=  0.00614463
 Iteration 62 RMS(Cart)=  0.00003128 RMS(Int)=  0.00610714
 Iteration 63 RMS(Cart)=  0.00003056 RMS(Int)=  0.00607083
 Iteration 64 RMS(Cart)=  0.00002987 RMS(Int)=  0.00603564
 Iteration 65 RMS(Cart)=  0.00002920 RMS(Int)=  0.00600150
 Iteration 66 RMS(Cart)=  0.00002856 RMS(Int)=  0.00596837
 Iteration 67 RMS(Cart)=  0.00002793 RMS(Int)=  0.00593617
 Iteration 68 RMS(Cart)=  0.00002733 RMS(Int)=  0.00590486
 Iteration 69 RMS(Cart)=  0.00002674 RMS(Int)=  0.00587435
 Iteration 70 RMS(Cart)=  0.00002617 RMS(Int)=  0.00584460
 Iteration 71 RMS(Cart)=  0.00002562 RMS(Int)=  0.00581551
 Iteration 72 RMS(Cart)=  0.00002509 RMS(Int)=  0.00578701
 Iteration 73 RMS(Cart)=  0.00002457 RMS(Int)=  0.00575897
 Iteration 74 RMS(Cart)=  0.00002406 RMS(Int)=  0.00573123
 Iteration 75 RMS(Cart)=  0.00002357 RMS(Int)=  0.00570356
 Iteration 76 RMS(Cart)=  0.00002308 RMS(Int)=  0.00567554
 Iteration 77 RMS(Cart)=  0.00002259 RMS(Int)=  0.00564631
 Iteration 78 RMS(Cart)=  0.00002211 RMS(Int)=  0.00561343
 Iteration 79 RMS(Cart)=  0.00002160 RMS(Int)=  0.00556264
 New curvilinear step failed, DQL= 4.44D+00 SP=-6.70D-03.
 ITry= 2 IFail=1 DXMaxC= 8.07D-01 DCOld= 1.00D+10 DXMaxT= 3.00D+00 DXLimC= 3.00D+00 Rises=F
 Iteration  1 RMS(Cart)=  0.02168888 RMS(Int)=  0.23035336
 Iteration  2 RMS(Cart)=  0.10137273 RMS(Int)=  0.17118576
 Iteration  3 RMS(Cart)=  0.07861170 RMS(Int)=  0.15110187
 Iteration  4 RMS(Cart)=  0.00320463 RMS(Int)=  0.13215674
 Iteration  5 RMS(Cart)=  0.00099909 RMS(Int)=  0.11362135
 Iteration  6 RMS(Cart)=  0.00134170 RMS(Int)=  0.09537323
 Iteration  7 RMS(Cart)=  0.00162565 RMS(Int)=  0.07729356
 Iteration  8 RMS(Cart)=  0.00191653 RMS(Int)=  0.05892056
 Iteration  9 RMS(Cart)=  0.00232590 RMS(Int)=  0.03879350
 Iteration 10 RMS(Cart)=  0.00283777 RMS(Int)=  0.02081028
 Iteration 11 RMS(Cart)=  0.00125517 RMS(Int)=  0.01539775
 Iteration 12 RMS(Cart)=  0.00044463 RMS(Int)=  0.01404782
 Iteration 13 RMS(Cart)=  0.00031060 RMS(Int)=  0.01318267
 Iteration 14 RMS(Cart)=  0.00024844 RMS(Int)=  0.01252573
 Iteration 15 RMS(Cart)=  0.00021145 RMS(Int)=  0.01198834
 Iteration 16 RMS(Cart)=  0.00018636 RMS(Int)=  0.01152962
 Iteration 17 RMS(Cart)=  0.00016769 RMS(Int)=  0.01112816
 Iteration 18 RMS(Cart)=  0.00015300 RMS(Int)=  0.01077096
 Iteration 19 RMS(Cart)=  0.00014098 RMS(Int)=  0.01044933
 Iteration 20 RMS(Cart)=  0.00013088 RMS(Int)=  0.01015714
 Iteration 21 RMS(Cart)=  0.00012221 RMS(Int)=  0.00988981
 Iteration 22 RMS(Cart)=  0.00011464 RMS(Int)=  0.00964385
 Iteration 23 RMS(Cart)=  0.00010796 RMS(Int)=  0.00941649
 Iteration 24 RMS(Cart)=  0.00010201 RMS(Int)=  0.00920548
 Iteration 25 RMS(Cart)=  0.00009665 RMS(Int)=  0.00900899
 Iteration 26 RMS(Cart)=  0.00009179 RMS(Int)=  0.00882546
 Iteration 27 RMS(Cart)=  0.00008737 RMS(Int)=  0.00865360
 Iteration 28 RMS(Cart)=  0.00008332 RMS(Int)=  0.00849228
 Iteration 29 RMS(Cart)=  0.00007960 RMS(Int)=  0.00834054
 Iteration 30 RMS(Cart)=  0.00007616 RMS(Int)=  0.00819754
 Iteration 31 RMS(Cart)=  0.00007298 RMS(Int)=  0.00806254
 Iteration 32 RMS(Cart)=  0.00007002 RMS(Int)=  0.00793489
 Iteration 33 RMS(Cart)=  0.00006726 RMS(Int)=  0.00781401
 Iteration 34 RMS(Cart)=  0.00006468 RMS(Int)=  0.00769938
 Iteration 35 RMS(Cart)=  0.00006227 RMS(Int)=  0.00759054
 Iteration 36 RMS(Cart)=  0.00006001 RMS(Int)=  0.00748708
 Iteration 37 RMS(Cart)=  0.00005788 RMS(Int)=  0.00738862
 Iteration 38 RMS(Cart)=  0.00005587 RMS(Int)=  0.00729482
 Iteration 39 RMS(Cart)=  0.00005398 RMS(Int)=  0.00720537
 Iteration 40 RMS(Cart)=  0.00005220 RMS(Int)=  0.00711999
 Iteration 41 RMS(Cart)=  0.00005051 RMS(Int)=  0.00703842
 Iteration 42 RMS(Cart)=  0.00004890 RMS(Int)=  0.00696042
 Iteration 43 RMS(Cart)=  0.00004738 RMS(Int)=  0.00688578
 Iteration 44 RMS(Cart)=  0.00004594 RMS(Int)=  0.00681429
 Iteration 45 RMS(Cart)=  0.00004457 RMS(Int)=  0.00674578
 Iteration 46 RMS(Cart)=  0.00004326 RMS(Int)=  0.00668008
 Iteration 47 RMS(Cart)=  0.00004202 RMS(Int)=  0.00661702
 Iteration 48 RMS(Cart)=  0.00004083 RMS(Int)=  0.00655646
 Iteration 49 RMS(Cart)=  0.00003969 RMS(Int)=  0.00649826
 Iteration 50 RMS(Cart)=  0.00003861 RMS(Int)=  0.00644230
 Iteration 51 RMS(Cart)=  0.00003757 RMS(Int)=  0.00638847
 Iteration 52 RMS(Cart)=  0.00003658 RMS(Int)=  0.00633664
 Iteration 53 RMS(Cart)=  0.00003563 RMS(Int)=  0.00628672
 Iteration 54 RMS(Cart)=  0.00003472 RMS(Int)=  0.00623862
 Iteration 55 RMS(Cart)=  0.00003384 RMS(Int)=  0.00619223
 Iteration 56 RMS(Cart)=  0.00003300 RMS(Int)=  0.00614749
 Iteration 57 RMS(Cart)=  0.00003219 RMS(Int)=  0.00610430
 Iteration 58 RMS(Cart)=  0.00003142 RMS(Int)=  0.00606260
 Iteration 59 RMS(Cart)=  0.00003067 RMS(Int)=  0.00602232
 Iteration 60 RMS(Cart)=  0.00002995 RMS(Int)=  0.00598339
 Iteration 61 RMS(Cart)=  0.00002926 RMS(Int)=  0.00594574
 Iteration 62 RMS(Cart)=  0.00002859 RMS(Int)=  0.00590932
 Iteration 63 RMS(Cart)=  0.00002795 RMS(Int)=  0.00587407
 Iteration 64 RMS(Cart)=  0.00002733 RMS(Int)=  0.00583995
 Iteration 65 RMS(Cart)=  0.00002673 RMS(Int)=  0.00580690
 Iteration 66 RMS(Cart)=  0.00002615 RMS(Int)=  0.00577486
 Iteration 67 RMS(Cart)=  0.00002559 RMS(Int)=  0.00574381
 Iteration 68 RMS(Cart)=  0.00002505 RMS(Int)=  0.00571370
 Iteration 69 RMS(Cart)=  0.00002453 RMS(Int)=  0.00568448
 Iteration 70 RMS(Cart)=  0.00002402 RMS(Int)=  0.00565611
 Iteration 71 RMS(Cart)=  0.00002353 RMS(Int)=  0.00562856
 Iteration 72 RMS(Cart)=  0.00002305 RMS(Int)=  0.00560180
 Iteration 73 RMS(Cart)=  0.00002259 RMS(Int)=  0.00557578
 Iteration 74 RMS(Cart)=  0.00002215 RMS(Int)=  0.00555048
 Iteration 75 RMS(Cart)=  0.00002171 RMS(Int)=  0.00552586
 Iteration 76 RMS(Cart)=  0.00002129 RMS(Int)=  0.00550189
 Iteration 77 RMS(Cart)=  0.00002089 RMS(Int)=  0.00547853
 Iteration 78 RMS(Cart)=  0.00002049 RMS(Int)=  0.00545576
 Iteration 79 RMS(Cart)=  0.00002011 RMS(Int)=  0.00543354
 Iteration 80 RMS(Cart)=  0.00001973 RMS(Int)=  0.00541183
 Iteration 81 RMS(Cart)=  0.00001937 RMS(Int)=  0.00539061
 Iteration 82 RMS(Cart)=  0.00001901 RMS(Int)=  0.00536983
 Iteration 83 RMS(Cart)=  0.00001867 RMS(Int)=  0.00534945
 Iteration 84 RMS(Cart)=  0.00001833 RMS(Int)=  0.00532941
 Iteration 85 RMS(Cart)=  0.00001800 RMS(Int)=  0.00530963
 Iteration 86 RMS(Cart)=  0.00001767 RMS(Int)=  0.00529004
 Iteration 87 RMS(Cart)=  0.00001736 RMS(Int)=  0.00527047
 Iteration 88 RMS(Cart)=  0.00001707 RMS(Int)=  0.00525069
 Iteration 89 RMS(Cart)=  0.00001674 RMS(Int)=  0.00523024
 Iteration 90 RMS(Cart)=  0.00001640 RMS(Int)=  0.00520794
 New curvilinear step failed, DQL= 4.44D+00 SP=-1.52D-02.
 ITry= 3 IFail=1 DXMaxC= 7.84D-01 DCOld= 1.00D+10 DXMaxT= 3.00D+00 DXLimC= 3.00D+00 Rises=F
 Iteration  1 RMS(Cart)=  0.02132790 RMS(Int)=  0.22919516
 Iteration  2 RMS(Cart)=  0.10590052 RMS(Int)=  0.17289058
 Iteration  3 RMS(Cart)=  0.07178028 RMS(Int)=  0.15535922
 Iteration  4 RMS(Cart)=  0.00278998 RMS(Int)=  0.13668788
 Iteration  5 RMS(Cart)=  0.00084224 RMS(Int)=  0.11813106
 Iteration  6 RMS(Cart)=  0.00119455 RMS(Int)=  0.09985338
 Iteration  7 RMS(Cart)=  0.00147121 RMS(Int)=  0.08180127
 Iteration  8 RMS(Cart)=  0.00174389 RMS(Int)=  0.06363874
 Iteration  9 RMS(Cart)=  0.00206287 RMS(Int)=  0.04431738
 Iteration 10 RMS(Cart)=  0.00258061 RMS(Int)=  0.02464233
 Iteration 11 RMS(Cart)=  0.00185839 RMS(Int)=  0.01601232
 Iteration 12 RMS(Cart)=  0.00057531 RMS(Int)=  0.01383150
 Iteration 13 RMS(Cart)=  0.00032586 RMS(Int)=  0.01278017
 Iteration 14 RMS(Cart)=  0.00023698 RMS(Int)=  0.01206920
 Iteration 15 RMS(Cart)=  0.00019220 RMS(Int)=  0.01151895
 Iteration 16 RMS(Cart)=  0.00016470 RMS(Int)=  0.01106418
 Iteration 17 RMS(Cart)=  0.00014573 RMS(Int)=  0.01067390
 Iteration 18 RMS(Cart)=  0.00013160 RMS(Int)=  0.01033058
 Iteration 19 RMS(Cart)=  0.00012045 RMS(Int)=  0.01002375
 Iteration 20 RMS(Cart)=  0.00011133 RMS(Int)=  0.00974634
 Iteration 21 RMS(Cart)=  0.00010365 RMS(Int)=  0.00949334
 Iteration 22 RMS(Cart)=  0.00009706 RMS(Int)=  0.00926103
 Iteration 23 RMS(Cart)=  0.00009130 RMS(Int)=  0.00904653
 Iteration 24 RMS(Cart)=  0.00008621 RMS(Int)=  0.00884758
 Iteration 25 RMS(Cart)=  0.00008166 RMS(Int)=  0.00866235
 Iteration 26 RMS(Cart)=  0.00007756 RMS(Int)=  0.00848932
 Iteration 27 RMS(Cart)=  0.00007384 RMS(Int)=  0.00832724
 Iteration 28 RMS(Cart)=  0.00007045 RMS(Int)=  0.00817503
 Iteration 29 RMS(Cart)=  0.00006733 RMS(Int)=  0.00803176
 Iteration 30 RMS(Cart)=  0.00006446 RMS(Int)=  0.00789664
 Iteration 31 RMS(Cart)=  0.00006181 RMS(Int)=  0.00776898
 Iteration 32 RMS(Cart)=  0.00005934 RMS(Int)=  0.00764816
 Iteration 33 RMS(Cart)=  0.00005705 RMS(Int)=  0.00753365
 Iteration 34 RMS(Cart)=  0.00005490 RMS(Int)=  0.00742496
 Iteration 35 RMS(Cart)=  0.00005289 RMS(Int)=  0.00732166
 Iteration 36 RMS(Cart)=  0.00005101 RMS(Int)=  0.00722338
 Iteration 37 RMS(Cart)=  0.00004924 RMS(Int)=  0.00712975
 Iteration 38 RMS(Cart)=  0.00004757 RMS(Int)=  0.00704047
 Iteration 39 RMS(Cart)=  0.00004600 RMS(Int)=  0.00695524
 Iteration 40 RMS(Cart)=  0.00004451 RMS(Int)=  0.00687382
 Iteration 41 RMS(Cart)=  0.00004310 RMS(Int)=  0.00679595
 Iteration 42 RMS(Cart)=  0.00004177 RMS(Int)=  0.00672143
 Iteration 43 RMS(Cart)=  0.00004050 RMS(Int)=  0.00665005
 Iteration 44 RMS(Cart)=  0.00003929 RMS(Int)=  0.00658162
 Iteration 45 RMS(Cart)=  0.00003815 RMS(Int)=  0.00651599
 Iteration 46 RMS(Cart)=  0.00003706 RMS(Int)=  0.00645298
 Iteration 47 RMS(Cart)=  0.00003602 RMS(Int)=  0.00639246
 Iteration 48 RMS(Cart)=  0.00003502 RMS(Int)=  0.00633429
 Iteration 49 RMS(Cart)=  0.00003407 RMS(Int)=  0.00627834
 Iteration 50 RMS(Cart)=  0.00003316 RMS(Int)=  0.00622451
 Iteration 51 RMS(Cart)=  0.00003230 RMS(Int)=  0.00617267
 Iteration 52 RMS(Cart)=  0.00003146 RMS(Int)=  0.00612273
 Iteration 53 RMS(Cart)=  0.00003066 RMS(Int)=  0.00607460
 Iteration 54 RMS(Cart)=  0.00002990 RMS(Int)=  0.00602818
 Iteration 55 RMS(Cart)=  0.00002916 RMS(Int)=  0.00598339
 Iteration 56 RMS(Cart)=  0.00002846 RMS(Int)=  0.00594015
 Iteration 57 RMS(Cart)=  0.00002778 RMS(Int)=  0.00589840
 Iteration 58 RMS(Cart)=  0.00002712 RMS(Int)=  0.00585806
 Iteration 59 RMS(Cart)=  0.00002650 RMS(Int)=  0.00581907
 Iteration 60 RMS(Cart)=  0.00002589 RMS(Int)=  0.00578136
 Iteration 61 RMS(Cart)=  0.00002531 RMS(Int)=  0.00574488
 Iteration 62 RMS(Cart)=  0.00002474 RMS(Int)=  0.00570958
 Iteration 63 RMS(Cart)=  0.00002420 RMS(Int)=  0.00567540
 Iteration 64 RMS(Cart)=  0.00002368 RMS(Int)=  0.00564230
 Iteration 65 RMS(Cart)=  0.00002317 RMS(Int)=  0.00561022
 Iteration 66 RMS(Cart)=  0.00002268 RMS(Int)=  0.00557914
 Iteration 67 RMS(Cart)=  0.00002221 RMS(Int)=  0.00554899
 Iteration 68 RMS(Cart)=  0.00002175 RMS(Int)=  0.00551976
 Iteration 69 RMS(Cart)=  0.00002131 RMS(Int)=  0.00549139
 Iteration 70 RMS(Cart)=  0.00002088 RMS(Int)=  0.00546386
 Iteration 71 RMS(Cart)=  0.00002046 RMS(Int)=  0.00543713
 Iteration 72 RMS(Cart)=  0.00002006 RMS(Int)=  0.00541117
 Iteration 73 RMS(Cart)=  0.00001967 RMS(Int)=  0.00538594
 Iteration 74 RMS(Cart)=  0.00001929 RMS(Int)=  0.00536143
 Iteration 75 RMS(Cart)=  0.00001893 RMS(Int)=  0.00533760
 Iteration 76 RMS(Cart)=  0.00001857 RMS(Int)=  0.00531442
 Iteration 77 RMS(Cart)=  0.00001823 RMS(Int)=  0.00529188
 Iteration 78 RMS(Cart)=  0.00001789 RMS(Int)=  0.00526994
 Iteration 79 RMS(Cart)=  0.00001756 RMS(Int)=  0.00524859
 Iteration 80 RMS(Cart)=  0.00001725 RMS(Int)=  0.00522780
 Iteration 81 RMS(Cart)=  0.00001694 RMS(Int)=  0.00520755
 Iteration 82 RMS(Cart)=  0.00001664 RMS(Int)=  0.00518782
 Iteration 83 RMS(Cart)=  0.00001635 RMS(Int)=  0.00516859
 Iteration 84 RMS(Cart)=  0.00001607 RMS(Int)=  0.00514984
 Iteration 85 RMS(Cart)=  0.00001579 RMS(Int)=  0.00513156
 Iteration 86 RMS(Cart)=  0.00001552 RMS(Int)=  0.00511372
 Iteration 87 RMS(Cart)=  0.00001526 RMS(Int)=  0.00509631
 Iteration 88 RMS(Cart)=  0.00001501 RMS(Int)=  0.00507932
 Iteration 89 RMS(Cart)=  0.00001476 RMS(Int)=  0.00506271
 Iteration 90 RMS(Cart)=  0.00001452 RMS(Int)=  0.00504649
 Iteration 91 RMS(Cart)=  0.00001428 RMS(Int)=  0.00503063
 Iteration 92 RMS(Cart)=  0.00001405 RMS(Int)=  0.00501511
 Iteration 93 RMS(Cart)=  0.00001382 RMS(Int)=  0.00499992
 Iteration 94 RMS(Cart)=  0.00001360 RMS(Int)=  0.00498504
 Iteration 95 RMS(Cart)=  0.00001339 RMS(Int)=  0.00497045
 Iteration 96 RMS(Cart)=  0.00001318 RMS(Int)=  0.00495614
 Iteration 97 RMS(Cart)=  0.00001297 RMS(Int)=  0.00494207
 Iteration 98 RMS(Cart)=  0.00001277 RMS(Int)=  0.00492823
 Iteration 99 RMS(Cart)=  0.00001258 RMS(Int)=  0.00491458
 Iteration100 RMS(Cart)=  0.00001238 RMS(Int)=  0.00490107
 New curvilinear step not converged.
 ITry= 4 IFail=1 DXMaxC= 7.70D-01 DCOld= 1.00D+10 DXMaxT= 3.00D+00 DXLimC= 3.00D+00 Rises=F
 Iteration  1 RMS(Cart)=  0.01925214 RMS(Int)=  0.23121484
 Iteration  2 RMS(Cart)=  0.11030131 RMS(Int)=  0.17767152
 Iteration  3 RMS(Cart)=  0.06711434 RMS(Int)=  0.16203878
 Iteration  4 RMS(Cart)=  0.00265368 RMS(Int)=  0.14366180
 Iteration  5 RMS(Cart)=  0.00068515 RMS(Int)=  0.12504165
 Iteration  6 RMS(Cart)=  0.00103153 RMS(Int)=  0.10668974
 Iteration  7 RMS(Cart)=  0.00128848 RMS(Int)=  0.08862344
 Iteration  8 RMS(Cart)=  0.00154698 RMS(Int)=  0.07062919
 Iteration  9 RMS(Cart)=  0.00181851 RMS(Int)=  0.05206872
 Iteration 10 RMS(Cart)=  0.00223529 RMS(Int)=  0.03166001
 Iteration 11 RMS(Cart)=  0.00242009 RMS(Int)=  0.01674683
 Iteration 12 RMS(Cart)=  0.00076245 RMS(Int)=  0.01332253
 Iteration 13 RMS(Cart)=  0.00036530 RMS(Int)=  0.01207089
 Iteration 14 RMS(Cart)=  0.00024494 RMS(Int)=  0.01130623
 Iteration 15 RMS(Cart)=  0.00018723 RMS(Int)=  0.01075294
slurmstepd: error: *** JOB 27446872 ON lewis4-r630-hpc4rc-node384 CANCELLED AT 2023-05-16T08:37:00 DUE TO TIME LIMIT ***
