### Starting Gaussian ###
 Entering Gaussian System, Link 0=g16
 Initial command:
 /cluster/software/gaussian/gaussian-16-A.03/avx2/g16/l1.exe "/local/scratch/yxie/Gau-13730.inp" -scrdir="/local/scratch/yxie/"
 Entering Link 1 = /cluster/software/gaussian/gaussian-16-A.03/avx2/g16/l1.exe PID=     13731.
  
 Copyright (c) 1988,1990,1992,1993,1995,1998,2003,2009,2016,
            Gaussian, Inc.  All Rights Reserved.
  
 This is part of the Gaussian(R) 16 program.  It is based on
 the Gaussian(R) 09 system (copyright 2009, Gaussian, Inc.),
 the Gaussian(R) 03 system (copyright 2003, Gaussian, Inc.),
 the Gaussian(R) 98 system (copyright 1998, Gaussian, Inc.),
 the Gaussian(R) 94 system (copyright 1995, Gaussian, Inc.),
 the Gaussian 92(TM) system (copyright 1992, Gaussian, Inc.),
 the Gaussian 90(TM) system (copyright 1990, Gaussian, Inc.),
 the Gaussian 88(TM) system (copyright 1988, Gaussian, Inc.),
 the Gaussian 86(TM) system (copyright 1986, Carnegie Mellon
 University), and the Gaussian 82(TM) system (copyright 1983,
 Carnegie Mellon University). Gaussian is a federally registered
 trademark of Gaussian, Inc.
  
 This software contains proprietary and confidential information,
 including trade secrets, belonging to Gaussian, Inc.
  
 This software is provided under written license and may be
 used, copied, transmitted, or stored only in accord with that
 written license.
  
 The following legend is applicable only to US Government
 contracts under FAR:
  
                    RESTRICTED RIGHTS LEGEND
  
 Use, reproduction and disclosure by the US Government is
 subject to restrictions as set forth in subparagraphs (a)
 and (c) of the Commercial Computer Software - Restricted
 Rights clause in FAR 52.227-19.
  
 Gaussian, Inc.
 340 Quinnipiac St., Bldg. 40, Wallingford CT 06492
  
  
 ---------------------------------------------------------------
 Warning -- This program may not be used in any manner that
 competes with the business of Gaussian, Inc. or will provide
 assistance to any competitor of Gaussian, Inc.  The licensee
 of this program is prohibited from giving any competitor of
 Gaussian, Inc. access to this program.  By using this program,
 the user acknowledges that Gaussian, Inc. is engaged in the
 business of creating and licensing software in the field of
 computational chemistry and represents and warrants to the
 licensee that it is not a competitor of Gaussian, Inc. and that
 it will not use this program in any manner prohibited above.
 ---------------------------------------------------------------
  

 Cite this work as:
 Gaussian 16, Revision A.03,
 M. J. Frisch, G. W. Trucks, H. B. Schlegel, G. E. Scuseria, 
 M. A. Robb, J. R. Cheeseman, G. Scalmani, V. Barone, 
 G. A. Petersson, H. Nakatsuji, X. Li, M. Caricato, A. V. Marenich, 
 J. Bloino, B. G. Janesko, R. Gomperts, B. Mennucci, H. P. Hratchian, 
 J. V. Ortiz, A. F. Izmaylov, J. L. Sonnenberg, D. Williams-Young, 
 F. Ding, F. Lipparini, F. Egidi, J. Goings, B. Peng, A. Petrone, 
 T. Henderson, D. Ranasinghe, V. G. Zakrzewski, J. Gao, N. Rega, 
 G. Zheng, W. Liang, M. Hada, M. Ehara, K. Toyota, R. Fukuda, 
 J. Hasegawa, M. Ishida, T. Nakajima, Y. Honda, O. Kitao, H. Nakai, 
 T. Vreven, K. Throssell, J. A. Montgomery, Jr., J. E. Peralta, 
 F. Ogliaro, M. J. Bearpark, J. J. Heyd, E. N. Brothers, K. N. Kudin, 
 V. N. Staroverov, T. A. Keith, R. Kobayashi, J. Normand, 
 K. Raghavachari, A. P. Rendell, J. C. Burant, S. S. Iyengar, 
 J. Tomasi, M. Cossi, J. M. Millam, M. Klene, C. Adamo, R. Cammi, 
 J. W. Ochterski, R. L. Martin, K. Morokuma, O. Farkas, 
 J. B. Foresman, and D. J. Fox, Gaussian, Inc., Wallingford CT, 2016.
 
 ******************************************
 Gaussian 16:  ES64L-G16RevA.03 25-Dec-2016
                16-May-2023 
 ******************************************
 %chk=CNCC1dc2ccccc2dCCdCCdCCdS1N.chk
 %NProcShared=20
 Will use up to   20 processors via shared memory.
 -----------------------------
 # opt freq b3lyp/6-31g(2df,p)
 -----------------------------
 1/18=20,19=15,26=3,38=1/1,3;
 2/9=110,12=2,17=6,18=5,40=1/2;
 3/5=1,6=6,7=104,11=2,25=1,30=1,71=1,74=-5/1,2,3;
 4//1;
 5/5=2,38=5/2;
 6/7=2,8=2,9=2,10=2,28=1/1;
 7//1,2,3,16;
 1/18=20,19=15,26=3/3(2);
 2/9=110/2;
 99//99;
 2/9=110/2;
 3/5=1,6=6,7=104,11=2,25=1,30=1,71=1,74=-5/1,2,3;
 4/5=5,16=3,69=1/1;
 5/5=2,38=5/2;
 7//1,2,3,16;
 1/18=20,19=15,26=3/3(-5);
 2/9=110/2;
 6/7=2,8=2,9=2,10=2,19=2,28=1/1;
 99/9=1/99;
 -------------------
 Title Card Required
 -------------------
 Symbolic Z-matrix:
 Charge =  0 Multiplicity = 1
 C                     1.06227   0.41201  -0.88505 
 N                     2.26168   1.19364  -0.87069 
 C                     3.01572   1.28937   0.39516 
 C                     4.04991   0.39535   0.93714 
 C                     4.83039   1.1487    1.97978 
 C                     6.42812   1.35405   1.92771 
 C                     7.16978   2.06573   2.84272 
 C                     6.6111    3.01706   3.77842 
 C                     5.31665   3.31412   3.64893 
 C                     4.3738    2.48137   2.8135 
 C                     3.12427   2.8825    3.08521 
 C                     1.95985   2.1557    2.86661 
 C                     0.75576   2.58558   2.42762 
 C                     0.26853   1.46528   1.82965 
 C                    -0.74901   0.57789   1.59996 
 C                     0.1549   -0.85692   0.96889 
 S                     2.53403  -1.30941   0.95903 
 N                     3.22632  -1.37764  -0.97498 
 H                     0.82613  -0.58133  -1.34082 
 H                     0.18761   1.01033  -0.76739 
 H                     1.27817   0.08116   0.05512 
 H                     2.7727    0.72373  -1.56078 
 H                     2.54749   0.90219   1.28751 
 H                     3.14162   2.33168   0.56536 
 H                     6.9966    0.93803   1.1036 
 H                     8.2671    2.06302   2.8863 
 H                     7.2558    3.56904   4.48007 
 H                     4.92339   4.1474    4.24493 
 H                     2.8736    3.67083   3.77559 
 H                     1.8796    1.57665   3.77193 
 H                     0.08791   2.94785   3.18199 
 H                     1.02306   0.99809   1.36604 
 H                    -1.71911   1.0035    1.88753 
 H                    -0.65611  -1.13938   0.11892 
 H                     4.22739  -1.70548  -1.08169 
 H                     3.53745  -0.50469  -1.46811 
 
 Add virtual bond connecting atoms H36        and H22        Dist= 2.74D+00.
 Add virtual bond connecting atoms N18        and S17        Dist= 3.88D+00.
 Add virtual bond connecting atoms H21        and S17        Dist= 3.93D+00.

 GradGradGradGradGradGradGradGradGradGradGradGradGradGradGradGradGradGrad
 Berny optimization.
 Initialization pass.
                           ----------------------------
                           !    Initial Parameters    !
                           ! (Angstroms and Degrees)  !
 --------------------------                            --------------------------
 ! Name  Definition              Value          Derivative Info.                !
 --------------------------------------------------------------------------------
 ! R1    R(1,2)                  1.4317         estimate D2E/DX2                !
 ! R2    R(1,19)                 1.1181         estimate D2E/DX2                !
 ! R3    R(1,20)                 1.0662         estimate D2E/DX2                !
 ! R4    R(1,21)                 1.0198         estimate D2E/DX2                !
 ! R5    R(2,3)                  1.4765         estimate D2E/DX2                !
 ! R6    R(2,22)                 0.9789         estimate D2E/DX2                !
 ! R7    R(3,4)                  1.4706         estimate D2E/DX2                !
 ! R8    R(3,23)                 1.0796         estimate D2E/DX2                !
 ! R9    R(3,24)                 1.0636         estimate D2E/DX2                !
 ! R10   R(4,5)                  1.5046         estimate D2E/DX2                !
 ! R11   R(5,6)                  1.6117         estimate D2E/DX2                !
 ! R12   R(5,10)                 1.6369         estimate D2E/DX2                !
 ! R13   R(6,7)                  1.3762         estimate D2E/DX2                !
 ! R14   R(6,25)                 1.0842         estimate D2E/DX2                !
 ! R15   R(7,8)                  1.4466         estimate D2E/DX2                !
 ! R16   R(7,26)                 1.0982         estimate D2E/DX2                !
 ! R17   R(8,9)                  1.3344         estimate D2E/DX2                !
 ! R18   R(8,27)                 1.1012         estimate D2E/DX2                !
 ! R19   R(9,10)                 1.5101         estimate D2E/DX2                !
 ! R20   R(9,28)                 1.0974         estimate D2E/DX2                !
 ! R21   R(10,11)                1.3402         estimate D2E/DX2                !
 ! R22   R(11,12)                1.3899         estimate D2E/DX2                !
 ! R23   R(11,29)                1.0775         estimate D2E/DX2                !
 ! R24   R(12,13)                1.3518         estimate D2E/DX2                !
 ! R25   R(12,30)                1.0777         estimate D2E/DX2                !
 ! R26   R(13,14)                1.3602         estimate D2E/DX2                !
 ! R27   R(13,31)                1.0707         estimate D2E/DX2                !
 ! R28   R(14,15)                1.3695         estimate D2E/DX2                !
 ! R29   R(14,32)                1.0013         estimate D2E/DX2                !
 ! R30   R(15,16)                1.8094         estimate D2E/DX2                !
 ! R31   R(15,33)                1.0977         estimate D2E/DX2                !
 ! R32   R(16,34)                1.2083         estimate D2E/DX2                !
 ! R33   R(17,18)                2.0553         estimate D2E/DX2                !
 ! R34   R(17,21)                2.0804         estimate D2E/DX2                !
 ! R35   R(18,35)                1.0588         estimate D2E/DX2                !
 ! R36   R(18,36)                1.0498         estimate D2E/DX2                !
 ! R37   R(22,36)                1.45           estimate D2E/DX2                !
 ! A1    A(2,1,19)             131.7618         estimate D2E/DX2                !
 ! A2    A(2,1,20)             112.3192         estimate D2E/DX2                !
 ! A3    A(2,1,21)              89.4564         estimate D2E/DX2                !
 ! A4    A(19,1,20)            111.7316         estimate D2E/DX2                !
 ! A5    A(19,1,21)             97.6015         estimate D2E/DX2                !
 ! A6    A(20,1,21)            104.7136         estimate D2E/DX2                !
 ! A7    A(1,2,3)              118.153          estimate D2E/DX2                !
 ! A8    A(1,2,22)              99.683          estimate D2E/DX2                !
 ! A9    A(3,2,22)             111.649          estimate D2E/DX2                !
 ! A10   A(2,3,4)              129.4716         estimate D2E/DX2                !
 ! A11   A(2,3,23)             117.6392         estimate D2E/DX2                !
 ! A12   A(2,3,24)             105.1401         estimate D2E/DX2                !
 ! A13   A(4,3,23)              77.4285         estimate D2E/DX2                !
 ! A14   A(4,3,24)             116.972          estimate D2E/DX2                !
 ! A15   A(23,3,24)            105.6963         estimate D2E/DX2                !
 ! A16   A(3,4,5)              108.4093         estimate D2E/DX2                !
 ! A17   A(4,5,6)              123.7548         estimate D2E/DX2                !
 ! A18   A(4,5,10)             128.0163         estimate D2E/DX2                !
 ! A19   A(6,5,10)             100.9082         estimate D2E/DX2                !
 ! A20   A(5,6,7)              125.3572         estimate D2E/DX2                !
 ! A21   A(5,6,25)             119.7007         estimate D2E/DX2                !
 ! A22   A(7,6,25)             114.9149         estimate D2E/DX2                !
 ! A23   A(6,7,8)              124.1964         estimate D2E/DX2                !
 ! A24   A(6,7,26)             124.3066         estimate D2E/DX2                !
 ! A25   A(8,7,26)             111.2137         estimate D2E/DX2                !
 ! A26   A(7,8,9)              117.2755         estimate D2E/DX2                !
 ! A27   A(7,8,27)             121.0424         estimate D2E/DX2                !
 ! A28   A(9,8,27)             121.2097         estimate D2E/DX2                !
 ! A29   A(8,9,10)             122.4522         estimate D2E/DX2                !
 ! A30   A(8,9,28)             117.644          estimate D2E/DX2                !
 ! A31   A(10,9,28)            119.7001         estimate D2E/DX2                !
 ! A32   A(5,10,9)             123.8188         estimate D2E/DX2                !
 ! A33   A(5,10,11)            127.373          estimate D2E/DX2                !
 ! A34   A(9,10,11)            107.7531         estimate D2E/DX2                !
 ! A35   A(10,11,12)           126.3486         estimate D2E/DX2                !
 ! A36   A(10,11,29)           124.4588         estimate D2E/DX2                !
 ! A37   A(12,11,29)           106.7656         estimate D2E/DX2                !
 ! A38   A(11,12,13)           129.1244         estimate D2E/DX2                !
 ! A39   A(11,12,30)           102.1945         estimate D2E/DX2                !
 ! A40   A(13,12,30)           112.17           estimate D2E/DX2                !
 ! A41   A(12,13,14)           101.5321         estimate D2E/DX2                !
 ! A42   A(12,13,31)           115.7474         estimate D2E/DX2                !
 ! A43   A(14,13,31)           111.4077         estimate D2E/DX2                !
 ! A44   A(13,14,15)           150.8763         estimate D2E/DX2                !
 ! A45   A(13,14,32)           108.5382         estimate D2E/DX2                !
 ! A46   A(15,14,32)           100.3644         estimate D2E/DX2                !
 ! A47   A(14,15,16)           101.6034         estimate D2E/DX2                !
 ! A48   A(14,15,33)           111.1895         estimate D2E/DX2                !
 ! A49   A(16,15,33)           147.1738         estimate D2E/DX2                !
 ! A50   A(15,16,34)            95.4747         estimate D2E/DX2                !
 ! A51   A(18,17,21)            79.4364         estimate D2E/DX2                !
 ! A52   A(17,18,35)           115.0613         estimate D2E/DX2                !
 ! A53   A(17,18,36)           120.9473         estimate D2E/DX2                !
 ! A54   A(35,18,36)            85.9812         estimate D2E/DX2                !
 ! A55   A(1,21,17)            138.1784         estimate D2E/DX2                !
 ! A56   A(2,22,36)            129.5674         estimate D2E/DX2                !
 ! A57   A(18,36,22)           125.3242         estimate D2E/DX2                !
 ! D1    D(19,1,2,3)          -107.7643         estimate D2E/DX2                !
 ! D2    D(19,1,2,22)           13.2852         estimate D2E/DX2                !
 ! D3    D(20,1,2,3)            97.6626         estimate D2E/DX2                !
 ! D4    D(20,1,2,22)         -141.2879         estimate D2E/DX2                !
 ! D5    D(21,1,2,3)            -8.0418         estimate D2E/DX2                !
 ! D6    D(21,1,2,22)          113.0078         estimate D2E/DX2                !
 ! D7    D(2,1,21,17)          -78.0473         estimate D2E/DX2                !
 ! D8    D(19,1,21,17)          54.0741         estimate D2E/DX2                !
 ! D9    D(20,1,21,17)         168.9877         estimate D2E/DX2                !
 ! D10   D(1,2,3,4)             86.7162         estimate D2E/DX2                !
 ! D11   D(1,2,3,23)            -9.7693         estimate D2E/DX2                !
 ! D12   D(1,2,3,24)          -127.031          estimate D2E/DX2                !
 ! D13   D(22,2,3,4)           -27.9701         estimate D2E/DX2                !
 ! D14   D(22,2,3,23)         -124.4556         estimate D2E/DX2                !
 ! D15   D(22,2,3,24)          118.2827         estimate D2E/DX2                !
 ! D16   D(1,2,22,36)          -80.3658         estimate D2E/DX2                !
 ! D17   D(3,2,22,36)           45.2747         estimate D2E/DX2                !
 ! D18   D(2,3,4,5)            160.5691         estimate D2E/DX2                !
 ! D19   D(23,3,4,5)           -83.8317         estimate D2E/DX2                !
 ! D20   D(24,3,4,5)            17.5605         estimate D2E/DX2                !
 ! D21   D(3,4,5,6)           -123.2314         estimate D2E/DX2                !
 ! D22   D(3,4,5,10)            20.9955         estimate D2E/DX2                !
 ! D23   D(4,5,6,7)            178.1794         estimate D2E/DX2                !
 ! D24   D(4,5,6,25)             0.1783         estimate D2E/DX2                !
 ! D25   D(10,5,6,7)            26.1504         estimate D2E/DX2                !
 ! D26   D(10,5,6,25)         -151.8507         estimate D2E/DX2                !
 ! D27   D(4,5,10,9)          -168.1501         estimate D2E/DX2                !
 ! D28   D(4,5,10,11)           25.0653         estimate D2E/DX2                !
 ! D29   D(6,5,10,9)           -17.8182         estimate D2E/DX2                !
 ! D30   D(6,5,10,11)          175.3972         estimate D2E/DX2                !
 ! D31   D(5,6,7,8)            -16.9711         estimate D2E/DX2                !
 ! D32   D(5,6,7,26)           169.6847         estimate D2E/DX2                !
 ! D33   D(25,6,7,8)           161.1145         estimate D2E/DX2                !
 ! D34   D(25,6,7,26)          -12.2297         estimate D2E/DX2                !
 ! D35   D(6,7,8,9)             -6.9429         estimate D2E/DX2                !
 ! D36   D(6,7,8,27)          -179.1491         estimate D2E/DX2                !
 ! D37   D(26,7,8,9)           167.1625         estimate D2E/DX2                !
 ! D38   D(26,7,8,27)           -5.0437         estimate D2E/DX2                !
 ! D39   D(7,8,9,10)            14.7589         estimate D2E/DX2                !
 ! D40   D(7,8,9,28)          -170.4477         estimate D2E/DX2                !
 ! D41   D(27,8,9,10)         -173.0488         estimate D2E/DX2                !
 ! D42   D(27,8,9,28)            1.7447         estimate D2E/DX2                !
 ! D43   D(8,9,10,5)            -0.4038         estimate D2E/DX2                !
 ! D44   D(8,9,10,11)          168.5989         estimate D2E/DX2                !
 ! D45   D(28,9,10,5)         -175.0937         estimate D2E/DX2                !
 ! D46   D(28,9,10,11)          -6.0911         estimate D2E/DX2                !
 ! D47   D(5,10,11,12)           9.1627         estimate D2E/DX2                !
 ! D48   D(5,10,11,29)         169.103          estimate D2E/DX2                !
 ! D49   D(9,10,11,12)        -159.3338         estimate D2E/DX2                !
 ! D50   D(9,10,11,29)           0.6065         estimate D2E/DX2                !
 ! D51   D(10,11,12,13)       -141.0372         estimate D2E/DX2                !
 ! D52   D(10,11,12,30)         86.6304         estimate D2E/DX2                !
 ! D53   D(29,11,12,13)         56.1424         estimate D2E/DX2                !
 ! D54   D(29,11,12,30)        -76.1899         estimate D2E/DX2                !
 ! D55   D(11,12,13,14)        152.4269         estimate D2E/DX2                !
 ! D56   D(11,12,13,31)        -86.7769         estimate D2E/DX2                !
 ! D57   D(30,12,13,14)        -78.8571         estimate D2E/DX2                !
 ! D58   D(30,12,13,31)         41.9391         estimate D2E/DX2                !
 ! D59   D(12,13,14,15)        134.7245         estimate D2E/DX2                !
 ! D60   D(12,13,14,32)        -37.9218         estimate D2E/DX2                !
 ! D61   D(31,13,14,15)         10.931          estimate D2E/DX2                !
 ! D62   D(31,13,14,32)       -161.7152         estimate D2E/DX2                !
 ! D63   D(13,14,15,16)       -161.384          estimate D2E/DX2                !
 ! D64   D(13,14,15,33)         17.11           estimate D2E/DX2                !
 ! D65   D(32,14,15,16)         11.5295         estimate D2E/DX2                !
 ! D66   D(32,14,15,33)       -169.9764         estimate D2E/DX2                !
 ! D67   D(14,15,16,34)       -140.1821         estimate D2E/DX2                !
 ! D68   D(33,15,16,34)         42.4087         estimate D2E/DX2                !
 ! D69   D(21,17,18,35)        155.7            estimate D2E/DX2                !
 ! D70   D(21,17,18,36)         54.7371         estimate D2E/DX2                !
 ! D71   D(18,17,21,1)           8.2035         estimate D2E/DX2                !
 ! D72   D(17,18,36,22)        -50.7241         estimate D2E/DX2                !
 ! D73   D(35,18,36,22)       -167.6598         estimate D2E/DX2                !
 ! D74   D(2,22,36,18)          43.6613         estimate D2E/DX2                !
 --------------------------------------------------------------------------------
 Trust Radius=3.00D-01 FncErr=1.00D-07 GrdErr=1.00D-06 EigMax=2.50D+02 EigMin=1.00D-04
 Number of steps in this run=    178 maximum allowed number of steps=    216.
 GradGradGradGradGradGradGradGradGradGradGradGradGradGradGradGradGradGrad

                          Input orientation:                          
 ---------------------------------------------------------------------
 Center     Atomic      Atomic             Coordinates (Angstroms)
 Number     Number       Type             X           Y           Z
 ---------------------------------------------------------------------
      1          6           0        1.062270    0.412010   -0.885050
      2          7           0        2.261680    1.193640   -0.870690
      3          6           0        3.015720    1.289370    0.395160
      4          6           0        4.049910    0.395350    0.937140
      5          6           0        4.830390    1.148700    1.979780
      6          6           0        6.428120    1.354050    1.927710
      7          6           0        7.169780    2.065730    2.842720
      8          6           0        6.611100    3.017060    3.778420
      9          6           0        5.316650    3.314120    3.648930
     10          6           0        4.373800    2.481370    2.813500
     11          6           0        3.124270    2.882500    3.085210
     12          6           0        1.959850    2.155700    2.866610
     13          6           0        0.755760    2.585580    2.427620
     14          6           0        0.268530    1.465280    1.829650
     15          6           0       -0.749010    0.577890    1.599960
     16          6           0        0.154900   -0.856920    0.968890
     17         16           0        2.534030   -1.309410    0.959030
     18          7           0        3.226320   -1.377640   -0.974980
     19          1           0        0.826130   -0.581330   -1.340820
     20          1           0        0.187610    1.010330   -0.767390
     21          1           0        1.278170    0.081160    0.055120
     22          1           0        2.772700    0.723730   -1.560780
     23          1           0        2.547490    0.902190    1.287510
     24          1           0        3.141620    2.331680    0.565360
     25          1           0        6.996600    0.938030    1.103600
     26          1           0        8.267100    2.063020    2.886300
     27          1           0        7.255800    3.569040    4.480070
     28          1           0        4.923390    4.147400    4.244930
     29          1           0        2.873600    3.670830    3.775590
     30          1           0        1.879600    1.576650    3.771930
     31          1           0        0.087910    2.947850    3.181990
     32          1           0        1.023060    0.998090    1.366040
     33          1           0       -1.719110    1.003500    1.887530
     34          1           0       -0.656110   -1.139380    0.118920
     35          1           0        4.227390   -1.705480   -1.081690
     36          1           0        3.537450   -0.504690   -1.468110
 ---------------------------------------------------------------------
                    Distance matrix (angstroms):
                    1          2          3          4          5
     1  C    0.000000
     2  N    1.431690   0.000000
     3  C    2.494928   1.476522   0.000000
     4  C    3.499521   2.665198   1.470566   0.000000
     5  C    4.790479   3.837378   2.413262   1.504587   0.000000
     6  C    6.131183   5.021553   3.741305   2.748857   1.611714
     7  C    7.343891   6.216060   4.883595   4.019327   2.656756
     8  C    7.702191   6.622427   5.230499   4.637449   3.145918
     9  C    6.861411   5.852883   4.470001   4.180628   2.776969
    10  C    5.378453   4.437629   3.018876   2.824378   1.636940
    11  C    5.110590   4.386964   3.128293   3.414225   2.671869
    12  C    4.233327   3.870927   2.823731   3.345151   3.168677
    13  C    3.973932   3.883831   3.304311   4.227300   4.343707
    14  C    3.018111   3.367235   3.104152   4.029908   4.575295
    15  C    3.079533   3.943034   4.016334   4.847915   5.621369
    16  C    2.422932   3.468050   3.622157   4.091490   5.186966
    17  S    2.920616   3.112444   2.702523   2.281354   3.515324
    18  N    2.809635   2.748252   3.005758   2.734593   4.205478
    19  H    1.118129   2.330739   3.362655   4.066419   5.482106
    20  H    1.066237   2.084716   3.070438   4.266261   5.396434
    21  H    1.019801   1.749865   2.143473   2.925614   4.178783
    22  H    1.865302   0.978867   2.050539   2.824660   4.117068
    23  H    2.676971   2.196465   1.079554   1.623857   2.398257
    24  H    3.180019   2.032651   1.063592   2.170849   2.500394
    25  H    6.280740   5.136402   4.058661   3.000865   2.346175
    26  H    8.298102   7.136937   5.863557   4.936096   3.669978
    27  H    8.781296   7.695089   6.313609   5.736061   4.241711
    28  H    7.428195   6.479118   5.160259   5.077629   3.759223
    29  H    5.968449   5.300833   4.137494   4.491021   3.662663
    30  H    4.869484   4.674035   3.574335   3.760552   3.478808
    31  H    4.890877   4.922067   4.369102   5.220350   5.212808
    32  H    2.326464   2.564250   2.235653   3.115938   3.859420
    33  H    3.971541   4.846712   4.972676   5.878323   6.551759
    34  H    2.523410   3.864687   4.411062   5.017121   6.228948
    35  H    3.813190   3.509050   3.552233   2.919017   4.228777
    36  H    2.703112   2.206541   2.638679   2.618762   4.036501
                    6          7          8          9         10
     6  C    0.000000
     7  C    1.376151   0.000000
     8  C    2.494837   1.446612   0.000000
     9  C    2.835461   2.375404   1.334396   0.000000
    10  C    2.505136   2.826856   2.494704   1.510093   0.000000
    11  C    3.819868   4.134255   3.557616   2.304475   1.340170
    12  C    4.635689   5.210762   4.817413   3.636216   2.436398
    13  C    5.825997   6.448427   6.024603   4.777456   3.640052
    14  C    6.161375   7.001007   6.814244   5.675518   4.342078
    15  C    7.226413   8.152629   8.053972   6.962576   5.598133
    16  C    6.720194   7.826983   8.036398   7.157084   5.687344
    17  S    4.816253   6.035730   6.579499   6.029558   4.603675
    18  N    5.112657   6.479391   7.305131   6.911052   5.528223
    19  H    6.768403   8.046790   8.521790   7.761244   6.262944
    20  H    6.806297   7.930792   8.121119   7.149712   5.701835
    21  H    5.625729   6.813244   7.136008   6.298954   4.790886
    22  H    5.092049   6.366010   6.964175   6.350030   4.978669
    23  H    3.958955   5.013788   5.214426   4.366000   2.856197
    24  H    3.689558   4.634994   4.778158   3.899275   2.568036
    25  H    1.084158   2.079961   3.409639   3.866101   3.490664
    26  H    2.191662   1.098188   2.109125   3.294239   3.916389
    27  H    3.479336   2.224467   1.101196   2.125107   3.502343
    28  H    3.928934   3.368354   2.084146   1.097372   2.264221
    29  H    4.627823   4.680145   3.794250   2.472201   2.142669
    30  H    4.913220   5.393388   4.945899   3.853212   2.821018
    31  H    6.656702   7.144657   6.550765   5.262310   4.326921
    32  H    5.445811   6.411131   6.412644   5.386139   3.939888
    33  H    8.154867   9.002949   8.776234   7.612057   6.337592
    34  H    7.724974   8.884614   9.136754   8.244301   6.758002
    35  H    4.822906   6.187138   7.183671   6.982953   5.720459
    36  H    4.831406   6.195493   7.026815   6.628194   5.286608
                   11         12         13         14         15
    11  C    0.000000
    12  C    1.389927   0.000000
    13  C    2.475970   1.351792   0.000000
    14  C    3.426397   2.100602   1.360159   0.000000
    15  C    4.745471   3.381096   2.642002   1.369528   0.000000
    16  C    5.222952   3.991875   3.786784   2.479200   1.809415
    17  S    4.737207   3.996940   4.526582   3.686377   3.840709
    18  N    5.885945   5.370871   5.778275   4.969574   5.124223
    19  H    6.072010   5.145787   4.922947   3.814631   3.531720
    20  H    5.193411   4.202221   3.607256   2.637829   2.582365
    21  H    4.520734   3.559899   3.489096   2.466600   2.596677
    22  H    5.135086   4.723669   4.841680   4.279694   4.734341
    23  H    2.736061   2.100039   2.709972   2.409283   3.327117
    24  H    2.579408   2.592933   3.037236   3.256336   4.391262
    25  H    4.764733   5.473552   6.589047   6.787641   7.769849
    26  H    5.211508   6.307962   7.543453   8.090175   9.227704
    27  H    4.414353   5.713831   6.886963   7.763535   9.017705
    28  H    2.486314   3.827428   4.807394   5.890252   7.205095
    29  H    1.077462   1.989171   2.734966   3.929061   5.236692
    30  H    1.930293   1.077656   2.021911   2.525946   3.553106
    31  H    3.038605   2.056970   1.070671   2.014810   2.969842
    32  H    3.304789   2.114083   1.928348   1.001257   1.836170
    33  H    5.331361   3.977551   2.986579   2.041397   1.097695
    34  H    6.266232   5.024997   4.604215   3.250509   2.269609
    35  H    6.295196   5.969885   6.540693   5.848264   6.096686
    36  H    5.690035   5.325063   5.697743   5.043991   5.381336
                   16         17         18         19         20
    16  C    0.000000
    17  S    2.421798   0.000000
    18  N    3.671975   2.055314   0.000000
    19  H    2.421004   2.955729   2.555164   0.000000
    20  H    2.549973   3.723897   3.870304   1.808290   0.000000
    21  H    1.725313   2.080366   2.642819   1.609932   1.652029
    22  H    3.968698   3.246546   2.228158   2.353869   2.719246
    23  H    2.986716   2.235901   3.282879   3.474483   3.131029
    24  H    4.387539   3.712368   4.017322   4.180986   3.499766
    25  H    7.074521   4.998642   4.888541   6.808696   7.061740
    26  H    8.832344   6.925009   7.221986   8.957073   8.929489
    27  H    9.074155   7.648013   8.394279   9.615040   9.167450
    28  H    7.649454   6.803158   7.788040   8.387433   7.575762
    29  H    5.980754   5.731589   6.941137   6.960650   5.910285
    30  H    4.093151   4.082894   5.751055   5.648618   4.877394
    31  H    4.402110   5.389742   6.770516   5.784107   4.400173
    32  H    2.086263   2.788054   3.997352   3.140134   2.291211
    33  H    2.795885   4.929591   6.190401   4.405925   3.268674
    34  H    1.208292   3.303284   4.040625   2.153903   2.473593
    35  H    4.637899   2.681208   1.058776   3.591578   4.877933
    36  H    4.183859   2.746895   1.049772   2.715388   3.742689
                   21         22         23         24         25
    21  H    0.000000
    22  H    2.292956   0.000000
    23  H    1.950397   2.862748   0.000000
    24  H    2.966080   2.691111   1.708196   0.000000
    25  H    5.876562   4.998617   4.453054   4.134348   0.000000
    26  H    7.796697   7.194348   6.051247   5.632893   2.461258
    27  H    8.214472   8.042751   6.282731   5.812271   4.288350
    28  H    6.883055   7.074832   4.992256   4.473341   4.946333
    29  H    5.410455   6.096919   3.736610   3.488658   5.621997
    30  H    4.051282   5.473837   2.659571   3.527727   5.806161
    31  H    4.405899   5.886312   3.717972   4.068361   7.489264
    32  H    1.619985   3.420934   1.529461   2.628278   5.979604
    33  H    3.632096   5.669698   4.309775   5.209500   8.751139
    34  H    2.288062   4.248448   3.974502   5.164331   7.990569
    35  H    3.630746   2.871709   3.903219   4.493365   4.408193
    36  H    2.787077   1.449981   3.248503   3.512361   4.545421
                   26         27         28         29         30
    26  H    0.000000
    27  H    2.414731   0.000000
    28  H    4.167843   2.414524   0.000000
    29  H    5.697871   4.439632   2.156163   0.000000
    30  H    6.466920   5.777076   4.012124   2.318111   0.000000
    31  H    8.232224   7.310919   5.094176   2.938559   2.332032
    32  H    7.478060   7.426575   5.780894   4.046476   2.618530
    33  H   10.091804   9.687738   7.717788   5.636702   4.102460
    34  H    9.876104  10.187599   8.723808   6.997729   5.210674
    35  H    6.801896   8.241663   7.944401   7.370931   6.312062
    36  H    6.922688   8.111858   7.496772   6.735878   5.876943
                   31         32         33         34         35
    31  H    0.000000
    32  H    2.823782   0.000000
    33  H    2.953209   2.791322   0.000000
    34  H    5.161532   2.990602   2.974876   0.000000
    35  H    7.547698   4.854730   7.177444   5.060682   0.000000
    36  H    6.741127   4.075894   6.416103   4.528514   1.437788
                   36
    36  H    0.000000
 Stoichiometry    C15H18N2S
 Framework group  C1[X(C15H18N2S)]
 Deg. of freedom   102
 Full point group                 C1      NOp   1
 Largest Abelian subgroup         C1      NOp   1
 Largest concise Abelian subgroup C1      NOp   1
                         Standard orientation:                         
 ---------------------------------------------------------------------
 Center     Atomic      Atomic             Coordinates (Angstroms)
 Number     Number       Type             X           Y           Z
 ---------------------------------------------------------------------
      1          6           0        2.874788   -0.481922    1.210076
      2          7           0        1.584783   -0.742681    1.773661
      3          6           0        0.393503   -0.451746    0.951270
      4          6           0       -0.291663   -1.300589   -0.034923
      5          6           0       -1.682689   -0.764489   -0.238458
      6          6           0       -3.019784   -1.637216   -0.019037
      7          6           0       -4.306937   -1.171534   -0.161055
      8          6           0       -4.666962    0.229395   -0.182686
      9          6           0       -3.703336    1.112632    0.085509
     10          6           0       -2.239633    0.741233    0.081207
     11          6           0       -1.529777    1.876674    0.135383
     12          6           0       -0.201898    2.036895   -0.242723
     13          6           0        0.768512    2.774205    0.342103
     14          6           0        1.886364    2.090013   -0.021656
     15          6           0        3.169293    2.062099   -0.500114
     16          6           0        3.324408    0.337541   -1.025303
     17         16           0        1.621828   -1.366505   -1.275402
     18          7           0        1.938969   -2.878233    0.080480
     19          1           0        3.677471   -1.166164    0.838961
     20          1           0        3.270096    0.458169    1.521236
     21          1           0        2.432827   -0.292204    0.310814
     22          1           0        1.674269   -1.700722    1.953470
     23          1           0        0.541294    0.091832    0.030337
     24          1           0       -0.217737    0.171822    1.558541
     25          1           0       -2.940455   -2.671615    0.295803
     26          1           0       -5.199475   -1.811341   -0.167389
     27          1           0       -5.717166    0.544291   -0.285379
     28          1           0       -3.998129    2.159855    0.229202
     29          1           0       -1.960406    2.863163    0.183578
     30          1           0       -0.288595    2.241796   -1.297162
     31          1           0        0.821232    3.799243    0.037384
     32          1           0        1.682180    1.110122    0.003629
     33          1           0        3.639246    3.051862   -0.433428
     34          1           0        4.458659    0.199005   -0.632554
     35          1           0        1.324753   -3.731168   -0.046990
     36          1           0        1.539308   -2.826624    1.049825
 ---------------------------------------------------------------------
 Rotational constants (GHZ):           0.6210822           0.2842323           0.2218520
 Standard basis: 6-31G(2df,p) (6D, 7F)
 There are   652 symmetry adapted cartesian basis functions of A   symmetry.
 There are   598 symmetry adapted basis functions of A   symmetry.
   598 basis functions,   942 primitive gaussians,   652 cartesian basis functions
    69 alpha electrons       69 beta electrons
       nuclear repulsion energy      1423.7861518914 Hartrees.
 NAtoms=   36 NActive=   36 NUniq=   36 SFac= 1.00D+00 NAtFMM=   60 NAOKFM=F Big=F
 Integral buffers will be    131072 words long.
 Raffenetti 2 integral format.
 Two-electron integral symmetry is turned on.
 One-electron integrals computed using PRISM.
 PrsmSu:  requested number of processors reduced to:  12 ShMem   1 Linda.
 NBasis=   598 RedAO= T EigKep=  2.49D-04  NBF=   598
 NBsUse=   598 1.00D-06 EigRej= -1.00D+00 NBFU=   598
 ExpMin= 1.17D-01 ExpMax= 2.19D+04 ExpMxC= 3.30D+03 IAcc=3 IRadAn=         5 AccDes= 0.00D+00
 Harris functional with IExCor=  402 and IRadAn=       5 diagonalized for initial guess.
 HarFok:  IExCor=  402 AccDes= 0.00D+00 IRadAn=         5 IDoV= 1 UseB2=F ITyADJ=14
 ICtDFT=  3500011 ScaDFX=  1.000000  1.000000  1.000000  1.000000
 FoFCou: FMM=F IPFlag=           0 FMFlag=      100000 FMFlg1=           0
         NFxFlg=           0 DoJE=T BraDBF=F KetDBF=T FulRan=T
         wScrn=  0.000000 ICntrl=       500 IOpCl=  0 I1Cent=   200000004 NGrid=           0
         NMat0=    1 NMatS0=      1 NMatT0=    0 NMatD0=    1 NMtDS0=    0 NMtDT0=    0
 Petite list used in FoFCou.
 Requested convergence on RMS density matrix=1.00D-08 within 128 cycles.
 Requested convergence on MAX density matrix=1.00D-06.
 Requested convergence on             energy=1.00D-06.
 No special actions if energy rises.
 Integral accuracy reduced to 1.0D-05 until final iterations.
 EnCoef did     3 forward-backward iterations
 EnCoef did     2 forward-backward iterations
 EnCoef did     3 forward-backward iterations
 EnCoef did     2 forward-backward iterations
 EnCoef did     2 forward-backward iterations
 EnCoef did    11 forward-backward iterations
 Initial convergence to 1.0D-05 achieved.  Increase integral accuracy.
 SCF Done:  E(RB3LYP) =  -1089.21563033     A.U. after   31 cycles
            NFock= 31  Conv=0.97D-08     -V/T= 2.0056

 **********************************************************************

            Population analysis using the SCF density.

 **********************************************************************

 Orbital symmetries:
       Occupied  (A) (A) (A) (A) (A) (A) (A) (A) (A) (A) (A) (A)
                 (A) (A) (A) (A) (A) (A) (A) (A) (A) (A) (A) (A)
                 (A) (A) (A) (A) (A) (A) (A) (A) (A) (A) (A) (A)
                 (A) (A) (A) (A) (A) (A) (A) (A) (A) (A) (A) (A)
                 (A) (A) (A) (A) (A) (A) (A) (A) (A) (A) (A) (A)
                 (A) (A) (A) (A) (A) (A) (A) (A) (A)
       Virtual   (A) (A) (A) (A) (A) (A) (A) (A) (A) (A) (A) (A)
                 (A) (A) (A) (A) (A) (A) (A) (A) (A) (A) (A) (A)
                 (A) (A) (A) (A) (A) (A) (A) (A) (A) (A) (A) (A)
                 (A) (A) (A) (A) (A) (A) (A) (A) (A) (A) (A) (A)
                 (A) (A) (A) (A) (A) (A) (A) (A) (A) (A) (A) (A)
                 (A) (A) (A) (A) (A) (A) (A) (A) (A) (A) (A) (A)
                 (A) (A) (A) (A) (A) (A) (A) (A) (A) (A) (A) (A)
                 (A) (A) (A) (A) (A) (A) (A) (A) (A) (A) (A) (A)
                 (A) (A) (A) (A) (A) (A) (A) (A) (A) (A) (A) (A)
                 (A) (A) (A) (A) (A) (A) (A) (A) (A) (A) (A) (A)
                 (A) (A) (A) (A) (A) (A) (A) (A) (A) (A) (A) (A)
                 (A) (A) (A) (A) (A) (A) (A) (A) (A) (A) (A) (A)
                 (A) (A) (A) (A) (A) (A) (A) (A) (A) (A) (A) (A)
                 (A) (A) (A) (A) (A) (A) (A) (A) (A) (A) (A) (A)
                 (A) (A) (A) (A) (A) (A) (A) (A) (A) (A) (A) (A)
                 (A) (A) (A) (A) (A) (A) (A) (A) (A) (A) (A) (A)
                 (A) (A) (A) (A) (A) (A) (A) (A) (A) (A) (A) (A)
                 (A) (A) (A) (A) (A) (A) (A) (A) (A) (A) (A) (A)
                 (A) (A) (A) (A) (A) (A) (A) (A) (A) (A) (A) (A)
                 (A) (A) (A) (A) (A) (A) (A) (A) (A) (A) (A) (A)
                 (A) (A) (A) (A) (A) (A) (A) (A) (A) (A) (A) (A)
                 (A) (A) (A) (A) (A) (A) (A) (A) (A) (A) (A) (A)
                 (A) (A) (A) (A) (A) (A) (A) (A) (A) (A) (A) (A)
                 (A) (A) (A) (A) (A) (A) (A) (A) (A) (A) (A) (A)
                 (A) (A) (A) (A) (A) (A) (A) (A) (A) (A) (A) (A)
                 (A) (A) (A) (A) (A) (A) (A) (A) (A) (A) (A) (A)
                 (A) (A) (A) (A) (A) (A) (A) (A) (A) (A) (A) (A)
                 (A) (A) (A) (A) (A) (A) (A) (A) (A) (A) (A) (A)
                 (A) (A) (A) (A) (A) (A) (A) (A) (A) (A) (A) (A)
                 (A) (A) (A) (A) (A) (A) (A) (A) (A) (A) (A) (A)
                 (A) (A) (A) (A) (A) (A) (A) (A) (A) (A) (A) (A)
                 (A) (A) (A) (A) (A) (A) (A) (A) (A) (A) (A) (A)
                 (A) (A) (A) (A) (A) (A) (A) (A) (A) (A) (A) (A)
                 (A) (A) (A) (A) (A) (A) (A) (A) (A) (A) (A) (A)
                 (A) (A) (A) (A) (A) (A) (A) (A) (A) (A) (A) (A)
                 (A) (A) (A) (A) (A) (A) (A) (A) (A) (A) (A) (A)
                 (A) (A) (A) (A) (A) (A) (A) (A) (A) (A) (A) (A)
                 (A) (A) (A) (A) (A) (A) (A) (A) (A) (A) (A) (A)
                 (A) (A) (A) (A) (A) (A) (A) (A) (A) (A) (A) (A)
                 (A) (A) (A) (A) (A) (A) (A) (A) (A) (A) (A) (A)
                 (A) (A) (A) (A) (A) (A) (A) (A) (A) (A) (A) (A)
                 (A) (A) (A) (A) (A) (A) (A) (A) (A) (A) (A) (A)
                 (A) (A) (A) (A) (A) (A) (A) (A) (A) (A) (A) (A)
                 (A) (A) (A) (A) (A) (A) (A) (A) (A) (A) (A) (A)
                 (A)
 The electronic state is 1-A.
 Alpha  occ. eigenvalues --  -88.90584 -14.34705 -14.33490 -10.27069 -10.25448
 Alpha  occ. eigenvalues --  -10.24197 -10.22335 -10.21984 -10.21000 -10.20890
 Alpha  occ. eigenvalues --  -10.20433 -10.20282 -10.19721 -10.19521 -10.19024
 Alpha  occ. eigenvalues --  -10.18709 -10.16900 -10.16419  -7.96420  -5.92972
 Alpha  occ. eigenvalues --   -5.92658  -5.91790  -0.94129  -0.86486  -0.84175
 Alpha  occ. eigenvalues --   -0.83620  -0.80927  -0.79680  -0.75309  -0.73694
 Alpha  occ. eigenvalues --   -0.70965  -0.68487  -0.65591  -0.63313  -0.60645
 Alpha  occ. eigenvalues --   -0.58817  -0.57224  -0.55327  -0.53541  -0.50409
 Alpha  occ. eigenvalues --   -0.49930  -0.48806  -0.47874  -0.46457  -0.45542
 Alpha  occ. eigenvalues --   -0.44897  -0.43978  -0.42952  -0.41755  -0.41364
 Alpha  occ. eigenvalues --   -0.40152  -0.39433  -0.38964  -0.36847  -0.36422
 Alpha  occ. eigenvalues --   -0.35586  -0.34008  -0.33398  -0.33024  -0.31566
 Alpha  occ. eigenvalues --   -0.28885  -0.28107  -0.26939  -0.25252  -0.24916
 Alpha  occ. eigenvalues --   -0.22724  -0.20384  -0.17305  -0.16697
 Alpha virt. eigenvalues --   -0.13021  -0.11406  -0.07787  -0.06636  -0.04540
 Alpha virt. eigenvalues --   -0.00873   0.02386   0.05556   0.06542   0.07483
 Alpha virt. eigenvalues --    0.08074   0.09078   0.10643   0.11395   0.11599
 Alpha virt. eigenvalues --    0.12073   0.13473   0.14040   0.14755   0.15920
 Alpha virt. eigenvalues --    0.16578   0.17334   0.17952   0.18659   0.18978
 Alpha virt. eigenvalues --    0.19740   0.19964   0.21956   0.25519   0.25797
 Alpha virt. eigenvalues --    0.26612   0.28065   0.28164   0.28948   0.29952
 Alpha virt. eigenvalues --    0.30179   0.31893   0.32340   0.34500   0.35112
 Alpha virt. eigenvalues --    0.35584   0.36646   0.37343   0.38309   0.39906
 Alpha virt. eigenvalues --    0.40079   0.41249   0.41367   0.43080   0.43752
 Alpha virt. eigenvalues --    0.45074   0.46120   0.46721   0.47872   0.48678
 Alpha virt. eigenvalues --    0.48914   0.49667   0.50010   0.50662   0.51380
 Alpha virt. eigenvalues --    0.52377   0.53320   0.53882   0.54244   0.54968
 Alpha virt. eigenvalues --    0.55248   0.56400   0.56993   0.57366   0.57682
 Alpha virt. eigenvalues --    0.58743   0.59715   0.60210   0.60946   0.61717
 Alpha virt. eigenvalues --    0.62197   0.62663   0.63473   0.63715   0.64405
 Alpha virt. eigenvalues --    0.64831   0.66558   0.67452   0.68379   0.69160
 Alpha virt. eigenvalues --    0.69382   0.70183   0.70388   0.71459   0.72188
 Alpha virt. eigenvalues --    0.73239   0.73662   0.74231   0.74859   0.75243
 Alpha virt. eigenvalues --    0.75581   0.76138   0.76736   0.76956   0.77679
 Alpha virt. eigenvalues --    0.78884   0.79017   0.79401   0.80231   0.80418
 Alpha virt. eigenvalues --    0.81564   0.82635   0.83370   0.83634   0.83913
 Alpha virt. eigenvalues --    0.85341   0.85861   0.86076   0.86911   0.87750
 Alpha virt. eigenvalues --    0.88195   0.88939   0.89666   0.91257   0.91973
 Alpha virt. eigenvalues --    0.92453   0.94495   0.94947   0.95752   0.96499
 Alpha virt. eigenvalues --    0.97082   0.97947   0.98251   1.00647   1.01141
 Alpha virt. eigenvalues --    1.01771   1.03201   1.03716   1.04955   1.06792
 Alpha virt. eigenvalues --    1.07995   1.08604   1.10480   1.12891   1.13214
 Alpha virt. eigenvalues --    1.13688   1.14024   1.16077   1.17778   1.18104
 Alpha virt. eigenvalues --    1.18269   1.19686   1.21020   1.21988   1.22474
 Alpha virt. eigenvalues --    1.24461   1.25502   1.27464   1.28981   1.29319
 Alpha virt. eigenvalues --    1.29957   1.30954   1.31196   1.32874   1.34446
 Alpha virt. eigenvalues --    1.35264   1.36473   1.37812   1.38963   1.40233
 Alpha virt. eigenvalues --    1.40621   1.40875   1.42466   1.42945   1.43634
 Alpha virt. eigenvalues --    1.45026   1.45830   1.47414   1.48088   1.48740
 Alpha virt. eigenvalues --    1.50349   1.51515   1.52225   1.53200   1.54911
 Alpha virt. eigenvalues --    1.56392   1.57047   1.58719   1.59384   1.60735
 Alpha virt. eigenvalues --    1.62284   1.62843   1.64730   1.65006   1.65148
 Alpha virt. eigenvalues --    1.66224   1.67289   1.67662   1.70173   1.70462
 Alpha virt. eigenvalues --    1.72824   1.73964   1.75102   1.76479   1.76824
 Alpha virt. eigenvalues --    1.77520   1.78811   1.80480   1.81132   1.82525
 Alpha virt. eigenvalues --    1.83625   1.84793   1.85054   1.86320   1.87690
 Alpha virt. eigenvalues --    1.88346   1.90468   1.90687   1.91317   1.92882
 Alpha virt. eigenvalues --    1.94561   1.94777   1.97707   1.99624   2.00718
 Alpha virt. eigenvalues --    2.03208   2.04545   2.05032   2.06108   2.08070
 Alpha virt. eigenvalues --    2.09762   2.11112   2.12664   2.14602   2.15843
 Alpha virt. eigenvalues --    2.16628   2.18345   2.19506   2.20781   2.24515
 Alpha virt. eigenvalues --    2.24657   2.26261   2.27303   2.28679   2.29709
 Alpha virt. eigenvalues --    2.30994   2.33370   2.33523   2.34850   2.35855
 Alpha virt. eigenvalues --    2.37793   2.39861   2.40547   2.41650   2.42273
 Alpha virt. eigenvalues --    2.43554   2.44385   2.45815   2.47460   2.49123
 Alpha virt. eigenvalues --    2.49390   2.51306   2.52526   2.53502   2.54250
 Alpha virt. eigenvalues --    2.56574   2.58713   2.60777   2.62033   2.64153
 Alpha virt. eigenvalues --    2.65507   2.66509   2.67756   2.69240   2.70879
 Alpha virt. eigenvalues --    2.71108   2.71731   2.72754   2.75709   2.76008
 Alpha virt. eigenvalues --    2.77669   2.78136   2.78962   2.80304   2.82897
 Alpha virt. eigenvalues --    2.83369   2.84266   2.84809   2.85310   2.86820
 Alpha virt. eigenvalues --    2.87358   2.87987   2.89321   2.90361   2.91313
 Alpha virt. eigenvalues --    2.93132   2.93815   2.95232   2.95803   2.96828
 Alpha virt. eigenvalues --    2.97288   2.98319   2.99860   3.00814   3.01974
 Alpha virt. eigenvalues --    3.02600   3.04118   3.04828   3.05823   3.07398
 Alpha virt. eigenvalues --    3.08463   3.09451   3.09895   3.10599   3.12558
 Alpha virt. eigenvalues --    3.13219   3.13891   3.15514   3.16367   3.17212
 Alpha virt. eigenvalues --    3.18550   3.19204   3.20971   3.21263   3.21532
 Alpha virt. eigenvalues --    3.22188   3.22485   3.23073   3.24255   3.26152
 Alpha virt. eigenvalues --    3.26895   3.27378   3.28689   3.29461   3.29870
 Alpha virt. eigenvalues --    3.30630   3.33088   3.34204   3.34703   3.35545
 Alpha virt. eigenvalues --    3.36874   3.37410   3.37919   3.39164   3.41140
 Alpha virt. eigenvalues --    3.42035   3.42819   3.45138   3.45683   3.46357
 Alpha virt. eigenvalues --    3.47557   3.48927   3.50272   3.51449   3.52141
 Alpha virt. eigenvalues --    3.53461   3.55037   3.55814   3.57017   3.58287
 Alpha virt. eigenvalues --    3.58689   3.59901   3.60414   3.62711   3.63819
 Alpha virt. eigenvalues --    3.65008   3.65621   3.66868   3.67192   3.69696
 Alpha virt. eigenvalues --    3.71936   3.73258   3.73917   3.75206   3.76550
 Alpha virt. eigenvalues --    3.77591   3.80954   3.82376   3.83245   3.84793
 Alpha virt. eigenvalues --    3.86400   3.87677   3.88507   3.89378   3.91712
 Alpha virt. eigenvalues --    3.92678   3.94294   3.95469   3.97236   3.97679
 Alpha virt. eigenvalues --    3.99862   4.01565   4.02972   4.03490   4.04705
 Alpha virt. eigenvalues --    4.07563   4.08279   4.10383   4.11738   4.12492
 Alpha virt. eigenvalues --    4.14984   4.15996   4.17150   4.19684   4.20732
 Alpha virt. eigenvalues --    4.22819   4.24504   4.25794   4.25920   4.27089
 Alpha virt. eigenvalues --    4.29677   4.30326   4.30684   4.33649   4.34221
 Alpha virt. eigenvalues --    4.35798   4.36233   4.38000   4.38656   4.40549
 Alpha virt. eigenvalues --    4.42192   4.42726   4.43424   4.44787   4.46518
 Alpha virt. eigenvalues --    4.47060   4.47176   4.49083   4.51119   4.51474
 Alpha virt. eigenvalues --    4.52167   4.52903   4.53209   4.53969   4.55190
 Alpha virt. eigenvalues --    4.55661   4.56613   4.57556   4.59164   4.59282
 Alpha virt. eigenvalues --    4.60090   4.61070   4.62126   4.64318   4.64763
 Alpha virt. eigenvalues --    4.65334   4.66153   4.66829   4.67051   4.68646
 Alpha virt. eigenvalues --    4.69575   4.71446   4.71865   4.72343   4.74307
 Alpha virt. eigenvalues --    4.75444   4.76263   4.77071   4.79283   4.80409
 Alpha virt. eigenvalues --    4.81280   4.81616   4.81866   4.83246   4.85103
 Alpha virt. eigenvalues --    4.86630   4.87071   4.87642   4.89261   4.90745
 Alpha virt. eigenvalues --    4.93336   4.94785   4.95127   4.97676   4.98944
 Alpha virt. eigenvalues --    5.00324   5.02197   5.05334   5.08860   5.09831
 Alpha virt. eigenvalues --    5.11670   5.12691   5.13520   5.14942   5.16595
 Alpha virt. eigenvalues --    5.17752   5.18202   5.20295   5.23585   5.24843
 Alpha virt. eigenvalues --    5.26169   5.27480   5.32922   5.34991   5.37736
 Alpha virt. eigenvalues --    5.39749   5.42630   5.44459   5.47769   5.49475
 Alpha virt. eigenvalues --    5.53667   5.54338   5.59640   5.63477   5.67854
 Alpha virt. eigenvalues --    5.72369   5.73725   5.78540   5.82223   5.84520
 Alpha virt. eigenvalues --    5.91746   5.96982   6.05455   6.23768   6.60437
 Alpha virt. eigenvalues --    9.07670   9.72419  10.39043  10.45226  10.54125
 Alpha virt. eigenvalues --   10.95239  11.00086  11.19037  11.31001  11.38663
 Alpha virt. eigenvalues --   11.44953  11.69670  11.78954  11.89677  12.06810
 Alpha virt. eigenvalues --   12.16933  12.25576  12.35333  17.99356
          Condensed to atoms (all electrons):
               1          2          3          4          5          6
     1  C    5.280187   0.354230  -0.082262   0.010008  -0.000226   0.000002
     2  N    0.354230   6.359073   0.404429  -0.030806   0.002206  -0.000050
     3  C   -0.082262   0.404429   5.081588   0.302700  -0.043536  -0.000523
     4  C    0.010008  -0.030806   0.302700   5.491190   0.416949  -0.025010
     5  C   -0.000226   0.002206  -0.043536   0.416949   5.033074   0.415263
     6  C    0.000002  -0.000050  -0.000523  -0.025010   0.415263   4.943746
     7  C   -0.000000  -0.000000   0.000018   0.001594  -0.010108   0.546940
     8  C    0.000000   0.000000   0.000028   0.000037  -0.013867   0.008834
     9  C    0.000000  -0.000002  -0.000675   0.003353  -0.026446  -0.035167
    10  C    0.000002   0.000173  -0.002391  -0.024003   0.400977  -0.017046
    11  C   -0.000043   0.000237  -0.001692  -0.015315  -0.044826   0.001040
    12  C    0.002157   0.000386  -0.042075   0.015947  -0.001475   0.000652
    13  C    0.001172   0.000343   0.000273  -0.000106   0.000109  -0.000011
    14  C   -0.009365  -0.000081  -0.018456   0.002031   0.000310  -0.000001
    15  C   -0.021450   0.000817   0.002886  -0.000013   0.000008   0.000000
    16  C   -0.020171  -0.008576   0.005552   0.001480   0.000051   0.000000
    17  S   -0.088495   0.015146  -0.118832   0.092988  -0.017171   0.000195
    18  N   -0.000321  -0.024903  -0.001948  -0.019876   0.000951  -0.000008
    19  H    0.369805  -0.014796   0.004223   0.000634  -0.000001   0.000000
    20  H    0.359123  -0.019983   0.001607  -0.000343   0.000005  -0.000000
    21  H    0.303048  -0.059023  -0.000363  -0.004141  -0.000102  -0.000002
    22  H   -0.071001   0.366086  -0.059381  -0.007481   0.000025   0.000017
    23  H   -0.020246  -0.012264   0.312153  -0.009615  -0.001996   0.000393
    24  H    0.005499  -0.034477   0.379878  -0.053840  -0.014656   0.000738
    25  H    0.000000  -0.000001   0.000297  -0.000248  -0.043487   0.357629
    26  H    0.000000  -0.000000  -0.000000  -0.000053   0.002961  -0.044351
    27  H    0.000000  -0.000000  -0.000000   0.000002   0.000173   0.005160
    28  H    0.000000  -0.000000  -0.000006  -0.000021   0.002052   0.000672
    29  H    0.000002  -0.000003  -0.000362  -0.000001   0.004057   0.000057
    30  H    0.000145   0.000002  -0.003200   0.001645   0.002318   0.000055
    31  H    0.000005   0.000001  -0.000480  -0.000014   0.000012   0.000000
    32  H   -0.004326  -0.008032   0.006756  -0.008965  -0.000153  -0.000000
    33  H    0.000104  -0.000025  -0.000013  -0.000003   0.000000   0.000000
    34  H   -0.000643   0.000829  -0.000286  -0.000035  -0.000000  -0.000000
    35  H   -0.000205   0.001693   0.001238   0.001871  -0.000087  -0.000000
    36  H   -0.003311  -0.008477   0.001878   0.008990  -0.000013  -0.000003
               7          8          9         10         11         12
     1  C   -0.000000   0.000000   0.000000   0.000002  -0.000043   0.002157
     2  N   -0.000000   0.000000  -0.000002   0.000173   0.000237   0.000386
     3  C    0.000018   0.000028  -0.000675  -0.002391  -0.001692  -0.042075
     4  C    0.001594   0.000037   0.003353  -0.024003  -0.015315   0.015947
     5  C   -0.010108  -0.013867  -0.026446   0.400977  -0.044826  -0.001475
     6  C    0.546940   0.008834  -0.035167  -0.017046   0.001040   0.000652
     7  C    4.789650   0.458121   0.010106  -0.039259   0.002953  -0.000128
     8  C    0.458121   4.829062   0.557347   0.021877  -0.003091  -0.000273
     9  C    0.010106   0.557347   4.873417   0.381705  -0.019431   0.004537
    10  C   -0.039259   0.021877   0.381705   4.688108   0.531790  -0.018858
    11  C    0.002953  -0.003091  -0.019431   0.531790   5.041548   0.372180
    12  C   -0.000128  -0.000273   0.004537  -0.018858   0.372180   5.167451
    13  C    0.000000   0.000005  -0.000181  -0.000209  -0.011907   0.379735
    14  C   -0.000000   0.000000  -0.000003   0.000084  -0.003605  -0.007569
    15  C   -0.000000   0.000000  -0.000000  -0.000010  -0.000228   0.004965
    16  C    0.000000   0.000000  -0.000000  -0.000006   0.000004   0.000389
    17  S   -0.000004  -0.000001   0.000017   0.000366  -0.000446   0.000340
    18  N   -0.000000   0.000000   0.000000  -0.000017  -0.000001   0.000027
    19  H    0.000000  -0.000000  -0.000000   0.000000  -0.000001  -0.000012
    20  H    0.000000  -0.000000  -0.000000  -0.000000   0.000007  -0.000057
    21  H    0.000000  -0.000000  -0.000000   0.000014   0.000043  -0.005087
    22  H    0.000000  -0.000000  -0.000000   0.000014  -0.000011  -0.000161
    23  H    0.000002  -0.000009   0.000206  -0.004065   0.000391   0.012467
    24  H   -0.000011   0.000008  -0.000324   0.002931   0.006611   0.003109
    25  H   -0.038435   0.004248   0.001392   0.001456  -0.000128   0.000007
    26  H    0.369504  -0.047432   0.002682   0.000851  -0.000001  -0.000000
    27  H   -0.045445   0.365124  -0.037708   0.004118  -0.000232   0.000004
    28  H    0.005551  -0.055721   0.378542  -0.054754  -0.004534   0.000544
    29  H   -0.000069   0.001646  -0.011282  -0.032946   0.351512  -0.058704
    30  H   -0.000011   0.000072   0.000267  -0.009044  -0.070727   0.395187
    31  H   -0.000000   0.000000   0.000021  -0.000075   0.002424  -0.051964
    32  H    0.000000  -0.000000  -0.000013   0.000098   0.003351  -0.042546
    33  H    0.000000  -0.000000  -0.000000  -0.000000   0.000010  -0.000074
    34  H   -0.000000   0.000000   0.000000   0.000000   0.000000  -0.000001
    35  H    0.000000  -0.000000   0.000000  -0.000001   0.000000  -0.000001
    36  H    0.000000   0.000000  -0.000000  -0.000002   0.000002   0.000006
              13         14         15         16         17         18
     1  C    0.001172  -0.009365  -0.021450  -0.020171  -0.088495  -0.000321
     2  N    0.000343  -0.000081   0.000817  -0.008576   0.015146  -0.024903
     3  C    0.000273  -0.018456   0.002886   0.005552  -0.118832  -0.001948
     4  C   -0.000106   0.002031  -0.000013   0.001480   0.092988  -0.019876
     5  C    0.000109   0.000310   0.000008   0.000051  -0.017171   0.000951
     6  C   -0.000011  -0.000001   0.000000   0.000000   0.000195  -0.000008
     7  C    0.000000  -0.000000  -0.000000   0.000000  -0.000004  -0.000000
     8  C    0.000005   0.000000   0.000000   0.000000  -0.000001   0.000000
     9  C   -0.000181  -0.000003  -0.000000  -0.000000   0.000017   0.000000
    10  C   -0.000209   0.000084  -0.000010  -0.000006   0.000366  -0.000017
    11  C   -0.011907  -0.003605  -0.000228   0.000004  -0.000446  -0.000001
    12  C    0.379735  -0.007569   0.004965   0.000389   0.000340   0.000027
    13  C    5.339642   0.559954  -0.071531   0.006365  -0.000261  -0.000006
    14  C    0.559954   4.401429   0.561788  -0.018012   0.011401   0.000026
    15  C   -0.071531   0.561788   5.273567   0.340735  -0.007197  -0.000011
    16  C    0.006365  -0.018012   0.340735   5.704957   0.013003   0.000448
    17  S   -0.000261   0.011401  -0.007197   0.013003  15.912620   0.181801
    18  N   -0.000006   0.000026  -0.000011   0.000448   0.181801   6.885631
    19  H   -0.000067   0.000712   0.000647   0.003261  -0.002417   0.008199
    20  H    0.000572   0.000717   0.010392  -0.005655   0.004970   0.000369
    21  H    0.001288  -0.007912  -0.005858   0.058299   0.018447  -0.005880
    22  H    0.000001  -0.000338   0.000009   0.000619  -0.007264  -0.004673
    23  H   -0.008460  -0.013430   0.000420   0.001485  -0.024518   0.000765
    24  H   -0.000582  -0.000708   0.000105   0.000119   0.009003  -0.000010
    25  H   -0.000000  -0.000000   0.000000   0.000000  -0.000077  -0.000005
    26  H   -0.000000  -0.000000   0.000000  -0.000000   0.000000  -0.000000
    27  H   -0.000000   0.000000  -0.000000  -0.000000  -0.000000   0.000000
    28  H   -0.000035  -0.000001  -0.000000   0.000000  -0.000000  -0.000000
    29  H   -0.000768   0.000257  -0.000002   0.000001  -0.000019   0.000000
    30  H   -0.092249  -0.009128   0.002255   0.000513   0.001679   0.000002
    31  H    0.310963  -0.017823  -0.010882  -0.000299  -0.000017   0.000000
    32  H   -0.095455   0.344185  -0.104194  -0.053914  -0.024440  -0.000079
    33  H   -0.009424  -0.042821   0.327942  -0.023374  -0.000123   0.000000
    34  H   -0.000224   0.003015  -0.025062   0.254300  -0.000277  -0.000191
    35  H    0.000000  -0.000000   0.000000   0.000073  -0.016069   0.292721
    36  H   -0.000000  -0.000019   0.000011   0.000294  -0.025534   0.271972
              19         20         21         22         23         24
     1  C    0.369805   0.359123   0.303048  -0.071001  -0.020246   0.005499
     2  N   -0.014796  -0.019983  -0.059023   0.366086  -0.012264  -0.034477
     3  C    0.004223   0.001607  -0.000363  -0.059381   0.312153   0.379878
     4  C    0.000634  -0.000343  -0.004141  -0.007481  -0.009615  -0.053840
     5  C   -0.000001   0.000005  -0.000102   0.000025  -0.001996  -0.014656
     6  C    0.000000  -0.000000  -0.000002   0.000017   0.000393   0.000738
     7  C    0.000000   0.000000   0.000000   0.000000   0.000002  -0.000011
     8  C   -0.000000  -0.000000  -0.000000  -0.000000  -0.000009   0.000008
     9  C   -0.000000  -0.000000  -0.000000  -0.000000   0.000206  -0.000324
    10  C    0.000000  -0.000000   0.000014   0.000014  -0.004065   0.002931
    11  C   -0.000001   0.000007   0.000043  -0.000011   0.000391   0.006611
    12  C   -0.000012  -0.000057  -0.005087  -0.000161   0.012467   0.003109
    13  C   -0.000067   0.000572   0.001288   0.000001  -0.008460  -0.000582
    14  C    0.000712   0.000717  -0.007912  -0.000338  -0.013430  -0.000708
    15  C    0.000647   0.010392  -0.005858   0.000009   0.000420   0.000105
    16  C    0.003261  -0.005655   0.058299   0.000619   0.001485   0.000119
    17  S   -0.002417   0.004970   0.018447  -0.007264  -0.024518   0.009003
    18  N    0.008199   0.000369  -0.005880  -0.004673   0.000765  -0.000010
    19  H    0.561073  -0.041415  -0.037850  -0.008024   0.000642  -0.000195
    20  H   -0.041415   0.592205  -0.033302   0.004013  -0.000131   0.000228
    21  H   -0.037850  -0.033302   0.552676   0.011300   0.010046  -0.001478
    22  H   -0.008024   0.004013   0.011300   0.536516   0.004179   0.002671
    23  H    0.000642  -0.000131   0.010046   0.004179   0.512335  -0.041242
    24  H   -0.000195   0.000228  -0.001478   0.002671  -0.041242   0.614529
    25  H    0.000000   0.000000  -0.000001  -0.000003  -0.000022   0.000056
    26  H    0.000000  -0.000000   0.000000   0.000000   0.000000   0.000000
    27  H   -0.000000   0.000000  -0.000000  -0.000000  -0.000000  -0.000000
    28  H    0.000000  -0.000000  -0.000000  -0.000000  -0.000002   0.000017
    29  H   -0.000000  -0.000000  -0.000006  -0.000000   0.000228   0.000571
    30  H    0.000000  -0.000004  -0.000266  -0.000001  -0.000384   0.000840
    31  H    0.000000  -0.000017  -0.000068  -0.000001   0.000506   0.000088
    32  H   -0.000430   0.002207   0.017239   0.001090   0.021161   0.002576
    33  H    0.000015  -0.000275   0.000269   0.000001   0.000025   0.000002
    34  H    0.000186  -0.000129  -0.010962  -0.000116   0.000052  -0.000002
    35  H   -0.000106  -0.000005   0.000435  -0.001488   0.000115   0.000017
    36  H   -0.002008   0.000044  -0.000213   0.012585   0.000015  -0.000233
              25         26         27         28         29         30
     1  C    0.000000   0.000000   0.000000   0.000000   0.000002   0.000145
     2  N   -0.000001  -0.000000  -0.000000  -0.000000  -0.000003   0.000002
     3  C    0.000297  -0.000000  -0.000000  -0.000006  -0.000362  -0.003200
     4  C   -0.000248  -0.000053   0.000002  -0.000021  -0.000001   0.001645
     5  C   -0.043487   0.002961   0.000173   0.002052   0.004057   0.002318
     6  C    0.357629  -0.044351   0.005160   0.000672   0.000057   0.000055
     7  C   -0.038435   0.369504  -0.045445   0.005551  -0.000069  -0.000011
     8  C    0.004248  -0.047432   0.365124  -0.055721   0.001646   0.000072
     9  C    0.001392   0.002682  -0.037708   0.378542  -0.011282   0.000267
    10  C    0.001456   0.000851   0.004118  -0.054754  -0.032946  -0.009044
    11  C   -0.000128  -0.000001  -0.000232  -0.004534   0.351512  -0.070727
    12  C    0.000007  -0.000000   0.000004   0.000544  -0.058704   0.395187
    13  C   -0.000000  -0.000000  -0.000000  -0.000035  -0.000768  -0.092249
    14  C   -0.000000  -0.000000   0.000000  -0.000001   0.000257  -0.009128
    15  C    0.000000   0.000000  -0.000000  -0.000000  -0.000002   0.002255
    16  C    0.000000  -0.000000  -0.000000   0.000000   0.000001   0.000513
    17  S   -0.000077   0.000000  -0.000000  -0.000000  -0.000019   0.001679
    18  N   -0.000005  -0.000000   0.000000  -0.000000   0.000000   0.000002
    19  H    0.000000   0.000000  -0.000000   0.000000  -0.000000   0.000000
    20  H    0.000000  -0.000000   0.000000  -0.000000  -0.000000  -0.000004
    21  H   -0.000001   0.000000  -0.000000  -0.000000  -0.000006  -0.000266
    22  H   -0.000003   0.000000  -0.000000  -0.000000  -0.000000  -0.000001
    23  H   -0.000022   0.000000  -0.000000  -0.000002   0.000228  -0.000384
    24  H    0.000056   0.000000  -0.000000   0.000017   0.000571   0.000840
    25  H    0.616791  -0.007789  -0.000161   0.000023   0.000003  -0.000000
    26  H   -0.007789   0.622551  -0.005411  -0.000331   0.000000   0.000000
    27  H   -0.000161  -0.005411   0.617573  -0.007278  -0.000039  -0.000000
    28  H    0.000023  -0.000331  -0.007278   0.628406   0.004871  -0.000038
    29  H    0.000003   0.000000  -0.000039   0.004871   0.600194   0.010970
    30  H   -0.000000   0.000000  -0.000000  -0.000038   0.010970   0.639075
    31  H    0.000000   0.000000   0.000000   0.000004   0.001740   0.001987
    32  H    0.000000  -0.000000   0.000000   0.000000   0.000062  -0.001809
    33  H    0.000000  -0.000000  -0.000000   0.000000   0.000001   0.000036
    34  H   -0.000000   0.000000   0.000000  -0.000000  -0.000000  -0.000007
    35  H    0.000014  -0.000000   0.000000   0.000000  -0.000000  -0.000000
    36  H    0.000021  -0.000000   0.000000   0.000000   0.000000  -0.000001
              31         32         33         34         35         36
     1  C    0.000005  -0.004326   0.000104  -0.000643  -0.000205  -0.003311
     2  N    0.000001  -0.008032  -0.000025   0.000829   0.001693  -0.008477
     3  C   -0.000480   0.006756  -0.000013  -0.000286   0.001238   0.001878
     4  C   -0.000014  -0.008965  -0.000003  -0.000035   0.001871   0.008990
     5  C    0.000012  -0.000153   0.000000  -0.000000  -0.000087  -0.000013
     6  C    0.000000  -0.000000   0.000000  -0.000000  -0.000000  -0.000003
     7  C   -0.000000   0.000000   0.000000  -0.000000   0.000000   0.000000
     8  C    0.000000  -0.000000  -0.000000   0.000000  -0.000000   0.000000
     9  C    0.000021  -0.000013  -0.000000   0.000000   0.000000  -0.000000
    10  C   -0.000075   0.000098  -0.000000   0.000000  -0.000001  -0.000002
    11  C    0.002424   0.003351   0.000010   0.000000   0.000000   0.000002
    12  C   -0.051964  -0.042546  -0.000074  -0.000001  -0.000001   0.000006
    13  C    0.310963  -0.095455  -0.009424  -0.000224   0.000000  -0.000000
    14  C   -0.017823   0.344185  -0.042821   0.003015  -0.000000  -0.000019
    15  C   -0.010882  -0.104194   0.327942  -0.025062   0.000000   0.000011
    16  C   -0.000299  -0.053914  -0.023374   0.254300   0.000073   0.000294
    17  S   -0.000017  -0.024440  -0.000123  -0.000277  -0.016069  -0.025534
    18  N    0.000000  -0.000079   0.000000  -0.000191   0.292721   0.271972
    19  H    0.000000  -0.000430   0.000015   0.000186  -0.000106  -0.002008
    20  H   -0.000017   0.002207  -0.000275  -0.000129  -0.000005   0.000044
    21  H   -0.000068   0.017239   0.000269  -0.010962   0.000435  -0.000213
    22  H   -0.000001   0.001090   0.000001  -0.000116  -0.001488   0.012585
    23  H    0.000506   0.021161   0.000025   0.000052   0.000115   0.000015
    24  H    0.000088   0.002576   0.000002  -0.000002   0.000017  -0.000233
    25  H    0.000000   0.000000   0.000000  -0.000000   0.000014   0.000021
    26  H    0.000000  -0.000000  -0.000000   0.000000  -0.000000  -0.000000
    27  H    0.000000   0.000000  -0.000000   0.000000   0.000000   0.000000
    28  H    0.000004   0.000000   0.000000  -0.000000   0.000000   0.000000
    29  H    0.001740   0.000062   0.000001  -0.000000  -0.000000   0.000000
    30  H    0.001987  -0.001809   0.000036  -0.000007  -0.000000  -0.000001
    31  H    0.662302   0.012112   0.003770   0.000012   0.000000   0.000000
    32  H    0.012112   0.869791   0.015920   0.001429  -0.000004   0.000080
    33  H    0.003770   0.015920   0.605327   0.000867   0.000000   0.000000
    34  H    0.000012   0.001429   0.000867   0.639362  -0.000001  -0.000024
    35  H    0.000000  -0.000004   0.000000  -0.000001   0.514080  -0.037569
    36  H    0.000000   0.000080   0.000000  -0.000024  -0.037569   0.563417
 Mulliken charges:
               1
     1  C   -0.363422
     2  N   -0.284154
     3  C   -0.129023
     4  C   -0.151531
     5  C   -0.063349
     6  C   -0.159221
     7  C   -0.050968
     8  C   -0.126015
     9  C   -0.082358
    10  C    0.168119
    11  C   -0.137886
    12  C   -0.131105
    13  C   -0.308949
    14  C    0.263363
    15  C   -0.280108
    16  C   -0.261940
    17  S    0.071188
    18  N   -0.584984
    19  H    0.157926
    20  H    0.124858
    21  H    0.199407
    22  H    0.220819
    23  H    0.258798
    24  H    0.118162
    25  H    0.108424
    26  H    0.106818
    27  H    0.104121
    28  H    0.102039
    29  H    0.128030
    30  H    0.129821
    31  H    0.085694
    32  H    0.046304
    33  H    0.121843
    34  H    0.137911
    35  H    0.243279
    36  H    0.218090
 Sum of Mulliken charges =  -0.00000
 Mulliken charges with hydrogens summed into heavy atoms:
               1
     1  C    0.118770
     2  N   -0.063335
     3  C    0.247936
     4  C   -0.151531
     5  C   -0.063349
     6  C   -0.050797
     7  C    0.055850
     8  C   -0.021894
     9  C    0.019680
    10  C    0.168119
    11  C   -0.009856
    12  C   -0.001284
    13  C   -0.223255
    14  C    0.309667
    15  C   -0.158265
    16  C   -0.124030
    17  S    0.071188
    18  N   -0.123614
 Electronic spatial extent (au):  <R**2>=           5050.0845
 Charge=             -0.0000 electrons
 Dipole moment (field-independent basis, Debye):
    X=             -2.7828    Y=              0.7998    Z=              1.0992  Tot=              3.0970
 Quadrupole moment (field-independent basis, Debye-Ang):
   XX=           -105.8563   YY=           -105.8017   ZZ=           -123.7997
   XY=              1.7591   XZ=              2.6048   YZ=             -8.8180
 Traceless Quadrupole moment (field-independent basis, Debye-Ang):
   XX=              5.9629   YY=              6.0176   ZZ=            -11.9805
   XY=              1.7591   XZ=              2.6048   YZ=             -8.8180
 Octapole moment (field-independent basis, Debye-Ang**2):
  XXX=            -60.5049  YYY=             -9.2468  ZZZ=              3.7020  XYY=            -18.9071
  XXY=             16.2951  XXZ=              7.2535  XZZ=             -0.7538  YZZ=             -7.0038
  YYZ=             10.8739  XYZ=             -7.1145
 Hexadecapole moment (field-independent basis, Debye-Ang**3):
 XXXX=          -4115.4474 YYYY=          -1733.2466 ZZZZ=           -571.7697 XXXY=             33.0525
 XXXZ=             49.9974 YYYX=             16.1773 YYYZ=            -75.8743 ZZZX=             13.9455
 ZZZY=            -26.1988 XXYY=          -1043.6524 XXZZ=           -920.2409 YYZZ=           -417.3454
 XXYZ=            -18.4703 YYXZ=             17.7571 ZZXY=            -18.2547
 N-N= 1.423786151891D+03 E-N=-5.396598198087D+03  KE= 1.083121639304D+03
 PrsmSu:  requested number of processors reduced to:  12 ShMem   1 Linda.
 Calling FoFJK, ICntrl=      2127 FMM=F ISym2X=0 I1Cent= 0 IOpClX= 0 NMat=1 NMatS=1 NMatT=0.
 ***** Axes restored to original set *****
 -------------------------------------------------------------------
 Center     Atomic                   Forces (Hartrees/Bohr)
 Number     Number              X              Y              Z
 -------------------------------------------------------------------
      1        6          -0.038966676    0.007866323   -0.015381560
      2        7           0.007863968    0.008430345   -0.014012856
      3        6           0.007457697    0.014337396   -0.028587359
      4        6           0.040389205    0.028270088    0.026557782
      5        6           0.058051884    0.074872975    0.013855720
      6        6          -0.058252620   -0.026863644    0.001215093
      7        6          -0.001635796    0.019143588    0.018110564
      8        6           0.025833709   -0.015999214   -0.011116084
      9        6          -0.025032382   -0.017556896   -0.013988978
     10        6           0.057756599   -0.026194028    0.024512174
     11        6          -0.022382869   -0.001640053   -0.017104119
     12        6           0.061917962    0.002544866    0.063595860
     13        6          -0.096168764    0.019681830    0.008404431
     14        6          -0.016473534    0.011543585   -0.000249292
     15        6           0.041886461   -0.035510049   -0.027871087
     16        6          -0.122205926    0.040793866    0.000378408
     17       16           0.055271509   -0.015966789   -0.035472760
     18        7           0.019670028   -0.021712808   -0.014793603
     19        1           0.021677831    0.023726302   -0.021730905
     20        1          -0.015273115    0.009909257   -0.012250357
     21        1          -0.030076966   -0.032105933    0.056407859
     22        1           0.030833803    0.004750464   -0.022740570
     23        1          -0.027960541    0.017296449   -0.002650389
     24        1           0.011728509    0.016418865    0.001639457
     25        1          -0.004988492   -0.012964455    0.000978589
     26        1          -0.006901403   -0.007276511   -0.014108854
     27        1          -0.004197626   -0.006795721   -0.008153791
     28        1          -0.005690080   -0.007587448   -0.008185254
     29        1           0.006208908    0.032990218   -0.016557944
     30        1           0.004884148   -0.050902317   -0.005988588
     31        1          -0.013773343    0.029341598    0.005777150
     32        1           0.059256171   -0.022208239   -0.018704624
     33        1          -0.012311133   -0.034229816   -0.001754962
     34        1           0.037261483   -0.006525915    0.030097752
     35        1          -0.023696772   -0.017298125    0.032044105
     36        1          -0.021961835   -0.002580053    0.027828990
 -------------------------------------------------------------------
 Cartesian Forces:  Max     0.122205926 RMS     0.030299113

 GradGradGradGradGradGradGradGradGradGradGradGradGradGradGradGradGradGrad
 Berny optimization.
 FormGI is forming the generalized inverse of G from B-inverse, IUseBI=4.
 Internal  Forces:  Max     0.117277461 RMS     0.036349404
 Search for a local minimum.
 Step number   1 out of a maximum of  178
 All quantities printed in internal units (Hartrees-Bohrs-Radians)
 Mixed Optimization -- RFO/linear search
 Second derivative matrix not updated -- first step.
 ITU=  0
     Eigenvalues ---    0.00230   0.00474   0.00625   0.00680   0.00705
     Eigenvalues ---    0.00933   0.00940   0.01147   0.01155   0.01183
     Eigenvalues ---    0.01344   0.01357   0.01625   0.01732   0.01901
     Eigenvalues ---    0.02006   0.02150   0.02222   0.02428   0.02492
     Eigenvalues ---    0.02566   0.02616   0.02726   0.02776   0.02880
     Eigenvalues ---    0.03492   0.03541   0.03654   0.04828   0.04980
     Eigenvalues ---    0.05359   0.05688   0.06541   0.06906   0.09002
     Eigenvalues ---    0.09429   0.10890   0.11687   0.11771   0.12028
     Eigenvalues ---    0.12965   0.13078   0.13595   0.13633   0.14409
     Eigenvalues ---    0.15347   0.15642   0.15816   0.15900   0.15930
     Eigenvalues ---    0.15948   0.15986   0.15989   0.15993   0.16000
     Eigenvalues ---    0.17267   0.19332   0.19907   0.21354   0.21619
     Eigenvalues ---    0.21861   0.21998   0.22028   0.22111   0.22275
     Eigenvalues ---    0.22719   0.23128   0.23186   0.23735   0.24070
     Eigenvalues ---    0.24540   0.25000   0.30664   0.31754   0.31901
     Eigenvalues ---    0.33550   0.33883   0.33938   0.33974   0.34971
     Eigenvalues ---    0.35497   0.35673   0.36048   0.36279   0.36303
     Eigenvalues ---    0.37145   0.37706   0.37710   0.37829   0.38052
     Eigenvalues ---    0.38685   0.39922   0.43199   0.47331   0.47468
     Eigenvalues ---    0.48078   0.50190   0.51067   0.52915   0.54642
     Eigenvalues ---    0.56545   0.57167
 RFO step:  Lambda=-4.00946396D-01 EMin= 2.30000000D-03
 Linear search not attempted -- first point.
 Maximum step size (   0.300) exceeded in Quadratic search.
    -- Step size scaled by   0.518
 Iteration  1 RMS(Cart)=  0.36245437 RMS(Int)=  0.01513951
 Iteration  2 RMS(Cart)=  0.14224893 RMS(Int)=  0.00176633
 Iteration  3 RMS(Cart)=  0.00378598 RMS(Int)=  0.00024874
 Iteration  4 RMS(Cart)=  0.00000418 RMS(Int)=  0.00024874
 Iteration  5 RMS(Cart)=  0.00000000 RMS(Int)=  0.00024874
 Variable       Old X    -DE/DX   Delta X   Delta X   Delta X     New X
                                 (Linear)    (Quad)   (Total)
    R1        2.70550   0.03446   0.00000   0.02260   0.02266   2.72816
    R2        2.11296  -0.01680   0.00000  -0.01212  -0.01212   2.10084
    R3        2.01490   0.01674   0.00000   0.01115   0.01115   2.02605
    R4        1.92714   0.07143   0.00000   0.04391   0.04405   1.97119
    R5        2.79022   0.01677   0.00000   0.01158   0.01158   2.80180
    R6        1.84979   0.04041   0.00000   0.02353   0.02362   1.87341
    R7        2.77897   0.02867   0.00000   0.01962   0.01962   2.79858
    R8        2.04006   0.00373   0.00000   0.00254   0.00254   2.04260
    R9        2.00990   0.01774   0.00000   0.01177   0.01177   2.02167
   R10        2.84326  -0.02383   0.00000  -0.01716  -0.01716   2.82610
   R11        3.04570  -0.08162   0.00000  -0.06682  -0.06686   2.97884
   R12        3.09337  -0.04193   0.00000  -0.03507  -0.03511   3.05826
   R13        2.60055  -0.02275   0.00000  -0.01412  -0.01416   2.58639
   R14        2.04876   0.00162   0.00000   0.00111   0.00111   2.04987
   R15        2.73370  -0.02276   0.00000  -0.01578  -0.01577   2.71793
   R16        2.07528  -0.00744   0.00000  -0.00521  -0.00521   2.07006
   R17        2.52164   0.02963   0.00000   0.01612   0.01619   2.53784
   R18        2.08096  -0.01106   0.00000  -0.00778  -0.00778   2.07317
   R19        2.85366  -0.03002   0.00000  -0.02091  -0.02088   2.83278
   R20        2.07373  -0.00817   0.00000  -0.00572  -0.00572   2.06802
   R21        2.53256   0.06687   0.00000   0.03564   0.03564   2.56820
   R22        2.62658   0.06201   0.00000   0.03677   0.03677   2.66335
   R23        2.03611   0.01208   0.00000   0.00820   0.00820   2.04431
   R24        2.55452   0.11133   0.00000   0.06092   0.06092   2.61544
   R25        2.03648   0.02196   0.00000   0.01490   0.01490   2.05138
   R26        2.57033   0.05046   0.00000   0.02812   0.02812   2.59845
   R27        2.02328   0.02259   0.00000   0.01516   0.01516   2.03844
   R28        2.58803   0.06398   0.00000   0.03638   0.03638   2.62441
[...]
    13  C    5.628967   5.106593   3.902274   4.437390   4.454410
    14  C    5.720966   5.555097   4.513615   5.118883   5.385373
    15  C    6.736150   6.681725   5.762073   6.481198   6.752400
    16  C    7.262684   7.449518   6.617891   7.271509   7.650588
    17  S    3.436848   3.091321   2.824596   1.818031   2.784015
    18  N    3.990781   3.428458   3.620074   2.800189   3.491745
    19  H    1.092909   2.090937   3.387397   4.270933   5.595431
    20  H    1.097777   2.093989   2.818100   4.021023   5.296571
    21  H    1.101220   2.150971   2.757518   3.295584   4.675657
    22  H    2.087475   1.009568   2.082510   2.728882   3.799267
    23  H    2.498910   2.046164   1.099269   2.180488   3.174338
    24  H    3.317735   2.092634   1.100766   2.125631   2.633165
    25  H    5.815054   5.026954   4.237646   2.721851   2.185684
    26  H    7.844087   6.778168   5.903682   4.564497   3.440155
    27  H    8.420308   7.120788   6.132809   5.235108   3.924098
    28  H    7.374721   6.061392   4.939051   4.583600   3.456944
    29  H    6.304491   5.214578   3.954679   4.121669   3.480703
    30  H    4.660413   4.136205   2.772857   2.709878   2.811795
    31  H    6.323163   5.681142   4.537503   5.161678   5.042984
    32  H    5.299003   5.324975   4.333017   4.804933   5.226616
    33  H    7.318830   7.127397   6.212740   7.008049   7.171392
    34  H    8.352228   8.511744   7.655213   8.290951   8.583175
    35  H    4.786901   3.987973   3.960795   2.950484   3.228085
    36  H    3.432472   2.799878   3.328054   2.938521   3.785822
                    6          7          8          9         10
     6  C    0.000000
     7  C    1.356317   0.000000
     8  C    2.425748   1.435594   0.000000
     9  C    2.809508   2.419691   1.358942   0.000000
    10  C    2.479249   2.824227   2.439577   1.438667   0.000000
    11  C    3.732357   4.153188   3.645238   2.422712   1.382866
    12  C    4.361932   5.070564   4.839140   3.742099   2.499889
    13  C    5.734316   6.397188   6.044761   4.856519   3.754359
    14  C    6.637719   7.451827   7.268770   6.153143   4.952431
    15  C    8.008946   8.775974   8.505632   7.339365   6.222253
    16  C    8.839914   9.697771   9.568512   8.477533   7.297619
    17  S    3.085991   4.392669   5.310237   5.218032   4.185454
    18  N    3.475943   4.492779   5.409016   5.534083   4.825617
    19  H    6.551232   7.699319   8.111932   7.528847   6.375390
    20  H    6.496942   7.662217   7.921443   7.117039   5.817944
    21  H    5.594088   6.872913   7.438353   6.898660   5.608085
    22  H    4.715031   5.687825   5.986372   5.478376   4.527482
    23  H    4.528635   5.625793   5.780815   4.902146   3.512565
    24  H    4.030963   4.839147   4.693710   3.725804   2.577698
    25  H    1.082930   2.126395   3.416429   3.892378   3.451522
    26  H    2.119813   1.085029   2.181792   3.389457   3.904979
    27  H    3.395444   2.184391   1.084448   2.125116   3.425688
    28  H    3.894526   3.412095   2.128752   1.085558   2.166892
    29  H    4.565800   4.735928   3.919708   2.586912   2.110425
    30  H    3.990138   4.912572   4.994232   4.113510   2.755643
    31  H    6.315456   6.807328   6.231635   4.950567   4.078114
    32  H    6.404951   7.357577   7.386427   6.395943   5.090112
    33  H    8.455590   9.102700   8.662691   7.422902   6.441173
    34  H    9.746182  10.533240  10.332803   9.226337   8.128474
    35  H    2.915289   3.723720   4.663489   4.970716   4.499545
    36  H    4.062125   5.026691   5.732535   5.689538   4.951107
                   11         12         13         14         15
    11  C    0.000000
    12  C    1.415655   0.000000
    13  C    2.460454   1.374374   0.000000
    14  C    3.765659   2.453416   1.412510   0.000000
    15  C    4.952520   3.748194   2.492354   1.390450   0.000000
    16  C    6.111081   4.799716   3.697086   2.365066   1.390947
    17  S    4.878169   4.792059   5.961113   6.367895   7.707037
    18  N    5.755042   5.998025   7.207251   7.779446   9.111856
    19  H    6.447891   6.109978   6.667053   6.759931   7.717114
    20  H    5.536614   4.920790   5.221157   5.142720   6.004702
    21  H    5.671329   5.118282   5.767661   5.742016   6.815488
    22  H    4.907595   5.038663   5.912651   6.471126   7.631052
    23  H    3.172870   2.565436   3.239886   3.589355   4.812233
    24  H    2.471984   2.711375   3.572810   4.455910   5.643906
    25  H    4.605028   5.010127   6.370217   7.108681   8.494849
    26  H    5.218203   6.098086   7.424102   8.440976   9.767833
    27  H    4.516032   5.771716   6.902742   8.171601   9.356710
    28  H    2.627482   4.018208   4.901930   6.280147   7.335790
    29  H    1.089680   2.133769   2.670990   4.080786   5.059759
    30  H    2.152013   1.086831   2.116615   2.675652   4.061112
    31  H    2.695828   2.126340   1.089252   2.147817   2.734935
    32  H    4.105710   2.692496   2.154756   1.089018   2.108045
    33  H    5.090242   4.099000   2.729700   2.133543   1.097754
    34  H    6.894112   5.649455   4.465384   3.262196   2.067597
    35  H    5.604917   6.062769   7.346600   8.067491   9.426573
    36  H    5.764633   6.022474   7.144344   7.727535   9.010119
                   16         17         18         19         20
    16  C    0.000000
    17  S    8.264165   0.000000
    18  N    9.777007   1.726219   0.000000
    19  H    8.216588   4.028475   4.199596   0.000000
    20  H    6.486069   4.295754   5.027413   1.769163   0.000000
    21  H    7.200669   2.872849   3.722765   1.776549   1.782637
    22  H    8.429712   3.030876   2.838150   2.308242   2.931027
    23  H    5.580449   3.312746   4.435297   3.559230   2.466547
    24  H    6.680790   3.723295   4.301350   4.136473   3.497973
    25  H    9.197325   2.628225   3.031364   6.468052   6.568008
    26  H   10.643163   4.964421   4.896672   8.466129   8.554178
    27  H   10.453969   6.325859   6.284388   9.090997   8.941924
    28  H    8.560834   6.192201   6.495765   8.150554   7.630876
    29  H    6.331955   5.919524   6.679549   7.218075   6.258535
    30  H    4.860855   4.043814   5.442491   5.736563   4.616306
    31  H    4.091413   6.803183   7.911555   7.307320   5.876093
    32  H    2.507790   5.798928   7.326708   6.352192   4.775021
    33  H    2.217936   8.385586   9.687651   8.267120   6.569577
    34  H    1.107611   9.326813  10.843696   9.296613   7.554532
    35  H   10.177884   2.298478   1.015303   5.048410   5.779530
    36  H    9.724450   2.253366   1.015403   3.494502   4.487902
                   21         22         23         24         25
    21  H    0.000000
    22  H    2.675982   0.000000
    23  H    2.654184   2.931280   0.000000
    24  H    3.787384   2.573875   1.737471   0.000000
    25  H    5.403762   4.845307   4.829098   4.622165   0.000000
    26  H    7.627663   6.480791   6.600365   5.870841   2.457243
    27  H    8.488455   6.907738   6.823703   5.647769   4.298496
    28  H    7.628150   6.120293   5.441357   4.155039   4.977243
    29  H    6.593570   5.645638   4.028705   3.135563   5.520093
    30  H    4.498107   4.825178   2.259150   2.911167   4.435114
    31  H    6.598892   6.439866   4.009410   3.972908   7.066050
    32  H    5.135139   6.249954   3.325379   4.539698   6.719359
    33  H    7.528156   8.045311   5.360981   5.908348   9.048676
    34  H    8.307047   9.488563   6.638731   7.648601  10.138689
    35  H    4.599957   3.350839   4.867628   4.438636   2.552762
    36  H    3.417264   2.030280   4.214411   3.951014   3.827269
                   26         27         28         29         30
    26  H    0.000000
    27  H    2.500699   0.000000
    28  H    4.293251   2.463092   0.000000
    29  H    5.776128   4.597138   2.317749   0.000000
    30  H    5.873485   6.003204   4.623282   3.081925   0.000000
    31  H    7.849480   6.978767   4.755352   2.449471   3.078318
    32  H    8.295569   8.353357   6.695313   4.656616   2.455632
    33  H   10.119820   9.437353   7.259111   4.962790   4.650738
    34  H   11.469675  11.166857   9.224467   6.994697   5.793922
    35  H    4.042928   5.459064   5.948247   6.466709   5.596437
    36  H    5.539806   6.599889   6.554219   6.622142   5.582092
                   31         32         33         34         35
    31  H    0.000000
    32  H    3.103631   0.000000
    33  H    2.515841   3.073888   0.000000
    34  H    4.674714   3.536375   2.468321   0.000000
    35  H    7.978383   7.697700   9.938857  11.213891   0.000000
    36  H    7.780789   7.346811   9.528106  10.799397   1.659921
                   36
    36  H    0.000000
 Stoichiometry    C15H18N2S
 Framework group  C1[X(C15H18N2S)]
 Deg. of freedom   102
 Full point group                 C1      NOp   1
 Largest Abelian subgroup         C1      NOp   1
 Largest concise Abelian subgroup C1      NOp   1
                         Standard orientation:                         
 ---------------------------------------------------------------------
 Center     Atomic      Atomic             Coordinates (Angstroms)
 Number     Number       Type             X           Y           Z
 ---------------------------------------------------------------------
      1          6           0        0.027816   -3.671654    0.930563
      2          7           0       -0.486889   -2.428396    1.487681
      3          6           0       -0.071884   -1.200662    0.854066
      4          6           0       -1.017470   -0.594799   -0.179573
      5          6           0       -1.317345    0.752860   -0.258009
      6          6           0       -2.492546    1.233255   -0.978489
      7          6           0       -3.067364    2.422034   -0.668676
      8          6           0       -2.508115    3.260339    0.353780
      9          6           0       -1.307052    2.946311    0.906552
     10          6           0       -0.567270    1.787835    0.481793
     11          6           0        0.797882    1.764528    0.701190
     12          6           0        1.752864    0.994939   -0.005789
     13          6           0        3.097924    1.000807    0.276493
     14          6           0        4.036523    0.188039   -0.397024
     15          6           0        5.413189    0.212654   -0.203289
     16          6           0        6.186036   -0.438154   -1.159265
     17         16           0       -1.964781   -1.802186   -1.154281
     18          7           0       -3.416318   -2.037576   -0.250142
     19          1           0       -0.465103   -4.517975    1.415558
     20          1           0        1.102838   -3.746235    1.140036
     21          1           0       -0.120365   -3.765847   -0.156569
     22          1           0       -1.458417   -2.463062    1.760003
     23          1           0        0.920236   -1.393649    0.421808
     24          1           0        0.108673   -0.426365    1.615347
     25          1           0       -2.938625    0.574182   -1.712911
     26          1           0       -3.972060    2.738273   -1.177405
     27          1           0       -3.022974    4.171134    0.639087
     28          1           0       -0.824971    3.622408    1.605784
     29          1           0        1.195306    2.506493    1.393248
     30          1           0        1.408998    0.406650   -0.852473
     31          1           0        3.463299    1.634611    1.083503
     32          1           0        3.678603   -0.468546   -1.188700
     33          1           0        5.798986    0.819046    0.626478
     34          1           0        7.176546    0.045038   -1.269795
     35          1           0       -3.912190   -1.162020   -0.114673
     36          1           0       -3.158979   -2.427342    0.651468
 ---------------------------------------------------------------------
 Rotational constants (GHZ):           0.4407715           0.2370986           0.1726376
 Standard basis: 6-31G(2df,p) (6D, 7F)
 There are   652 symmetry adapted cartesian basis functions of A   symmetry.
 There are   598 symmetry adapted basis functions of A   symmetry.
   598 basis functions,   942 primitive gaussians,   652 cartesian basis functions
    69 alpha electrons       69 beta electrons
       nuclear repulsion energy      1346.5282898000 Hartrees.
 NAtoms=   36 NActive=   36 NUniq=   36 SFac= 1.00D+00 NAtFMM=   60 NAOKFM=F Big=F
 Integral buffers will be    131072 words long.
 Raffenetti 2 integral format.
 Two-electron integral symmetry is turned on.
 One-electron integrals computed using PRISM.
 PrsmSu:  requested number of processors reduced to:  12 ShMem   1 Linda.
 NBasis=   598 RedAO= T EigKep=  1.61D-04  NBF=   598
 NBsUse=   598 1.00D-06 EigRej= -1.00D+00 NBFU=   598
 Initial guess from the checkpoint file:  "CNCC1dc2ccccc2dCCdCCdCCdS1N.chk"
 B after Tr=     0.000000   -0.000000   -0.000000
         Rot=    0.999984    0.000481    0.001906    0.005279 Ang=   0.65 deg.
 ExpMin= 1.17D-01 ExpMax= 2.19D+04 ExpMxC= 3.30D+03 IAcc=2 IRadAn=         4 AccDes= 0.00D+00
 Harris functional with IExCor=  402 and IRadAn=       4 diagonalized for initial guess.
 HarFok:  IExCor=  402 AccDes= 0.00D+00 IRadAn=         4 IDoV= 1 UseB2=F ITyADJ=14
 ICtDFT=  3500011 ScaDFX=  1.000000  1.000000  1.000000  1.000000
 FoFCou: FMM=F IPFlag=           0 FMFlag=      100000 FMFlg1=           0
         NFxFlg=           0 DoJE=T BraDBF=F KetDBF=T FulRan=T
         wScrn=  0.000000 ICntrl=       500 IOpCl=  0 I1Cent=   200000004 NGrid=           0
         NMat0=    1 NMatS0=      1 NMatT0=    0 NMatD0=    1 NMtDS0=    0 NMtDT0=    0
 Petite list used in FoFCou.
 Requested convergence on RMS density matrix=1.00D-08 within 128 cycles.
 Requested convergence on MAX density matrix=1.00D-06.
 Requested convergence on             energy=1.00D-06.
 No special actions if energy rises.
 Integral accuracy reduced to 1.0D-05 until final iterations.
 Initial convergence to 1.0D-05 achieved.  Increase integral accuracy.
 SCF Done:  E(RB3LYP) =  -1089.93628914     A.U. after   15 cycles
            NFock= 15  Conv=0.44D-08     -V/T= 2.0064
 PrsmSu:  requested number of processors reduced to:  12 ShMem   1 Linda.
 Calling FoFJK, ICntrl=      2127 FMM=F ISym2X=0 I1Cent= 0 IOpClX= 0 NMat=1 NMatS=1 NMatT=0.
 ***** Axes restored to original set *****
 -------------------------------------------------------------------
 Center     Atomic                   Forces (Hartrees/Bohr)
 Number     Number              X              Y              Z
 -------------------------------------------------------------------
      1        6           0.001336463   -0.000547274    0.000827931
      2        7          -0.001981981    0.000086633   -0.003149139
      3        6          -0.002219772    0.001591388    0.004596038
      4        6          -0.000314621   -0.003311374   -0.006290601
      5        6           0.001916198   -0.003792360    0.004385572
      6        6          -0.003036415    0.001576505   -0.002707668
      7        6          -0.000068740    0.001206439    0.000184187
      8        6           0.000693649   -0.001017969   -0.000308147
      9        6          -0.000826514    0.000647795    0.000332396
     10        6           0.005327228   -0.000406248   -0.001807681
     11        6          -0.003563173   -0.002624712    0.001376988
     12        6          -0.000149124    0.003950876    0.002795025
     13        6          -0.001030917   -0.001728802   -0.000515609
     14        6           0.002912319   -0.000060107    0.000569219
     15        6          -0.001008723   -0.001168204    0.000041627
     16        6          -0.000518883    0.001215633    0.000572896
     17       16           0.001783789    0.005495581    0.006408737
     18        7          -0.003977584   -0.002175816   -0.001404973
     19        1          -0.000361079    0.000426703   -0.000475545
     20        1           0.000260573   -0.000369334   -0.000254837
     21        1          -0.000380970    0.001097210   -0.001547273
     22        1          -0.001128119   -0.000844291    0.001788355
     23        1           0.001425090    0.000211500   -0.001020018
     24        1          -0.000577832   -0.000541310   -0.001089883
     25        1          -0.000286370   -0.000444427    0.000180963
     26        1          -0.000073303   -0.000010192   -0.000087517
     27        1          -0.000052073    0.000059434    0.000243351
     28        1           0.000247995    0.000347478    0.000280186
     29        1           0.000100786   -0.000167223   -0.000155884
     30        1           0.000081401    0.000346950   -0.001767073
     31        1          -0.000034080    0.000042740   -0.000850285
     32        1           0.000034865    0.000678316    0.000221913
     33        1          -0.000138753   -0.000149546    0.000046279
     34        1           0.000041289   -0.000034900   -0.000296749
     35        1          -0.000118437    0.000456667    0.000048994
     36        1           0.005685819   -0.000043762   -0.001171774
 -------------------------------------------------------------------
 Cartesian Forces:  Max     0.006408737 RMS     0.001928642

 GradGradGradGradGradGradGradGradGradGradGradGradGradGradGradGradGradGrad
 Berny optimization.
 Using GEDIIS/GDIIS optimizer.
 FormGI is forming the generalized inverse of G from B-inverse, IUseBI=4.
 Internal  Forces:  Max     0.017888697 RMS     0.003015322
 Search for a local minimum.
 Step number  25 out of a maximum of  178
 All quantities printed in internal units (Hartrees-Bohrs-Radians)
 Mixed Optimization -- RFO/linear search
 Update second derivatives using D2CorX and points   24   25
 DE= -1.32D-03 DEPred=-1.52D-03 R= 8.65D-01
 TightC=F SS=  1.41D+00  RLast= 5.38D-01 DXNew= 2.3830D+00 1.6126D+00
 Trust test= 8.65D-01 RLast= 5.38D-01 DXMaxT set to 1.61D+00
 ITU=  1  1  1 -1  1  0  0  1  1  1  1  1  0 -1  1  1  1  1  1 -1
 ITU=  0  0  1  1  0
 Use linear search instead of GDIIS.
     Eigenvalues ---    0.00257   0.00391   0.00464   0.00905   0.01119
     Eigenvalues ---    0.01183   0.01268   0.01386   0.01452   0.01648
     Eigenvalues ---    0.01762   0.01773   0.01915   0.01962   0.02028
     Eigenvalues ---    0.02115   0.02271   0.02416   0.02446   0.02567
     Eigenvalues ---    0.02610   0.02679   0.02737   0.03066   0.03233
     Eigenvalues ---    0.03315   0.04492   0.04794   0.05170   0.05544
     Eigenvalues ---    0.06532   0.07221   0.07565   0.08171   0.09001
     Eigenvalues ---    0.10442   0.11082   0.11720   0.12312   0.12466
     Eigenvalues ---    0.12997   0.14427   0.15133   0.15626   0.15843
     Eigenvalues ---    0.15901   0.15939   0.15971   0.15980   0.16005
     Eigenvalues ---    0.16157   0.16923   0.17656   0.18643   0.19956
     Eigenvalues ---    0.21570   0.21819   0.21939   0.22029   0.22246
     Eigenvalues ---    0.22620   0.23123   0.23983   0.24550   0.25537
     Eigenvalues ---    0.26388   0.27290   0.30058   0.31736   0.33382
     Eigenvalues ---    0.33577   0.33828   0.33896   0.33962   0.34414
     Eigenvalues ---    0.35495   0.35579   0.35834   0.36292   0.36402
     Eigenvalues ---    0.37175   0.37245   0.37640   0.37884   0.38040
     Eigenvalues ---    0.38645   0.39413   0.41265   0.41952   0.46219
     Eigenvalues ---    0.47493   0.48042   0.49436   0.51666   0.52236
     Eigenvalues ---    0.55028   0.56622   0.61230   0.61861   0.94300
     Eigenvalues ---    1.00892  10.83335
 RFO step:  Lambda=-2.82397456D-03 EMin= 2.57098793D-03
 Quartic linear search produced a step of  0.01075.
 Iteration  1 RMS(Cart)=  0.11772242 RMS(Int)=  0.00374853
 Iteration  2 RMS(Cart)=  0.00737489 RMS(Int)=  0.00055985
 Iteration  3 RMS(Cart)=  0.00002605 RMS(Int)=  0.00055972
slurmstepd: error: *** JOB 27446903 ON lewis4-r630-hpc4rc-node359 CANCELLED AT 2023-05-16T16:35:14 DUE TO TIME LIMIT ***
