### Starting Gaussian ###
 Entering Gaussian System, Link 0=g16
 Initial command:
 /cluster/software/gaussian/gaussian-16-A.03/avx2/g16/l1.exe "/local/scratch/linjian/Gau-8522.inp" -scrdir="/local/scratch/linjian/"
 Entering Link 1 = /cluster/software/gaussian/gaussian-16-A.03/avx2/g16/l1.exe PID=      8523.
  
 Copyright (c) 1988,1990,1992,1993,1995,1998,2003,2009,2016,
            Gaussian, Inc.  All Rights Reserved.
  
 This is part of the Gaussian(R) 16 program.  It is based on
 the Gaussian(R) 09 system (copyright 2009, Gaussian, Inc.),
 the Gaussian(R) 03 system (copyright 2003, Gaussian, Inc.),
 the Gaussian(R) 98 system (copyright 1998, Gaussian, Inc.),
 the Gaussian(R) 94 system (copyright 1995, Gaussian, Inc.),
 the Gaussian 92(TM) system (copyright 1992, Gaussian, Inc.),
 the Gaussian 90(TM) system (copyright 1990, Gaussian, Inc.),
 the Gaussian 88(TM) system (copyright 1988, Gaussian, Inc.),
 the Gaussian 86(TM) system (copyright 1986, Carnegie Mellon
 University), and the Gaussian 82(TM) system (copyright 1983,
 Carnegie Mellon University). Gaussian is a federally registered
 trademark of Gaussian, Inc.
  
 This software contains proprietary and confidential information,
 including trade secrets, belonging to Gaussian, Inc.
  
 This software is provided under written license and may be
 used, copied, transmitted, or stored only in accord with that
 written license.
  
 The following legend is applicable only to US Government
 contracts under FAR:
  
                    RESTRICTED RIGHTS LEGEND
  
 Use, reproduction and disclosure by the US Government is
 subject to restrictions as set forth in subparagraphs (a)
 and (c) of the Commercial Computer Software - Restricted
 Rights clause in FAR 52.227-19.
  
 Gaussian, Inc.
 340 Quinnipiac St., Bldg. 40, Wallingford CT 06492
  
  
 ---------------------------------------------------------------
 Warning -- This program may not be used in any manner that
 competes with the business of Gaussian, Inc. or will provide
 assistance to any competitor of Gaussian, Inc.  The licensee
 of this program is prohibited from giving any competitor of
 Gaussian, Inc. access to this program.  By using this program,
 the user acknowledges that Gaussian, Inc. is engaged in the
 business of creating and licensing software in the field of
 computational chemistry and represents and warrants to the
 licensee that it is not a competitor of Gaussian, Inc. and that
 it will not use this program in any manner prohibited above.
 ---------------------------------------------------------------
  

 Cite this work as:
 Gaussian 16, Revision A.03,
 M. J. Frisch, G. W. Trucks, H. B. Schlegel, G. E. Scuseria, 
 M. A. Robb, J. R. Cheeseman, G. Scalmani, V. Barone, 
 G. A. Petersson, H. Nakatsuji, X. Li, M. Caricato, A. V. Marenich, 
 J. Bloino, B. G. Janesko, R. Gomperts, B. Mennucci, H. P. Hratchian, 
 J. V. Ortiz, A. F. Izmaylov, J. L. Sonnenberg, D. Williams-Young, 
 F. Ding, F. Lipparini, F. Egidi, J. Goings, B. Peng, A. Petrone, 
 T. Henderson, D. Ranasinghe, V. G. Zakrzewski, J. Gao, N. Rega, 
 G. Zheng, W. Liang, M. Hada, M. Ehara, K. Toyota, R. Fukuda, 
 J. Hasegawa, M. Ishida, T. Nakajima, Y. Honda, O. Kitao, H. Nakai, 
 T. Vreven, K. Throssell, J. A. Montgomery, Jr., J. E. Peralta, 
 F. Ogliaro, M. J. Bearpark, J. J. Heyd, E. N. Brothers, K. N. Kudin, 
 V. N. Staroverov, T. A. Keith, R. Kobayashi, J. Normand, 
 K. Raghavachari, A. P. Rendell, J. C. Burant, S. S. Iyengar, 
 J. Tomasi, M. Cossi, J. M. Millam, M. Klene, C. Adamo, R. Cammi, 
 J. W. Ochterski, R. L. Martin, K. Morokuma, O. Farkas, 
 J. B. Foresman, and D. J. Fox, Gaussian, Inc., Wallingford CT, 2016.
 
 ******************************************
 Gaussian 16:  ES64L-G16RevA.03 25-Dec-2016
                20-May-2023 
 ******************************************
 %chk=CNCdCc1c2ccccccqdOroc1CdC2.chk
 %NProcShared=20
 Will use up to   20 processors via shared memory.
 -----------------------------
 # opt freq b3lyp/6-31g(2df,p)
 -----------------------------
 1/18=20,19=15,26=3,38=1/1,3;
 2/9=110,12=2,17=6,18=5,40=1/2;
 3/5=1,6=6,7=104,11=2,25=1,30=1,71=1,74=-5/1,2,3;
 4//1;
 5/5=2,38=5/2;
 6/7=2,8=2,9=2,10=2,28=1/1;
 7//1,2,3,16;
 1/18=20,19=15,26=3/3(2);
 2/9=110/2;
 99//99;
 2/9=110/2;
 3/5=1,6=6,7=104,11=2,25=1,30=1,71=1,74=-5/1,2,3;
 4/5=5,16=3,69=1/1;
 5/5=2,38=5/2;
 7//1,2,3,16;
 1/18=20,19=15,26=3/3(-5);
 2/9=110/2;
 6/7=2,8=2,9=2,10=2,19=2,28=1/1;
 99/9=1/99;
 -------------------
 Title Card Required
 -------------------
 Symbolic Z-matrix:
 Charge =  0 Multiplicity = 1
 C                     1.13877   0.03008   0.10093 
 N                     2.68662  -0.01775   0.17878 
 C                     3.80934  -0.93015   1.09404 
 C                     5.45529  -0.98198   0.94732 
 C                     7.35288  -1.69996   1.26369 
 C                     6.88183  -1.88942   2.48248 
 C                     7.32464  -2.83611   3.241 
 C                     8.61295  -3.07007   3.39477 
 C                     9.39852  -3.75579   4.09898 
 C                     10.58815  -3.58045   3.49057 
 C                     11.51002  -3.92607   4.3135 
 C                     12.12312  -2.85863   3.38991 
 O                     13.39853  -3.16606   3.62305 
 O                     10.93572  -1.68019   2.45054 
 C                     9.1193   -1.44963   1.53789 
 C                     8.10374  -0.18911   0.70465 
 C                     7.97783  -0.77769   1.92235 
 H                     0.7341    0.74699  -0.67186 
 H                     0.69673   0.36452   1.04555 
 H                     0.70095  -0.9389   -0.16782 
 H                     3.06368   0.61572  -0.53208 
 H                     2.91749  -1.43677   1.64018 
 H                     5.18084  -0.14968   0.26473 
 H                     6.73306  -3.41489   3.8244 
 H                     9.2232   -2.37615   3.00495 
 H                     8.99605  -4.34761   4.80835 
 H                     10.41543  -3.14838   2.26184 
 H                     11.40965  -4.70802   5.23992 
 H                     7.00826  -0.00925   0.15339 
 H                     8.67169  -0.38524   0.61516 
 
 Add virtual bond connecting atoms H27        and C10        Dist= 2.48D+00.
 Add virtual bond connecting atoms H27        and O14        Dist= 2.97D+00.
 Add virtual bond connecting atoms H29        and H23        Dist= 3.47D+00.

 GradGradGradGradGradGradGradGradGradGradGradGradGradGradGradGradGradGrad
 Berny optimization.
 Initialization pass.
                           ----------------------------
                           !    Initial Parameters    !
                           ! (Angstroms and Degrees)  !
 --------------------------                            --------------------------
 ! Name  Definition              Value          Derivative Info.                !
 --------------------------------------------------------------------------------
 ! R1    R(1,2)                  1.5505         estimate D2E/DX2                !
 ! R2    R(1,18)                 1.1291         estimate D2E/DX2                !
 ! R3    R(1,19)                 1.0952         estimate D2E/DX2                !
 ! R4    R(1,20)                 1.0967         estimate D2E/DX2                !
 ! R5    R(2,3)                  1.7119         estimate D2E/DX2                !
 ! R6    R(2,21)                 1.0241         estimate D2E/DX2                !
 ! R7    R(3,4)                  1.6533         estimate D2E/DX2                !
 ! R8    R(3,22)                 1.162          estimate D2E/DX2                !
 ! R9    R(4,23)                 1.1108         estimate D2E/DX2                !
 ! R10   R(5,6)                  1.3203         estimate D2E/DX2                !
 ! R11   R(5,15)                 1.805          estimate D2E/DX2                !
 ! R12   R(5,16)                 1.7774         estimate D2E/DX2                !
 ! R13   R(5,17)                 1.2942         estimate D2E/DX2                !
 ! R14   R(6,7)                  1.2914         estimate D2E/DX2                !
 ! R15   R(6,17)                 1.6586         estimate D2E/DX2                !
 ! R16   R(7,8)                  1.3184         estimate D2E/DX2                !
 ! R17   R(7,24)                 1.0126         estimate D2E/DX2                !
 ! R18   R(8,9)                  1.2583         estimate D2E/DX2                !
 ! R19   R(8,25)                 1.0029         estimate D2E/DX2                !
 ! R20   R(9,10)                 1.3476         estimate D2E/DX2                !
 ! R21   R(9,26)                 1.0077         estimate D2E/DX2                !
 ! R22   R(10,11)                1.2832         estimate D2E/DX2                !
 ! R23   R(10,12)                1.6992         estimate D2E/DX2                !
 ! R24   R(10,27)                1.3139         estimate D2E/DX2                !
 ! R25   R(11,12)                1.5389         estimate D2E/DX2                !
 ! R26   R(11,28)                1.2165         estimate D2E/DX2                !
 ! R27   R(12,13)                1.3325         estimate D2E/DX2                !
 ! R28   R(14,27)                1.569          estimate D2E/DX2                !
 ! R29   R(15,16)                1.8206         estimate D2E/DX2                !
 ! R30   R(15,17)                1.3792         estimate D2E/DX2                !
 ! R31   R(16,17)                1.3583         estimate D2E/DX2                !
 ! R32   R(16,29)                1.2395         estimate D2E/DX2                !
 ! R33   R(16,30)                0.6075         estimate D2E/DX2                !
 ! R34   R(23,29)                1.8362         estimate D2E/DX2                !
 ! A1    A(2,1,18)             114.3129         estimate D2E/DX2                !
 ! A2    A(2,1,19)             111.6549         estimate D2E/DX2                !
 ! A3    A(2,1,20)             112.5542         estimate D2E/DX2                !
 ! A4    A(18,1,19)            104.582          estimate D2E/DX2                !
 ! A5    A(18,1,20)            104.4882         estimate D2E/DX2                !
 ! A6    A(19,1,20)            108.6637         estimate D2E/DX2                !
 ! A7    A(1,2,3)              134.2643         estimate D2E/DX2                !
 ! A8    A(1,2,21)             108.2772         estimate D2E/DX2                !
 ! A9    A(3,2,21)             117.3431         estimate D2E/DX2                !
 ! A10   A(2,3,4)              128.4752         estimate D2E/DX2                !
 ! A11   A(2,3,22)              88.871          estimate D2E/DX2                !
 ! A12   A(4,3,22)             142.3843         estimate D2E/DX2                !
 ! A13   A(3,4,23)              77.5889         estimate D2E/DX2                !
 ! A14   A(6,5,15)             103.2272         estimate D2E/DX2                !
 ! A15   A(6,5,16)             124.267          estimate D2E/DX2                !
 ! A16   A(5,6,7)              121.6727         estimate D2E/DX2                !
 ! A17   A(7,6,17)             117.5909         estimate D2E/DX2                !
 ! A18   A(6,7,8)              122.2544         estimate D2E/DX2                !
 ! A19   A(6,7,24)             123.8563         estimate D2E/DX2                !
 ! A20   A(8,7,24)             113.7203         estimate D2E/DX2                !
 ! A21   A(7,8,9)              140.5404         estimate D2E/DX2                !
 ! A22   A(7,8,25)             115.2436         estimate D2E/DX2                !
 ! A23   A(9,8,25)             102.3984         estimate D2E/DX2                !
 ! A24   A(8,9,10)             103.1529         estimate D2E/DX2                !
 ! A25   A(8,9,26)             117.6901         estimate D2E/DX2                !
 ! A26   A(10,9,26)            138.3135         estimate D2E/DX2                !
 ! A27   A(9,10,11)            108.0362         estimate D2E/DX2                !
 ! A28   A(9,10,12)            151.5757         estimate D2E/DX2                !
 ! A29   A(9,10,27)            110.4229         estimate D2E/DX2                !
 ! A30   A(11,10,27)           141.516          estimate D2E/DX2                !
 ! A31   A(12,10,27)            85.6216         estimate D2E/DX2                !
 ! A32   A(10,11,28)           127.0333         estimate D2E/DX2                !
 ! A33   A(12,11,28)           159.3561         estimate D2E/DX2                !
 ! A34   A(10,12,13)           139.1369         estimate D2E/DX2                !
 ! A35   A(11,12,13)            96.678          estimate D2E/DX2                !
 ! A36   A(5,16,29)             83.6767         estimate D2E/DX2                !
 ! A37   A(5,16,30)             99.605          estimate D2E/DX2                !
 ! A38   A(15,16,29)           142.8476         estimate D2E/DX2                !
 ! A39   A(15,16,30)            47.3417         estimate D2E/DX2                !
 ! A40   A(17,16,29)           112.3123         estimate D2E/DX2                !
 ! A41   A(17,16,30)            94.521          estimate D2E/DX2                !
 ! A42   A(29,16,30)           143.865          estimate D2E/DX2                !
 ! A43   A(6,17,15)            108.3291         estimate D2E/DX2                !
 ! A44   A(6,17,16)            130.8776         estimate D2E/DX2                !
 ! A45   A(4,23,29)             81.2964         estimate D2E/DX2                !
 ! A46   A(10,27,14)            98.7226         estimate D2E/DX2                !
 ! A47   A(16,29,23)           147.3027         estimate D2E/DX2                !
 ! D1    D(18,1,2,3)          -177.4837         estimate D2E/DX2                !
 ! D2    D(18,1,2,21)           -1.6395         estimate D2E/DX2                !
 ! D3    D(19,1,2,3)            64.0514         estimate D2E/DX2                !
 ! D4    D(19,1,2,21)         -120.1045         estimate D2E/DX2                !
 ! D5    D(20,1,2,3)           -58.4777         estimate D2E/DX2                !
 ! D6    D(20,1,2,21)          117.3664         estimate D2E/DX2                !
 ! D7    D(1,2,3,4)            172.6893         estimate D2E/DX2                !
 ! D8    D(1,2,3,22)            -2.409          estimate D2E/DX2                !
 ! D9    D(21,2,3,4)            -2.8675         estimate D2E/DX2                !
 ! D10   D(21,2,3,22)         -177.9659         estimate D2E/DX2                !
 ! D11   D(2,3,4,23)             8.5119         estimate D2E/DX2                !
 ! D12   D(22,3,4,23)         -179.5339         estimate D2E/DX2                !
 ! D13   D(3,4,23,29)          174.7074         estimate D2E/DX2                !
 ! D14   D(15,5,6,7)           -57.6538         estimate D2E/DX2                !
 ! D15   D(16,5,6,7)          -121.4926         estimate D2E/DX2                !
 ! D16   D(6,5,16,29)         -102.5203         estimate D2E/DX2                !
 ! D17   D(6,5,16,30)          113.8334         estimate D2E/DX2                !
 ! D18   D(5,6,7,8)             46.4684         estimate D2E/DX2                !
 ! D19   D(5,6,7,24)          -138.5566         estimate D2E/DX2                !
 ! D20   D(17,6,7,8)           -11.4605         estimate D2E/DX2                !
 ! D21   D(17,6,7,24)          163.5145         estimate D2E/DX2                !
 ! D22   D(7,6,17,15)           42.2396         estimate D2E/DX2                !
 ! D23   D(7,6,17,16)          139.4675         estimate D2E/DX2                !
 ! D24   D(6,7,8,9)            170.6241         estimate D2E/DX2                !
 ! D25   D(6,7,8,25)             9.4862         estimate D2E/DX2                !
 ! D26   D(24,7,8,9)            -4.8189         estimate D2E/DX2                !
 ! D27   D(24,7,8,25)         -165.9567         estimate D2E/DX2                !
 ! D28   D(7,8,9,10)           170.9675         estimate D2E/DX2                !
 ! D29   D(7,8,9,26)            -0.4257         estimate D2E/DX2                !
 ! D30   D(25,8,9,10)          -26.4542         estimate D2E/DX2                !
 ! D31   D(25,8,9,26)          162.1526         estimate D2E/DX2                !
 ! D32   D(8,9,10,11)          162.6525         estimate D2E/DX2                !
 ! D33   D(8,9,10,12)          102.3589         estimate D2E/DX2                !
 ! D34   D(8,9,10,27)          -18.7595         estimate D2E/DX2                !
 ! D35   D(26,9,10,11)         -28.8407         estimate D2E/DX2                !
 ! D36   D(26,9,10,12)         -89.1344         estimate D2E/DX2                !
 ! D37   D(26,9,10,27)         149.7473         estimate D2E/DX2                !
 ! D38   D(9,10,11,28)          25.2084         estimate D2E/DX2                !
 ! D39   D(27,10,11,28)       -152.665          estimate D2E/DX2                !
 ! D40   D(9,10,12,13)         103.1451         estimate D2E/DX2                !
 ! D41   D(27,10,12,13)       -130.4302         estimate D2E/DX2                !
 ! D42   D(9,10,27,14)         109.3718         estimate D2E/DX2                !
 ! D43   D(11,10,27,14)        -72.786          estimate D2E/DX2                !
 ! D44   D(12,10,27,14)        -46.5054         estimate D2E/DX2                !
 ! D45   D(28,11,12,13)         27.2149         estimate D2E/DX2                !
 ! D46   D(5,15,16,17)          56.3099         estimate D2E/DX2                !
 ! D47   D(29,16,17,6)          33.2422         estimate D2E/DX2                !
 ! D48   D(30,16,17,6)        -122.011          estimate D2E/DX2                !
 ! D49   D(5,16,29,23)          39.9102         estimate D2E/DX2                !
 ! D50   D(15,16,29,23)         53.0136         estimate D2E/DX2                !
 ! D51   D(17,16,29,23)          2.5942         estimate D2E/DX2                !
 ! D52   D(30,16,29,23)        137.5484         estimate D2E/DX2                !
 ! D53   D(4,23,29,16)         -27.643          estimate D2E/DX2                !
 --------------------------------------------------------------------------------
 Trust Radius=3.00D-01 FncErr=1.00D-07 GrdErr=1.00D-06 EigMax=2.50D+02 EigMin=1.00D-04
 Number of steps in this run=    144 maximum allowed number of steps=    180.
 GradGradGradGradGradGradGradGradGradGradGradGradGradGradGradGradGradGrad

                          Input orientation:                          
 ---------------------------------------------------------------------
 Center     Atomic      Atomic             Coordinates (Angstroms)
 Number     Number       Type             X           Y           Z
 ---------------------------------------------------------------------
      1          6           0        1.138770    0.030080    0.100930
      2          7           0        2.686620   -0.017750    0.178780
      3          6           0        3.809340   -0.930150    1.094040
      4          6           0        5.455290   -0.981980    0.947320
      5          6           0        7.352880   -1.699960    1.263690
      6          6           0        6.881830   -1.889420    2.482480
      7          6           0        7.324640   -2.836110    3.241000
      8          6           0        8.612950   -3.070070    3.394770
      9          6           0        9.398520   -3.755790    4.098980
     10          6           0       10.588150   -3.580450    3.490570
     11          6           0       11.510020   -3.926070    4.313500
     12          6           0       12.123120   -2.858630    3.389910
     13          8           0       13.398530   -3.166060    3.623050
     14          8           0       10.935720   -1.680190    2.450540
     15          6           0        9.119300   -1.449630    1.537890
     16          6           0        8.103740   -0.189110    0.704650
     17          6           0        7.977830   -0.777690    1.922350
     18          1           0        0.734100    0.746990   -0.671860
     19          1           0        0.696730    0.364520    1.045550
     20          1           0        0.700950   -0.938900   -0.167820
     21          1           0        3.063680    0.615720   -0.532080
     22          1           0        2.917490   -1.436770    1.640180
     23          1           0        5.180840   -0.149680    0.264730
     24          1           0        6.733060   -3.414890    3.824400
     25          1           0        9.223200   -2.376150    3.004950
     26          1           0        8.996050   -4.347610    4.808350
     27          1           0       10.415430   -3.148380    2.261840
     28          1           0       11.409650   -4.708020    5.239920
     29          1           0        7.008260   -0.009250    0.153390
     30          1           0        8.671690   -0.385240    0.615160
 ---------------------------------------------------------------------
                    Distance matrix (angstroms):
                    1          2          3          4          5
     1  C    0.000000
     2  N    1.550544   0.000000
     3  C    3.006701   1.711921   0.000000
     4  C    4.513644   3.030829   1.653289   0.000000
     5  C    6.554404   5.077484   3.630160   2.053395   0.000000
     6  C    6.506842   5.139063   3.505447   2.283677   1.320315
     7  C    7.506002   6.231499   4.538662   3.491881   2.280655
     8  C    8.736342   7.401394   5.739973   4.507876   2.829572
     9  C    9.926766   8.624993   6.946426   5.759865   4.055854
    10  C   10.668475   9.278737   7.662879   6.290184   4.354562
    11  C   11.872645  10.498727   8.867972   7.527190   5.615934
    12  C   11.824465  10.364820   8.837929   7.344931   5.349628
    13  O   13.149995  11.684172  10.166010   8.661686   6.653263
    14  O   10.218900   8.716206   7.293007   5.725581   3.774354
    15  C    8.242770   6.728806   5.353741   3.740647   1.805018
    16  C    6.994521   5.445282   4.375230   2.775215   1.777353
    17  C    7.123398   5.622673   4.252723   2.712126   1.294209
    18  H    1.129125   2.262907   3.922793   5.282113   7.317251
    19  H    1.095243   2.203879   3.371478   4.946373   6.972374
    20  H    1.096738   2.216198   3.354766   4.883558   6.846649
    21  H    2.109254   1.024100   2.364316   3.234357   5.194651
    22  H    2.772144   2.050027   1.162037   2.669704   4.459114
    23  H    4.049379   2.499185   1.782667   1.110844   2.849394
    24  H    7.551697   6.419095   4.709240   3.978610   3.143628
    25  H    8.920834   7.501744   5.920504   4.513834   2.643353
    26  H   10.151888   8.943686   7.237202   6.226717   4.719605
    27  H   10.041343   8.595027   7.065743   5.569941   3.531775
    28  H   12.423759  11.122276   9.445916   8.231901   6.427769
    29  H    5.869856   4.321723   3.459186   1.997059   2.051836
    30  H    7.561865   6.012199   4.916167   3.288109   1.971887
                    6          7          8          9         10
     6  C    0.000000
     7  C    1.291377   0.000000
     8  C    2.285385   1.318380   0.000000
     9  C    3.525640   2.425473   1.258270   0.000000
    10  C    4.196741   3.356609   2.042322   1.347637   0.000000
    11  C    5.377799   4.455971   3.157501   2.129189   1.283165
    12  C    5.406840   4.800843   3.516536   2.954847   1.699203
    13  O    6.737810   6.094831   4.791983   4.071163   2.843854
    14  O    4.059411   3.873097   2.866810   3.064058   2.193959
    15  C    2.468185   2.836144   2.515993   3.457675   3.242048
    16  C    2.746780   3.747890   3.974415   5.091084   5.043296
    17  C    1.658585   2.530334   2.797571   3.952867   4.138665
    18  H    7.395614   8.460750   9.653171  10.867756  11.539275
    19  H    6.737987   7.680705   8.943253  10.100571  10.926166
    20  H    6.791970   7.687180   8.934969  10.089013  10.868226
    21  H    5.471889   6.656354   7.733020   8.982595   9.508270
    22  H    4.078033   4.893235   6.179362   7.309398   8.176694
    23  H    3.292184   4.546534   5.486821   6.744948   7.170441
    24  H    2.037140   1.012575   1.958946   2.701163   3.873057
    25  H    2.447835   1.967692   1.002941   1.769476   1.883946
    26  H    3.990275   2.744964   1.943472   1.007690   2.204509
    27  H    3.757658   3.257184   2.130398   2.185895   1.313885
    28  H    6.004093   4.918032   3.729476   2.500626   2.237521
    29  H    2.995945   4.198163   4.738164   5.942860   6.058535
    30  H    2.992163   3.836189   3.864970   4.901621   4.706397
                   11         12         13         14         15
    11  C    0.000000
    12  C    1.538941   0.000000
    13  O    2.149606   1.332493   0.000000
    14  O    2.973957   1.918608   3.106127   0.000000
    15  C    4.421799   3.799762   5.060221   2.045842   0.000000
    16  C    6.212199   5.521990   6.738998   3.645759   1.820594
    17  C    5.301534   4.864923   6.162847   3.137292   1.379227
    18  H   12.759771  12.617775  13.933628  10.941373   8.945374
    19  H   12.083704  12.101533  13.432953  10.535262   8.629787
    20  H   12.076482  12.116467  13.437242  10.590365   8.604586
    21  H   10.744681  10.465494  11.763337   8.725608   6.724655
    22  H    9.336746   9.477704  10.806221   8.062751   6.202667
    23  H    8.409053   8.080867   9.375889   6.343412   4.338464
    24  H    4.829065   5.436079   6.673151   4.749634   3.845064
    25  H    3.056812   2.964881   4.294111   1.929885   1.738246
    26  H    2.596655   3.742673   4.709865   4.054222   4.371429
    27  H    2.451986   2.067052   3.279038   1.569042   2.256060
    28  H    1.216460   2.711424   2.991246   4.144032   5.437631
    29  H    7.274190   6.689979   7.927139   4.847049   2.906549
    30  H    5.854171   5.072402   6.254868   3.189255   1.478077
                   16         17         18         19         20
    16  C    0.000000
    17  C    1.358335   0.000000
    18  H    7.555307   7.843864   0.000000
    19  H    7.435490   7.422118   1.759880   0.000000
    20  H    7.491641   7.572832   1.759938   1.780783   0.000000
    21  H    5.251615   5.666982   2.337459   2.855603   2.851670
    22  H    5.415631   5.110875   3.857658   2.920617   2.903410
    23  H    2.956083   3.311382   4.631923   4.580538   4.569396
    24  H    4.692255   3.481676   8.574679   7.644817   7.645567
    25  H    3.365667   2.297399   9.764105   9.167945   9.206568
    26  H    5.910135   4.702137  11.146635  10.258730  10.256230
    27  H    4.065222   3.417209  10.840141  10.405429  10.254568
    28  H    7.205433   6.183135  13.366886  12.573387  12.574823
    29  H    1.239481   2.158654   6.373227   6.385222   6.383540
    30  H    0.607489   1.531079   8.120573   8.021681   8.028219
                   21         22         23         24         25
    21  H    0.000000
    22  H    2.992123   0.000000
    23  H    2.388118   2.944693   0.000000
    24  H    6.977756   4.821032   5.073680   0.000000
    25  H    7.707240   6.519740   5.367183   2.819801   0.000000
    26  H    9.399354   7.447092   7.267938   2.638039   2.681511
    27  H    8.719098   7.715904   6.354650   4.009049   1.603111
    28  H   11.459206   9.786521   9.183085   5.054342   3.900419
    29  H    4.052181   4.580694   1.836187   5.015021   4.317357
    30  H    5.811012   5.938619   3.516294   4.820403   3.158953
                   26         27         28         29         30
    26  H    0.000000
    27  H    3.152381   0.000000
    28  H    2.478228   3.505697   0.000000
    29  H    6.666433   5.090040   8.205088   0.000000
    30  H    5.778272   3.658842   6.897192   1.766805   0.000000
 Stoichiometry    C14H13NO2
 Framework group  C1[X(C14H13NO2)]
 Deg. of freedom    84
 Full point group                 C1      NOp   1
 Largest Abelian subgroup         C1      NOp   1
 Largest concise Abelian subgroup C1      NOp   1
                         Standard orientation:                         
 ---------------------------------------------------------------------
 Center     Atomic      Atomic             Coordinates (Angstroms)
 Number     Number       Type             X           Y           Z
 ---------------------------------------------------------------------
      1          6           0       -7.298479    0.450860   -0.023359
      2          7           0       -5.871470   -0.155089    0.002303
      3          6           0       -4.292454    0.506234    0.008307
      4          6           0       -2.849699   -0.277575    0.201866
      5          6           0       -0.830236   -0.452415    0.529941
      6          6           0       -0.797341    0.624450   -0.233285
      7          6           0        0.131400    1.513471   -0.111884
      8          6           0        1.406456    1.190987   -0.020443
      9          6           0        2.546338    1.723743   -0.029555
     10          6           0        3.361118    0.710781    0.325646
     11          6           0        4.559899    1.032260   -0.000062
     12          6           0        4.487328   -0.504070   -0.052611
     13          8           0        5.798799   -0.724130    0.031969
     14          8           0        2.762642   -1.326270   -0.227259
     15          6           0        0.767352   -1.231104    0.214591
     16          6           0       -0.793278   -2.118481   -0.087992
     17          6           0       -0.331661   -0.932790   -0.563513
     18          1           0       -8.128755   -0.312789    0.025663
     19          1           0       -7.486358    1.003346   -0.950191
     20          1           0       -7.487933    1.117128    0.826953
     21          1           0       -5.955869   -1.172019    0.088973
     22          1           0       -4.761302    1.567064   -0.063458
     23          1           0       -3.568420   -1.119593    0.110097
     24          1           0       -0.034513    2.511588   -0.151167
     25          1           0        1.617802    0.227129   -0.199886
     26          1           0        2.594981    2.723643   -0.144757
     27          1           0        2.675218   -0.246683    0.907968
     28          1           0        5.007256    2.155887   -0.130861
     29          1           0       -2.009154   -2.088412    0.150869
     30          1           0       -0.254658   -2.295563    0.130120
 ---------------------------------------------------------------------
 Rotational constants (GHZ):           1.7759045           0.1595077           0.1475467
 Standard basis: 6-31G(2df,p) (6D, 7F)
 There are   592 symmetry adapted cartesian basis functions of A   symmetry.
 There are   541 symmetry adapted basis functions of A   symmetry.
   541 basis functions,   839 primitive gaussians,   592 cartesian basis functions
    60 alpha electrons       60 beta electrons
       nuclear repulsion energy      1051.5979895590 Hartrees.
 NAtoms=   30 NActive=   30 NUniq=   30 SFac= 1.00D+00 NAtFMM=   60 NAOKFM=F Big=F
 Integral buffers will be    131072 words long.
 Raffenetti 2 integral format.
 Two-electron integral symmetry is turned on.
 One-electron integrals computed using PRISM.
 PrsmSu:  requested number of processors reduced to:  12 ShMem   1 Linda.
 NBasis=   541 RedAO= T EigKep=  1.76D-04  NBF=   541
 NBsUse=   541 1.00D-06 EigRej= -1.00D+00 NBFU=   541
 ExpMin= 1.61D-01 ExpMax= 5.48D+03 ExpMxC= 8.25D+02 IAcc=3 IRadAn=         5 AccDes= 0.00D+00
 Harris functional with IExCor=  402 and IRadAn=       5 diagonalized for initial guess.
 HarFok:  IExCor=  402 AccDes= 0.00D+00 IRadAn=         5 IDoV= 1 UseB2=F ITyADJ=14
 ICtDFT=  3500011 ScaDFX=  1.000000  1.000000  1.000000  1.000000
 FoFCou: FMM=F IPFlag=           0 FMFlag=      100000 FMFlg1=           0
         NFxFlg=           0 DoJE=T BraDBF=F KetDBF=T FulRan=T
         wScrn=  0.000000 ICntrl=       500 IOpCl=  0 I1Cent=   200000004 NGrid=           0
         NMat0=    1 NMatS0=      1 NMatT0=    0 NMatD0=    1 NMtDS0=    0 NMtDT0=    0
 Petite list used in FoFCou.
 Requested convergence on RMS density matrix=1.00D-08 within 128 cycles.
 Requested convergence on MAX density matrix=1.00D-06.
 Requested convergence on             energy=1.00D-06.
 No special actions if energy rises.
 Integral accuracy reduced to 1.0D-05 until final iterations.
 EnCoef did     6 forward-backward iterations
 EnCoef did     3 forward-backward iterations
 EnCoef did     4 forward-backward iterations
 EnCoef did     4 forward-backward iterations
 EnCoef did     2 forward-backward iterations
 EnCoef did     3 forward-backward iterations
 Initial convergence to 1.0D-05 achieved.  Increase integral accuracy.
 SCF Done:  E(RB3LYP) =  -744.515262560     A.U. after   33 cycles
            NFock= 33  Conv=0.10D-07     -V/T= 2.0022

 **********************************************************************

            Population analysis using the SCF density.

 **********************************************************************

 Orbital symmetries:
       Occupied  (A) (A) (A) (A) (A) (A) (A) (A) (A) (A) (A) (A)
                 (A) (A) (A) (A) (A) (A) (A) (A) (A) (A) (A) (A)
                 (A) (A) (A) (A) (A) (A) (A) (A) (A) (A) (A) (A)
                 (A) (A) (A) (A) (A) (A) (A) (A) (A) (A) (A) (A)
                 (A) (A) (A) (A) (A) (A) (A) (A) (A) (A) (A) (A)
       Virtual   (A) (A) (A) (A) (A) (A) (A) (A) (A) (A) (A) (A)
                 (A) (A) (A) (A) (A) (A) (A) (A) (A) (A) (A) (A)
                 (A) (A) (A) (A) (A) (A) (A) (A) (A) (A) (A) (A)
                 (A) (A) (A) (A) (A) (A) (A) (A) (A) (A) (A) (A)
                 (A) (A) (A) (A) (A) (A) (A) (A) (A) (A) (A) (A)
                 (A) (A) (A) (A) (A) (A) (A) (A) (A) (A) (A) (A)
                 (A) (A) (A) (A) (A) (A) (A) (A) (A) (A) (A) (A)
                 (A) (A) (A) (A) (A) (A) (A) (A) (A) (A) (A) (A)
                 (A) (A) (A) (A) (A) (A) (A) (A) (A) (A) (A) (A)
                 (A) (A) (A) (A) (A) (A) (A) (A) (A) (A) (A) (A)
                 (A) (A) (A) (A) (A) (A) (A) (A) (A) (A) (A) (A)
                 (A) (A) (A) (A) (A) (A) (A) (A) (A) (A) (A) (A)
                 (A) (A) (A) (A) (A) (A) (A) (A) (A) (A) (A) (A)
                 (A) (A) (A) (A) (A) (A) (A) (A) (A) (A) (A) (A)
                 (A) (A) (A) (A) (A) (A) (A) (A) (A) (A) (A) (A)
                 (A) (A) (A) (A) (A) (A) (A) (A) (A) (A) (A) (A)
                 (A) (A) (A) (A) (A) (A) (A) (A) (A) (A) (A) (A)
                 (A) (A) (A) (A) (A) (A) (A) (A) (A) (A) (A) (A)
                 (A) (A) (A) (A) (A) (A) (A) (A) (A) (A) (A) (A)
                 (A) (A) (A) (A) (A) (A) (A) (A) (A) (A) (A) (A)
                 (A) (A) (A) (A) (A) (A) (A) (A) (A) (A) (A) (A)
                 (A) (A) (A) (A) (A) (A) (A) (A) (A) (A) (A) (A)
                 (A) (A) (A) (A) (A) (A) (A) (A) (A) (A) (A) (A)
                 (A) (A) (A) (A) (A) (A) (A) (A) (A) (A) (A) (A)
                 (A) (A) (A) (A) (A) (A) (A) (A) (A) (A) (A) (A)
                 (A) (A) (A) (A) (A) (A) (A) (A) (A) (A) (A) (A)
                 (A) (A) (A) (A) (A) (A) (A) (A) (A) (A) (A) (A)
                 (A) (A) (A) (A) (A) (A) (A) (A) (A) (A) (A) (A)
                 (A) (A) (A) (A) (A) (A) (A) (A) (A) (A) (A) (A)
                 (A) (A) (A) (A) (A) (A) (A) (A) (A) (A) (A) (A)
                 (A) (A) (A) (A) (A) (A) (A) (A) (A) (A) (A) (A)
                 (A) (A) (A) (A) (A) (A) (A) (A) (A) (A) (A) (A)
                 (A) (A) (A) (A) (A) (A) (A) (A) (A) (A) (A) (A)
                 (A) (A) (A) (A) (A) (A) (A) (A) (A) (A) (A) (A)
                 (A) (A) (A) (A) (A) (A) (A) (A) (A) (A) (A) (A)
                 (A) (A) (A) (A) (A) (A) (A) (A) (A) (A) (A) (A)
                 (A) (A) (A) (A) (A) (A) (A) (A) (A) (A) (A) (A)
                 (A) (A) (A) (A) (A) (A) (A) (A) (A) (A) (A) (A)
                 (A) (A) (A) (A) (A) (A) (A) (A) (A) (A) (A) (A)
                 (A) (A) (A) (A) (A) (A) (A) (A) (A) (A) (A) (A)
                 (A)
 The electronic state is 1-A.
 Alpha  occ. eigenvalues --  -19.17191 -19.13183 -14.37033 -10.33992 -10.29132
 Alpha  occ. eigenvalues --  -10.26331 -10.26287 -10.24756 -10.24265 -10.23296
 Alpha  occ. eigenvalues --  -10.22893 -10.22275 -10.21948 -10.21091 -10.19553
 Alpha  occ. eigenvalues --  -10.19516 -10.17478  -1.05632  -1.02437  -0.93792
 Alpha  occ. eigenvalues --   -0.89347  -0.86730  -0.85847  -0.84055  -0.76918
 Alpha  occ. eigenvalues --   -0.72056  -0.67748  -0.65915  -0.64152  -0.62144
 Alpha  occ. eigenvalues --   -0.58490  -0.57467  -0.56601  -0.52280  -0.50595
 Alpha  occ. eigenvalues --   -0.48645  -0.47394  -0.46598  -0.46215  -0.44613
 Alpha  occ. eigenvalues --   -0.43936  -0.43136  -0.42856  -0.41816  -0.40171
 Alpha  occ. eigenvalues --   -0.39928  -0.37548  -0.35707  -0.34738  -0.32756
 Alpha  occ. eigenvalues --   -0.31979  -0.30191  -0.28308  -0.26301  -0.24221
 Alpha  occ. eigenvalues --   -0.23138  -0.22036  -0.19687  -0.18700  -0.18101
 Alpha virt. eigenvalues --   -0.14809  -0.12312  -0.08036  -0.05897  -0.03771
 Alpha virt. eigenvalues --   -0.01779  -0.01280   0.00474   0.01038   0.02475
 Alpha virt. eigenvalues --    0.05304   0.06264   0.08732   0.09266   0.10225
 Alpha virt. eigenvalues --    0.12429   0.12717   0.13449   0.14421   0.15838
 Alpha virt. eigenvalues --    0.15851   0.16498   0.18204   0.18812   0.20939
 Alpha virt. eigenvalues --    0.24044   0.24778   0.25529   0.27650   0.27862
 Alpha virt. eigenvalues --    0.28952   0.29100   0.32237   0.33178   0.35197
 Alpha virt. eigenvalues --    0.37237   0.39395   0.40315   0.40972   0.41457
 Alpha virt. eigenvalues --    0.42106   0.43571   0.44664   0.45789   0.47127
 Alpha virt. eigenvalues --    0.48144   0.48493   0.49204   0.49671   0.51089
 Alpha virt. eigenvalues --    0.52644   0.53104   0.54192   0.55004   0.55288
 Alpha virt. eigenvalues --    0.56092   0.56380   0.56791   0.57179   0.57686
 Alpha virt. eigenvalues --    0.58870   0.60316   0.61160   0.62697   0.63188
 Alpha virt. eigenvalues --    0.63951   0.64410   0.64534   0.65009   0.65668
 Alpha virt. eigenvalues --    0.67252   0.67621   0.68351   0.68715   0.69595
 Alpha virt. eigenvalues --    0.71072   0.71313   0.71577   0.72810   0.73070
 Alpha virt. eigenvalues --    0.73878   0.75190   0.75613   0.76333   0.76665
 Alpha virt. eigenvalues --    0.77523   0.77723   0.79208   0.80160   0.81210
 Alpha virt. eigenvalues --    0.81725   0.82754   0.82954   0.84152   0.84711
 Alpha virt. eigenvalues --    0.86920   0.87539   0.88061   0.88870   0.89893
 Alpha virt. eigenvalues --    0.90536   0.92162   0.92742   0.93381   0.94150
 Alpha virt. eigenvalues --    0.94539   0.95209   0.95966   0.96407   0.97384
 Alpha virt. eigenvalues --    0.98579   0.99639   1.00417   1.01558   1.02134
 Alpha virt. eigenvalues --    1.03562   1.04730   1.05015   1.06035   1.07464
 Alpha virt. eigenvalues --    1.09832   1.11267   1.12237   1.13540   1.13987
 Alpha virt. eigenvalues --    1.15043   1.16445   1.18259   1.19336   1.20345
 Alpha virt. eigenvalues --    1.21820   1.22293   1.22786   1.23706   1.24800
 Alpha virt. eigenvalues --    1.25802   1.26930   1.28209   1.29190   1.30201
 Alpha virt. eigenvalues --    1.31777   1.33319   1.34620   1.35658   1.36353
 Alpha virt. eigenvalues --    1.36728   1.38211   1.39311   1.40107   1.41925
 Alpha virt. eigenvalues --    1.42483   1.44264   1.46966   1.47382   1.48120
 Alpha virt. eigenvalues --    1.48861   1.50614   1.51856   1.52325   1.53188
 Alpha virt. eigenvalues --    1.53872   1.56173   1.56708   1.58380   1.58623
 Alpha virt. eigenvalues --    1.59086   1.59986   1.61239   1.63742   1.65318
 Alpha virt. eigenvalues --    1.66312   1.67647   1.70348   1.70860   1.72208
 Alpha virt. eigenvalues --    1.72745   1.73298   1.73934   1.75857   1.77076
 Alpha virt. eigenvalues --    1.78889   1.80177   1.81907   1.83846   1.84864
 Alpha virt. eigenvalues --    1.86933   1.87868   1.92234   1.93163   1.95036
 Alpha virt. eigenvalues --    1.96502   1.97549   1.99024   2.00711   2.01680
 Alpha virt. eigenvalues --    2.04733   2.05307   2.07225   2.09805   2.10804
 Alpha virt. eigenvalues --    2.12045   2.14470   2.15862   2.17715   2.19533
 Alpha virt. eigenvalues --    2.20268   2.21996   2.24780   2.25620   2.28306
 Alpha virt. eigenvalues --    2.31766   2.33388   2.35785   2.37056   2.37963
 Alpha virt. eigenvalues --    2.41362   2.42837   2.43715   2.44241   2.45425
 Alpha virt. eigenvalues --    2.46694   2.51441   2.52912   2.54616   2.55838
 Alpha virt. eigenvalues --    2.57123   2.58078   2.60140   2.62271   2.62756
 Alpha virt. eigenvalues --    2.65224   2.66598   2.67917   2.70443   2.71305
 Alpha virt. eigenvalues --    2.73018   2.74566   2.75274   2.79109   2.80078
 Alpha virt. eigenvalues --    2.81199   2.82121   2.82805   2.84338   2.86105
 Alpha virt. eigenvalues --    2.86450   2.88158   2.89332   2.90238   2.90956
 Alpha virt. eigenvalues --    2.91742   2.93898   2.94903   2.95317   2.95817
 Alpha virt. eigenvalues --    2.96756   2.98195   2.99161   3.00160   3.01911
 Alpha virt. eigenvalues --    3.02569   3.03618   3.04077   3.07224   3.07554
 Alpha virt. eigenvalues --    3.08345   3.08417   3.11103   3.12099   3.12571
 Alpha virt. eigenvalues --    3.14119   3.15034   3.16180   3.18410   3.18739
 Alpha virt. eigenvalues --    3.20688   3.22330   3.23901   3.25603   3.25780
 Alpha virt. eigenvalues --    3.27379   3.27955   3.29699   3.31072   3.31894
 Alpha virt. eigenvalues --    3.32462   3.32739   3.35118   3.36437   3.37563
 Alpha virt. eigenvalues --    3.38978   3.39309   3.39527   3.41043   3.43473
 Alpha virt. eigenvalues --    3.44333   3.44905   3.46129   3.47765   3.50030
 Alpha virt. eigenvalues --    3.50617   3.54265   3.54479   3.56264   3.56399
 Alpha virt. eigenvalues --    3.58317   3.58442   3.60529   3.61855   3.63344
 Alpha virt. eigenvalues --    3.67245   3.68157   3.70485   3.71377   3.73210
 Alpha virt. eigenvalues --    3.73771   3.75317   3.76751   3.78407   3.80789
 Alpha virt. eigenvalues --    3.82320   3.84279   3.85354   3.87594   3.89079
 Alpha virt. eigenvalues --    3.92266   3.94819   3.95965   3.97386   3.99743
 Alpha virt. eigenvalues --    4.00431   4.02660   4.03864   4.05216   4.06776
 Alpha virt. eigenvalues --    4.07731   4.08697   4.10443   4.12215   4.12968
 Alpha virt. eigenvalues --    4.14527   4.15299   4.16068   4.17162   4.18688
 Alpha virt. eigenvalues --    4.19345   4.20930   4.22189   4.25625   4.27045
 Alpha virt. eigenvalues --    4.27630   4.28952   4.31395   4.32558   4.32687
 Alpha virt. eigenvalues --    4.33428   4.35051   4.35629   4.36102   4.37515
 Alpha virt. eigenvalues --    4.38907   4.40042   4.40929   4.42893   4.43565
 Alpha virt. eigenvalues --    4.44254   4.44827   4.45416   4.46090   4.46909
 Alpha virt. eigenvalues --    4.49113   4.49775   4.50521   4.53099   4.53818
 Alpha virt. eigenvalues --    4.55686   4.55836   4.56615   4.58488   4.59588
 Alpha virt. eigenvalues --    4.61946   4.62320   4.63094   4.63779   4.64868
 Alpha virt. eigenvalues --    4.66102   4.66515   4.67716   4.68238   4.70872
 Alpha virt. eigenvalues --    4.72065   4.72994   4.73978   4.75708   4.77757
 Alpha virt. eigenvalues --    4.78105   4.79833   4.81985   4.82983   4.84941
 Alpha virt. eigenvalues --    4.85045   4.85896   4.87660   4.90046   4.91844
 Alpha virt. eigenvalues --    4.92317   4.94377   4.96515   4.97803   4.99965
 Alpha virt. eigenvalues --    5.01537   5.03527   5.05528   5.06393   5.06817
 Alpha virt. eigenvalues --    5.09587   5.11412   5.11652   5.12851   5.15445
 Alpha virt. eigenvalues --    5.16483   5.17151   5.18586   5.20825   5.23477
 Alpha virt. eigenvalues --    5.23707   5.24711   5.26296   5.27945   5.29141
 Alpha virt. eigenvalues --    5.32666   5.33639   5.36327   5.37416   5.39871
 Alpha virt. eigenvalues --    5.39971   5.41097   5.45013   5.48120   5.49173
 Alpha virt. eigenvalues --    5.54573   5.58307   5.61807   5.65721   5.66701
 Alpha virt. eigenvalues --    5.68064   5.71830   5.77000   5.81167   5.84807
 Alpha virt. eigenvalues --    5.86372   5.89664   5.97051   6.07379   6.09505
 Alpha virt. eigenvalues --    6.19180   6.30467   6.37013   6.72306   6.84680
 Alpha virt. eigenvalues --    7.01326   7.44754   8.03711   8.92266  10.13665
 Alpha virt. eigenvalues --   10.28498  10.46964  10.88165  11.04005  11.17234
 Alpha virt. eigenvalues --   11.34411  11.44441  11.61895  11.90283  12.05895
 Alpha virt. eigenvalues --   12.12825  12.51443  12.80025  13.00457  13.07693
 Alpha virt. eigenvalues --   13.31767
          Condensed to atoms (all electrons):
               1          2          3          4          5          6
     1  C    4.934807   0.324405  -0.019137   0.000395   0.000001   0.000000
     2  N    0.324405   6.511982   0.304888  -0.005639  -0.000033   0.000000
     3  C   -0.019137   0.304888   5.230395   0.298418   0.000348   0.007678
     4  C    0.000395  -0.005639   0.298418   5.878591  -0.031054  -0.011868
     5  C    0.000001  -0.000033   0.000348  -0.031054   5.359074   0.430530
     6  C    0.000000   0.000000   0.007678  -0.011868   0.430530   4.906879
     7  C    0.000000   0.000000   0.000127  -0.002529  -0.016277   0.441961
     8  C   -0.000000   0.000000   0.000008   0.000521  -0.034244   0.048747
     9  C   -0.000000   0.000000  -0.000000   0.000010  -0.000708   0.015893
    10  C   -0.000000   0.000000  -0.000000   0.000002   0.001049  -0.000921
    11  C   -0.000000   0.000000   0.000000   0.000000   0.000009   0.000026
    12  C    0.000000  -0.000000   0.000000  -0.000000  -0.000057  -0.000004
    13  O    0.000000   0.000000  -0.000000   0.000000   0.000000  -0.000000
    14  O    0.000000  -0.000000   0.000000  -0.000002  -0.000889   0.000167
    15  C   -0.000000   0.000000  -0.000065   0.005431   0.153981  -0.086006
    16  C    0.000000  -0.000000   0.001669  -0.052976   0.172289  -0.012336
    17  C   -0.000000   0.000004  -0.000377   0.027041   0.049077   0.210139
    18  H    0.374999  -0.011640   0.001216  -0.000001  -0.000000  -0.000000
    19  H    0.379344  -0.028879  -0.001352  -0.000023  -0.000000   0.000000
    20  H    0.374756  -0.025124  -0.001328   0.000003   0.000000  -0.000000
    21  H   -0.043610   0.324350  -0.030327  -0.002590   0.000008   0.000001
    22  H    0.000874  -0.048437   0.319763  -0.023289  -0.000045  -0.000389
    23  H    0.000379  -0.017162  -0.005998   0.188901   0.002391   0.001052
    24  H    0.000000  -0.000000  -0.000020  -0.000114   0.003692  -0.037878
    25  H    0.000000  -0.000000   0.000002  -0.000553  -0.007023  -0.020914
    26  H    0.000000  -0.000000   0.000000   0.000000  -0.000067  -0.000196
    27  H   -0.000000   0.000000  -0.000000   0.000010   0.002550   0.000547
    28  H    0.000000  -0.000000   0.000000   0.000000  -0.000000   0.000001
    29  H    0.000001  -0.000063  -0.002048  -0.005272  -0.010094  -0.003636
    30  H   -0.000000   0.000000  -0.000081   0.005928   0.007461   0.018482
               7          8          9         10         11         12
     1  C    0.000000  -0.000000  -0.000000  -0.000000  -0.000000   0.000000
     2  N    0.000000   0.000000   0.000000   0.000000   0.000000  -0.000000
     3  C    0.000127   0.000008  -0.000000  -0.000000   0.000000   0.000000
     4  C   -0.002529   0.000521   0.000010   0.000002   0.000000  -0.000000
     5  C   -0.016277  -0.034244  -0.000708   0.001049   0.000009  -0.000057
     6  C    0.441961   0.048747   0.015893  -0.000921   0.000026  -0.000004
     7  C    5.108249   0.465263  -0.085229   0.015023  -0.002947   0.000325
     8  C    0.465263   4.772898   0.430747   0.005256  -0.040701   0.007265
     9  C   -0.085229   0.430747   5.301961   0.403775  -0.014111  -0.009302
    10  C    0.015023   0.005256   0.403775   5.071771   0.277374   0.043712
    11  C   -0.002947  -0.040701  -0.014111   0.277374   5.623782   0.159173
    12  C    0.000325   0.007265  -0.009302   0.043712   0.159173   4.896334
    13  O   -0.000000  -0.000098   0.000487  -0.008140  -0.071950   0.501672
    14  O    0.001781  -0.025533  -0.021914  -0.079790  -0.032582   0.166333
    15  C    0.005549   0.020251  -0.012109  -0.014198  -0.000218   0.006099
    16  C    0.000920   0.002143  -0.000155  -0.000023   0.000002  -0.000035
    17  C   -0.040263   0.009034   0.002336  -0.000782   0.000067  -0.000057
    18  H   -0.000000   0.000000   0.000000   0.000000   0.000000  -0.000000
    19  H   -0.000000  -0.000000  -0.000000   0.000000   0.000000  -0.000000
    20  H    0.000000   0.000000   0.000000  -0.000000  -0.000000   0.000000
    21  H    0.000000   0.000000  -0.000000  -0.000000  -0.000000   0.000000
    22  H    0.000006  -0.000000   0.000000   0.000000   0.000000  -0.000000
    23  H   -0.000070  -0.000011  -0.000000  -0.000000  -0.000000   0.000000
    24  H    0.344531  -0.042016  -0.019129   0.000289  -0.000030  -0.000001
    25  H   -0.055512   0.280086  -0.054432  -0.033823   0.005753   0.004653
    26  H   -0.017649  -0.012960   0.349240  -0.048132  -0.000755  -0.000480
    27  H    0.001314   0.011750  -0.044651   0.301401  -0.013563  -0.051199
    28  H   -0.000048  -0.001145   0.000239  -0.042749   0.342044  -0.015250
    29  H   -0.000237  -0.000031   0.000003  -0.000001  -0.000000   0.000000
    30  H    0.000803   0.000577  -0.000085   0.000032   0.000001   0.000056
              13         14         15         16         17         18
     1  C    0.000000   0.000000  -0.000000   0.000000  -0.000000   0.374999
     2  N    0.000000  -0.000000   0.000000  -0.000000   0.000004  -0.011640
     3  C   -0.000000   0.000000  -0.000065   0.001669  -0.000377   0.001216
     4  C    0.000000  -0.000002   0.005431  -0.052976   0.027041  -0.000001
     5  C    0.000000  -0.000889   0.153981   0.172289   0.049077  -0.000000
     6  C   -0.000000   0.000167  -0.086006  -0.012336   0.210139  -0.000000
     7  C   -0.000000   0.001781   0.005549   0.000920  -0.040263  -0.000000
     8  C   -0.000098  -0.025533   0.020251   0.002143   0.009034   0.000000
     9  C    0.000487  -0.021914  -0.012109  -0.000155   0.002336   0.000000
    10  C   -0.008140  -0.079790  -0.014198  -0.000023  -0.000782   0.000000
    11  C   -0.071950  -0.032582  -0.000218   0.000002   0.000067   0.000000
    12  C    0.501672   0.166333   0.006099  -0.000035  -0.000057  -0.000000
    13  O    7.882158  -0.006517  -0.000028   0.000000   0.000000   0.000000
    14  O   -0.006517   8.339997   0.027110  -0.000449  -0.002062  -0.000000
    15  C   -0.000028   0.027110   5.762271  -0.185117   0.363694   0.000000
    16  C    0.000000  -0.000449  -0.185117   5.123603   0.411663  -0.000000
    17  C    0.000000  -0.002062   0.363694   0.411663   4.959671   0.000000
    18  H    0.000000  -0.000000   0.000000  -0.000000   0.000000   0.563762
    19  H    0.000000  -0.000000   0.000000   0.000000   0.000000  -0.034932
    20  H    0.000000   0.000000  -0.000000  -0.000000   0.000000  -0.033289
    21  H    0.000000   0.000000  -0.000000  -0.000007  -0.000002  -0.007316
    22  H   -0.000000   0.000000  -0.000000  -0.000015   0.000012  -0.000271
    23  H   -0.000000   0.000000  -0.000154  -0.006723  -0.002986  -0.000030
    24  H   -0.000000  -0.000024   0.000864  -0.000188   0.002302  -0.000000
    25  H    0.000160   0.049061  -0.000620   0.002609  -0.005221  -0.000000
    26  H   -0.000005  -0.000435  -0.000099   0.000002   0.000063  -0.000000
    27  H    0.000241   0.052068   0.007942  -0.000245  -0.000077   0.000000
    28  H   -0.001637  -0.000313  -0.000007  -0.000000   0.000000   0.000000
    29  H   -0.000000  -0.000005   0.008039   0.346574  -0.030082  -0.000000
    30  H   -0.000000   0.000000   0.022390   0.124127  -0.001551   0.000000
              19         20         21         22         23         24
     1  C    0.379344   0.374756  -0.043610   0.000874   0.000379   0.000000
     2  N   -0.028879  -0.025124   0.324350  -0.048437  -0.017162  -0.000000
     3  C   -0.001352  -0.001328  -0.030327   0.319763  -0.005998  -0.000020
     4  C   -0.000023   0.000003  -0.002590  -0.023289   0.188901  -0.000114
     5  C   -0.000000   0.000000   0.000008  -0.000045   0.002391   0.003692
     6  C    0.000000  -0.000000   0.000001  -0.000389   0.001052  -0.037878
     7  C   -0.000000   0.000000   0.000000   0.000006  -0.000070   0.344531
     8  C   -0.000000   0.000000   0.000000  -0.000000  -0.000011  -0.042016
     9  C   -0.000000   0.000000  -0.000000   0.000000  -0.000000  -0.019129
    10  C    0.000000  -0.000000  -0.000000   0.000000  -0.000000   0.000289
    11  C    0.000000  -0.000000  -0.000000   0.000000  -0.000000  -0.000030
    12  C   -0.000000   0.000000   0.000000  -0.000000   0.000000  -0.000001
    13  O    0.000000   0.000000   0.000000  -0.000000  -0.000000  -0.000000
    14  O   -0.000000   0.000000   0.000000   0.000000   0.000000  -0.000024
    15  C    0.000000  -0.000000  -0.000000  -0.000000  -0.000154   0.000864
    16  C    0.000000  -0.000000  -0.000007  -0.000015  -0.006723  -0.000188
    17  C    0.000000   0.000000  -0.000002   0.000012  -0.002986   0.002302
    18  H   -0.034932  -0.033289  -0.007316  -0.000271  -0.000030  -0.000000
    19  H    0.573004  -0.040333   0.003584   0.001646   0.000050  -0.000000
    20  H   -0.040333   0.574622   0.002756   0.001004  -0.000028   0.000000
    21  H    0.003584   0.002756   0.495671   0.005314   0.009376   0.000000
    22  H    0.001646   0.001004   0.005314   0.598005   0.005995   0.000005
    23  H    0.000050  -0.000028   0.009376   0.005995   0.672933   0.000005
    24  H   -0.000000   0.000000   0.000000   0.000005   0.000005   0.624097
    25  H   -0.000000  -0.000000   0.000000  -0.000000   0.000006   0.008369
    26  H    0.000000  -0.000000   0.000000  -0.000000   0.000000   0.003914
    27  H    0.000000  -0.000000  -0.000000   0.000000  -0.000000  -0.000074
    28  H    0.000000  -0.000000  -0.000000  -0.000000  -0.000000  -0.000003
    29  H    0.000000  -0.000000   0.000049   0.000037   0.014804  -0.000009
    30  H   -0.000000   0.000000  -0.000000   0.000000  -0.000287   0.000038
              25         26         27         28         29         30
     1  C    0.000000   0.000000  -0.000000   0.000000   0.000001  -0.000000
     2  N   -0.000000  -0.000000   0.000000  -0.000000  -0.000063   0.000000
     3  C    0.000002   0.000000  -0.000000   0.000000  -0.002048  -0.000081
     4  C   -0.000553   0.000000   0.000010   0.000000  -0.005272   0.005928
     5  C   -0.007023  -0.000067   0.002550  -0.000000  -0.010094   0.007461
     6  C   -0.020914  -0.000196   0.000547   0.000001  -0.003636   0.018482
     7  C   -0.055512  -0.017649   0.001314  -0.000048  -0.000237   0.000803
     8  C    0.280086  -0.012960   0.011750  -0.001145  -0.000031   0.000577
     9  C   -0.054432   0.349240  -0.044651   0.000239   0.000003  -0.000085
    10  C   -0.033823  -0.048132   0.301401  -0.042749  -0.000001   0.000032
    11  C    0.005753  -0.000755  -0.013563   0.342044  -0.000000   0.000001
    12  C    0.004653  -0.000480  -0.051199  -0.015250   0.000000   0.000056
    13  O    0.000160  -0.000005   0.000241  -0.001637  -0.000000  -0.000000
    14  O    0.049061  -0.000435   0.052068  -0.000313  -0.000005   0.000000
    15  C   -0.000620  -0.000099   0.007942  -0.000007   0.008039   0.022390
    16  C    0.002609   0.000002  -0.000245  -0.000000   0.346574   0.124127
    17  C   -0.005221   0.000063  -0.000077   0.000000  -0.030082  -0.001551
    18  H   -0.000000  -0.000000   0.000000   0.000000  -0.000000   0.000000
    19  H   -0.000000   0.000000   0.000000   0.000000   0.000000  -0.000000
    20  H   -0.000000  -0.000000  -0.000000  -0.000000  -0.000000   0.000000
    21  H    0.000000   0.000000  -0.000000  -0.000000   0.000049  -0.000000
    22  H   -0.000000  -0.000000   0.000000  -0.000000   0.000037   0.000000
    23  H    0.000006   0.000000  -0.000000  -0.000000   0.014804  -0.000287
    24  H    0.008369   0.003914  -0.000074  -0.000003  -0.000009   0.000038
    25  H    0.664571   0.009993  -0.058534   0.000192  -0.000047  -0.000743
    26  H    0.009993   0.596578   0.001394   0.005450  -0.000000   0.000001
    27  H   -0.058534   0.001394   0.492121   0.001037  -0.000009   0.000447
    28  H    0.000192   0.005450   0.001037   0.517040  -0.000000   0.000000
    29  H   -0.000047  -0.000000  -0.000009  -0.000000   0.536856  -0.048240
    30  H   -0.000743   0.000001   0.000447   0.000000  -0.048240   1.071951
 Mulliken charges:
               1
     1  C   -0.327213
     2  N   -0.328651
     3  C   -0.103778
     4  C   -0.269340
     5  C   -0.081968
     6  C    0.092044
     7  C   -0.165090
     8  C    0.102193
     9  C   -0.242865
    10  C    0.108876
    11  C   -0.231373
    12  C    0.290762
    13  O   -0.296342
    14  O   -0.466000
    15  C   -0.084999
    16  C    0.072671
    17  C    0.048358
    18  H    0.147501
    19  H    0.147891
    20  H    0.146962
    21  H    0.242744
    22  H    0.139784
    23  H    0.137559
    24  H    0.111380
    25  H    0.211968
    26  H    0.114143
    27  H    0.295531
    28  H    0.195149
    29  H    0.193410
    30  H   -0.201306
 Sum of Mulliken charges =  -0.00000
 Mulliken charges with hydrogens summed into heavy atoms:
               1
     1  C    0.115141
     2  N   -0.085907
     3  C    0.036007
     4  C   -0.131781
     5  C   -0.081968
     6  C    0.092044
     7  C   -0.053710
     8  C    0.314160
     9  C   -0.128722
    10  C    0.404407
    11  C   -0.036224
    12  C    0.290762
    13  O   -0.296342
    14  O   -0.466000
    15  C   -0.084999
    16  C    0.064776
    17  C    0.048358
 Electronic spatial extent (au):  <R**2>=           6936.2516
 Charge=             -0.0000 electrons
 Dipole moment (field-independent basis, Debye):
    X=             -5.8052    Y=              5.4228    Z=             -0.3158  Tot=              7.9503
 Quadrupole moment (field-independent basis, Debye-Ang):
   XX=            -73.1351   YY=            -90.2644   ZZ=           -105.1485
   XY=             21.2017   XZ=              1.0015   YZ=             -1.2288
 Traceless Quadrupole moment (field-independent basis, Debye-Ang):
   XX=             16.3809   YY=             -0.7484   ZZ=            -15.6325
   XY=             21.2017   XZ=              1.0015   YZ=             -1.2288
 Octapole moment (field-independent basis, Debye-Ang**2):
  XXX=           -361.9263  YYY=             21.2272  ZZZ=             -2.8255  XYY=             -2.1266
  XXY=             79.7264  XXZ=              2.5230  XZZ=             16.1494  YZZ=              1.1653
  YYZ=             -0.7996  XYZ=              0.4374
 Hexadecapole moment (field-independent basis, Debye-Ang**3):
 XXXX=          -6666.1464 YYYY=           -760.5274 ZZZZ=           -150.4440 XXXY=            398.5313
 XXXZ=            -18.2888 YYYX=             67.4067 YYYZ=             -6.3417 ZZZX=              3.5721
 ZZZY=              1.9511 XXYY=          -1354.2362 XXZZ=          -1431.2576 YYZZ=           -169.7035
 XXYZ=            -14.1923 YYXZ=            -10.0234 ZZXY=            -17.8916
 N-N= 1.051597989559D+03 E-N=-3.838137166727D+03  KE= 7.428633256089D+02
 PrsmSu:  requested number of processors reduced to:  13 ShMem   1 Linda.
 Calling FoFJK, ICntrl=      2127 FMM=F ISym2X=0 I1Cent= 0 IOpClX= 0 NMat=1 NMatS=1 NMatT=0.
 ***** Axes restored to original set *****
 -------------------------------------------------------------------
 Center     Atomic                   Forces (Hartrees/Bohr)
 Number     Number              X              Y              Z
 -------------------------------------------------------------------
      1        6           0.019319682   -0.004216321   -0.000377835
      2        7           0.030970241   -0.014616040    0.013413587
      3        6          -0.041983138    0.013475519   -0.033948905
      4        6          -0.170001295    0.004368564    0.002638412
      5        6          -0.003332573   -0.160891705   -0.215380508
      6        6          -0.031690638    0.111971535   -0.050564528
      7        6           0.000316148   -0.056731730    0.083229061
      8        6          -0.106444286    0.076572125   -0.031656005
      9        6           0.001965391   -0.061095848    0.020627632
     10        6          -0.052402963   -0.109618132   -0.074184533
     11        6           0.036847621   -0.018591413    0.064145651
     12        6           0.160980149    0.014228416    0.068223284
     13        8          -0.084110517    0.044144550   -0.060886196
     14        8           0.043819879   -0.018983304    0.003173755
     15        6           0.034009689   -0.099184877    0.024152285
     16        6          -1.673540371    0.553568272    0.197974481
     17        6           0.063335039    0.143169145    0.244632565
     18        1           0.021596762   -0.009503394    0.010199836
     19        1           0.004264624   -0.002967878    0.003194159
     20        1           0.004078217   -0.001910583    0.003105534
     21        1           0.005433106   -0.008847351    0.008904468
     22        1           0.047193041    0.003907039   -0.000525704
     23        1           0.032202571    0.026787094   -0.002157568
     24        1          -0.048853976   -0.034381964    0.030304970
     25        1           0.018466382    0.061365583   -0.042409636
     26        1           0.002219941   -0.044779363    0.058145292
     27        1           0.037535585   -0.002838441    0.052549607
     28        1           0.022657541    0.046752958   -0.043335177
     29        1           0.080386656    0.005470699    0.011165159
     30        1           1.544761491   -0.456623153   -0.344353143
 -------------------------------------------------------------------
 Cartesian Forces:  Max     1.673540371 RMS     0.262853497

 GradGradGradGradGradGradGradGradGradGradGradGradGradGradGradGradGradGrad
 Berny optimization.
 FormGI is forming the generalized inverse of G from B-inverse, IUseBI=4.
 Internal  Forces:  Max     1.642369202 RMS     0.150998561
 Search for a local minimum.
 Step number   1 out of a maximum of  144
 All quantities printed in internal units (Hartrees-Bohrs-Radians)
 Mixed Optimization -- RFO/linear search
 Second derivative matrix not updated -- first step.
 ITU=  0
     Eigenvalues ---    0.00230   0.00230   0.00230   0.00230   0.00230
     Eigenvalues ---    0.00230   0.00230   0.00237   0.00261   0.00478
     Eigenvalues ---    0.01209   0.02417   0.02519   0.02781   0.03155
     Eigenvalues ---    0.03168   0.03377   0.03385   0.03526   0.03536
     Eigenvalues ---    0.03632   0.03964   0.04713   0.04784   0.05344
     Eigenvalues ---    0.06498   0.06600   0.09719   0.09894   0.11329
     Eigenvalues ---    0.13374   0.13854   0.14685   0.15628   0.15724
     Eigenvalues ---    0.15844   0.15928   0.15945   0.15973   0.15981
     Eigenvalues ---    0.16000   0.16000   0.16000   0.16000   0.16000
     Eigenvalues ---    0.16000   0.16149   0.16944   0.17446   0.17921
     Eigenvalues ---    0.18470   0.20447   0.21142   0.21988   0.21993
     Eigenvalues ---    0.21994   0.22008   0.22008   0.22152   0.23502
     Eigenvalues ---    0.24839   0.25000   0.26494   0.27605   0.27658
     Eigenvalues ---    0.30656   0.32511   0.34045   0.34214   0.35578
     Eigenvalues ---    0.42381   0.43690   0.44532   0.45544   0.46362
     Eigenvalues ---    0.47175   0.55527   0.57173   0.58921   0.62337
     Eigenvalues ---    0.67083   0.69646   0.80254   3.43819
 RFO step:  Lambda=-9.04573344D-01 EMin= 2.30000000D-03
 Linear search not attempted -- first point.
 Maximum step size (   0.300) exceeded in Quadratic search.
    -- Step size scaled by   0.510
 Iteration  1 RMS(Cart)=  0.15952636 RMS(Int)=  0.00296544
 Iteration  2 RMS(Cart)=  0.00435838 RMS(Int)=  0.00007952
 Iteration  3 RMS(Cart)=  0.00002577 RMS(Int)=  0.00007858
 Iteration  4 RMS(Cart)=  0.00000001 RMS(Int)=  0.00007858
 Variable       Old X    -DE/DX   Delta X   Delta X   Delta X     New X
                                 (Linear)    (Quad)   (Total)
    R1        2.93010  -0.05056   0.00000  -0.02182  -0.02182   2.90828
    R2        2.13374  -0.02075   0.00000  -0.00873  -0.00873   2.12500
    R3        2.06971   0.00013   0.00000   0.00005   0.00005   2.06976
    R4        2.07254  -0.00070   0.00000  -0.00029  -0.00029   2.07225
    R5        3.23506  -0.09915   0.00000  -0.04682  -0.04682   3.18824
    R6        1.93527  -0.00965   0.00000  -0.00367  -0.00367   1.93160
    R7        3.12426  -0.09089   0.00000  -0.04176  -0.04176   3.08250
    R8        2.19593  -0.03817   0.00000  -0.01647  -0.01647   2.17946
    R9        2.09919  -0.00028   0.00000  -0.00011  -0.00011   2.09908
   R10        2.49503   0.11059   0.00000   0.03675   0.03676   2.53179
   R11        3.41099  -0.01566   0.00000  -0.01038  -0.01046   3.40053
   R12        3.35871   0.01538   0.00000   0.00510   0.00508   3.36379
   R13        2.44570   0.11376   0.00000   0.04402   0.04418   2.48988
   R14        2.44035   0.16267   0.00000   0.05177   0.05177   2.49212
   R15        3.13427  -0.00132   0.00000  -0.00389  -0.00392   3.13035
   R16        2.49138   0.08363   0.00000   0.02789   0.02789   2.51927
   R17        1.91349   0.06565   0.00000   0.02460   0.02460   1.93809
   R18        2.37779   0.23751   0.00000   0.07089   0.07089   2.44868
   R19        1.89528   0.07018   0.00000   0.02598   0.02598   1.92126
   R20        2.54667   0.13573   0.00000   0.04737   0.04737   2.59404
   R21        1.90426   0.06634   0.00000   0.02471   0.02471   1.92897
   R22        2.42483   0.06873   0.00000   0.02227   0.02229   2.44712
   R23        3.21103   0.07366   0.00000   0.03419   0.03422   3.24525
   R24        2.48288  -0.06998   0.00000  -0.03290  -0.03290   2.44998
   R25        2.90818   0.00538   0.00000   0.00188   0.00183   2.91000
   R26        2.29878  -0.06493   0.00000  -0.02903  -0.02903   2.26975
   R27        2.51805  -0.10135   0.00000  -0.03457  -0.03457   2.48348
   R28        2.96506  -0.00285   0.00000  -0.00145  -0.00145   2.96361
   R29        3.44042   0.08917   0.00000   0.04199   0.04197   3.48239
   R30        2.60636   0.04286   0.00000   0.01689   0.01696   2.62332
   R31        2.56688   0.08928   0.00000   0.03231   0.03228   2.59916
   R32        2.34228  -0.03478   0.00000  -0.01576  -0.01576   2.32652
   R33        1.14799   1.64237   0.00000   0.19270   0.19270   1.34069
   R34        3.46989   0.04648   0.00000   0.02524   0.02524   3.49512
    A1        1.99514  -0.01979   0.00000  -0.00948  -0.00949   1.98565
    A2        1.94875  -0.00222   0.00000  -0.00106  -0.00106   1.94768
    A3        1.96444  -0.00125   0.00000  -0.00060  -0.00060   1.96384
    A4        1.82530   0.01175   0.00000   0.00562   0.00561   1.83091
    A5        1.82366   0.01137   0.00000   0.00543   0.00542   1.82909
    A6        1.89654   0.00233   0.00000   0.00113   0.00113   1.89767
    A7        2.34335  -0.02393   0.00000  -0.01084  -0.01084   2.33251
    A8        1.88979   0.02121   0.00000   0.00985   0.00985   1.89964
    A9        2.04802   0.00259   0.00000   0.00093   0.00093   2.04895
   A10        2.24231  -0.02234   0.00000  -0.01012  -0.01012   2.23219
   A11        1.55109   0.04116   0.00000   0.01942   0.01942   1.57051
   A12        2.48508  -0.01905   0.00000  -0.00941  -0.00941   2.47566
   A13        1.35418   0.07478   0.00000   0.03579   0.03579   1.38997
   A14        1.80166  -0.04164   0.00000  -0.01634  -0.01624   1.78542
   A15        2.16887  -0.05235   0.00000  -0.02171  -0.02148   2.14739
   A16        2.12359   0.02540   0.00000   0.01524   0.01524   2.13883
   A17        2.05235   0.01704   0.00000   0.01058   0.01042   2.06277
   A18        2.13374   0.04539   0.00000   0.02056   0.02056   2.15430
   A19        2.16170  -0.03459   0.00000  -0.01598  -0.01598   2.14572
   A20        1.98479  -0.01076   0.00000  -0.00457  -0.00457   1.98023
   A21        2.45289  -0.05502   0.00000  -0.02488  -0.02488   2.42802
   A22        2.01138  -0.00247   0.00000  -0.00188  -0.00186   2.00951
   A23        1.78719   0.05557   0.00000   0.02593   0.02593   1.81312
   A24        1.80036   0.14740   0.00000   0.06685   0.06687   1.86723
   A25        2.05408  -0.04406   0.00000  -0.01906  -0.01902   2.03506
   A26        2.41403  -0.10074   0.00000  -0.04640  -0.04644   2.36759
   A27        1.88559   0.02794   0.00000   0.01209   0.01204   1.89763
   A28        2.64549  -0.01307   0.00000  -0.00594  -0.00590   2.63959
   A29        1.92724   0.06121   0.00000   0.02982   0.02983   1.95707
   A30        2.46992  -0.08891   0.00000  -0.04179  -0.04176   2.42816
   A31        1.49438  -0.05050   0.00000  -0.02498  -0.02499   1.46939
   A32        2.21715   0.01235   0.00000   0.00492   0.00490   2.22205
   A33        2.78129  -0.03115   0.00000  -0.01601  -0.01600   2.76529
   A34        2.42840   0.05399   0.00000   0.02215   0.02212   2.45051
   A35        1.68735   0.03731   0.00000   0.01836   0.01837   1.70572
   A36        1.46043   0.02854   0.00000   0.01562   0.01572   1.47615
   A37        1.73843  -0.00260   0.00000  -0.00067  -0.00064   1.73779
   A38        2.49316   0.00715   0.00000   0.00481   0.00495   2.49811
   A39        0.82627   0.03472   0.00000   0.01719   0.01726   0.84353
   A40        1.96022   0.03795   0.00000   0.01835   0.01821   1.97843
   A41        1.64970   0.01644   0.00000   0.00810   0.00819   1.65789
   A42        2.51092  -0.02804   0.00000  -0.01338  -0.01353   2.49739
   A43        1.89070  -0.02500   0.00000  -0.01310  -0.01312   1.87758
   A44        2.28425  -0.03455   0.00000  -0.01567  -0.01561   2.26863
   A45        1.41889   0.09532   0.00000   0.04562   0.04562   1.46451
   A46        1.72303  -0.04361   0.00000  -0.01925  -0.01925   1.70379
   A47        2.57092   0.10124   0.00000   0.04846   0.04846   2.61937
    D1       -3.09767   0.00082   0.00000   0.00045   0.00045  -3.09722
    D2       -0.02862  -0.00080   0.00000  -0.00044  -0.00044  -0.02906
    D3        1.11791   0.00095   0.00000   0.00052   0.00052   1.11842
    D4       -2.09622  -0.00067   0.00000  -0.00037  -0.00038  -2.09660
    D5       -1.02063   0.00048   0.00000   0.00027   0.00027  -1.02035
    D6        2.04843  -0.00114   0.00000  -0.00062  -0.00062   2.04781
    D7        3.01400  -0.00295   0.00000  -0.00162  -0.00162   3.01238
    D8       -0.04205  -0.00058   0.00000  -0.00038  -0.00037  -0.04242
    D9       -0.05005  -0.00166   0.00000  -0.00088  -0.00088  -0.05093
   D10       -3.10609   0.00071   0.00000   0.00036   0.00036  -3.10573
   D11        0.14856   0.00628   0.00000   0.00356   0.00356   0.15212
   D12       -3.13346   0.00576   0.00000   0.00320   0.00321  -3.13025
   D13        3.04922   0.01906   0.00000   0.01071   0.01071   3.05993
   D14       -1.00625  -0.02092   0.00000  -0.00840  -0.00840  -1.01464
   D15       -2.12045  -0.03521   0.00000  -0.01812  -0.01827  -2.13871
   D16       -1.78932   0.00655   0.00000   0.00624   0.00612  -1.78320
   D17        1.98677   0.03127   0.00000   0.01774   0.01762   2.00439
   D18        0.81103   0.03267   0.00000   0.01547   0.01549   0.82651
   D19       -2.41827   0.03276   0.00000   0.01544   0.01545  -2.40282
   D20       -0.20002  -0.02550   0.00000  -0.01150  -0.01151  -0.21154
   D21        2.85387  -0.02541   0.00000  -0.01153  -0.01155   2.84232
   D22        0.73722   0.07403   0.00000   0.03460   0.03449   0.77171
   D23        2.43417   0.03699   0.00000   0.02243   0.02262   2.45678
   D24        2.97795  -0.00013   0.00000  -0.00006  -0.00004   2.97792
   D25        0.16557  -0.00360   0.00000  -0.00193  -0.00195   0.16361
   D26       -0.08411   0.00127   0.00000   0.00066   0.00068  -0.08342
   D27       -2.89649  -0.00221   0.00000  -0.00121  -0.00123  -2.89773
   D28        2.98394  -0.00014   0.00000   0.00017   0.00040   2.98435
   D29       -0.00743  -0.00380   0.00000  -0.00248  -0.00266  -0.01009
   D30       -0.46171  -0.00114   0.00000  -0.00018  -0.00001  -0.46172
   D31        2.83010  -0.00480   0.00000  -0.00284  -0.00307   2.82703
   D32        2.83882  -0.01948   0.00000  -0.01026  -0.01023   2.82860
   D33        1.78650  -0.02077   0.00000  -0.01109  -0.01101   1.77549
   D34       -0.32741  -0.01452   0.00000  -0.00773  -0.00753  -0.33495
   D35       -0.50337   0.00374   0.00000   0.00186   0.00169  -0.50168
   D36       -1.55569   0.00245   0.00000   0.00104   0.00091  -1.55478
   D37        2.61358   0.00870   0.00000   0.00440   0.00439   2.61797
   D38        0.43997   0.00526   0.00000   0.00293   0.00279   0.44276
   D39       -2.66451  -0.00721   0.00000  -0.00326  -0.00326  -2.66776
   D40        1.80022   0.01397   0.00000   0.00839   0.00836   1.80858
   D41       -2.27644   0.03450   0.00000   0.01809   0.01815  -2.25828
   D42        1.90890   0.03561   0.00000   0.02072   0.02070   1.92960
   D43       -1.27036   0.04775   0.00000   0.02673   0.02660  -1.24376
   D44       -0.81167   0.04985   0.00000   0.02740   0.02755  -0.78412
   D45        0.47499  -0.00013   0.00000   0.00019   0.00013   0.47512
   D46        0.98279   0.06633   0.00000   0.02804   0.02801   1.01081
   D47        0.58019   0.01932   0.00000   0.00885   0.00905   0.58923
   D48       -2.12949   0.00226   0.00000   0.00015  -0.00010  -2.12959
   D49        0.69656   0.01314   0.00000   0.00511   0.00527   0.70183
   D50        0.92526  -0.00172   0.00000  -0.00132  -0.00133   0.92393
   D51        0.04528  -0.03110   0.00000  -0.01353  -0.01347   0.03181
   D52        2.40067   0.04573   0.00000   0.02437   0.02417   2.42484
   D53       -0.48246  -0.00929   0.00000  -0.00522  -0.00522  -0.48768
         Item               Value     Threshold  Converged?
 Maximum Force            1.642369     0.000450     NO 
 RMS     Force            0.150999     0.000300     NO 
 Maximum Displacement     0.738409     0.001800     NO 
 RMS     Displacement     0.161034     0.001200     NO 
 Predicted change in Energy=-3.876266D-01
 GradGradGradGradGradGradGradGradGradGradGradGradGradGradGradGradGradGrad

                          Input orientation:                          
 ---------------------------------------------------------------------
 Center     Atomic      Atomic             Coordinates (Angstroms)
 Number     Number       Type             X           Y           Z
 ---------------------------------------------------------------------
      1          6           0        1.008889    0.071282    0.046275
      2          7           0        2.543832    0.023542    0.147200
      3          6           0        3.622969   -0.906778    1.050763
      4          6           0        5.248918   -0.955471    0.929511
      5          6           0        7.309163   -1.665279    1.221633
      6          6           0        6.900392   -1.864978    2.481792
      7          6           0        7.395326   -2.819532    3.245355
      8          6           0        8.701459   -3.051869    3.376856
      9          6           0        9.501204   -3.764301    4.106176
     10          6           0       10.751416   -3.660652    3.548907
     11          6           0       11.629819   -4.025620    4.427616
     12          6           0       12.337053   -3.001784    3.520480
     13          8           0       13.575024   -3.328849    3.816413
     14          8           0       11.326469   -1.837507    2.536488
     15          6           0        9.073191   -1.378634    1.431818
     16          6           0        7.978831   -0.117342    0.652435
     17          6           0        7.939764   -0.719783    1.888280
     18          1           0        0.627299    0.807285   -0.713461
     19          1           0        0.552149    0.380762    0.992440
     20          1           0        0.577648   -0.890968   -0.254736
     21          1           0        2.939941    0.671645   -0.536811
     22          1           0        2.736232   -1.429920    1.570547
     23          1           0        5.024279   -0.097916    0.260200
     24          1           0        6.813140   -3.405940    3.852829
     25          1           0        9.308880   -2.348725    2.964198
     26          1           0        9.068420   -4.345284    4.825285
     27          1           0       10.705237   -3.260598    2.316564
     28          1           0       11.464807   -4.768174    5.357143
     29          1           0        6.865052    0.047584    0.154436
     30          1           0        8.641577   -0.322837    0.504531
 ---------------------------------------------------------------------
                    Distance matrix (angstroms):
                    1          2          3          4          5
     1  C    0.000000
     2  N    1.538998   0.000000
     3  C    2.966313   1.687145   0.000000
     4  C    4.451087   2.981270   1.631191   0.000000
     5  C    6.640073   5.168647   3.767300   2.198585   0.000000
     6  C    6.662631   5.291167   3.702363   2.442160   1.339767
     7  C    7.705679   6.420174   4.765033   3.666732   2.331346
     8  C    8.945529   7.602974   5.983577   4.722756   2.916523
     9  C   10.164345   8.855861   7.214890   6.005220   4.187066
    10  C   11.005117   9.618178   8.039857   6.667588   4.609427
    11  C   12.197743  10.829259   9.232550   7.898004   5.875169
    12  C   12.240962  10.790681   9.296441   7.819346   5.687760
    13  O   13.552955  12.099127  10.609366   9.126400   6.982933
    14  O   10.784113   9.290152   7.900478   6.347991   4.230515
    15  C    8.309931   6.800653   5.483865   3.880264   1.799483
    16  C    6.998793   5.460250   4.444706   2.869087   1.780043
    17  C    7.214971   5.718390   4.401264   2.866259   1.317588
    18  H    1.124504   2.242339   3.876149   5.212104   7.382782
    19  H    1.095270   2.192906   3.330329   4.883555   7.063714
    20  H    1.096587   2.205393   3.313390   4.819478   6.934877
    21  H    2.104611   1.022160   2.340585   3.182606   5.257704
    22  H    2.749678   2.043401   1.153323   2.636212   4.592258
    23  H    4.024643   2.485989   1.800811   1.110784   2.932862
    24  H    7.763392   6.612112   4.926923   4.122787   3.193607
    25  H    9.124723   7.702533   6.170092   4.750200   2.739069
    26  H   10.358622   9.140098   7.464803   6.423121   4.823248
    27  H   10.501182   9.060920   7.569759   6.083498   3.908610
    28  H   12.686681  11.388058   9.744215   8.530997   6.633233
    29  H    5.857210   4.321293   3.496471   2.053960   2.066409
    30  H    7.656583   6.118020   5.081908   3.477208   2.022799
                    6          7          8          9         10
     6  C    0.000000
     7  C    1.318773   0.000000
     8  C    2.335315   1.333139   0.000000
     9  C    3.606976   2.463397   1.295785   0.000000
    10  C    4.381047   3.473179   2.145353   1.372707   0.000000
    11  C    5.551765   4.558874   3.259997   2.168552   1.294961
    12  C    5.650530   4.952734   3.638774   2.994414   1.717312
    13  O    6.962388   6.226892   4.901180   4.107261   2.855594
    14  O    4.426501   4.113485   3.011905   3.083513   2.163224
    15  C    2.461714   2.860129   2.592504   3.609265   3.536398
    16  C    2.750238   3.790190   4.068920   5.248453   5.350871
    17  C    1.656509   2.558712   2.869610   4.077529   4.394517
    18  H    7.530094   8.638993   9.839503  11.084876  11.858667
    19  H    6.896498   7.883309   9.158583  10.342266  11.264705
    20  H    6.958043   7.902577   9.157197  10.339412  11.209122
    21  H    5.588523   6.807610   7.897876   9.180693   9.822476
    22  H    4.284841   5.142291   6.440295   7.592337   8.551798
    23  H    3.402613   4.684037   5.653409   6.948148   7.503918
    24  H    2.064441   1.025592   1.979310   2.723655   3.958190
    25  H    2.503506   1.990577   1.016689   1.828922   2.035668
    26  H    4.042800   2.761041   1.976241   1.020765   2.220437
    27  H    4.056095   3.465935   2.276601   2.214977   1.296474
[...]
   A27        2.00514   0.02360   0.02177   0.01877   0.04126   2.04639
   A28        2.58693   0.00791  -0.01097  -0.01230  -0.02197   2.56496
   A29        2.15567  -0.07854   0.01902  -0.00449   0.01392   2.16959
   A30        2.12204   0.05468  -0.04095  -0.01484  -0.05675   2.06529
   A31        1.31516   0.08536  -0.01004   0.01765   0.00771   1.32287
   A32        2.22498  -0.02677  -0.01107  -0.01398  -0.02628   2.19870
   A33        2.59550  -0.05090  -0.04144  -0.05106  -0.09444   2.50106
   A34        2.61659  -0.00293   0.02386   0.01208   0.03566   2.65225
   A35        1.89751   0.03719   0.04570   0.04047   0.08717   1.98468
   A36        1.59088   0.00148   0.01360   0.00945   0.02386   1.61474
   A37        1.71939  -0.00586  -0.00762  -0.00684  -0.01565   1.70374
   A38        2.53865  -0.00164   0.00485   0.00054   0.00518   2.54383
   A39        0.96601   0.00726   0.01367   0.01969   0.03428   1.00029
   A40        2.10206   0.00779   0.01545   0.00779   0.02190   2.12396
   A41        1.71779   0.00378   0.00681   0.01279   0.02034   1.73814
   A42        2.39049  -0.00674  -0.01456  -0.01285  -0.02787   2.36262
   A43        1.78386  -0.01065  -0.01133  -0.01042  -0.02168   1.76218
   A44        2.12286  -0.03359  -0.03145  -0.04026  -0.07383   2.04903
   A45        1.74478  -0.00652   0.01748  -0.00097   0.01651   1.76129
   A46        1.61228   0.20598   0.00576   0.05434   0.06010   1.67238
   A47        2.90927  -0.01795   0.01473  -0.01695  -0.00222   2.90705
    D1       -3.09302   0.00055   0.00084   0.00106   0.00193  -3.09109
    D2       -0.03300  -0.00081  -0.00077  -0.00169  -0.00248  -0.03549
    D3        1.12134  -0.00008   0.00010   0.00020   0.00031   1.12165
    D4       -2.10183  -0.00144  -0.00151  -0.00256  -0.00410  -2.10593
    D5       -1.01652   0.00113   0.00109   0.00192   0.00306  -1.01347
    D6        2.04350  -0.00023  -0.00051  -0.00083  -0.00136   2.04214
    D7        2.99702  -0.00454  -0.00324  -0.00964  -0.01295   2.98407
    D8       -0.04590  -0.00062  -0.00083  -0.00207  -0.00275  -0.04865
    D9       -0.06024  -0.00355  -0.00213  -0.00734  -0.00964  -0.06988
   D10       -3.10317   0.00037   0.00027   0.00022   0.00057  -3.10260
   D11        0.18256   0.00766   0.00567   0.01826   0.02376   0.20633
   D12       -3.10003   0.00629   0.00630   0.01285   0.01932  -3.08072
   D13        3.13334  -0.00052   0.00784  -0.00278   0.00506   3.13840
   D14       -1.06841  -0.00375  -0.00441  -0.00417  -0.00930  -1.07771
   D15       -2.28631  -0.01353  -0.02191  -0.02716  -0.04968  -2.33599
   D16       -1.71247   0.01767   0.02047   0.03523   0.05376  -1.65871
   D17        2.16352   0.02540   0.03356   0.04748   0.07978   2.24330
   D18        0.95885   0.01846   0.02384   0.02796   0.05141   1.01026
   D19       -2.26861   0.01996   0.02494   0.03123   0.05576  -2.21285
   D20       -0.28379  -0.00297  -0.00488   0.00001  -0.00446  -0.28825
   D21        2.77193  -0.00148  -0.00378   0.00329  -0.00011   2.77182
   D22        1.04309   0.02915   0.04425   0.04777   0.09104   1.13413
   D23        2.66023   0.01929   0.03742   0.04150   0.07929   2.73952
   D24        2.98972   0.00557   0.00540   0.01256   0.01797   3.00769
   D25        0.14298  -0.00230  -0.00460  -0.00308  -0.00767   0.13531
   D26       -0.06840   0.00466   0.00518   0.01010   0.01528  -0.05312
   D27       -2.91515  -0.00321  -0.00481  -0.00553  -0.01036  -2.92551
   D28        2.99745   0.00125   0.00221   0.00353   0.00604   3.00349
   D29       -0.04240  -0.00323  -0.00664  -0.00472  -0.01166  -0.05405
   D30       -0.43542   0.00950   0.01071   0.01913   0.03014  -0.40528
   D31        2.80792   0.00502   0.00186   0.01088   0.01244   2.82036
   D32        2.74058  -0.02533  -0.01694  -0.01991  -0.03803   2.70254
   D33        1.71283   0.03852  -0.00289   0.01716   0.01511   1.72795
   D34       -0.37346  -0.01571  -0.00199   0.00310   0.00201  -0.37145
   D35       -0.50862  -0.01985  -0.00538  -0.00998  -0.01693  -0.52555
   D36       -1.53637   0.04400   0.00866   0.02709   0.03622  -1.50015
   D37        2.66053  -0.01023   0.00957   0.01303   0.02311   2.68364
   D38        0.47122   0.00518   0.00879   0.01164   0.02133   0.49255
   D39       -2.69735  -0.00654  -0.00595  -0.01072  -0.01513  -2.71248
   D40        1.88317   0.00571   0.01520   0.00271   0.01766   1.90083
   D41       -2.10618   0.00687   0.02568   0.01360   0.03861  -2.06757
   D42        2.11836  -0.05382   0.03868  -0.02270   0.01677   2.13513
   D43       -0.99388  -0.04292   0.05472   0.00128   0.05570  -0.93818
   D44       -0.52985  -0.08921   0.04976  -0.01879   0.03048  -0.49936
   D45        0.47399  -0.00380   0.00028  -0.00042   0.00142   0.47542
   D46        1.23673   0.03588   0.03735   0.04341   0.08198   1.31870
   D47        0.65636   0.00310   0.00589   0.00440   0.01125   0.66760
   D48       -2.14910  -0.00547  -0.00532  -0.00922  -0.01549  -2.16459
   D49        0.76585   0.01441   0.01479   0.02154   0.03747   0.80333
   D50        0.92009   0.00234   0.00184  -0.00458  -0.00334   0.91675
   D51       -0.06562  -0.01218  -0.01321  -0.01158  -0.02472  -0.09034
   D52        2.57746   0.00540   0.01468   0.01816   0.03223   2.60970
   D53       -0.50551   0.00801   0.00499   0.01848   0.02348  -0.48204
         Item               Value     Threshold  Converged?
 Maximum Force            0.205976     0.000450     NO 
 RMS     Force            0.032683     0.000300     NO 
 Maximum Displacement     0.646426     0.001800     NO 
 RMS     Displacement     0.213911     0.001200     NO 
 Predicted change in Energy=-1.015312D-01
 GradGradGradGradGradGradGradGradGradGradGradGradGradGradGradGradGradGrad

                          Input orientation:                          
 ---------------------------------------------------------------------
 Center     Atomic      Atomic             Coordinates (Angstroms)
 Number     Number       Type             X           Y           Z
 ---------------------------------------------------------------------
      1          6           0        0.481022    0.044183    0.205956
      2          7           0        1.918212    0.145958    0.265236
      3          6           0        2.779237   -0.701195    0.939735
      4          6           0        4.152715   -0.637445    0.796073
      5          6           0        7.193832   -1.429756    0.504265
      6          6           0        7.164312   -1.644775    1.937577
      7          6           0        7.911866   -2.620905    2.733349
      8          6           0        9.293102   -2.792775    2.832117
      9          6           0        9.969291   -3.704658    3.788642
     10          6           0       11.397146   -4.092279    3.888679
     11          6           0       11.843932   -4.492684    5.093136
     12          6           0       13.193814   -3.794375    4.820506
     13          8           0       14.096516   -4.148876    5.578484
     14          8           0       13.197309   -3.020374    3.872727
     15          6           0        8.845092   -1.007360    0.433486
     16          6           0        7.321140    0.279696    0.185788
     17          6           0        7.912682   -0.379163    1.360244
     18          1           0        0.099611    0.829552   -0.445194
     19          1           0        0.032655    0.182577    1.197286
     20          1           0        0.149384   -0.917486   -0.203790
     21          1           0        2.326314    0.872563   -0.304826
     22          1           0        2.115018   -1.402040    1.435243
     23          1           0        4.286789    0.331427    0.249106
     24          1           0        7.312489   -3.265187    3.400249
     25          1           0        9.930728   -2.033828    2.346268
     26          1           0        9.269412   -4.212147    4.472297
     27          1           0       12.120019   -4.014990    3.062900
     28          1           0       11.260875   -4.956857    5.854167
     29          1           0        6.227315    0.389290    0.070967
     30          1           0        8.366552    0.227269   -0.649513
 ---------------------------------------------------------------------
                    Distance matrix (angstroms):
                    1          2          3          4          5
     1  C    0.000000
     2  N    1.442008   0.000000
     3  C    2.525037   1.383468   0.000000
     4  C    3.780765   2.426625   1.382441   0.000000
     5  C    6.879193   5.511096   4.495451   3.156153   0.000000
     6  C    7.107563   5.790079   4.595096   3.374531   1.449651
     7  C    8.289019   7.047765   5.765952   4.671013   2.627399
     8  C    9.622775   8.343502   7.098327   5.934181   3.418136
     9  C   10.812802   9.594868   8.296621   7.224667   4.864718
    10  C   12.240691  10.997371   9.719262   8.601271   6.017568
    11  C   13.175106  11.972700  10.667466   9.616779   7.215449
    12  C   14.058580  12.783423  11.536531  10.387673   7.760228
    13  O   15.225881  13.963785  12.707686  11.579325   8.988234
    14  O   13.584575  12.257964  11.068751   9.846260   7.065291
    15  C    8.432981   7.024252   6.094638   4.720880   1.705898
    16  C    6.844201   5.405166   4.707384   3.354477   1.743520
    17  C    7.532674   6.116246   5.160697   3.810821   1.534012
    18  H    1.089163   2.068652   3.382546   4.485585   7.505593
    19  H    1.096778   2.103660   2.896740   4.219988   7.373083
    20  H    1.096668   2.116519   2.875858   4.135796   7.098451
    21  H    2.086196   1.009689   2.056888   2.613015   5.445001
    22  H    2.504526   1.950371   1.085310   2.268336   5.163510
    23  H    3.816835   2.375882   1.953456   1.120653   3.408486
    24  H    8.235555   7.110727   5.760082   4.865278   3.430687
    25  H    9.909390   8.560524   7.409323   6.143161   3.353875
    26  H   10.656162   9.525365   8.180962   7.243873   5.272097
    27  H   12.653270  11.367377  10.136038   8.945627   6.123509
    28  H   13.157428  12.023320  10.686462   9.734864   7.589647
    29  H    5.758229   4.320338   3.719295   2.425682   2.104955
    30  H    7.933910   6.513406   5.882673   4.538047   2.334996
                    6          7          8          9         10
     6  C    0.000000
     7  C    1.464554   0.000000
     8  C    2.578731   1.395388   0.000000
     9  C    3.941759   2.553656   1.484486   0.000000
    10  C    5.264405   3.955617   2.689244   1.482912   0.000000
    11  C    6.321945   4.953110   3.809020   2.415983   1.345608
    12  C    7.020467   5.799331   4.491375   3.386790   2.045743
    13  O    8.220838   6.977061   5.696870   4.520493   3.185160
    14  O    6.483374   5.421593   4.046913   3.300821   2.095190
    15  C    2.343845   2.960374   3.023550   4.449305   5.288484
    16  C    2.607096   3.905446   4.509077   5.989018   7.031315
    17  C    1.579603   2.628845   3.146028   4.602789   5.685217
    18  H    7.855564   9.112635  10.410682  11.657401  13.062969
    19  H    7.399174   8.502997   9.863126  10.980093  12.436625
    20  H    7.370456   8.472576   9.815346  10.960767  12.383043
    21  H    5.896744   7.254875   8.474152   9.804210  11.158635
    22  H    5.080022   6.064169   7.443808   8.516462   9.970688
    23  H    3.877686   5.294234   6.441720   7.817232   9.130873
    24  H    2.187945   1.104132   2.113948   2.720768   4.196078
    25  H    2.823376   2.137825   1.103911   2.207624   2.960850
    26  H    4.177038   2.720096   2.169186   1.102162   2.209577
    27  H    5.607433   4.445293   3.088451   2.290991   1.100195
    28  H    6.564404   5.139265   4.205730   2.739085   2.151560
    29  H    2.915411   4.357438   5.210426   6.677118   7.834956
    30  H    3.412179   4.445513   4.701161   6.142152   6.959754
                   11         12         13         14         15
    11  C    0.000000
    12  C    1.544067   0.000000
    13  O    2.329785   1.230883   0.000000
    14  O    2.342802   1.223672   2.234210   0.000000
    15  C    6.546211   6.776783   7.994847   5.901051   0.000000
    16  C    8.204470   8.518625   9.726209   7.682015   2.010049
    17  C    6.805165   7.178261   8.381174   6.419957   1.457017
    18  H   14.033117  14.851480  16.030683  14.318382   8.979408
    19  H   13.286910  14.218297  15.354106  13.810322   8.925155
    20  H   13.326738  14.271552  15.440177  13.830708   8.719492
    21  H   12.186424  12.889992  14.084241  12.279473   6.824491
    22  H   10.843617  11.828905  12.971809  11.462003   6.815657
    23  H   10.190540  10.828437  12.029386  10.186392   4.754416
    24  H    4.990651   6.073480   7.179738   5.908831   4.030924
    25  H    4.153506   4.457478   5.681059   3.738168   2.427134
    26  H    2.663137   3.961908   4.952634   4.148275   5.173268
    27  H    2.103871   2.071445   3.201972   1.675003   5.165734
    28  H    1.065167   2.481143   2.961367   3.380214   7.128697
    29  H    8.977876   9.412401  10.623183   8.640603   2.989115
    30  H    8.206592   8.330497   9.527385   7.371164   1.710612
                   16         17         18         19         20
    16  C    0.000000
    17  C    1.470838   0.000000
    18  H    7.269866   8.109543   0.000000
    19  H    7.358979   7.901705   1.766579   0.000000
    20  H    7.281421   7.937556   1.764340   1.785155   0.000000
    21  H    5.053759   5.962113   2.231537   2.827241   2.820196
    22  H    5.611869   5.887683   3.546535   2.627522   2.604792
    23  H    3.035452   3.858325   4.273481   4.361061   4.345459
    24  H    4.785293   3.584827   9.142206   8.350814   8.355290
    25  H    4.102440   2.789743  10.613297  10.208059  10.169745
    26  H    6.507424   5.120288  11.562253  10.740436  10.765477
    27  H    7.053463   5.815493  13.426337  12.930756  12.789132
    28  H    8.664498   7.236092  14.061945  13.197471  13.284600
    29  H    1.105282   2.256816   6.165145   6.299614   6.222893
    30  H    1.339165   2.147762   8.291369   8.536188   8.308488
                   21         22         23         24         25
    21  H    0.000000
    22  H    2.871638   0.000000
    23  H    2.107874   3.021327   0.000000
    24  H    7.463947   5.860569   5.658639   0.000000
    25  H    8.561690   7.893950   6.468893   3.079335   0.000000
    26  H    9.842855   8.264729   7.956503   2.423957   3.114870
    27  H   11.451917  10.467894   9.389796   4.877331   3.038348
    28  H   12.318349  10.761520  10.393293   4.947041   4.755917
    29  H    3.948745   4.688400   1.949545   5.061317   4.976321
    30  H    6.084381   6.788411   4.178855   5.450584   4.066191
                   26         27         28         29         30
    26  H    0.000000
    27  H    3.186099   0.000000
    28  H    2.535761   3.068617   0.000000
    29  H    7.056861   7.941871   9.346840   0.000000
    30  H    6.837873   6.772539   8.806255   2.263112   0.000000
 Stoichiometry    C14H13NO2
 Framework group  C1[X(C14H13NO2)]
 Deg. of freedom    84
 Full point group                 C1      NOp   1
 Largest Abelian subgroup         C1      NOp   1
 Largest concise Abelian subgroup C1      NOp   1
                         Standard orientation:                         
 ---------------------------------------------------------------------
 Center     Atomic      Atomic             Coordinates (Angstroms)
 Number     Number       Type             X           Y           Z
 ---------------------------------------------------------------------
      1          6           0       -7.987679    1.170242   -0.134757
      2          7           0       -6.746290    0.445061   -0.246356
      3          6           0       -5.473089    0.953259   -0.060140
      4          6           0       -4.349503    0.149497   -0.008528
      5          6           0       -1.549234   -1.071019    0.785287
      6          6           0       -0.978290   -0.000120   -0.007612
      7          6           0        0.282433    0.717426    0.193945
      8          6           0        1.578335    0.204251    0.260261
      9          6           0        2.815115    1.023954    0.306729
     10          6           0        4.222099    0.614036    0.533428
     11          6           0        5.184178    1.410331    0.032450
     12          6           0        6.033953    0.165823   -0.304042
     13          8           0        7.214364    0.421757   -0.541106
     14          8           0        5.437503   -0.901354   -0.251561
     15          6           0       -0.273083   -2.171867    0.521359
     16          6           0       -2.109858   -2.333113   -0.278987
     17          6           0       -0.948808   -1.477201   -0.566636
     18          1           0       -8.814239    0.477959   -0.289093
     19          1           0       -8.058911    1.953997   -0.898678
     20          1           0       -8.115420    1.624971    0.854983
     21          1           0       -6.835864   -0.547466   -0.408647
     22          1           0       -5.642503    2.007938    0.131823
     23          1           0       -4.748005   -0.834360   -0.367811
     24          1           0        0.214194    1.818862    0.229842
     25          1           0        1.709276   -0.864854    0.018417
     26          1           0        2.621070    2.106117    0.229071
     27          1           0        4.523482   -0.321950    1.026911
     28          1           0        5.106346    2.460355   -0.128708
     29          1           0       -3.140962   -1.935116   -0.287360
     30          1           0       -1.488785   -3.358093    0.318548
 ---------------------------------------------------------------------
 Rotational constants (GHZ):           1.5307242           0.1029608           0.0976834
 Standard basis: 6-31G(2df,p) (6D, 7F)
 There are   592 symmetry adapted cartesian basis functions of A   symmetry.
 There are   541 symmetry adapted basis functions of A   symmetry.
   541 basis functions,   839 primitive gaussians,   592 cartesian basis functions
    60 alpha electrons       60 beta electrons
       nuclear repulsion energy       937.4410405750 Hartrees.
 NAtoms=   30 NActive=   30 NUniq=   30 SFac= 1.00D+00 NAtFMM=   60 NAOKFM=F Big=F
 Integral buffers will be    131072 words long.
 Raffenetti 2 integral format.
 Two-electron integral symmetry is turned on.
 One-electron integrals computed using PRISM.
 PrsmSu:  requested number of processors reduced to:  12 ShMem   1 Linda.
 NBasis=   541 RedAO= T EigKep=  3.92D-04  NBF=   541
 NBsUse=   541 1.00D-06 EigRej= -1.00D+00 NBFU=   541
 Initial guess from the checkpoint file:  "CNCdCc1c2ccccccqdOroc1CdC2.chk"
 B after Tr=    -0.000000   -0.000000    0.000000
         Rot=    0.999777   -0.021090    0.000663    0.000540 Ang=  -2.42 deg.
 ExpMin= 1.61D-01 ExpMax= 5.48D+03 ExpMxC= 8.25D+02 IAcc=2 IRadAn=         4 AccDes= 0.00D+00
 Harris functional with IExCor=  402 and IRadAn=       4 diagonalized for initial guess.
 HarFok:  IExCor=  402 AccDes= 0.00D+00 IRadAn=         4 IDoV= 1 UseB2=F ITyADJ=14
 ICtDFT=  3500011 ScaDFX=  1.000000  1.000000  1.000000  1.000000
 FoFCou: FMM=F IPFlag=           0 FMFlag=      100000 FMFlg1=           0
         NFxFlg=           0 DoJE=T BraDBF=F KetDBF=T FulRan=T
         wScrn=  0.000000 ICntrl=       500 IOpCl=  0 I1Cent=   200000004 NGrid=           0
         NMat0=    1 NMatS0=      1 NMatT0=    0 NMatD0=    1 NMtDS0=    0 NMtDT0=    0
 Petite list used in FoFCou.
 Requested convergence on RMS density matrix=1.00D-08 within 128 cycles.
 Requested convergence on MAX density matrix=1.00D-06.
 Requested convergence on             energy=1.00D-06.
 No special actions if energy rises.
 Integral accuracy reduced to 1.0D-05 until final iterations.
slurmstepd: error: *** JOB 27449316 ON lewis4-r630-hpc4-node229 CANCELLED AT 2023-05-20T20:26:31 ***
