### Starting Gaussian ###
 Entering Gaussian System, Link 0=g16
 Initial command:
 /cluster/software/gaussian/gaussian-16-A.03/avx2/g16/l1.exe "/local/scratch/yxie/Gau-18102.inp" -scrdir="/local/scratch/yxie/"
 Entering Link 1 = /cluster/software/gaussian/gaussian-16-A.03/avx2/g16/l1.exe PID=     18103.
  
 Copyright (c) 1988,1990,1992,1993,1995,1998,2003,2009,2016,
            Gaussian, Inc.  All Rights Reserved.
  
 This is part of the Gaussian(R) 16 program.  It is based on
 the Gaussian(R) 09 system (copyright 2009, Gaussian, Inc.),
 the Gaussian(R) 03 system (copyright 2003, Gaussian, Inc.),
 the Gaussian(R) 98 system (copyright 1998, Gaussian, Inc.),
 the Gaussian(R) 94 system (copyright 1995, Gaussian, Inc.),
 the Gaussian 92(TM) system (copyright 1992, Gaussian, Inc.),
 the Gaussian 90(TM) system (copyright 1990, Gaussian, Inc.),
 the Gaussian 88(TM) system (copyright 1988, Gaussian, Inc.),
 the Gaussian 86(TM) system (copyright 1986, Carnegie Mellon
 University), and the Gaussian 82(TM) system (copyright 1983,
 Carnegie Mellon University). Gaussian is a federally registered
 trademark of Gaussian, Inc.
  
 This software contains proprietary and confidential information,
 including trade secrets, belonging to Gaussian, Inc.
  
 This software is provided under written license and may be
 used, copied, transmitted, or stored only in accord with that
 written license.
  
 The following legend is applicable only to US Government
 contracts under FAR:
  
                    RESTRICTED RIGHTS LEGEND
  
 Use, reproduction and disclosure by the US Government is
 subject to restrictions as set forth in subparagraphs (a)
 and (c) of the Commercial Computer Software - Restricted
 Rights clause in FAR 52.227-19.
  
 Gaussian, Inc.
 340 Quinnipiac St., Bldg. 40, Wallingford CT 06492
  
  
 ---------------------------------------------------------------
 Warning -- This program may not be used in any manner that
 competes with the business of Gaussian, Inc. or will provide
 assistance to any competitor of Gaussian, Inc.  The licensee
 of this program is prohibited from giving any competitor of
 Gaussian, Inc. access to this program.  By using this program,
 the user acknowledges that Gaussian, Inc. is engaged in the
 business of creating and licensing software in the field of
 computational chemistry and represents and warrants to the
 licensee that it is not a competitor of Gaussian, Inc. and that
 it will not use this program in any manner prohibited above.
 ---------------------------------------------------------------
  

 Cite this work as:
 Gaussian 16, Revision A.03,
 M. J. Frisch, G. W. Trucks, H. B. Schlegel, G. E. Scuseria, 
 M. A. Robb, J. R. Cheeseman, G. Scalmani, V. Barone, 
 G. A. Petersson, H. Nakatsuji, X. Li, M. Caricato, A. V. Marenich, 
 J. Bloino, B. G. Janesko, R. Gomperts, B. Mennucci, H. P. Hratchian, 
 J. V. Ortiz, A. F. Izmaylov, J. L. Sonnenberg, D. Williams-Young, 
 F. Ding, F. Lipparini, F. Egidi, J. Goings, B. Peng, A. Petrone, 
 T. Henderson, D. Ranasinghe, V. G. Zakrzewski, J. Gao, N. Rega, 
 G. Zheng, W. Liang, M. Hada, M. Ehara, K. Toyota, R. Fukuda, 
 J. Hasegawa, M. Ishida, T. Nakajima, Y. Honda, O. Kitao, H. Nakai, 
 T. Vreven, K. Throssell, J. A. Montgomery, Jr., J. E. Peralta, 
 F. Ogliaro, M. J. Bearpark, J. J. Heyd, E. N. Brothers, K. N. Kudin, 
 V. N. Staroverov, T. A. Keith, R. Kobayashi, J. Normand, 
 K. Raghavachari, A. P. Rendell, J. C. Burant, S. S. Iyengar, 
 J. Tomasi, M. Cossi, J. M. Millam, M. Klene, C. Adamo, R. Cammi, 
 J. W. Ochterski, R. L. Martin, K. Morokuma, O. Farkas, 
 J. B. Foresman, and D. J. Fox, Gaussian, Inc., Wallingford CT, 2016.
 
 ******************************************
 Gaussian 16:  ES64L-G16RevA.03 25-Dec-2016
                16-May-2023 
 ******************************************
 %chk=CNCdCC1dCCdCCdCCdC[SH]dCCS1.chk
 %NProcShared=20
 Will use up to   20 processors via shared memory.
 -----------------------------
 # opt freq b3lyp/6-31g(2df,p)
 -----------------------------
 1/18=20,19=15,26=3,38=1/1,3;
 2/9=110,12=2,17=6,18=5,40=1/2;
 3/5=1,6=6,7=104,11=2,25=1,30=1,71=1,74=-5/1,2,3;
 4//1;
 5/5=2,38=5/2;
 6/7=2,8=2,9=2,10=2,28=1/1;
 7//1,2,3,16;
 1/18=20,19=15,26=3/3(2);
 2/9=110/2;
 99//99;
 2/9=110/2;
 3/5=1,6=6,7=104,11=2,25=1,30=1,71=1,74=-5/1,2,3;
 4/5=5,16=3,69=1/1;
 5/5=2,38=5/2;
 7//1,2,3,16;
 1/18=20,19=15,26=3/3(-5);
 2/9=110/2;
 6/7=2,8=2,9=2,10=2,19=2,28=1/1;
 99/9=1/99;
 -------------------
 Title Card Required
 -------------------
 Symbolic Z-matrix:
 Charge =  0 Multiplicity = 1
 C                     1.16721   0.10904   0.04878 
 N                     2.96089   0.24472   0.29899 
 C                     4.16308   1.06963   1.60743 
 C                     5.85339   1.70731   2.34138 
 C                     7.53771   2.7174    3.35594 
 C                     7.24484   1.50115   2.38655 
 C                     7.87767   1.87903   3.70243 
 C                     9.30312   1.71515   3.38896 
 C                     10.33791   1.88104   4.31513 
 C                     11.49344   2.37793   4.12709 
 C                     11.90791   2.84917   5.2426 
 C                     13.17326   2.79597   5.39855 
 S                     12.51456   3.35268   7.51101 
 C                     14.16019   3.82579   6.25821 
 C                     12.07506   4.43307   6.03763 
 S                     9.5643    3.8042    4.92645 
 H                     0.75747  -0.42494  -0.89199 
 H                     0.72167   1.1022   -0.00734 
 H                     0.72126  -0.44793   0.87263 
 H                     3.12546  -0.29763  -0.67545 
 H                     2.92243   1.18325   1.91065 
 H                     5.56998   0.75617   1.07344 
 H                     7.48266   0.86265   1.44685 
 H                     6.86873   2.51888   4.74781 
 H                     9.49143   1.45445   2.3916 
 H                     10.40174   2.24264   5.62987 
 H                     11.81389   2.05823   3.29323 
 H                     10.94417   3.46632   6.29457 
 H                     13.95151   2.7075    4.6408 
 H                     13.57069   3.38109   8.26517 
 H                     15.61506   3.46182   5.91074 
 H                     13.61645   4.90312   6.49496 
 H                     13.70127   4.20752   6.76467 
 
 Add virtual bond connecting atoms H26        and C9         Dist= 2.58D+00.
 Add virtual bond connecting atoms H28        and C11        Dist= 2.94D+00.
 Add virtual bond connecting atoms H28        and C15        Dist= 2.85D+00.
 Add virtual bond connecting atoms H28        and H26        Dist= 2.82D+00.
 Add virtual bond connecting atoms H22        and C3         Dist= 2.90D+00.
 Add virtual bond connecting atoms H31        and C14        Dist= 2.91D+00.
 Add virtual bond connecting atoms H24        and C5         Dist= 2.94D+00.
 Add virtual bond connecting atoms H24        and C7         Dist= 3.00D+00.
 Add virtual bond connecting atoms H22        and C4         Dist= 3.04D+00.
 Add virtual bond connecting atoms N2         and C1         Dist= 3.43D+00.
 Add virtual bond connecting atoms C3         and N2         Dist= 3.70D+00.
 Add virtual bond connecting atoms H21        and N2         Dist= 3.53D+00.

 GradGradGradGradGradGradGradGradGradGradGradGradGradGradGradGradGradGrad
 Berny optimization.
 Initialization pass.
                           ----------------------------
                           !    Initial Parameters    !
                           ! (Angstroms and Degrees)  !
 --------------------------                            --------------------------
 ! Name  Definition              Value          Derivative Info.                !
 --------------------------------------------------------------------------------
 ! R1    R(1,2)                  1.8161         estimate D2E/DX2                !
 ! R2    R(1,17)                 1.1567         estimate D2E/DX2                !
 ! R3    R(1,18)                 1.09           estimate D2E/DX2                !
 ! R4    R(1,19)                 1.0899         estimate D2E/DX2                !
 ! R5    R(2,3)                  1.959          estimate D2E/DX2                !
 ! R6    R(2,20)                 1.1273         estimate D2E/DX2                !
 ! R7    R(2,21)                 1.8654         estimate D2E/DX2                !
 ! R8    R(3,21)                 1.2822         estimate D2E/DX2                !
 ! R9    R(3,22)                 1.5371         estimate D2E/DX2                !
 ! R10   R(4,6)                  1.4074         estimate D2E/DX2                !
 ! R11   R(4,22)                 1.6102         estimate D2E/DX2                !
 ! R12   R(5,6)                  1.5826         estimate D2E/DX2                !
 ! R13   R(5,7)                  0.9688         estimate D2E/DX2                !
 ! R14   R(5,24)                 1.557          estimate D2E/DX2                !
 ! R15   R(6,7)                  1.5082         estimate D2E/DX2                !
 ! R16   R(6,23)                 1.1607         estimate D2E/DX2                !
 ! R17   R(7,8)                  1.4687         estimate D2E/DX2                !
 ! R18   R(7,24)                 1.5875         estimate D2E/DX2                !
 ! R19   R(8,9)                  1.3986         estimate D2E/DX2                !
 ! R20   R(8,25)                 1.0479         estimate D2E/DX2                !
 ! R21   R(9,10)                 1.2718         estimate D2E/DX2                !
 ! R22   R(9,16)                 2.1612         estimate D2E/DX2                !
 ! R23   R(9,26)                 1.3651         estimate D2E/DX2                !
 ! R24   R(10,11)                1.2799         estimate D2E/DX2                !
 ! R25   R(10,27)                0.9488         estimate D2E/DX2                !
 ! R26   R(11,12)                1.276          estimate D2E/DX2                !
 ! R27   R(11,15)                1.7801         estimate D2E/DX2                !
 ! R28   R(11,28)                1.5544         estimate D2E/DX2                !
 ! R29   R(12,14)                1.6654         estimate D2E/DX2                !
 ! R30   R(12,29)                1.0898         estimate D2E/DX2                !
 ! R31   R(13,14)                2.1217         estimate D2E/DX2                !
 ! R32   R(13,15)                1.8792         estimate D2E/DX2                !
 ! R33   R(13,30)                1.2981         estimate D2E/DX2                !
 ! R34   R(14,31)                1.5394         estimate D2E/DX2                !
 ! R35   R(14,32)                1.2298         estimate D2E/DX2                !
 ! R36   R(14,33)                0.7828         estimate D2E/DX2                !
 ! R37   R(15,28)                1.5098         estimate D2E/DX2                !
 ! R38   R(26,28)                1.4945         estimate D2E/DX2                !
 ! R39   R(32,33)                0.7509         estimate D2E/DX2                !
 ! A1    A(2,1,17)             119.7604         estimate D2E/DX2                !
 ! A2    A(2,1,18)             110.0436         estimate D2E/DX2                !
 ! A3    A(2,1,19)             109.7646         estimate D2E/DX2                !
 ! A4    A(17,1,18)            103.5301         estimate D2E/DX2                !
 ! A5    A(17,1,19)            103.5286         estimate D2E/DX2                !
 ! A6    A(18,1,19)            109.7135         estimate D2E/DX2                !
 ! A7    A(1,2,3)              136.8498         estimate D2E/DX2                !
 ! A8    A(1,2,20)              89.3783         estimate D2E/DX2                !
 ! A9    A(1,2,21)              97.8312         estimate D2E/DX2                !
 ! A10   A(3,2,20)             133.6578         estimate D2E/DX2                !
 ! A11   A(2,3,22)             104.1098         estimate D2E/DX2                !
 ! A12   A(6,4,22)              96.4747         estimate D2E/DX2                !
 ! A13   A(6,5,24)             111.7193         estimate D2E/DX2                !
 ! A14   A(4,6,5)               95.1661         estimate D2E/DX2                !
 ! A15   A(4,6,7)              113.9623         estimate D2E/DX2                !
 ! A16   A(4,6,23)             104.9022         estimate D2E/DX2                !
 ! A17   A(5,6,23)             151.7275         estimate D2E/DX2                !
 ! A18   A(7,6,23)             139.3039         estimate D2E/DX2                !
 ! A19   A(5,7,8)              111.1506         estimate D2E/DX2                !
 ! A20   A(6,7,8)              101.1314         estimate D2E/DX2                !
 ! A21   A(6,7,24)             114.1316         estimate D2E/DX2                !
 ! A22   A(8,7,24)             143.3563         estimate D2E/DX2                !
 ! A23   A(7,8,9)              124.2995         estimate D2E/DX2                !
 ! A24   A(7,8,25)             113.9102         estimate D2E/DX2                !
 ! A25   A(9,8,25)             121.7901         estimate D2E/DX2                !
 ! A26   A(8,9,10)             128.3641         estimate D2E/DX2                !
 ! A27   A(8,9,16)              91.6057         estimate D2E/DX2                !
 ! A28   A(8,9,26)             134.7341         estimate D2E/DX2                !
 ! A29   A(10,9,16)             91.1108         estimate D2E/DX2                !
 ! A30   A(10,9,26)             89.7951         estimate D2E/DX2                !
 ! A31   A(16,9,26)             60.5659         estimate D2E/DX2                !
 ! A32   A(9,10,11)            108.0111         estimate D2E/DX2                !
 ! A33   A(9,10,27)            107.7677         estimate D2E/DX2                !
 ! A34   A(11,10,27)           141.3202         estimate D2E/DX2                !
 ! A35   A(10,11,12)           114.348          estimate D2E/DX2                !
 ! A36   A(10,11,15)           138.353          estimate D2E/DX2                !
 ! A37   A(10,11,28)           122.359          estimate D2E/DX2                !
 ! A38   A(12,11,15)            83.6501         estimate D2E/DX2                !
 ! A39   A(12,11,28)           123.2739         estimate D2E/DX2                !
 ! A40   A(11,12,14)           128.6785         estimate D2E/DX2                !
 ! A41   A(11,12,29)           128.7957         estimate D2E/DX2                !
 ! A42   A(14,12,29)            89.193          estimate D2E/DX2                !
 ! A43   A(14,13,15)            65.8095         estimate D2E/DX2                !
 ! A44   A(14,13,30)            72.9691         estimate D2E/DX2                !
 ! A45   A(15,13,30)           129.2893         estimate D2E/DX2                !
 ! A46   A(12,14,13)            72.9782         estimate D2E/DX2                !
 ! A47   A(12,14,31)           107.2982         estimate D2E/DX2                !
 ! A48   A(12,14,32)           112.2756         estimate D2E/DX2                !
 ! A49   A(12,14,33)           106.7428         estimate D2E/DX2                !
 ! A50   A(13,14,31)           144.4476         estimate D2E/DX2                !
 ! A51   A(13,14,32)            74.8545         estimate D2E/DX2                !
 ! A52   A(13,14,33)            43.2827         estimate D2E/DX2                !
 ! A53   A(31,14,32)           131.9464         estimate D2E/DX2                !
 ! A54   A(31,14,33)           144.6214         estimate D2E/DX2                !
 ! A55   A(11,15,13)            81.9855         estimate D2E/DX2                !
 ! A56   A(13,15,28)            70.9506         estimate D2E/DX2                !
 ! A57   A(3,22,4)              76.5311         estimate D2E/DX2                !
 ! A58   A(9,26,28)            131.4717         estimate D2E/DX2                !
 ! A59   A(11,28,26)            66.356          estimate D2E/DX2                !
 ! A60   A(15,28,26)           136.0927         estimate D2E/DX2                !
 ! A61   L(20,2,21,1,-1)       187.2095         estimate D2E/DX2                !
 ! A62   L(21,3,22,20,-1)      170.6517         estimate D2E/DX2                !
 ! A63   L(20,2,21,1,-2)       181.1373         estimate D2E/DX2                !
 ! A64   L(21,3,22,20,-2)      182.4227         estimate D2E/DX2                !
 ! D1    D(17,1,2,3)           176.8535         estimate D2E/DX2                !
 ! D2    D(17,1,2,20)            0.5724         estimate D2E/DX2                !
 ! D3    D(17,1,2,21)          179.435          estimate D2E/DX2                !
 ! D4    D(18,1,2,3)            57.1519         estimate D2E/DX2                !
 ! D5    D(18,1,2,20)         -119.1292         estimate D2E/DX2                !
 ! D6    D(18,1,2,21)           59.7334         estimate D2E/DX2                !
 ! D7    D(19,1,2,3)           -63.6876         estimate D2E/DX2                !
 ! D8    D(19,1,2,20)          120.0312         estimate D2E/DX2                !
 ! D9    D(19,1,2,21)          -61.1061         estimate D2E/DX2                !
 ! D10   D(1,2,3,22)          -178.3848         estimate D2E/DX2                !
 ! D11   D(20,2,3,22)           -3.528          estimate D2E/DX2                !
 ! D12   D(2,3,22,4)           174.9373         estimate D2E/DX2                !
 ! D13   D(22,4,6,5)           165.6474         estimate D2E/DX2                !
 ! D14   D(22,4,6,7)          -161.9037         estimate D2E/DX2                !
 ! D15   D(22,4,6,23)            5.7407         estimate D2E/DX2                !
 ! D16   D(6,4,22,3)           169.4356         estimate D2E/DX2                !
 ! D17   D(24,5,6,4)            63.6441         estimate D2E/DX2                !
 ! D18   D(24,5,6,23)         -160.8557         estimate D2E/DX2                !
 ! D19   D(6,5,7,24)          -122.4609         estimate D2E/DX2                !
 ! D20   D(4,6,7,8)           -173.398          estimate D2E/DX2                !
 ! D21   D(4,6,7,24)            -3.5966         estimate D2E/DX2                !
 ! D22   D(23,6,7,8)            25.0913         estimate D2E/DX2                !
 ! D23   D(23,6,7,24)         -165.1073         estimate D2E/DX2                !
 ! D24   D(5,7,8,9)            104.3161         estimate D2E/DX2                !
 ! D25   D(5,7,8,25)           -75.8593         estimate D2E/DX2                !
 ! D26   D(6,7,8,9)           -176.569          estimate D2E/DX2                !
 ! D27   D(6,7,8,25)             3.2556         estimate D2E/DX2                !
 ! D28   D(24,7,8,9)            19.1393         estimate D2E/DX2                !
 ! D29   D(24,7,8,25)         -161.0361         estimate D2E/DX2                !
 ! D30   D(7,8,9,10)          -143.4035         estimate D2E/DX2                !
 ! D31   D(7,8,9,16)           -50.714          estimate D2E/DX2                !
 ! D32   D(7,8,9,26)            -2.3406         estimate D2E/DX2                !
 ! D33   D(25,8,9,10)           36.7852         estimate D2E/DX2                !
 ! D34   D(25,8,9,16)          129.4746         estimate D2E/DX2                !
 ! D35   D(25,8,9,26)          177.8481         estimate D2E/DX2                !
 ! D36   D(8,9,10,11)          153.7032         estimate D2E/DX2                !
 ! D37   D(8,9,10,27)          -41.2406         estimate D2E/DX2                !
 ! D38   D(16,9,10,11)          60.7746         estimate D2E/DX2                !
 ! D39   D(16,9,10,27)        -134.1692         estimate D2E/DX2                !
 ! D40   D(26,9,10,11)           0.2196         estimate D2E/DX2                !
 ! D41   D(26,9,10,27)         165.2757         estimate D2E/DX2                !
 ! D42   D(8,9,26,28)         -111.3855         estimate D2E/DX2                !
 ! D43   D(10,9,26,28)          39.0915         estimate D2E/DX2                !
 ! D44   D(16,9,26,28)         -52.2996         estimate D2E/DX2                !
 ! D45   D(9,10,11,12)         148.5492         estimate D2E/DX2                !
 ! D46   D(9,10,11,15)        -102.4143         estimate D2E/DX2                !
 ! D47   D(9,10,11,28)         -32.9975         estimate D2E/DX2                !
 ! D48   D(27,10,11,12)         -8.3136         estimate D2E/DX2                !
 ! D49   D(27,10,11,15)        100.7229         estimate D2E/DX2                !
 ! D50   D(27,10,11,28)        170.1397         estimate D2E/DX2                !
 ! D51   D(10,11,12,14)        149.3374         estimate D2E/DX2                !
 ! D52   D(10,11,12,29)         20.9922         estimate D2E/DX2                !
 ! D53   D(15,11,12,14)          8.5408         estimate D2E/DX2                !
 ! D54   D(15,11,12,29)       -119.8045         estimate D2E/DX2                !
 ! D55   D(28,11,12,14)        -29.0998         estimate D2E/DX2                !
 ! D56   D(28,11,12,29)       -157.4451         estimate D2E/DX2                !
 ! D57   D(10,11,15,13)        171.9638         estimate D2E/DX2                !
 ! D58   D(12,11,15,13)        -68.0964         estimate D2E/DX2                !
 ! D59   D(10,11,28,26)         40.0901         estimate D2E/DX2                !
 ! D60   D(12,11,28,26)       -141.5954         estimate D2E/DX2                !
 ! D61   D(11,12,14,13)         47.4556         estimate D2E/DX2                !
 ! D62   D(11,12,14,31)       -169.8116         estimate D2E/DX2                !
 ! D63   D(11,12,14,32)        -17.6666         estimate D2E/DX2                !
 ! D64   D(11,12,14,33)         19.9707         estimate D2E/DX2                !
 ! D65   D(29,12,14,13)       -170.2296         estimate D2E/DX2                !
 ! D66   D(29,12,14,31)        -27.4968         estimate D2E/DX2                !
 ! D67   D(29,12,14,32)        124.6483         estimate D2E/DX2                !
 ! D68   D(29,12,14,33)        162.2855         estimate D2E/DX2                !
 ! D69   D(15,13,14,12)        -69.3385         estimate D2E/DX2                !
 ! D70   D(15,13,14,31)       -165.4488         estimate D2E/DX2                !
 ! D71   D(15,13,14,32)         50.2363         estimate D2E/DX2                !
 ! D72   D(15,13,14,33)         70.5243         estimate D2E/DX2                !
 ! D73   D(30,13,14,12)        140.9337         estimate D2E/DX2                !
 ! D74   D(30,13,14,31)         44.8234         estimate D2E/DX2                !
 ! D75   D(30,13,14,32)        -99.4915         estimate D2E/DX2                !
 ! D76   D(30,13,14,33)        -79.2034         estimate D2E/DX2                !
 ! D77   D(14,13,15,11)         86.8517         estimate D2E/DX2                !
 ! D78   D(14,13,15,28)        143.2089         estimate D2E/DX2                !
 ! D79   D(30,13,15,11)        125.3708         estimate D2E/DX2                !
 ! D80   D(30,13,15,28)       -178.2719         estimate D2E/DX2                !
 ! D81   D(13,15,28,26)       -107.5817         estimate D2E/DX2                !
 ! D82   D(9,26,28,11)         -47.6501         estimate D2E/DX2                !
 ! D83   D(9,26,28,15)         -32.8784         estimate D2E/DX2                !
 --------------------------------------------------------------------------------
 Trust Radius=3.00D-01 FncErr=1.00D-07 GrdErr=1.00D-06 EigMax=2.50D+02 EigMin=1.00D-04
 Number of steps in this run=    196 maximum allowed number of steps=    198.
 GradGradGradGradGradGradGradGradGradGradGradGradGradGradGradGradGradGrad

                          Input orientation:                          
 ---------------------------------------------------------------------
 Center     Atomic      Atomic             Coordinates (Angstroms)
 Number     Number       Type             X           Y           Z
 ---------------------------------------------------------------------
      1          6           0        1.167210    0.109040    0.048780
      2          7           0        2.960890    0.244720    0.298990
      3          6           0        4.163080    1.069630    1.607430
      4          6           0        5.853390    1.707310    2.341380
      5          6           0        7.537710    2.717400    3.355940
      6          6           0        7.244840    1.501150    2.386550
      7          6           0        7.877670    1.879030    3.702430
      8          6           0        9.303120    1.715150    3.388960
      9          6           0       10.337910    1.881040    4.315130
     10          6           0       11.493440    2.377930    4.127090
     11          6           0       11.907910    2.849170    5.242600
     12          6           0       13.173260    2.795970    5.398550
     13         16           0       12.514560    3.352680    7.511010
     14          6           0       14.160190    3.825790    6.258210
     15          6           0       12.075060    4.433070    6.037630
     16         16           0        9.564300    3.804200    4.926450
     17          1           0        0.757470   -0.424940   -0.891990
     18          1           0        0.721670    1.102200   -0.007340
     19          1           0        0.721260   -0.447930    0.872630
     20          1           0        3.125460   -0.297630   -0.675450
     21          1           0        2.922430    1.183250    1.910650
     22          1           0        5.569980    0.756170    1.073440
     23          1           0        7.482660    0.862650    1.446850
     24          1           0        6.868730    2.518880    4.747810
     25          1           0        9.491430    1.454450    2.391600
     26          1           0       10.401740    2.242640    5.629870
     27          1           0       11.813890    2.058230    3.293230
     28          1           0       10.944170    3.466320    6.294570
     29          1           0       13.951510    2.707500    4.640800
     30          1           0       13.570690    3.381090    8.265170
     31          1           0       15.615060    3.461820    5.910740
     32          1           0       13.616450    4.903120    6.494960
     33          1           0       13.701270    4.207520    6.764670
 ---------------------------------------------------------------------
                    Distance matrix (angstroms):
                    1          2          3          4          5
     1  C    0.000000
     2  N    1.816123   0.000000
     3  C    3.511034   1.959018   0.000000
     4  C    5.456259   3.831068   1.949991   0.000000
     5  C    7.637023   6.033769   4.142531   2.210554   0.000000
     6  C    6.658883   4.928362   3.207878   1.407365   1.582641
     7  C    7.842978   6.199121   4.340776   2.445333   0.968758
     8  C    8.940326   7.206522   5.478189   3.605291   2.030337
     9  C   10.268567   8.557298   6.791064   4.902733   3.075819
    10  C   11.331880   9.592150   7.860949   5.953877   4.044467
    11  C   12.241189  10.548536   8.738628   6.810149   4.761880
    12  C   13.415844  11.696448   9.926539   8.006995   5.994819
    13  S   13.963110  12.367104  10.479112   8.590896   6.514386
    14  C   14.872417  13.181832  11.365227   9.425096   7.314981
    15  C   13.173639  11.556053   9.671547   7.733124   5.542791
    16  S   10.390235   8.814097   6.904125   4.985016   2.784727
    17  H    1.156750   2.592670   4.480962   6.400748   8.595980
    18  H    1.089964   2.417275   3.801558   5.676019   7.770388
    19  H    1.089870   2.413456   3.832629   5.756826   7.915184
    20  H    2.127118   1.127280   2.856151   4.534606   6.694062
    21  H    2.775119   1.865413   1.282211   3.008437   5.073784
    22  H    4.566518   2.769243   1.537130   1.610174   3.595579
    23  H    6.512099   4.705935   3.329901   2.041606   2.662283
    24  H    7.771457   6.343108   4.391225   2.735044   1.556999
    25  H    8.751661   6.963506   5.399474   3.647163   2.518336
    26  H   10.998971   9.368896   7.515108   5.638105   3.687658
    27  H   11.299451   9.519974   7.896464   6.046216   4.327141
    28  H   12.077672  10.490874   8.584672   6.681158   4.560745
    29  H   13.830292  12.071053  10.377732   8.477456   6.541238
    30  H   15.233571  13.633220  11.754636   9.871654   7.806271
    31  H   15.948168  14.211597  12.465508  10.540818   8.504396
    32  H   14.816208  13.176938  11.311490   9.366458   7.182054
    33  H   14.798763  13.147797  11.288071   9.349105   7.199262
                    6          7          8          9         10
     6  C    0.000000
     7  C    1.508246   0.000000
     8  C    2.299378   1.468682   0.000000
     9  C    3.664808   2.535387   1.398607   0.000000
    10  C    4.674273   3.674647   2.404499   1.271813   0.000000
    11  C    5.631909   4.422231   3.392184   2.064552   1.279928
    12  C    6.774575   5.635679   4.492728   3.170190   2.147828
    13  S    7.580119   6.178809   5.475961   4.137291   3.666570
    14  C    8.259284   7.056341   6.023166   4.708231   3.708035
    15  C    6.727374   5.440070   4.699595   3.535188   2.865667
    16  S    4.139448   2.837116   2.606956   2.161187   2.528795
    17  H    7.519615   8.781470   9.794624  11.145244  12.178189
    18  H    6.960001   8.097789   9.249424  10.571774  11.608274
    19  H    6.974809   8.039696   9.201041  10.476396  11.602450
    20  H    5.438818   6.818151   7.663824   9.037252  10.012297
    21  H    4.360134   5.314978   6.571265   7.826735   8.933201
    22  H    2.254863   3.673940   4.496400   5.874270   6.858736
    23  H    1.160722   2.505335   2.795107   4.173320   5.056295
    24  H    2.598612   1.587510   2.901501   3.553767   4.668308
    25  H    2.247081   2.121972   1.047928   2.144406   2.805848
    26  H    4.586387   3.196587   2.550860   1.365053   1.862380
    27  H    4.691335   3.961488   2.535909   1.803938   0.948799
    28  H    5.728835   4.317650   3.768582   2.607460   2.486817
    29  H    7.177489   6.201486   4.915220   3.721183   2.532710
    30  H    8.837914   7.448843   6.690660   5.320135   4.737616
    31  H    9.291110   8.200552   7.017893   5.735255   4.619954
    32  H    8.309624   7.062361   6.198000   4.963210   4.060858
    33  H    8.256989   6.979505   6.078738   4.767069   3.895990
                   11         12         13         14         15
    11  C    0.000000
    12  C    1.276033   0.000000
    13  S    2.401506   2.281732   0.000000
    14  C    2.656693   1.665405   2.121659   0.000000
    15  C    1.780099   2.072333   1.879162   2.182936   0.000000
    16  S    2.550400   3.776771   3.948146   4.785003   2.816756
    17  H   13.140978  14.286252  14.936867  15.774250  14.131799
    18  H   12.479813  13.679715  14.165539  15.075440  13.286678
    19  H   12.454262  13.640350  14.056836  15.095496  13.394408
    20  H   11.047945  12.141751  12.980681  13.669071  12.146617
    21  H    9.727077  10.947412  11.317218  12.335783  10.552911
    22  H    7.869682   8.982050   9.818929  10.492670   8.971000
    23  H    6.159287   7.192815   8.264037   8.747502   7.410351
    24  H    5.074174   6.344079   6.340812   7.560073   5.695053
    25  H    3.989088   4.939362   6.241070   6.509320   5.370368
    26  H    1.669253   2.835667   3.038895   4.126393   2.786441
    27  H    2.105818   2.612378   4.467237   4.173787   3.638654
    28  H    1.554448   2.494206   1.989665   3.236252   1.509813
    29  H    2.135073   1.089810   3.274017   1.977406   2.906852
    30  H    3.490517   2.952597   1.298066   2.138494   2.881927
    31  H    3.816374   2.582263   3.490827   1.539434   3.673013
    32  H    2.950631   2.416322   2.156475   1.229774   1.675106
    33  H    2.716239   2.034097   1.641967   0.782833   1.795555
                   16         17         18         19         20
    16  S    0.000000
    17  H   11.371021   0.000000
    18  H   10.480229   1.765232   0.000000
    19  H   10.616658   1.765141   1.782484   0.000000
    20  H    9.469158   2.381276   2.860787   2.863445   0.000000
    21  H    7.751056   3.889488   2.920377   2.929741   2.986995
    22  H    6.331727   5.330871   4.979351   5.000027   3.185088
    23  H    5.009347   7.235761   6.919757   6.911142   4.983533
    24  H    2.991665   8.821617   7.899670   7.849227   7.166348
    25  H    3.457181   9.518200   9.098774   9.101769   7.280258
    26  H    1.906456  11.944144  11.259773  11.116753   9.957624
    27  H    3.282754  12.080009  11.612282  11.626977   9.838156
    28  H    1.972297  13.059763  12.239389  12.215837  11.130172
    29  H    4.531220  14.646045  14.114208  14.113659  12.429669
    30  H    5.232326  16.202409  15.450731  15.310744  14.232726
    31  H    6.139849  16.796786  16.198906  16.201666  14.611690
    32  H    4.481938  15.757811  14.933260  15.050922  13.730384
    33  H    4.544914  15.736140  14.965732  14.995666  13.693046
                   21         22         23         24         25
    21  H    0.000000
    22  H    2.809420   0.000000
    23  H    4.594953   1.951696   0.000000
    24  H    5.040503   4.277253   3.743841   0.000000
    25  H    6.592164   4.195582   2.297376   3.682838   0.000000
    26  H    8.419916   6.805627   5.284227   3.651917   3.454895
    27  H    9.040751   6.753461   4.857786   5.175192   2.563456
    28  H    9.422286   7.967875   6.500887   4.460865   4.625067
    29  H   11.463754   9.315782   7.446530   7.086099   5.149888
    30  H   12.593485  11.073506   9.481357   7.617841   7.406155
    31  H   13.501684  11.472735   9.634206   8.873547   7.342529
    32  H   12.215375  10.551576   8.912474   7.366740   6.763629
    33  H   12.202095  10.508082   8.839597   7.321396   6.665275
                   26         27         28         29         30
    26  H    0.000000
    27  H    2.736432   0.000000
    28  H    1.494473   3.427415   0.000000
    29  H    3.714192   2.609007   3.514948   0.000000
    30  H    4.275876   5.436588   3.284682   3.706050   0.000000
    31  H    5.361342   4.823932   4.686636   2.224667   3.119184
    32  H    4.261560   4.646902   3.040663   2.893255   2.335019
    33  H    4.004425   4.498060   2.893436   2.612184   1.718004
                   31         32         33
    31  H    0.000000
    32  H    2.532410   0.000000
    33  H    2.224378   0.750864   0.000000
 Stoichiometry    C13H17NS2
 Framework group  C1[X(C13H17NS2)]
 Deg. of freedom    93
 Full point group                 C1      NOp   1
 Largest Abelian subgroup         C1      NOp   1
 Largest concise Abelian subgroup C1      NOp   1
                         Standard orientation:                         
 ---------------------------------------------------------------------
 Center     Atomic      Atomic             Coordinates (Angstroms)
 Number     Number       Type             X           Y           Z
 ---------------------------------------------------------------------
      1          6           0        9.144848   -0.368778    0.229562
      2          7           0        7.485613    0.361837    0.122587
      3          6           0        5.637841   -0.287676    0.082318
      4          6           0        3.705455   -0.192252   -0.161090
      5          6           0        1.548980   -0.477187   -0.554760
      6          6           0        2.568445    0.632133   -0.070140
      7          6           0        1.306718   -0.103802    0.305696
      8          6           0        0.303982    0.959189    0.158731
      9          6           0       -1.053227    0.809726    0.461623
     10          6           0       -2.056041    1.308880   -0.140638
     11          6           0       -3.061196    0.542978    0.062519
     12          6           0       -4.184396    1.147448    0.098541
     13         16           0       -4.793023   -0.912248    0.868945
     14          6           0       -5.686084    0.580658   -0.345598
     15          6           0       -3.983176   -0.702378   -0.813718
     16         16           0       -1.182570   -0.990750   -0.726774
     17          1           0       10.077295    0.313639    0.175524
     18          1           0        9.296424   -1.072921   -0.588502
     19          1           0        9.260264   -0.883111    1.183478
     20          1           0        7.954810    1.381010    0.013492
     21          1           0        6.503165   -1.218678    0.251176
     22          1           0        4.794811    0.989415   -0.062975
     23          1           0        2.983542    1.715979   -0.085920
     24          1           0        1.486865   -1.675552    0.437364
     25          1           0        0.693682    1.864368   -0.197551
     26          1           0       -1.833143   -0.224199    0.893019
     27          1           0       -1.841402    2.204996   -0.366745
     28          1           0       -2.916445   -0.997362    0.213221
     29          1           0       -4.448495    2.122497   -0.310380
     30          1           0       -6.050469   -0.864884    1.187631
     31          1           0       -6.646848    1.783480   -0.348537
     32          1           0       -5.614872   -0.416280   -1.062108
     33          1           0       -5.641870   -0.200922   -0.343297
 ---------------------------------------------------------------------
 Rotational constants (GHZ):           2.1476299           0.1037708           0.1015942
 Standard basis: 6-31G(2df,p) (6D, 7F)
 There are   589 symmetry adapted cartesian basis functions of A   symmetry.
 There are   541 symmetry adapted basis functions of A   symmetry.
   541 basis functions,   871 primitive gaussians,   589 cartesian basis functions
    67 alpha electrons       67 beta electrons
       nuclear repulsion energy      1190.3170023115 Hartrees.
 NAtoms=   33 NActive=   33 NUniq=   33 SFac= 1.00D+00 NAtFMM=   60 NAOKFM=F Big=F
 Integral buffers will be    131072 words long.
 Raffenetti 2 integral format.
 Two-electron integral symmetry is turned on.
 One-electron integrals computed using PRISM.
 PrsmSu:  requested number of processors reduced to:  12 ShMem   1 Linda.
 NBasis=   541 RedAO= T EigKep=  1.88D-04  NBF=   541
 NBsUse=   541 1.00D-06 EigRej= -1.00D+00 NBFU=   541
 ExpMin= 1.17D-01 ExpMax= 2.19D+04 ExpMxC= 3.30D+03 IAcc=3 IRadAn=         5 AccDes= 0.00D+00
 Harris functional with IExCor=  402 and IRadAn=       5 diagonalized for initial guess.
 HarFok:  IExCor=  402 AccDes= 0.00D+00 IRadAn=         5 IDoV= 1 UseB2=F ITyADJ=14
 ICtDFT=  3500011 ScaDFX=  1.000000  1.000000  1.000000  1.000000
 FoFCou: FMM=F IPFlag=           0 FMFlag=      100000 FMFlg1=           0
         NFxFlg=           0 DoJE=T BraDBF=F KetDBF=T FulRan=T
         wScrn=  0.000000 ICntrl=       500 IOpCl=  0 I1Cent=   200000004 NGrid=           0
         NMat0=    1 NMatS0=      1 NMatT0=    0 NMatD0=    1 NMtDS0=    0 NMtDT0=    0
 Petite list used in FoFCou.
 Requested convergence on RMS density matrix=1.00D-08 within 128 cycles.
 Requested convergence on MAX density matrix=1.00D-06.
 Requested convergence on             energy=1.00D-06.
 No special actions if energy rises.
 Integral accuracy reduced to 1.0D-05 until final iterations.
 EnCoef did     1 forward-backward iterations
 EnCoef did   100 forward-backward iterations
 Problem detected with inexpensive integrals.
 Switching to full accuracy and repeating last cycle.
 EnCoef did     4 forward-backward iterations
 EnCoef did   100 forward-backward iterations
 EnCoef did     5 forward-backward iterations
 EnCoef did   100 forward-backward iterations
 EnCoef did   100 forward-backward iterations
 EnCoef did     2 forward-backward iterations
 EnCoef did     4 forward-backward iterations
 EnCoef did     8 forward-backward iterations
 EnCoef did     6 forward-backward iterations
 EnCoef did     3 forward-backward iterations
 EnCoef did     7 forward-backward iterations
 EnCoef did     3 forward-backward iterations
 EnCoef did    11 forward-backward iterations
 Restarting incremental Fock formation.
 SCF Done:  E(RB3LYP) =  -1354.37900914     A.U. after   37 cycles
            NFock= 37  Conv=0.51D-08     -V/T= 2.0016

 **********************************************************************

            Population analysis using the SCF density.

 **********************************************************************

 Orbital symmetries:
       Occupied  (A) (A) (A) (A) (A) (A) (A) (A) (A) (A) (A) (A)
                 (A) (A) (A) (A) (A) (A) (A) (A) (A) (A) (A) (A)
                 (A) (A) (A) (A) (A) (A) (A) (A) (A) (A) (A) (A)
                 (A) (A) (A) (A) (A) (A) (A) (A) (A) (A) (A) (A)
                 (A) (A) (A) (A) (A) (A) (A) (A) (A) (A) (A) (A)
                 (A) (A) (A) (A) (A) (A) (A)
       Virtual   (A) (A) (A) (A) (A) (A) (A) (A) (A) (A) (A) (A)
                 (A) (A) (A) (A) (A) (A) (A) (A) (A) (A) (A) (A)
                 (A) (A) (A) (A) (A) (A) (A) (A) (A) (A) (A) (A)
                 (A) (A) (A) (A) (A) (A) (A) (A) (A) (A) (A) (A)
                 (A) (A) (A) (A) (A) (A) (A) (A) (A) (A) (A) (A)
                 (A) (A) (A) (A) (A) (A) (A) (A) (A) (A) (A) (A)
                 (A) (A) (A) (A) (A) (A) (A) (A) (A) (A) (A) (A)
                 (A) (A) (A) (A) (A) (A) (A) (A) (A) (A) (A) (A)
                 (A) (A) (A) (A) (A) (A) (A) (A) (A) (A) (A) (A)
                 (A) (A) (A) (A) (A) (A) (A) (A) (A) (A) (A) (A)
                 (A) (A) (A) (A) (A) (A) (A) (A) (A) (A) (A) (A)
                 (A) (A) (A) (A) (A) (A) (A) (A) (A) (A) (A) (A)
                 (A) (A) (A) (A) (A) (A) (A) (A) (A) (A) (A) (A)
                 (A) (A) (A) (A) (A) (A) (A) (A) (A) (A) (A) (A)
                 (A) (A) (A) (A) (A) (A) (A) (A) (A) (A) (A) (A)
                 (A) (A) (A) (A) (A) (A) (A) (A) (A) (A) (A) (A)
                 (A) (A) (A) (A) (A) (A) (A) (A) (A) (A) (A) (A)
                 (A) (A) (A) (A) (A) (A) (A) (A) (A) (A) (A) (A)
                 (A) (A) (A) (A) (A) (A) (A) (A) (A) (A) (A) (A)
                 (A) (A) (A) (A) (A) (A) (A) (A) (A) (A) (A) (A)
                 (A) (A) (A) (A) (A) (A) (A) (A) (A) (A) (A) (A)
                 (A) (A) (A) (A) (A) (A) (A) (A) (A) (A) (A) (A)
                 (A) (A) (A) (A) (A) (A) (A) (A) (A) (A) (A) (A)
                 (A) (A) (A) (A) (A) (A) (A) (A) (A) (A) (A) (A)
                 (A) (A) (A) (A) (A) (A) (A) (A) (A) (A) (A) (A)
                 (A) (A) (A) (A) (A) (A) (A) (A) (A) (A) (A) (A)
                 (A) (A) (A) (A) (A) (A) (A) (A) (A) (A) (A) (A)
                 (A) (A) (A) (A) (A) (A) (A) (A) (A) (A) (A) (A)
                 (A) (A) (A) (A) (A) (A) (A) (A) (A) (A) (A) (A)
                 (A) (A) (A) (A) (A) (A) (A) (A) (A) (A) (A) (A)
                 (A) (A) (A) (A) (A) (A) (A) (A) (A) (A) (A) (A)
                 (A) (A) (A) (A) (A) (A) (A) (A) (A) (A) (A) (A)
                 (A) (A) (A) (A) (A) (A) (A) (A) (A) (A) (A) (A)
                 (A) (A) (A) (A) (A) (A) (A) (A) (A) (A) (A) (A)
                 (A) (A) (A) (A) (A) (A) (A) (A) (A) (A) (A) (A)
                 (A) (A) (A) (A) (A) (A) (A) (A) (A) (A) (A) (A)
                 (A) (A) (A) (A) (A) (A) (A) (A) (A) (A) (A) (A)
                 (A) (A) (A) (A) (A) (A) (A) (A) (A) (A) (A) (A)
                 (A) (A) (A) (A) (A) (A) (A) (A) (A) (A) (A) (A)
                 (A) (A) (A) (A) (A) (A)
 The electronic state is 1-A.
 Alpha  occ. eigenvalues --  -88.89009 -88.85508 -14.32932 -10.30016 -10.27962
 Alpha  occ. eigenvalues --  -10.25808 -10.24936 -10.24546 -10.23908 -10.23852
 Alpha  occ. eigenvalues --  -10.23094 -10.21707 -10.21594 -10.20136 -10.19747
 Alpha  occ. eigenvalues --  -10.16214  -7.95913  -7.91995  -5.92213  -5.91978
 Alpha  occ. eigenvalues --   -5.91523  -5.88838  -5.87763  -5.87415  -1.01881
 Alpha  occ. eigenvalues --   -0.98186  -0.91752  -0.82546  -0.77187  -0.76101
 Alpha  occ. eigenvalues --   -0.74408  -0.72795  -0.68747  -0.65630  -0.63985
 Alpha  occ. eigenvalues --   -0.62752  -0.61104  -0.57526  -0.56952  -0.53832
 Alpha  occ. eigenvalues --   -0.50559  -0.49451  -0.48934  -0.47564  -0.45668
 Alpha  occ. eigenvalues --   -0.44526  -0.43765  -0.40728  -0.40096  -0.39387
 Alpha  occ. eigenvalues --   -0.38680  -0.37372  -0.35695  -0.34249  -0.33429
 Alpha  occ. eigenvalues --   -0.33237  -0.31382  -0.29299  -0.26101  -0.24952
 Alpha  occ. eigenvalues --   -0.24176  -0.23011  -0.22217  -0.21342  -0.19728
 Alpha  occ. eigenvalues --   -0.17062  -0.14458
 Alpha virt. eigenvalues --   -0.11963  -0.10413  -0.10010  -0.08881  -0.06961
 Alpha virt. eigenvalues --   -0.05480  -0.03314  -0.02468  -0.02125  -0.01420
 Alpha virt. eigenvalues --    0.00312   0.02870   0.04261   0.05682   0.06218
 Alpha virt. eigenvalues --    0.07915   0.09382   0.10584   0.12079   0.13025
 Alpha virt. eigenvalues --    0.14241   0.14682   0.15232   0.15404   0.16649
 Alpha virt. eigenvalues --    0.17361   0.17501   0.18075   0.18220   0.21215
 Alpha virt. eigenvalues --    0.23096   0.24963   0.25733   0.26355   0.27154
 Alpha virt. eigenvalues --    0.29096   0.30042   0.31473   0.32317   0.32876
 Alpha virt. eigenvalues --    0.34379   0.34831   0.36341   0.36907   0.39119
 Alpha virt. eigenvalues --    0.39718   0.39982   0.41058   0.43320   0.44061
 Alpha virt. eigenvalues --    0.45235   0.45444   0.46555   0.47458   0.47858
 Alpha virt. eigenvalues --    0.48360   0.49747   0.50135   0.51158   0.51520
 Alpha virt. eigenvalues --    0.51950   0.52683   0.52994   0.53397   0.54028
 Alpha virt. eigenvalues --    0.54831   0.55772   0.56623   0.56746   0.57761
 Alpha virt. eigenvalues --    0.58182   0.58953   0.59852   0.60582   0.61792
 Alpha virt. eigenvalues --    0.62323   0.62694   0.63707   0.64260   0.64377
 Alpha virt. eigenvalues --    0.65058   0.66022   0.68109   0.68962   0.69637
 Alpha virt. eigenvalues --    0.69876   0.70170   0.71105   0.71409   0.71670
 Alpha virt. eigenvalues --    0.73030   0.73919   0.74512   0.74731   0.75003
 Alpha virt. eigenvalues --    0.75913   0.76540   0.76889   0.77375   0.77991
 Alpha virt. eigenvalues --    0.79439   0.79729   0.80317   0.80993   0.81378
 Alpha virt. eigenvalues --    0.83211   0.84239   0.85029   0.86561   0.86844
 Alpha virt. eigenvalues --    0.87566   0.87973   0.89414   0.91358   0.91834
 Alpha virt. eigenvalues --    0.92499   0.93756   0.94487   0.95543   0.96861
 Alpha virt. eigenvalues --    0.97220   0.98187   0.98877   1.00574   1.01028
 Alpha virt. eigenvalues --    1.01644   1.03466   1.03686   1.04717   1.06079
 Alpha virt. eigenvalues --    1.07190   1.07719   1.08856   1.09243   1.10744
 Alpha virt. eigenvalues --    1.11608   1.12668   1.13797   1.15195   1.17289
 Alpha virt. eigenvalues --    1.17905   1.19895   1.21997   1.23370   1.24370
 Alpha virt. eigenvalues --    1.25478   1.25685   1.27323   1.28285   1.28688
 Alpha virt. eigenvalues --    1.31909   1.32154   1.33523   1.34279   1.34866
 Alpha virt. eigenvalues --    1.36401   1.37682   1.38001   1.39265   1.40135
 Alpha virt. eigenvalues --    1.41965   1.43277   1.45252   1.48810   1.49068
 Alpha virt. eigenvalues --    1.50336   1.51786   1.53135   1.54233   1.55549
 Alpha virt. eigenvalues --    1.56858   1.58113   1.59956   1.61182   1.62784
 Alpha virt. eigenvalues --    1.63688   1.65169   1.65952   1.66524   1.67370
 Alpha virt. eigenvalues --    1.67851   1.68155   1.68854   1.70148   1.71277
 Alpha virt. eigenvalues --    1.72793   1.73425   1.73786   1.74518   1.75167
 Alpha virt. eigenvalues --    1.76143   1.77738   1.78671   1.79513   1.79938
 Alpha virt. eigenvalues --    1.80838   1.82964   1.84327   1.85687   1.86617
 Alpha virt. eigenvalues --    1.88541   1.89392   1.90454   1.94014   1.95146
 Alpha virt. eigenvalues --    1.95578   1.95875   1.96706   1.97663   2.01023
 Alpha virt. eigenvalues --    2.01602   2.02411   2.07378   2.08515   2.09268
 Alpha virt. eigenvalues --    2.10607   2.13776   2.14744   2.17629   2.18368
 Alpha virt. eigenvalues --    2.20470   2.21841   2.22605   2.24906   2.25794
 Alpha virt. eigenvalues --    2.26086   2.27918   2.30826   2.31601   2.32174
 Alpha virt. eigenvalues --    2.32962   2.35312   2.35653   2.36593   2.37187
 Alpha virt. eigenvalues --    2.37732   2.40018   2.40774   2.42383   2.43960
 Alpha virt. eigenvalues --    2.44160   2.45574   2.45790   2.46296   2.47138
 Alpha virt. eigenvalues --    2.48396   2.49528   2.50177   2.52387   2.54750
 Alpha virt. eigenvalues --    2.55026   2.57337   2.59236   2.59757   2.60173
 Alpha virt. eigenvalues --    2.61227   2.62466   2.63456   2.63691   2.66091
 Alpha virt. eigenvalues --    2.67461   2.68157   2.69033   2.71892   2.72951
 Alpha virt. eigenvalues --    2.74508   2.76661   2.76929   2.78121   2.80258
 Alpha virt. eigenvalues --    2.81252   2.82226   2.83394   2.84576   2.85133
 Alpha virt. eigenvalues --    2.86470   2.87487   2.88803   2.90005   2.91771
 Alpha virt. eigenvalues --    2.92249   2.92773   2.93460   2.94623   2.96122
 Alpha virt. eigenvalues --    2.96590   2.97802   2.98805   3.01372   3.02784
 Alpha virt. eigenvalues --    3.04568   3.05103   3.05521   3.07196   3.08951
 Alpha virt. eigenvalues --    3.09991   3.12004   3.13047   3.14645   3.15546
 Alpha virt. eigenvalues --    3.17692   3.17795   3.17949   3.20503   3.21236
 Alpha virt. eigenvalues --    3.22339   3.23484   3.25657   3.25802   3.27118
 Alpha virt. eigenvalues --    3.27946   3.29781   3.30731   3.32791   3.32826
 Alpha virt. eigenvalues --    3.34681   3.36218   3.37761   3.38680   3.39225
 Alpha virt. eigenvalues --    3.39772   3.40562   3.41969   3.42878   3.44286
 Alpha virt. eigenvalues --    3.44648   3.46871   3.47487   3.48281   3.50107
 Alpha virt. eigenvalues --    3.52957   3.53516   3.53856   3.55199   3.57018
 Alpha virt. eigenvalues --    3.59131   3.59851   3.61518   3.62182   3.64199
 Alpha virt. eigenvalues --    3.67102   3.67637   3.69595   3.72837   3.73027
 Alpha virt. eigenvalues --    3.74283   3.77754   3.79889   3.80684   3.84858
 Alpha virt. eigenvalues --    3.85725   3.86364   3.87749   3.88591   3.89435
 Alpha virt. eigenvalues --    3.90484   3.91947   3.93549   3.97576   3.99513
 Alpha virt. eigenvalues --    3.99977   4.01012   4.02693   4.03499   4.05652
 Alpha virt. eigenvalues --    4.06095   4.07848   4.09182   4.09338   4.11871
 Alpha virt. eigenvalues --    4.12687   4.14932   4.17273   4.17808   4.20101
 Alpha virt. eigenvalues --    4.21377   4.22775   4.23719   4.24673   4.26658
 Alpha virt. eigenvalues --    4.27473   4.29004   4.33638   4.34247   4.36116
 Alpha virt. eigenvalues --    4.37354   4.39070   4.40362   4.44730   4.45338
 Alpha virt. eigenvalues --    4.46757   4.48728   4.49501   4.50266   4.51500
 Alpha virt. eigenvalues --    4.54379   4.54971   4.56913   4.58123   4.59096
 Alpha virt. eigenvalues --    4.59739   4.60869   4.61728   4.62827   4.65025
 Alpha virt. eigenvalues --    4.65617   4.66421   4.68297   4.71278   4.72492
 Alpha virt. eigenvalues --    4.73042   4.76031   4.76692   4.77301   4.78159
 Alpha virt. eigenvalues --    4.80299   4.80637   4.83483   4.84920   4.85799
 Alpha virt. eigenvalues --    4.87521   4.88669   4.91998   4.93565   4.94840
 Alpha virt. eigenvalues --    4.95927   4.98136   5.01566   5.04389   5.06819
 Alpha virt. eigenvalues --    5.08050   5.08417   5.10626   5.13410   5.15997
 Alpha virt. eigenvalues --    5.17116   5.22021   5.23778   5.26233   5.27534
 Alpha virt. eigenvalues --    5.30726   5.34042   5.42664   5.44744   5.53091
 Alpha virt. eigenvalues --    5.61036   5.65804   5.67353   5.76126   5.82045
 Alpha virt. eigenvalues --    5.84453   5.87393   5.94126   5.98464   6.03263
 Alpha virt. eigenvalues --    6.10988   6.22030   6.60126   6.86436   6.98494
 Alpha virt. eigenvalues --    9.95721  10.53609  10.55444  10.81433  11.00648
 Alpha virt. eigenvalues --   11.12489  11.26920  11.39119  11.44761  11.52079
 Alpha virt. eigenvalues --   11.81068  12.10616  12.43479  12.78460
          Condensed to atoms (all electrons):
               1          2          3          4          5          6
     1  C    5.047537   0.228523  -0.006474  -0.000044   0.000000   0.000000
     2  N    0.228523   6.961326   0.134571   0.001046  -0.000001  -0.000049
     3  C   -0.006474   0.134571   5.504880   0.127605   0.000284  -0.029178
     4  C   -0.000044   0.001046   0.127605   5.614969  -0.028162   0.488651
     5  C    0.000000  -0.000001   0.000284  -0.028162   5.599977   0.063730
     6  C    0.000000  -0.000049  -0.029178   0.488651   0.063730   5.013566
     7  C   -0.000000  -0.000000  -0.000323  -0.029897   0.540213   0.191815
     8  C   -0.000000   0.000000   0.000010   0.001660  -0.064553   0.006084
     9  C    0.000000  -0.000000   0.000000  -0.000196  -0.009120  -0.001786
    10  C    0.000000  -0.000000   0.000000   0.000006   0.000048   0.000180
    11  C   -0.000000   0.000000  -0.000000  -0.000000   0.000124  -0.000024
    12  C    0.000000  -0.000000  -0.000000  -0.000000  -0.000001  -0.000001
    13  S    0.000000  -0.000000   0.000000   0.000000   0.000001   0.000000
    14  C    0.000000   0.000000  -0.000000  -0.000000  -0.000000  -0.000000
    15  C    0.000000  -0.000000   0.000000   0.000000   0.000001   0.000001
    16  S   -0.000000  -0.000000  -0.000001  -0.000585   0.015484   0.007963
    17  H    0.365445  -0.006188   0.000131   0.000000  -0.000000   0.000000
    18  H    0.369607  -0.018410  -0.000423   0.000006   0.000000   0.000000
    19  H    0.384443  -0.019643   0.000284  -0.000003  -0.000000  -0.000000
    20  H   -0.032948   0.244974  -0.005032  -0.000268  -0.000000   0.000005
    21  H    0.005318  -0.049912   0.277669  -0.007904   0.000013   0.000508
    22  H    0.000246  -0.008971   0.142045   0.026015   0.001464   0.006012
    23  H   -0.000000   0.000045  -0.000997  -0.027441  -0.007223   0.369116
    24  H    0.000000  -0.000000   0.000916   0.033518  -0.063285  -0.018078
    25  H   -0.000000   0.000000   0.000002   0.000922  -0.010753   0.005595
    26  H    0.000000  -0.000000   0.000000   0.000008   0.000540   0.000080
    27  H    0.000000  -0.000000   0.000000   0.000000   0.000034   0.000020
    28  H   -0.000000   0.000000  -0.000000  -0.000000   0.000023  -0.000009
    29  H    0.000000  -0.000000   0.000000   0.000000  -0.000000   0.000000
    30  H    0.000000   0.000000  -0.000000  -0.000000  -0.000000  -0.000000
    31  H    0.000000   0.000000   0.000000   0.000000  -0.000000  -0.000000
    32  H    0.000000   0.000000   0.000000  -0.000000   0.000000  -0.000000
    33  H    0.000000   0.000000   0.000000   0.000000   0.000000   0.000000
               7          8          9         10         11         12
     1  C   -0.000000  -0.000000   0.000000   0.000000  -0.000000   0.000000
     2  N   -0.000000   0.000000  -0.000000  -0.000000   0.000000  -0.000000
     3  C   -0.000323   0.000010   0.000000   0.000000  -0.000000  -0.000000
     4  C   -0.029897   0.001660  -0.000196   0.000006  -0.000000  -0.000000
     5  C    0.540213  -0.064553  -0.009120   0.000048   0.000124  -0.000001
     6  C    0.191815   0.006084  -0.001786   0.000180  -0.000024  -0.000001
     7  C    4.920648   0.282571   0.015268   0.004727   0.000096  -0.000027
     8  C    0.282571   5.255916   0.423022  -0.052627  -0.009732  -0.000590
     9  C    0.015268   0.423022   5.137698   0.417966  -0.001702  -0.001348
    10  C    0.004727  -0.052627   0.417966   5.077582   0.469899  -0.108657
    11  C    0.000096  -0.009732  -0.001702   0.469899   5.185414   0.373857
    12  C   -0.000027  -0.000590  -0.001348  -0.108657   0.373857   5.454731
    13  S    0.000001  -0.000151   0.005360   0.003906  -0.110028  -0.158255
    14  C   -0.000000   0.000020  -0.000068   0.008408  -0.009152   0.371088
    15  C   -0.000022   0.000394   0.002583  -0.003107   0.110426  -0.087707
    16  S    0.001989  -0.044685   0.083406  -0.088822  -0.140326   0.026257
    17  H    0.000000   0.000000  -0.000000  -0.000000   0.000000   0.000000
    18  H    0.000000  -0.000000   0.000000  -0.000000   0.000000   0.000000
    19  H   -0.000000  -0.000000  -0.000000   0.000000  -0.000000   0.000000
    20  H   -0.000000  -0.000000  -0.000000  -0.000000  -0.000000   0.000000
    21  H    0.000015  -0.000000   0.000000  -0.000000   0.000000   0.000000
    22  H    0.002734  -0.000164   0.000002  -0.000000   0.000000   0.000000
    23  H   -0.022032  -0.002488   0.000304  -0.000006   0.000000  -0.000000
    24  H    0.121524   0.026453   0.000614   0.000052  -0.000029   0.000000
    25  H   -0.047670   0.379375  -0.039957  -0.005684  -0.000238  -0.000029
    26  H   -0.002759  -0.016145   0.237957  -0.050260   0.022558  -0.000313
    27  H   -0.000463  -0.007481  -0.086680   0.385700  -0.035413  -0.009861
    28  H    0.000027   0.000814  -0.026784  -0.021779   0.036897   0.023360
    29  H   -0.000000  -0.000033   0.001399  -0.003240  -0.050451   0.329426
    30  H   -0.000000   0.000000  -0.000031  -0.000010   0.000860  -0.002391
    31  H    0.000000  -0.000000  -0.000001  -0.000131  -0.000870  -0.026892
    32  H    0.000000  -0.000001  -0.000060  -0.000363   0.009443  -0.025644
    33  H    0.000000  -0.000002  -0.000046  -0.000258   0.002121   0.030059
              13         14         15         16         17         18
     1  C    0.000000   0.000000   0.000000  -0.000000   0.365445   0.369607
     2  N   -0.000000   0.000000  -0.000000  -0.000000  -0.006188  -0.018410
     3  C    0.000000  -0.000000   0.000000  -0.000001   0.000131  -0.000423
     4  C    0.000000  -0.000000   0.000000  -0.000585   0.000000   0.000006
     5  C    0.000001  -0.000000   0.000001   0.015484  -0.000000   0.000000
     6  C    0.000000  -0.000000   0.000001   0.007963   0.000000   0.000000
     7  C    0.000001  -0.000000  -0.000022   0.001989   0.000000   0.000000
     8  C   -0.000151   0.000020   0.000394  -0.044685   0.000000  -0.000000
     9  C    0.005360  -0.000068   0.002583   0.083406  -0.000000   0.000000
    10  C    0.003906   0.008408  -0.003107  -0.088822  -0.000000  -0.000000
    11  C   -0.110028  -0.009152   0.110426  -0.140326   0.000000   0.000000
    12  C   -0.158255   0.371088  -0.087707   0.026257   0.000000   0.000000
    13  S   16.181905  -0.171467   0.284604  -0.007265   0.000000  -0.000000
    14  C   -0.171467   5.900925  -0.090165   0.001790   0.000000   0.000000
    15  C    0.284604  -0.090165   5.991945  -0.062324   0.000000   0.000000
    16  S   -0.007265   0.001790  -0.062324  16.355452   0.000000   0.000000
    17  H    0.000000   0.000000   0.000000   0.000000   0.592442  -0.033912
    18  H   -0.000000   0.000000   0.000000   0.000000  -0.033912   0.570633
    19  H    0.000000   0.000000   0.000000  -0.000000  -0.040745  -0.035583
    20  H    0.000000   0.000000   0.000000  -0.000000  -0.006658   0.002514
    21  H   -0.000000   0.000000   0.000000   0.000000  -0.000158   0.002397
    22  H   -0.000000   0.000000  -0.000000   0.000002  -0.000002   0.000008
    23  H   -0.000000  -0.000000  -0.000000  -0.000088   0.000000   0.000000
    24  H    0.000001   0.000000   0.000003  -0.014962  -0.000000  -0.000000
    25  H    0.000001  -0.000000   0.000015   0.006856   0.000000  -0.000000
    26  H   -0.002952  -0.000377  -0.009014   0.025002  -0.000000  -0.000000
    27  H   -0.000305   0.000054   0.001162   0.005405  -0.000000  -0.000000
    28  H   -0.045954   0.009121   0.056151   0.128694   0.000000   0.000000
    29  H    0.021597  -0.120379   0.014107  -0.000610   0.000000   0.000000
    30  H    0.252560  -0.053547   0.007518  -0.000153   0.000000   0.000000
    31  H    0.020386   0.227493   0.004944   0.000016   0.000000   0.000000
    32  H   -0.027997   0.035239   0.163193   0.000304   0.000000   0.000000
    33  H    0.007815   0.143328  -0.145004  -0.001770   0.000000   0.000000
              19         20         21         22         23         24
     1  C    0.384443  -0.032948   0.005318   0.000246  -0.000000   0.000000
     2  N   -0.019643   0.244974  -0.049912  -0.008971   0.000045  -0.000000
     3  C    0.000284  -0.005032   0.277669   0.142045  -0.000997   0.000916
     4  C   -0.000003  -0.000268  -0.007904   0.026015  -0.027441   0.033518
     5  C   -0.000000  -0.000000   0.000013   0.001464  -0.007223  -0.063285
     6  C   -0.000000   0.000005   0.000508   0.006012   0.369116  -0.018078
     7  C   -0.000000  -0.000000   0.000015   0.002734  -0.022032   0.121524
     8  C   -0.000000  -0.000000  -0.000000  -0.000164  -0.002488   0.026453
     9  C   -0.000000  -0.000000   0.000000   0.000002   0.000304   0.000614
    10  C    0.000000  -0.000000  -0.000000  -0.000000  -0.000006   0.000052
    11  C   -0.000000  -0.000000   0.000000   0.000000   0.000000  -0.000029
    12  C    0.000000   0.000000   0.000000   0.000000  -0.000000   0.000000
    13  S    0.000000   0.000000  -0.000000  -0.000000  -0.000000   0.000001
    14  C    0.000000   0.000000   0.000000   0.000000  -0.000000   0.000000
    15  C    0.000000   0.000000   0.000000  -0.000000  -0.000000   0.000003
    16  S   -0.000000  -0.000000   0.000000   0.000002  -0.000088  -0.014962
    17  H   -0.040745  -0.006658  -0.000158  -0.000002   0.000000  -0.000000
    18  H   -0.035583   0.002514   0.002397   0.000008   0.000000  -0.000000
    19  H    0.562878   0.002597  -0.001231  -0.000011  -0.000000   0.000000
    20  H    0.002597   0.583452   0.003271   0.001112  -0.000012  -0.000000
    21  H   -0.001231   0.003271   0.531225  -0.001274  -0.000015  -0.000064
    22  H   -0.000011   0.001112  -0.001274   0.695463  -0.016426  -0.000288
    23  H   -0.000000  -0.000012  -0.000015  -0.016426   0.505809   0.000287
    24  H    0.000000  -0.000000  -0.000064  -0.000288   0.000287   0.727628
    25  H    0.000000  -0.000000  -0.000000  -0.000143   0.002940   0.000622
    26  H    0.000000  -0.000000  -0.000000  -0.000000   0.000001   0.000248
    27  H    0.000000   0.000000  -0.000000  -0.000000   0.000003  -0.000005
    28  H   -0.000000   0.000000   0.000000   0.000000  -0.000000  -0.000012
    29  H    0.000000  -0.000000  -0.000000  -0.000000  -0.000000   0.000000
    30  H    0.000000   0.000000   0.000000   0.000000  -0.000000  -0.000000
    31  H    0.000000   0.000000   0.000000  -0.000000   0.000000   0.000000
    32  H    0.000000   0.000000  -0.000000  -0.000000   0.000000  -0.000000
    33  H    0.000000   0.000000  -0.000000  -0.000000  -0.000000   0.000000
              25         26         27         28         29         30
     1  C   -0.000000   0.000000   0.000000  -0.000000   0.000000   0.000000
     2  N    0.000000  -0.000000  -0.000000   0.000000  -0.000000   0.000000
     3  C    0.000002   0.000000   0.000000  -0.000000   0.000000  -0.000000
     4  C    0.000922   0.000008   0.000000  -0.000000   0.000000  -0.000000
     5  C   -0.010753   0.000540   0.000034   0.000023  -0.000000  -0.000000
     6  C    0.005595   0.000080   0.000020  -0.000009   0.000000  -0.000000
     7  C   -0.047670  -0.002759  -0.000463   0.000027  -0.000000  -0.000000
     8  C    0.379375  -0.016145  -0.007481   0.000814  -0.000033   0.000000
     9  C   -0.039957   0.237957  -0.086680  -0.026784   0.001399  -0.000031
    10  C   -0.005684  -0.050260   0.385700  -0.021779  -0.003240  -0.000010
    11  C   -0.000238   0.022558  -0.035413   0.036897  -0.050451   0.000860
    12  C   -0.000029  -0.000313  -0.009861   0.023360   0.329426  -0.002391
    13  S    0.000001  -0.002952  -0.000305  -0.045954   0.021597   0.252560
    14  C   -0.000000  -0.000377   0.000054   0.009121  -0.120379  -0.053547
    15  C    0.000015  -0.009014   0.001162   0.056151   0.014107   0.007518
    16  S    0.006856   0.025002   0.005405   0.128694  -0.000610  -0.000153
    17  H    0.000000  -0.000000  -0.000000   0.000000   0.000000   0.000000
    18  H   -0.000000  -0.000000  -0.000000   0.000000   0.000000   0.000000
    19  H    0.000000   0.000000   0.000000  -0.000000   0.000000   0.000000
    20  H   -0.000000  -0.000000   0.000000   0.000000  -0.000000   0.000000
    21  H   -0.000000  -0.000000  -0.000000   0.000000  -0.000000   0.000000
    22  H   -0.000143  -0.000000  -0.000000   0.000000  -0.000000   0.000000
    23  H    0.002940   0.000001   0.000003  -0.000000  -0.000000  -0.000000
    24  H    0.000622   0.000248  -0.000005  -0.000012   0.000000  -0.000000
    25  H    0.558613   0.002096   0.005169  -0.000107  -0.000000  -0.000000
    26  H    0.002096   0.558944   0.013787  -0.012494   0.000242  -0.000015
    27  H    0.005169   0.013787   0.638823  -0.001006   0.000621   0.000002
    28  H   -0.000107  -0.012494  -0.001006   0.645534  -0.000446   0.001878
    29  H   -0.000000   0.000242   0.000621  -0.000446   0.685459   0.000495
    30  H   -0.000000  -0.000015   0.000002   0.001878   0.000495   0.620175
    31  H   -0.000000   0.000002  -0.000010  -0.000133   0.017640   0.001248
    32  H   -0.000000   0.000124   0.000040  -0.002750   0.003656   0.003291
    33  H    0.000000   0.000150   0.000038   0.002608   0.007494   0.000207
              31         32         33
     1  C    0.000000   0.000000   0.000000
     2  N    0.000000   0.000000   0.000000
     3  C    0.000000   0.000000   0.000000
     4  C    0.000000  -0.000000   0.000000
     5  C   -0.000000   0.000000   0.000000
     6  C   -0.000000  -0.000000   0.000000
     7  C    0.000000   0.000000   0.000000
     8  C   -0.000000  -0.000001  -0.000002
     9  C   -0.000001  -0.000060  -0.000046
    10  C   -0.000131  -0.000363  -0.000258
    11  C   -0.000870   0.009443   0.002121
    12  C   -0.026892  -0.025644   0.030059
    13  S    0.020386  -0.027997   0.007815
    14  C    0.227493   0.035239   0.143328
    15  C    0.004944   0.163193  -0.145004
    16  S    0.000016   0.000304  -0.001770
    17  H    0.000000   0.000000   0.000000
    18  H    0.000000   0.000000   0.000000
    19  H    0.000000   0.000000   0.000000
    20  H    0.000000   0.000000   0.000000
    21  H    0.000000  -0.000000  -0.000000
    22  H   -0.000000  -0.000000  -0.000000
    23  H    0.000000   0.000000  -0.000000
    24  H    0.000000  -0.000000   0.000000
    25  H   -0.000000  -0.000000   0.000000
    26  H    0.000002   0.000124   0.000150
    27  H   -0.000010   0.000040   0.000038
    28  H   -0.000133  -0.002750   0.002608
    29  H    0.017640   0.003656   0.007494
    30  H    0.001248   0.003291   0.000207
    31  H    0.705860   0.010436  -0.033465
    32  H    0.010436   0.680845  -0.053659
    33  H   -0.033465  -0.053659   0.903693
 Mulliken charges:
               1
     1  C   -0.361653
     2  N   -0.467311
     3  C   -0.145969
     4  C   -0.199905
     5  C   -0.038837
     6  C   -0.104201
     7  C    0.021566
     8  C   -0.177667
     9  C   -0.157800
    10  C   -0.033530
    11  C    0.146272
    12  C   -0.187063
    13  S   -0.253764
    14  C   -0.252311
    15  C   -0.239706
    16  S   -0.297034
    17  H    0.129645
    18  H    0.143162
    19  H    0.147013
    20  H    0.206993
    21  H    0.240142
    22  H    0.152176
    23  H    0.198223
    24  H    0.184857
    25  H    0.142375
    26  H    0.232590
    27  H    0.090365
    28  H    0.206366
    29  H    0.093024
    30  H    0.167912
    31  H    0.073479
    32  H    0.203904
    33  H    0.136688
 Sum of Mulliken charges =  -0.00000
 Mulliken charges with hydrogens summed into heavy atoms:
               1
     1  C    0.058168
     2  N   -0.260319
     3  C    0.246349
     4  C   -0.199905
     5  C    0.146020
     6  C    0.094022
     7  C    0.021566
     8  C   -0.035292
     9  C    0.074791
    10  C    0.056835
    11  C    0.146272
    12  C   -0.094039
    13  S   -0.085853
    14  C    0.161760
    15  C   -0.033340
    16  S   -0.297034
 Electronic spatial extent (au):  <R**2>=          10351.3376
 Charge=             -0.0000 electrons
 Dipole moment (field-independent basis, Debye):
    X=             -2.7506    Y=              3.9124    Z=              1.6295  Tot=              5.0525
 Quadrupole moment (field-independent basis, Debye-Ang):
   XX=            -84.5942   YY=           -108.1676   ZZ=           -122.2220
   XY=             -2.4575   XZ=              1.2856   YZ=             -4.0165
 Traceless Quadrupole moment (field-independent basis, Debye-Ang):
   XX=             20.4004   YY=             -3.1730   ZZ=            -17.2274
   XY=             -2.4575   XZ=              1.2856   YZ=             -4.0165
 Octapole moment (field-independent basis, Debye-Ang**2):
  XXX=            -18.6702  YYY=             23.2252  ZZZ=              8.9458  XYY=             28.8741
  XXY=             18.4209  XXZ=              1.5163  XZZ=            -11.5068  YZZ=             -1.0556
  YYZ=             -1.5398  XYZ=             -5.2093
 Hexadecapole moment (field-independent basis, Debye-Ang**3):
 XXXX=         -10213.6438 YYYY=           -597.7596 ZZZZ=           -323.1044 XXXY=           -116.6277
 XXXZ=             47.2525 YYYX=            -14.2119 YYYZ=             -5.4467 ZZZX=            -24.5443
 ZZZY=             -7.4161 XXYY=          -2223.0979 XXZZ=          -2438.5959 YYZZ=           -159.1259
 XXYZ=            -52.6140 YYXZ=             10.1099 ZZXY=              2.3101
 N-N= 1.190317002312D+03 E-N=-5.569195987212D+03  KE= 1.352210371069D+03
 PrsmSu:  requested number of processors reduced to:  13 ShMem   1 Linda.
 Calling FoFJK, ICntrl=      2127 FMM=F ISym2X=0 I1Cent= 0 IOpClX= 0 NMat=1 NMatS=1 NMatT=0.
 ***** Axes restored to original set *****
 -------------------------------------------------------------------
 Center     Atomic                   Forces (Hartrees/Bohr)
 Number     Number              X              Y              Z
 -------------------------------------------------------------------
      1        6           0.021601496    0.010095800   -0.010150318
      2        7          -0.038821938   -0.048599045   -0.061492258
      3        6          -0.005512472   -0.036249865    0.003634433
      4        6          -0.057969330   -0.014627511   -0.038975115
      5        6          -0.458489649    1.123858907   -0.403966073
      6        6          -0.121881276   -0.065287010   -0.065014724
      7        6           0.486300497   -1.060201227    0.405010560
      8        6           0.035212680   -0.040560195    0.070764183
      9        6          -0.189179862   -0.006183703    0.043941828
     10        6           0.009489146    0.006732141   -0.011256720
     11        6           0.070536973    0.056459354    0.062160266
     12        6           0.233885811    0.053976754    0.008203788
     13       16          -0.123139665   -0.021973503    0.111660371
     14        6           0.361502334   -0.327545757   -0.439586895
     15        6          -0.036057772   -0.009215344    0.031664351
     16       16          -0.044908548    0.012738302    0.022735548
     17        1           0.032185854    0.011813212    0.019062427
     18        1           0.003662480    0.004438680    0.005125704
     19        1           0.009169303    0.001931759    0.007564380
     20        1           0.011673310    0.028322464    0.052756883
     21        1           0.079549938    0.017647133    0.002908241
     22        1          -0.055443766    0.022102150    0.017648075
     23        1           0.032645288    0.035866801    0.043988993
     24        1           0.003649145   -0.016684813   -0.022114710
     25        1           0.007035227   -0.004385109   -0.022430008
     26        1          -0.045351864   -0.025405432   -0.041794924
     27        1           0.082340882   -0.015944002   -0.124171998
     28        1          -0.010866073    0.022495628   -0.034797602
     29        1          -0.011078107   -0.034677638   -0.019053558
     30        1           0.019864381    0.016675772    0.027926533
     31        1          -0.077304244    0.036790513    0.025257012
     32        1          -0.013449283    0.113514520   -0.091710066
     33        1          -0.210850897    0.152080268    0.424501393
 -------------------------------------------------------------------
 Cartesian Forces:  Max     1.123858907 RMS     0.203749971

 GradGradGradGradGradGradGradGradGradGradGradGradGradGradGradGradGradGrad
 Berny optimization.
 FormGI is forming the generalized inverse of G from B-inverse, IUseBI=4.
 Internal  Forces:  Max     0.947427682 RMS     0.097323381
 Search for a local minimum.
 Step number   1 out of a maximum of  196
 All quantities printed in internal units (Hartrees-Bohrs-Radians)
 Mixed Optimization -- RFO/linear search
 Second derivative matrix not updated -- first step.
 ITU=  0
     Eigenvalues ---    0.00230   0.00230   0.00230   0.00230   0.00234
     Eigenvalues ---    0.00240   0.00567   0.00751   0.01172   0.01180
     Eigenvalues ---    0.01522   0.01677   0.01773   0.01991   0.02107
     Eigenvalues ---    0.02335   0.02378   0.02798   0.03261   0.03601
     Eigenvalues ---    0.03780   0.03961   0.03980   0.04194   0.04585
     Eigenvalues ---    0.05087   0.05424   0.05938   0.06425   0.06449
     Eigenvalues ---    0.07081   0.07484   0.07654   0.07990   0.08687
     Eigenvalues ---    0.08900   0.09654   0.10014   0.10065   0.10311
     Eigenvalues ---    0.10371   0.10424   0.10825   0.11233   0.11406
     Eigenvalues ---    0.11694   0.12029   0.12518   0.13294   0.13413
     Eigenvalues ---    0.13521   0.14240   0.14285   0.14555   0.15050
     Eigenvalues ---    0.16000   0.16000   0.16000   0.16000   0.16000
     Eigenvalues ---    0.16308   0.16822   0.17081   0.17625   0.18264
     Eigenvalues ---    0.18329   0.19034   0.19454   0.20152   0.20432
     Eigenvalues ---    0.21097   0.22000   0.22285   0.25000   0.27770
     Eigenvalues ---    0.28112   0.28796   0.30070   0.30083   0.30837
     Eigenvalues ---    0.34817   0.34828   0.34835   0.35898   0.40165
     Eigenvalues ---    0.44421   0.45852   0.57954   0.64575   0.67164
     Eigenvalues ---    0.70359   1.18195   3.09804
 RFO step:  Lambda=-7.34052984D-01 EMin= 2.30000000D-03
 Linear search not attempted -- first point.
 Maximum step size (   0.300) exceeded in Quadratic search.
    -- Step size scaled by   0.490
 Iteration  1 RMS(Cart)=  0.10473035 RMS(Int)=  0.00214755
 Iteration  2 RMS(Cart)=  0.00417288 RMS(Int)=  0.00048017
 Iteration  3 RMS(Cart)=  0.00000392 RMS(Int)=  0.00048017
 Iteration  4 RMS(Cart)=  0.00000001 RMS(Int)=  0.00048017
 Variable       Old X    -DE/DX   Delta X   Delta X   Delta X     New X
                                 (Linear)    (Quad)   (Total)
    R1        3.43197  -0.07088   0.00000  -0.04000  -0.04000   3.39198
    R2        2.18594  -0.03236   0.00000  -0.01561  -0.01561   2.17033
    R3        2.05973   0.00228   0.00000   0.00103   0.00103   2.06077
    R4        2.05956   0.00098   0.00000   0.00044   0.00044   2.06000
    R5        3.70201  -0.05626   0.00000  -0.03320  -0.03315   3.66885
    R6        2.13025  -0.05752   0.00000  -0.02703  -0.02703   2.10322
    R7        3.52512   0.02272   0.00000   0.01438   0.01430   3.53942
    R8        2.42303  -0.07711   0.00000  -0.04094  -0.04089   2.38214
    R9        2.90476  -0.09931   0.00000  -0.05804  -0.05804   2.84672
   R10        2.65953  -0.00049   0.00000  -0.00020  -0.00020   2.65933
   R11        3.04279  -0.04619   0.00000  -0.02749  -0.02749   3.01529
   R12        2.99076   0.15778   0.00000   0.02728   0.02694   3.01770
   R13        1.83069   0.94743   0.00000   0.12083   0.12111   1.95180
   R14        2.94230   0.04818   0.00000  -0.00527  -0.00507   2.93723
   R15        2.85017   0.03397   0.00000   0.01642   0.01660   2.86677
   R16        2.19345  -0.04865   0.00000  -0.02356  -0.02356   2.16989
   R17        2.77541   0.04820   0.00000   0.02160   0.02160   2.79701
   R18        2.99996   0.00358   0.00000  -0.00038  -0.00059   2.99937
   R19        2.64298   0.01218   0.00000   0.00500   0.00500   2.64799
   R20        1.98030   0.02370   0.00000   0.01022   0.01022   1.99052
   R21        2.40338   0.21805   0.00000   0.07548   0.07540   2.47878
   R22        4.08405   0.03384   0.00000   0.01980   0.01980   4.10385
   R23        2.57958  -0.01544   0.00000  -0.01310  -0.01328   2.56630
   R24        2.41871   0.12542   0.00000   0.04580   0.04594   2.46466
   R25        1.79297   0.14231   0.00000   0.05307   0.05307   1.84604
   R26        2.41135   0.17173   0.00000   0.05936   0.05923   2.47058
   R27        3.36390  -0.01289   0.00000  -0.00471  -0.00444   3.35946
   R28        2.93748   0.02186   0.00000   0.01295   0.01297   2.95045
   R29        3.14716  -0.03769   0.00000  -0.01757  -0.01776   3.12940
   R30        2.05944   0.00815   0.00000   0.00369   0.00369   2.06313
   R31        4.00936   0.13995   0.00000   0.07888   0.07907   4.08843
   R32        3.55110   0.04187   0.00000   0.01946   0.01933   3.57043
   R33        2.45299   0.03275   0.00000   0.01550   0.01550   2.46849
   R34        2.90911  -0.08746   0.00000  -0.05114  -0.05114   2.85797
   R35        2.32394   0.06297   0.00000   0.01734   0.01462   2.33856
   R36        1.47934   0.48132   0.00000   0.12390   0.12453   1.60387
   R37        2.85313   0.01749   0.00000   0.00683   0.00688   2.86001
   R38        2.82414   0.06567   0.00000   0.03308   0.03301   2.85716
   R39        1.41893   0.03125   0.00000   0.02991   0.03359   1.45252
    A1        2.09021  -0.02905   0.00000  -0.01593  -0.01595   2.07426
    A2        1.92062   0.00048   0.00000   0.00030   0.00029   1.92092
    A3        1.91575  -0.00828   0.00000  -0.00456  -0.00458   1.91117
    A4        1.80694   0.01596   0.00000   0.00877   0.00877   1.81571
    A5        1.80692   0.01990   0.00000   0.01085   0.01081   1.81773
    A6        1.91486   0.00453   0.00000   0.00251   0.00252   1.91738
    A7        2.38848  -0.02311   0.00000  -0.01174  -0.01179   2.37669
    A8        1.55995   0.02332   0.00000   0.01294   0.01294   1.57288
    A9        1.70748  -0.00513   0.00000  -0.00239  -0.00234   1.70514
   A10        2.33277  -0.00062   0.00000  -0.00147  -0.00142   2.33135
   A11        1.81706  -0.01766   0.00000  -0.00930  -0.00946   1.80759
   A12        1.68380   0.00625   0.00000   0.00342   0.00342   1.68722
   A13        1.94987  -0.20765   0.00000  -0.03000  -0.02999   1.91988
   A14        1.66096  -0.16199   0.00000  -0.01609  -0.01617   1.64479
   A15        1.98902   0.02357   0.00000   0.00909   0.00921   1.99823
   A16        1.83089   0.05055   0.00000   0.01123   0.01105   1.84194
   A17        2.64814  -0.01396   0.00000  -0.00710  -0.00694   2.64120
   A18        2.43131  -0.10753   0.00000  -0.02381  -0.02381   2.40750
   A19        1.93994   0.15331   0.00000   0.03405   0.03400   1.97395
   A20        1.76508   0.11909   0.00000   0.03860   0.03854   1.80362
   A21        1.99197  -0.12972   0.00000  -0.02828  -0.02836   1.96361
   A22        2.50204  -0.00447   0.00000  -0.00971  -0.00952   2.49252
   A23        2.16944   0.02272   0.00000   0.01166   0.01166   2.18110
   A24        1.98811  -0.00868   0.00000  -0.00437  -0.00437   1.98374
   A25        2.12564  -0.01406   0.00000  -0.00731  -0.00731   2.11832
   A26        2.24038   0.03037   0.00000   0.01550   0.01557   2.25595
   A27        1.59882  -0.01208   0.00000  -0.00650  -0.00667   1.59215
   A28        2.35155  -0.00637   0.00000  -0.00327  -0.00321   2.34835
   A29        1.59018   0.04538   0.00000   0.02826   0.02807   1.61825
   A30        1.56722  -0.01435   0.00000  -0.00572  -0.00593   1.56129
   A31        1.05707  -0.01171   0.00000  -0.00675  -0.00653   1.05054
   A32        1.88515  -0.01329   0.00000   0.00310   0.00317   1.88832
   A33        1.88090   0.04567   0.00000   0.01919   0.01919   1.90009
   A34        2.46650  -0.03256   0.00000  -0.02235  -0.02237   2.44413
   A35        1.99575   0.02130   0.00000   0.01100   0.01102   2.00677
   A36        2.41472  -0.00588   0.00000  -0.00366  -0.00401   2.41071
   A37        2.13557  -0.05390   0.00000  -0.03007  -0.02999   2.10558
   A38        1.45997   0.01225   0.00000   0.00876   0.00887   1.46884
   A39        2.15153   0.03261   0.00000   0.01907   0.01895   2.17049
[...]
   D41        2.73758   0.00240  -0.01163   0.02566   0.01407   2.75166
   D42       -2.70846   0.00228   0.00353  -0.01238  -0.00895  -2.71740
   D43        0.91951  -0.00233  -0.00049   0.00525   0.00433   0.92384
   D44       -1.81563   0.00501   0.00350   0.05102   0.05518  -1.76045
   D45        3.00528  -0.00235   0.01876  -0.05290  -0.03419   2.97110
   D46       -0.21832  -0.00174   0.01812  -0.03704  -0.01903  -0.23735
   D47       -0.31624  -0.00253   0.01753  -0.04895  -0.03134  -0.34757
   D48       -0.18300  -0.00105   0.01419  -0.03453  -0.02043  -0.20343
   D49        2.87657  -0.00043   0.01355  -0.01868  -0.00527   2.87130
   D50        2.77866  -0.00123   0.01296  -0.03058  -0.01758   2.76108
   D51        2.84780   0.00129  -0.00391   0.02008   0.01626   2.86406
   D52       -0.14395   0.00074  -0.00947   0.02494   0.01555  -0.12840
   D53       -0.20886   0.00096  -0.00265   0.00387   0.00120  -0.20766
   D54        3.08257   0.00040  -0.00821   0.00873   0.00049   3.08306
   D55        0.07284  -0.00011  -0.00020   0.00395   0.00383   0.07667
   D56       -2.91891  -0.00067  -0.00576   0.00881   0.00312  -2.91579
   D57        2.65292  -0.00010   0.00229   0.00978   0.01214   2.66506
   D58       -0.58175   0.00058   0.00121   0.02811   0.02935  -0.55241
   D59        0.93879  -0.00132  -0.00597   0.02084   0.01494   0.95374
   D60       -2.54296   0.00028  -0.00934   0.03649   0.02723  -2.51573
   D61        0.41844  -0.00107   0.00100  -0.01409  -0.01304   0.40540
   D62        2.87654  -0.00028   0.00238  -0.01523  -0.01285   2.86369
   D63       -1.33379  -0.00077   0.00047  -0.02139  -0.02094  -1.35473
   D64        0.70285  -0.00017  -0.00722   0.00474  -0.00245   0.70040
   D65       -2.87147  -0.00056   0.00661  -0.01941  -0.01273  -2.88420
   D66       -0.41336   0.00023   0.00799  -0.02055  -0.01255  -0.42591
   D67        1.65948  -0.00026   0.00608  -0.02671  -0.02063   1.63885
   D68       -2.58706   0.00034  -0.00161  -0.00058  -0.00214  -2.58920
   D69       -0.48305  -0.00100  -0.00379   0.02148   0.01773  -0.46532
   D70       -2.39782   0.00000  -0.00894   0.03033   0.02143  -2.37639
   D71        1.39271   0.00003  -0.00874   0.03493   0.02625   1.41896
   D72        3.08259  -0.00028  -0.01686   0.05179   0.03494   3.11753
   D73       -2.33710  -0.00033  -0.01752   0.05421   0.03666  -2.30045
   D74        2.03131   0.00067  -0.02266   0.06305   0.04036   2.07167
   D75       -0.46134   0.00070  -0.02246   0.06766   0.04518  -0.41617
   D76        1.22853   0.00039  -0.03058   0.08452   0.05387   1.28241
   D77        0.54638  -0.00179  -0.00158  -0.02564  -0.02711   0.51927
   D78       -2.85977   0.00200   0.00273   0.01548   0.01828  -2.84150
   D79        1.86367  -0.00034  -0.01754   0.02092   0.00343   1.86710
   D80       -1.54248   0.00344  -0.01323   0.06204   0.04882  -1.49366
   D81       -1.72490   0.00062   0.00233  -0.01336  -0.01122  -1.73612
   D82       -0.91631   0.00076   0.00183  -0.00943  -0.00747  -0.92378
   D83       -1.47912  -0.00057  -0.00236  -0.01451  -0.01663  -1.49575
         Item               Value     Threshold  Converged?
 Maximum Force            0.020693     0.000450     NO 
 RMS     Force            0.003929     0.000300     NO 
 Maximum Displacement     0.769170     0.001800     NO 
 RMS     Displacement     0.175356     0.001200     NO 
 Predicted change in Energy=-6.231608D-03
 GradGradGradGradGradGradGradGradGradGradGradGradGradGradGradGradGradGrad

                          Input orientation:                          
 ---------------------------------------------------------------------
 Center     Atomic      Atomic             Coordinates (Angstroms)
 Number     Number       Type             X           Y           Z
 ---------------------------------------------------------------------
      1          6           0        2.129638    0.582944    0.065648
      2          7           0        3.380380   -0.058953    0.411041
      3          6           0        4.447267    0.601577    0.926759
      4          6           0        5.697543    0.111687    1.084589
      5          6           0        6.556970    2.024014    2.431225
      6          6           0        6.687691    0.829824    1.822677
      7          6           0        7.312284    2.514288    3.521834
      8          6           0        8.646941    2.319972    3.735801
      9          6           0        9.448984    2.962065    4.755681
     10          6           0       10.774920    2.670772    4.807782
     11          6           0       11.898531    3.161531    5.624549
     12          6           0       13.055080    2.398562    5.458938
     13         16           0       12.695178    4.695511    7.884942
     14          6           0       14.460055    2.729181    5.833016
     15          6           0       11.792923    4.330525    6.405367
     16         16           0        8.558176    4.038902    5.878546
     17          1           0        1.445437   -0.168383   -0.333169
     18          1           0        2.264794    1.362028   -0.694360
     19          1           0        1.662967    1.036538    0.947389
     20          1           0        3.489768   -1.025310    0.152404
     21          1           0        4.208763    1.603293    1.295298
     22          1           0        5.928244   -0.906785    0.768172
     23          1           0        7.695011    0.378843    1.815847
     24          1           0        6.816379    3.166141    4.201294
     25          1           0        9.209968    1.726502    3.023248
     26          1           0        9.281220    3.761152    6.960619
     27          1           0       11.074253    1.937400    4.072001
     28          1           0       10.960209    4.995458    6.222516
     29          1           0       12.942392    1.495057    4.866101
     30          1           0       13.560943    5.635849    7.438087
     31          1           0       15.101103    1.834638    5.837156
     32          1           0       14.893005    3.422655    5.100729
     33          1           0       14.533393    3.231139    6.787612
 ---------------------------------------------------------------------
                    Distance matrix (angstroms):
                    1          2          3          4          5
     1  C    0.000000
     2  N    1.447647   0.000000
     3  C    2.472502   1.356656   0.000000
     4  C    3.740357   2.419097   1.352069   0.000000
     5  C    5.222443   4.302397   2.955942   2.491795   0.000000
     6  C    4.891212   3.704180   2.423689   1.428597   1.346666
     7  C    6.521896   5.635466   4.312911   3.784184   1.414318
     8  C    7.678706   6.667082   5.336746   4.539207   2.481429
     9  C    9.012738   8.051733   6.726791   5.972846   3.827111
    10  C   10.079075   9.025628   7.706043   6.796385   4.884406
    11  C   11.531771  10.493383   9.173000   8.268315   6.326415
    12  C   12.318658  11.185726   9.892636   8.859914   7.178632
    13  S   13.772625  12.854167  11.541431  10.780684   8.634670
    14  C   13.780713  12.646372  11.351387  10.304390   8.632971
    15  C   12.149711  11.223652   9.893375   9.124853   6.966276
    16  S    9.330569   8.572957   7.296229   6.825560   4.466388
    17  H    1.091640   2.076012   3.345331   4.490978   6.210978
    18  H    1.096746   2.117930   2.823031   4.063469   5.350728
    19  H    1.095900   2.106485   2.818146   4.141495   5.208469
    20  H    2.108071   1.006332   2.040390   2.652546   4.888674
    21  H    2.622196   2.056986   1.093681   2.117959   2.642236
    22  H    4.140319   2.708870   2.119811   1.091159   3.427919
    23  H    5.837656   4.558639   3.374600   2.143826   2.092944
    24  H    6.763284   6.047590   4.786675   4.505035   2.122473
    25  H    7.757976   6.632916   5.323912   4.324715   2.734484
    26  H   10.430089   9.607815   8.352095   7.790319   5.563686
    27  H    9.894016   8.751214   7.456132   6.416142   4.806817
    28  H   11.634273  10.806208   9.474685   8.828657   6.526246
    29  H   11.865578  10.662767   9.406587   8.288630   6.854344
    30  H   14.510667  13.618151  12.280081  11.520260   9.336469
    31  H   14.252577  13.053880  11.795620  10.676254   9.199915
    32  H   14.011407  12.909504  11.597152  10.566381   8.864080
    33  H   14.354472  13.261790  11.958015  10.969398   9.168346
                    6          7          8          9         10
     6  C    0.000000
     7  C    2.472786   0.000000
     8  C    3.117570   1.365595   0.000000
     9  C    4.557818   2.507662   1.447657   0.000000
    10  C    5.385664   3.697026   2.408422   1.358555   0.000000
    11  C    6.858858   5.086648   3.853365   2.606721   1.473246
    12  C    7.498464   6.061804   4.733610   3.716992   2.386887
    13  S    9.369338   7.264296   6.264725   4.830620   4.154019
    14  C    8.949861   7.515210   6.193388   5.130859   3.825538
    15  C    7.701906   5.629352   4.589783   3.176192   2.518608
    16  S    5.499724   3.070958   2.748446   1.792748   2.816429
    17  H    5.755460   7.515162   8.637713   9.987636  11.024039
    18  H    5.116712   6.676912   7.827885   9.158365  10.218054
    19  H    5.104578   6.381716   7.628784   8.878785  10.030008
    20  H    4.056852   6.204308   7.115341   8.520656   9.402500
    21  H    2.649806   3.926731   5.115380   6.424985   7.522731
    22  H    2.168998   4.604559   5.158497   6.577525   7.253112
    23  H    1.103686   2.759892   2.891432   4.288599   4.867285
    24  H    3.336579   1.064190   2.069697   2.698074   4.035253
    25  H    2.933817   2.114332   1.084867   2.141277   2.554463
    26  H    6.458911   4.154109   3.588699   2.351263   2.838093
    27  H    5.052535   3.845503   2.480168   2.039327   1.081115
    28  H    7.413873   5.172741   4.323562   2.927473   2.727631
    29  H    6.987578   5.877415   4.517628   3.790541   2.466504
    30  H   10.093181   8.007929   6.989233   5.590405   4.844803
    31  H    9.376097   8.154039   6.804958   5.864054   4.524886
    32  H    9.208451   7.796497   6.487854   5.474355   4.196399
    33  H    9.590199   7.957612   6.692839   5.482003   4.284840
                   11         12         13         14         15
    11  C    0.000000
    12  C    1.395405   0.000000
    13  S    2.845544   3.360208   0.000000
    14  C    2.606107   1.491040   3.345392   0.000000
    15  C    1.409744   2.494243   1.770994   3.163144   0.000000
    16  S    3.462985   4.805095   4.644518   6.045629   3.290316
    17  H   12.483986  13.225790  14.756405  14.690065  13.142242
    18  H   11.660862  12.464660  13.910768  13.899645  12.247586
    19  H   11.452432  12.328399  13.536152  13.802169  11.968956
    20  H   10.871122  11.461998  13.313884  12.911729  11.693028
    21  H    8.961197   9.809468  11.180539  11.267098   9.543065
    22  H    8.705166   9.149885  11.305996  10.567152   9.674805
    23  H    6.318160   6.788352   8.970464   8.211429   7.312481
    24  H    5.277683   6.410323   7.104120   7.828106   5.565943
    25  H    4.006800   4.600993   6.678156   6.038508   4.989120
    26  H    2.999157   4.284124   3.658211   5.399702   2.634605
    27  H    2.142040   2.461694   4.977258   3.897659   3.418791
    28  H    2.145064   3.422777   2.421517   4.187678   1.081195
    29  H    2.107611   1.086497   4.406520   2.182037   3.424981
    30  H    3.489239   3.827918   1.354055   3.439968   2.428225
    31  H    3.473085   2.155753   4.262217   1.100530   4.182866
    32  H    3.051139   2.134255   3.768613   1.097540   3.483793
    33  H    2.880982   2.154987   2.593752   1.081016   2.977404
                   16         17         18         19         20
    16  S    0.000000
    17  H   10.338167   0.000000
    18  H    9.485536   1.773122   0.000000
    19  H    8.993020   1.771717   1.778617   0.000000
    20  H    9.171897   2.269228   2.813708   2.867128   0.000000
    21  H    6.771687   3.664248   2.792126   2.631222   2.955116
    22  H    7.582367   4.674799   4.550536   4.690546   2.517813
    23  H    5.535939   6.631357   6.062594   6.129628   4.735267
    24  H    2.570747   7.779937   6.923812   6.456064   6.710299
    25  H    3.731588   8.668567   7.885993   7.857638   6.966699
    26  H    1.330722  11.403512  10.657615  10.080687  10.139178
    27  H    3.743069  10.796015  10.032737   9.957262   9.036886
    28  H    2.608272  12.655954  11.689964  11.399068  11.353564
    29  H    5.168902  12.727114  12.039416  11.949560  10.859249
    30  H    5.478147  15.519891  14.560400  14.312396  14.102510
    31  H    6.904375  15.118274  14.410236  14.322371  13.240801
    32  H    6.412084  14.941883  14.046386  14.070455  13.202428
    33  H    6.097713  15.282567  14.491101  14.302879  13.568529
                   21         22         23         24         25
    21  H    0.000000
    22  H    3.087874   0.000000
    23  H    3.731511   2.423206   0.000000
    24  H    4.205588   5.400355   3.772451   0.000000
    25  H    5.292735   4.773812   2.359894   3.031438   0.000000
    26  H    7.904558   8.448579   6.358047   3.747447   4.432580
    27  H    7.413276   6.744337   4.351852   4.433510   2.149400
    28  H    9.020327   9.481931   7.168919   4.960148   4.897421
    29  H    9.436028   8.471136   6.171305   6.384554   4.169013
    30  H   11.893639  12.064490   9.677545   7.878162   7.328355
    31  H   11.803604  10.832882   8.552220   8.549012   6.529567
    32  H   11.486705  10.857349   8.477403   8.130601   6.284089
    33  H   11.807344  11.287367   8.922865   8.139138   6.691279
                   26         27         28         29         30
    26  H    0.000000
    27  H    3.858129   0.000000
    28  H    2.210727   3.740246   0.000000
    29  H    4.788149   2.077548   4.245199   0.000000
    30  H    4.696647   5.585042   2.941348   4.913642   0.000000
    31  H    6.232549   4.397937   5.223628   2.391296   4.402758
    32  H    5.921646   4.224586   4.381666   2.752376   3.483656
    33  H    5.281681   4.584098   4.024897   3.039320   2.674211
                   31         32         33
    31  H    0.000000
    32  H    1.762789   0.000000
    33  H    1.782099   1.735389   0.000000
 Stoichiometry    C13H17NS2
 Framework group  C1[X(C13H17NS2)]
 Deg. of freedom    93
 Full point group                 C1      NOp   1
 Largest Abelian subgroup         C1      NOp   1
 Largest concise Abelian subgroup C1      NOp   1
                         Standard orientation:                         
 ---------------------------------------------------------------------
 Center     Atomic      Atomic             Coordinates (Angstroms)
 Number     Number       Type             X           Y           Z
 ---------------------------------------------------------------------
      1          6           0        8.086915   -0.657025   -0.151557
      2          7           0        7.111417    0.311303    0.302786
      3          6           0        5.794393    0.259450   -0.018579
      4          6           0        4.873937    1.225247    0.200711
      5          6           0        2.894487   -0.160362   -0.408309
      6          6           0        3.480415    0.980062    0.003551
      7          6           0        1.565529   -0.575902   -0.160328
      8          6           0        0.458910    0.223639   -0.129023
      9          6           0       -0.914855   -0.225291   -0.045701
     10          6           0       -1.898271    0.711993   -0.053495
     11          6           0       -3.370192    0.649970   -0.060896
     12          6           0       -3.960370    1.896538    0.151029
     13         16           0       -5.676362   -0.991390    0.230020
     14          6           0       -5.367447    2.323757   -0.095584
     15          6           0       -4.060785   -0.546256   -0.342855
     16         16           0       -1.143165   -1.995913    0.117754
     17          1           0        9.067432   -0.381559    0.241360
     18          1           0        8.152619   -0.690361   -1.245825
     19          1           0        7.843161   -1.661892    0.211516
     20          1           0        7.457132    1.118815    0.793815
     21          1           0        5.480563   -0.701529   -0.435913
     22          1           0        5.170991    2.166096    0.666746
     23          1           0        2.827855    1.861220    0.129448
     24          1           0        1.393348   -1.622155   -0.069731
     25          1           0        0.578336    1.288873   -0.296207
     26          1           0       -2.209352   -1.938643    0.911975
     27          1           0       -1.516396    1.722856   -0.087222
     28          1           0       -3.508630   -1.365397   -0.782304
     29          1           0       -3.279385    2.701644    0.412829
     30          1           0       -6.402845   -0.855385   -0.904523
     31          1           0       -5.603145    3.265865    0.422147
     32          1           0       -5.525096    2.505692   -1.166396
     33          1           0       -6.090066    1.568680    0.180597
 ---------------------------------------------------------------------
 Rotational constants (GHZ):           1.2863113           0.1015955           0.0947108
 Standard basis: 6-31G(2df,p) (6D, 7F)
 There are   589 symmetry adapted cartesian basis functions of A   symmetry.
 There are   541 symmetry adapted basis functions of A   symmetry.
   541 basis functions,   871 primitive gaussians,   589 cartesian basis functions
    67 alpha electrons       67 beta electrons
       nuclear repulsion energy      1119.9845069438 Hartrees.
 NAtoms=   33 NActive=   33 NUniq=   33 SFac= 1.00D+00 NAtFMM=   60 NAOKFM=F Big=F
 Integral buffers will be    131072 words long.
 Raffenetti 2 integral format.
 Two-electron integral symmetry is turned on.
 One-electron integrals computed using PRISM.
 PrsmSu:  requested number of processors reduced to:  12 ShMem   1 Linda.
 NBasis=   541 RedAO= T EigKep=  2.98D-04  NBF=   541
 NBsUse=   541 1.00D-06 EigRej= -1.00D+00 NBFU=   541
 Initial guess from the checkpoint file:  "CNCdCC1dCCdCCdCCdC[SH]dCCS1.chk"
 B after Tr=     0.000000   -0.000000    0.000000
         Rot=    0.999984    0.005608   -0.000124   -0.000913 Ang=   0.65 deg.
 ExpMin= 1.17D-01 ExpMax= 2.19D+04 ExpMxC= 3.30D+03 IAcc=2 IRadAn=         4 AccDes= 0.00D+00
 Harris functional with IExCor=  402 and IRadAn=       4 diagonalized for initial guess.
 HarFok:  IExCor=  402 AccDes= 0.00D+00 IRadAn=         4 IDoV= 1 UseB2=F ITyADJ=14
 ICtDFT=  3500011 ScaDFX=  1.000000  1.000000  1.000000  1.000000
 FoFCou: FMM=F IPFlag=           0 FMFlag=      100000 FMFlg1=           0
         NFxFlg=           0 DoJE=T BraDBF=F KetDBF=T FulRan=T
         wScrn=  0.000000 ICntrl=       500 IOpCl=  0 I1Cent=   200000004 NGrid=           0
         NMat0=    1 NMatS0=      1 NMatT0=    0 NMatD0=    1 NMtDS0=    0 NMtDT0=    0
 Petite list used in FoFCou.
 Requested convergence on RMS density matrix=1.00D-08 within 128 cycles.
 Requested convergence on MAX density matrix=1.00D-06.
 Requested convergence on             energy=1.00D-06.
 No special actions if energy rises.
 Integral accuracy reduced to 1.0D-05 until final iterations.
 EnCoef did    11 forward-backward iterations
 EnCoef did    37 forward-backward iterations
 EnCoef did     4 forward-backward iterations
 Initial convergence to 1.0D-05 achieved.  Increase integral accuracy.
 SCF Done:  E(RB3LYP) =  -1356.52381150     A.U. after   23 cycles
            NFock= 23  Conv=0.44D-08     -V/T= 2.0051
 PrsmSu:  requested number of processors reduced to:  13 ShMem   1 Linda.
 Calling FoFJK, ICntrl=      2127 FMM=F ISym2X=0 I1Cent= 0 IOpClX= 0 NMat=1 NMatS=1 NMatT=0.
slurmstepd: error: *** JOB 27446929 ON lewis4-r630-hpc4-node300 CANCELLED AT 2023-05-16T23:04:52 DUE TO TIME LIMIT ***
