### Starting Gaussian ###
 Entering Gaussian System, Link 0=g16
 Initial command:
 /cluster/software/gaussian/gaussian-16-A.03/avx2/g16/l1.exe "/local/scratch/linjian/Gau-30914.inp" -scrdir="/local/scratch/linjian/"
 Entering Link 1 = /cluster/software/gaussian/gaussian-16-A.03/avx2/g16/l1.exe PID=     30915.
  
 Copyright (c) 1988,1990,1992,1993,1995,1998,2003,2009,2016,
            Gaussian, Inc.  All Rights Reserved.
  
 This is part of the Gaussian(R) 16 program.  It is based on
 the Gaussian(R) 09 system (copyright 2009, Gaussian, Inc.),
 the Gaussian(R) 03 system (copyright 2003, Gaussian, Inc.),
 the Gaussian(R) 98 system (copyright 1998, Gaussian, Inc.),
 the Gaussian(R) 94 system (copyright 1995, Gaussian, Inc.),
 the Gaussian 92(TM) system (copyright 1992, Gaussian, Inc.),
 the Gaussian 90(TM) system (copyright 1990, Gaussian, Inc.),
 the Gaussian 88(TM) system (copyright 1988, Gaussian, Inc.),
 the Gaussian 86(TM) system (copyright 1986, Carnegie Mellon
 University), and the Gaussian 82(TM) system (copyright 1983,
 Carnegie Mellon University). Gaussian is a federally registered
 trademark of Gaussian, Inc.
  
 This software contains proprietary and confidential information,
 including trade secrets, belonging to Gaussian, Inc.
  
 This software is provided under written license and may be
 used, copied, transmitted, or stored only in accord with that
 written license.
  
 The following legend is applicable only to US Government
 contracts under FAR:
  
                    RESTRICTED RIGHTS LEGEND
  
 Use, reproduction and disclosure by the US Government is
 subject to restrictions as set forth in subparagraphs (a)
 and (c) of the Commercial Computer Software - Restricted
 Rights clause in FAR 52.227-19.
  
 Gaussian, Inc.
 340 Quinnipiac St., Bldg. 40, Wallingford CT 06492
  
  
 ---------------------------------------------------------------
 Warning -- This program may not be used in any manner that
 competes with the business of Gaussian, Inc. or will provide
 assistance to any competitor of Gaussian, Inc.  The licensee
 of this program is prohibited from giving any competitor of
 Gaussian, Inc. access to this program.  By using this program,
 the user acknowledges that Gaussian, Inc. is engaged in the
 business of creating and licensing software in the field of
 computational chemistry and represents and warrants to the
 licensee that it is not a competitor of Gaussian, Inc. and that
 it will not use this program in any manner prohibited above.
 ---------------------------------------------------------------
  

 Cite this work as:
 Gaussian 16, Revision A.03,
 M. J. Frisch, G. W. Trucks, H. B. Schlegel, G. E. Scuseria, 
 M. A. Robb, J. R. Cheeseman, G. Scalmani, V. Barone, 
 G. A. Petersson, H. Nakatsuji, X. Li, M. Caricato, A. V. Marenich, 
 J. Bloino, B. G. Janesko, R. Gomperts, B. Mennucci, H. P. Hratchian, 
 J. V. Ortiz, A. F. Izmaylov, J. L. Sonnenberg, D. Williams-Young, 
 F. Ding, F. Lipparini, F. Egidi, J. Goings, B. Peng, A. Petrone, 
 T. Henderson, D. Ranasinghe, V. G. Zakrzewski, J. Gao, N. Rega, 
 G. Zheng, W. Liang, M. Hada, M. Ehara, K. Toyota, R. Fukuda, 
 J. Hasegawa, M. Ishida, T. Nakajima, Y. Honda, O. Kitao, H. Nakai, 
 T. Vreven, K. Throssell, J. A. Montgomery, Jr., J. E. Peralta, 
 F. Ogliaro, M. J. Bearpark, J. J. Heyd, E. N. Brothers, K. N. Kudin, 
 V. N. Staroverov, T. A. Keith, R. Kobayashi, J. Normand, 
 K. Raghavachari, A. P. Rendell, J. C. Burant, S. S. Iyengar, 
 J. Tomasi, M. Cossi, J. M. Millam, M. Klene, C. Adamo, R. Cammi, 
 J. W. Ochterski, R. L. Martin, K. Morokuma, O. Farkas, 
 J. B. Foresman, and D. J. Fox, Gaussian, Inc., Wallingford CT, 2016.
 
 ******************************************
 Gaussian 16:  ES64L-G16RevA.03 25-Dec-2016
                17-May-2023 
 ******************************************
 %chk=CNNdCCCqCdNr[N]CdCCCdCCdCNN.chk
 %NProcShared=20
 Will use up to   20 processors via shared memory.
 -----------------------------
 # opt freq b3lyp/6-31g(2df,p)
 -----------------------------
 1/18=20,19=15,26=3,38=1/1,3;
 2/9=110,12=2,17=6,18=5,40=1/2;
 3/5=1,6=6,7=104,11=2,25=1,30=1,71=1,74=-5/1,2,3;
 4//1;
 5/5=2,38=5/2;
 6/7=2,8=2,9=2,10=2,28=1/1;
 7//1,2,3,16;
 1/18=20,19=15,26=3/3(2);
 2/9=110/2;
 99//99;
 2/9=110/2;
 3/5=1,6=6,7=104,11=2,25=1,30=1,71=1,74=-5/1,2,3;
 4/5=5,16=3,69=1/1;
 5/5=2,38=5/2;
 7//1,2,3,16;
 1/18=20,19=15,26=3/3(-5);
 2/9=110/2;
 6/7=2,8=2,9=2,10=2,19=2,28=1/1;
 99/9=1/99;
 -------------------
 Title Card Required
 -------------------
 Symbolic Z-matrix:
 Charge =  0 Multiplicity = 2
 C                     0.98605   0.07596   0.04492 
 N                     2.42503   0.23348   0.06469 
 N                     3.03593   0.7913   -1.0058 
 C                     4.32604   0.90661  -0.87574 
 C                     5.19283   1.57566  -1.92263 
 C                     6.7242    1.38662  -1.71587 
 C                     7.10664  -0.07639  -1.90974 
 N                     6.74349  -1.0566   -1.13466 
 N                     7.41341   2.20504  -2.74244 
 C                     8.77162   2.25076  -2.74112 
 C                     9.54916   2.92544  -3.62171 
 C                     11.06128   2.95321  -3.66231 
 C                     11.61773   3.8183   -4.78232 
 C                     12.93473   3.9965   -5.02074 
 C                     13.43751   4.83581  -6.09005 
 C                     14.74648   5.04958  -6.3403 
 N                     15.25173   5.86996  -7.31504 
 N                     16.61457   5.97673  -7.58002 
 H                     0.65735  -0.5676    0.86836 
 H                     0.61341  -0.35832  -0.88897 
 H                     0.52096   1.05518   0.18961 
 H                     2.93178  -0.48926   0.57424 
 H                     4.82186   0.57396   0.04876 
 H                     4.94998   2.647    -1.86751 
 H                     4.87724   1.22775  -2.91369 
 H                     6.98698   1.69113  -0.69401 
 H                     7.75239  -0.33014  -2.76415 
 H                     6.17418  -0.71217  -0.36657 
 H                     9.33546   1.69069  -1.9903 
 H                     9.02101   3.49287  -4.38494 
 H                     11.43169   1.93035  -3.80147 
 H                     11.43733   3.33699  -2.70678 
 H                     10.89208   4.31628  -5.41968 
 H                     13.66195   3.50116  -4.38313 
 H                     12.70004   5.33191  -6.71322 
 H                     15.50109   4.56421  -5.73003 
 H                     14.58083   6.25688  -7.98316 
 H                     17.17784   5.47335  -6.8922 
 H                     16.90464   6.95483  -7.49656 
 

 GradGradGradGradGradGradGradGradGradGradGradGradGradGradGradGradGradGrad
 Berny optimization.
 Initialization pass.
                           ----------------------------
                           !    Initial Parameters    !
                           ! (Angstroms and Degrees)  !
 --------------------------                            --------------------------
 ! Name  Definition              Value          Derivative Info.                !
 --------------------------------------------------------------------------------
 ! R1    R(1,2)                  1.4477         estimate D2E/DX2                !
 ! R2    R(1,19)                 1.0956         estimate D2E/DX2                !
 ! R3    R(1,20)                 1.0953         estimate D2E/DX2                !
 ! R4    R(1,21)                 1.0937         estimate D2E/DX2                !
 ! R5    R(2,3)                  1.3529         estimate D2E/DX2                !
 ! R6    R(2,22)                 1.0192         estimate D2E/DX2                !
 ! R7    R(3,4)                  1.3018         estimate D2E/DX2                !
 ! R8    R(4,5)                  1.5149         estimate D2E/DX2                !
 ! R9    R(4,23)                 1.1005         estimate D2E/DX2                !
 ! R10   R(5,6)                  1.5568         estimate D2E/DX2                !
 ! R11   R(5,24)                 1.0999         estimate D2E/DX2                !
 ! R12   R(5,25)                 1.0967         estimate D2E/DX2                !
 ! R13   R(6,7)                  1.5245         estimate D2E/DX2                !
 ! R14   R(6,9)                  1.4828         estimate D2E/DX2                !
 ! R15   R(6,26)                 1.0982         estimate D2E/DX2                !
 ! R16   R(7,8)                  1.3013         estimate D2E/DX2                !
 ! R17   R(7,27)                 1.1006         estimate D2E/DX2                !
 ! R18   R(8,28)                 1.0162         estimate D2E/DX2                !
 ! R19   R(9,10)                 1.359          estimate D2E/DX2                !
 ! R20   R(10,11)                1.3547         estimate D2E/DX2                !
 ! R21   R(10,29)                1.0933         estimate D2E/DX2                !
 ! R22   R(11,12)                1.5129         estimate D2E/DX2                !
 ! R23   R(11,30)                1.0879         estimate D2E/DX2                !
 ! R24   R(12,13)                1.5207         estimate D2E/DX2                !
 ! R25   R(12,31)                1.0967         estimate D2E/DX2                !
 ! R26   R(12,32)                1.0962         estimate D2E/DX2                !
 ! R27   R(13,14)                1.3502         estimate D2E/DX2                !
 ! R28   R(13,33)                1.0866         estimate D2E/DX2                !
 ! R29   R(14,15)                1.4494         estimate D2E/DX2                !
 ! R30   R(14,34)                1.0866         estimate D2E/DX2                !
 ! R31   R(15,16)                1.3497         estimate D2E/DX2                !
 ! R32   R(15,35)                1.0855         estimate D2E/DX2                !
 ! R33   R(16,17)                1.3706         estimate D2E/DX2                !
 ! R34   R(16,36)                1.0851         estimate D2E/DX2                !
 ! R35   R(17,18)                1.3925         estimate D2E/DX2                !
 ! R36   R(17,37)                1.0228         estimate D2E/DX2                !
 ! R37   R(18,38)                1.0216         estimate D2E/DX2                !
 ! R38   R(18,39)                1.0236         estimate D2E/DX2                !
 ! A1    A(2,1,19)             110.6017         estimate D2E/DX2                !
 ! A2    A(2,1,20)             113.1389         estimate D2E/DX2                !
 ! A3    A(2,1,21)             108.8726         estimate D2E/DX2                !
 ! A4    A(19,1,20)            107.8108         estimate D2E/DX2                !
 ! A5    A(19,1,21)            107.393          estimate D2E/DX2                !
 ! A6    A(20,1,21)            108.8525         estimate D2E/DX2                !
 ! A7    A(1,2,3)              118.8741         estimate D2E/DX2                !
 ! A8    A(1,2,22)             115.0792         estimate D2E/DX2                !
 ! A9    A(3,2,22)             117.6105         estimate D2E/DX2                !
 ! A10   A(2,3,4)              113.8896         estimate D2E/DX2                !
 ! A11   A(3,4,5)              122.4884         estimate D2E/DX2                !
 ! A12   A(3,4,23)             120.2414         estimate D2E/DX2                !
 ! A13   A(5,4,23)             117.1443         estimate D2E/DX2                !
 ! A14   A(4,5,6)              114.6721         estimate D2E/DX2                !
 ! A15   A(4,5,24)             105.6175         estimate D2E/DX2                !
 ! A16   A(4,5,25)             108.6464         estimate D2E/DX2                !
 ! A17   A(6,5,24)             109.1965         estimate D2E/DX2                !
 ! A18   A(6,5,25)             111.3799         estimate D2E/DX2                !
 ! A19   A(24,5,25)            106.902          estimate D2E/DX2                !
 ! A20   A(5,6,7)              110.2672         estimate D2E/DX2                !
 ! A21   A(5,6,9)              107.3523         estimate D2E/DX2                !
 ! A22   A(5,6,26)             108.9834         estimate D2E/DX2                !
 ! A23   A(7,6,9)              108.9673         estimate D2E/DX2                !
 ! A24   A(7,6,26)             108.9291         estimate D2E/DX2                !
 ! A25   A(9,6,26)             112.3302         estimate D2E/DX2                !
 ! A26   A(6,7,8)              125.2463         estimate D2E/DX2                !
 ! A27   A(6,7,27)             117.8487         estimate D2E/DX2                !
 ! A28   A(8,7,27)             116.8999         estimate D2E/DX2                !
 ! A29   A(7,8,28)             110.5618         estimate D2E/DX2                !
 ! A30   A(6,9,10)             118.8448         estimate D2E/DX2                !
 ! A31   A(9,10,11)            126.1398         estimate D2E/DX2                !
 ! A32   A(9,10,29)            119.9246         estimate D2E/DX2                !
 ! A33   A(11,10,29)           113.9241         estimate D2E/DX2                !
 ! A34   A(10,11,12)           126.8872         estimate D2E/DX2                !
 ! A35   A(10,11,30)           115.9236         estimate D2E/DX2                !
 ! A36   A(12,11,30)           117.1831         estimate D2E/DX2                !
 ! A37   A(11,12,13)           113.3245         estimate D2E/DX2                !
 ! A38   A(11,12,31)           108.8958         estimate D2E/DX2                !
 ! A39   A(11,12,32)           109.0195         estimate D2E/DX2                !
 ! A40   A(13,12,31)           108.272          estimate D2E/DX2                !
 ! A41   A(13,12,32)           108.4998         estimate D2E/DX2                !
 ! A42   A(31,12,32)           108.7386         estimate D2E/DX2                !
 ! A43   A(12,13,14)           124.1982         estimate D2E/DX2                !
 ! A44   A(12,13,33)           116.6378         estimate D2E/DX2                !
 ! A45   A(14,13,33)           119.164          estimate D2E/DX2                !
 ! A46   A(13,14,15)           123.0292         estimate D2E/DX2                !
 ! A47   A(13,14,34)           119.2752         estimate D2E/DX2                !
 ! A48   A(15,14,34)           117.6929         estimate D2E/DX2                !
 ! A49   A(14,15,16)           124.3977         estimate D2E/DX2                !
 ! A50   A(14,15,35)           116.906          estimate D2E/DX2                !
 ! A51   A(16,15,35)           118.6885         estimate D2E/DX2                !
 ! A52   A(15,16,17)           125.7455         estimate D2E/DX2                !
 ! A53   A(15,16,36)           119.9546         estimate D2E/DX2                !
 ! A54   A(17,16,36)           114.2905         estimate D2E/DX2                !
 ! A55   A(16,17,18)           122.8227         estimate D2E/DX2                !
 ! A56   A(16,17,37)           116.6914         estimate D2E/DX2                !
 ! A57   A(18,17,37)           119.2525         estimate D2E/DX2                !
 ! A58   A(17,18,38)           111.9447         estimate D2E/DX2                !
 ! A59   A(17,18,39)           109.5788         estimate D2E/DX2                !
 ! A60   A(38,18,39)           105.0509         estimate D2E/DX2                !
 ! D1    D(19,1,2,3)           168.2445         estimate D2E/DX2                !
 ! D2    D(19,1,2,22)           20.8487         estimate D2E/DX2                !
 ! D3    D(20,1,2,3)            47.1803         estimate D2E/DX2                !
 ! D4    D(20,1,2,22)         -100.2156         estimate D2E/DX2                !
 ! D5    D(21,1,2,3)           -73.981          estimate D2E/DX2                !
 ! D6    D(21,1,2,22)          138.6231         estimate D2E/DX2                !
 ! D7    D(1,2,3,4)            178.9017         estimate D2E/DX2                !
 ! D8    D(22,2,3,4)           -34.517          estimate D2E/DX2                !
 ! D9    D(2,3,4,5)           -176.444          estimate D2E/DX2                !
 ! D10   D(2,3,4,23)            -0.6429         estimate D2E/DX2                !
 ! D11   D(3,4,5,6)           -169.2991         estimate D2E/DX2                !
 ! D12   D(3,4,5,24)            70.4281         estimate D2E/DX2                !
 ! D13   D(3,4,5,25)           -43.9609         estimate D2E/DX2                !
 ! D14   D(23,4,5,6)            14.7772         estimate D2E/DX2                !
 ! D15   D(23,4,5,24)         -105.4956         estimate D2E/DX2                !
 ! D16   D(23,4,5,25)          140.1154         estimate D2E/DX2                !
 ! D17   D(4,5,6,7)             66.7133         estimate D2E/DX2                !
 ! D18   D(4,5,6,9)           -174.7069         estimate D2E/DX2                !
 ! D19   D(4,5,6,26)           -52.8065         estimate D2E/DX2                !
 ! D20   D(24,5,6,7)          -175.0162         estimate D2E/DX2                !
 ! D21   D(24,5,6,9)           -56.4364         estimate D2E/DX2                !
 ! D22   D(24,5,6,26)           65.464          estimate D2E/DX2                !
 ! D23   D(25,5,6,7)           -57.1824         estimate D2E/DX2                !
 ! D24   D(25,5,6,9)            61.3974         estimate D2E/DX2                !
 ! D25   D(25,5,6,26)         -176.7022         estimate D2E/DX2                !
 ! D26   D(5,6,7,8)            -66.6343         estimate D2E/DX2                !
 ! D27   D(5,6,7,27)           114.2151         estimate D2E/DX2                !
 ! D28   D(9,6,7,8)            175.7787         estimate D2E/DX2                !
 ! D29   D(9,6,7,27)            -3.3718         estimate D2E/DX2                !
 ! D30   D(26,6,7,8)            52.9184         estimate D2E/DX2                !
 ! D31   D(26,6,7,27)         -126.2321         estimate D2E/DX2                !
 ! D32   D(5,6,9,10)           177.5097         estimate D2E/DX2                !
 ! D33   D(7,6,9,10)           -63.0746         estimate D2E/DX2                !
 ! D34   D(26,6,9,10)           57.7226         estimate D2E/DX2                !
 ! D35   D(6,7,8,28)            -0.7473         estimate D2E/DX2                !
 ! D36   D(27,7,8,28)          178.4106         estimate D2E/DX2                !
 ! D37   D(6,9,10,11)          178.6018         estimate D2E/DX2                !
 ! D38   D(6,9,10,29)           -0.0841         estimate D2E/DX2                !
 ! D39   D(9,10,11,12)        -177.9376         estimate D2E/DX2                !
 ! D40   D(9,10,11,30)           1.1312         estimate D2E/DX2                !
 ! D41   D(29,10,11,12)          0.8165         estimate D2E/DX2                !
 ! D42   D(29,10,11,30)        179.8853         estimate D2E/DX2                !
 ! D43   D(10,11,12,13)       -179.8049         estimate D2E/DX2                !
 ! D44   D(10,11,12,31)         59.6333         estimate D2E/DX2                !
 ! D45   D(10,11,12,32)        -58.8661         estimate D2E/DX2                !
 ! D46   D(30,11,12,13)          1.1365         estimate D2E/DX2                !
 ! D47   D(30,11,12,31)       -119.4253         estimate D2E/DX2                !
 ! D48   D(30,11,12,32)        122.0753         estimate D2E/DX2                !
 ! D49   D(11,12,13,14)       -179.8754         estimate D2E/DX2                !
 ! D50   D(11,12,13,33)          0.1483         estimate D2E/DX2                !
 ! D51   D(31,12,13,14)        -58.9608         estimate D2E/DX2                !
 ! D52   D(31,12,13,33)        121.0629         estimate D2E/DX2                !
 ! D53   D(32,12,13,14)         58.893          estimate D2E/DX2                !
 ! D54   D(32,12,13,33)       -121.0833         estimate D2E/DX2                !
 ! D55   D(12,13,14,15)       -179.5066         estimate D2E/DX2                !
 ! D56   D(12,13,14,34)         -0.1115         estimate D2E/DX2                !
 ! D57   D(33,13,14,15)          0.4692         estimate D2E/DX2                !
 ! D58   D(33,13,14,34)        179.8643         estimate D2E/DX2                !
 ! D59   D(13,14,15,16)        178.9421         estimate D2E/DX2                !
 ! D60   D(13,14,15,35)         -0.0314         estimate D2E/DX2                !
 ! D61   D(34,14,15,16)         -0.4619         estimate D2E/DX2                !
 ! D62   D(34,14,15,35)       -179.4354         estimate D2E/DX2                !
 ! D63   D(14,15,16,17)       -177.7794         estimate D2E/DX2                !
 ! D64   D(14,15,16,36)          1.0356         estimate D2E/DX2                !
 ! D65   D(35,15,16,17)          1.1772         estimate D2E/DX2                !
 ! D66   D(35,15,16,36)        179.9921         estimate D2E/DX2                !
 ! D67   D(15,16,17,18)       -175.5149         estimate D2E/DX2                !
 ! D68   D(15,16,17,37)         -8.3181         estimate D2E/DX2                !
 ! D69   D(36,16,17,18)          5.6116         estimate D2E/DX2                !
 ! D70   D(36,16,17,37)        172.8084         estimate D2E/DX2                !
 ! D71   D(16,17,18,38)         -7.3503         estimate D2E/DX2                !
 ! D72   D(16,17,18,39)       -123.4823         estimate D2E/DX2                !
 ! D73   D(37,17,18,38)       -174.234          estimate D2E/DX2                !
 ! D74   D(37,17,18,39)         69.634          estimate D2E/DX2                !
 --------------------------------------------------------------------------------
 Trust Radius=3.00D-01 FncErr=1.00D-07 GrdErr=1.00D-06 EigMax=2.50D+02 EigMin=1.00D-04
 Number of steps in this run=    182 maximum allowed number of steps=    234.
 GradGradGradGradGradGradGradGradGradGradGradGradGradGradGradGradGradGrad

                          Input orientation:                          
 ---------------------------------------------------------------------
 Center     Atomic      Atomic             Coordinates (Angstroms)
 Number     Number       Type             X           Y           Z
 ---------------------------------------------------------------------
      1          6           0        0.986050    0.075960    0.044920
      2          7           0        2.425030    0.233480    0.064690
      3          7           0        3.035930    0.791300   -1.005800
      4          6           0        4.326040    0.906610   -0.875740
      5          6           0        5.192830    1.575660   -1.922630
      6          6           0        6.724200    1.386620   -1.715870
      7          6           0        7.106640   -0.076390   -1.909740
      8          7           0        6.743490   -1.056600   -1.134660
      9          7           0        7.413410    2.205040   -2.742440
     10          6           0        8.771620    2.250760   -2.741120
     11          6           0        9.549160    2.925440   -3.621710
     12          6           0       11.061280    2.953210   -3.662310
     13          6           0       11.617730    3.818300   -4.782320
     14          6           0       12.934730    3.996500   -5.020740
     15          6           0       13.437510    4.835810   -6.090050
     16          6           0       14.746480    5.049580   -6.340300
     17          7           0       15.251730    5.869960   -7.315040
     18          7           0       16.614570    5.976730   -7.580020
     19          1           0        0.657350   -0.567600    0.868360
     20          1           0        0.613410   -0.358320   -0.888970
     21          1           0        0.520960    1.055180    0.189610
     22          1           0        2.931780   -0.489260    0.574240
     23          1           0        4.821860    0.573960    0.048760
     24          1           0        4.949980    2.647000   -1.867510
     25          1           0        4.877240    1.227750   -2.913690
     26          1           0        6.986980    1.691130   -0.694010
     27          1           0        7.752390   -0.330140   -2.764150
     28          1           0        6.174180   -0.712170   -0.366570
     29          1           0        9.335460    1.690690   -1.990300
     30          1           0        9.021010    3.492870   -4.384940
     31          1           0       11.431690    1.930350   -3.801470
     32          1           0       11.437330    3.336990   -2.706780
     33          1           0       10.892080    4.316280   -5.419680
     34          1           0       13.661950    3.501160   -4.383130
     35          1           0       12.700040    5.331910   -6.713220
     36          1           0       15.501090    4.564210   -5.730030
     37          1           0       14.580830    6.256880   -7.983160
     38          1           0       17.177840    5.473350   -6.892200
     39          1           0       16.904640    6.954830   -7.496560
 ---------------------------------------------------------------------
                    Distance matrix (angstroms):
                    1          2          3          4          5
     1  C    0.000000
     2  N    1.447711   0.000000
     3  N    2.411997   1.352890   0.000000
     4  C    3.562742   2.225163   1.301766   0.000000
     5  C    4.880302   3.662186   2.471440   1.514903   0.000000
     6  C    6.143661   4.794058   3.802886   2.586001   1.556785
     7  C    6.426938   5.090370   4.259187   3.125249   2.528261
     8  N    5.985166   4.663887   4.144556   3.124948   3.155033
     9  N    7.322111   6.054004   4.917002   3.834363   2.449323
    10  C    8.550256   7.226423   6.167617   5.004954   3.732750
    11  C    9.741179   8.461053   7.336191   6.236747   4.866867
    12  C   11.114512   9.791439   8.725660   7.570799   6.273981
    13  C   12.261320  10.993188   9.852519   8.769723   7.381504
    14  C   13.557378  12.266854  11.152546  10.041812   8.683074
    15  C   14.674225  13.428961  12.263789  11.209216   9.796464
    16  C   15.964253  14.698192  13.554587  12.474421  11.084050
    17  N   17.066021  15.835231  14.656912  13.618742  12.194284
    18  N   18.363263  17.110510  15.952696  14.888299  13.484496
    19  H    1.095567   2.100549   3.319146   4.321396   5.740537
    20  H    1.095267   2.131117   2.684004   3.922224   5.077383
    21  H    1.093671   2.077566   2.797090   3.954197   5.153526
    22  H    2.094163   1.019210   2.036469   2.448440   3.951025
    23  H    3.868004   2.420945   2.085397   1.100542   2.242186
    24  H    5.097095   3.991722   2.801741   2.098062   1.099902
    25  H    5.022087   3.984050   2.687184   2.135461   1.096740
    26  H    6.258271   4.848892   4.064198   2.780126   2.177571
    27  H    7.337517   6.058116   5.156978   4.103111   3.300239
    28  H    5.263760   3.890548   3.538029   2.509048   2.935734
    29  H    8.744262   7.355303   6.439116   5.191466   4.144779
    30  H    9.790787   8.598243   7.385002   6.406713   4.938990
    31  H   11.284719   9.947185   8.921995   7.752303   6.525275
    32  H   11.288730   9.926448   8.941890   7.734979   6.535362
    33  H   12.081871  10.882946   9.676100   8.682518   7.226466
    34  H   13.857058  12.519154  11.474406  10.304984   9.027048
    35  H   14.509136  13.323283  12.107304  11.125796   9.665266
    36  H   16.253640  14.943806  13.854003  12.721003  11.388062
    37  H   16.954996  15.773798  14.554753  13.575770  12.115213
    38  H   18.423613  17.131841  16.017644  14.907101  13.547290
    39  H   18.910163  17.663753  16.506368  15.447893  14.041747
                    6          7          8          9         10
     6  C    0.000000
     7  C    1.524547   0.000000
     8  N    2.511474   1.301322   0.000000
     9  N    1.482791   2.447942   3.697573   0.000000
    10  C    2.447408   2.979761   4.199126   1.358980   0.000000
    11  C    3.739063   4.231752   5.469355   2.419405   1.354696
    12  C    5.005307   5.281018   6.411778   3.835737   2.566042
    13  C    6.266005   6.615910   7.799249   4.943685   3.837189
    14  C    7.503621   7.761017   8.886332   6.235780   5.057248
    15  C    8.723468   9.037954  10.202269   7.376803   6.298281
    16  C    9.957892  10.211395  11.332783   8.649273   7.515746
    17  N   11.143151  11.441977  12.592239   9.786704   8.718439
    18  N   12.380500  12.617174  13.727659  11.058443   9.940305
    19  H    6.877782   7.039351   6.425909   8.146764   9.317343
    20  H    6.408614   6.579019   6.174612   7.499744   8.763227
    21  H    6.497761   7.004206   6.703222   7.577926   8.836967
    22  H    4.811027   4.875456   4.215608   6.192304   7.252796
    23  H    2.719050   3.078782   2.784218   4.143350   5.118173
    24  H    2.181607   3.474164   4.179761   2.651286   3.940195
    25  H    2.207096   2.771087   3.444719   2.723340   4.030202
    26  H    1.098170   2.148591   2.793471   2.154533   2.772866
    27  H    2.259055   1.100636   2.049600   2.557834   2.774960
    28  H    2.555005   1.911824   1.016222   3.961132   4.600450
    29  H    2.643189   2.845470   3.872729   2.127098   1.093309
    30  H    4.103116   4.746688   6.037309   2.634519   2.075374
    31  H    5.177435   5.129494   6.165466   4.164562   2.881489
    32  H    5.196099   5.571473   6.618710   4.180253   2.878730
    33  H    6.298598   6.778258   8.027455   4.870944   3.992168
    34  H    7.727738   7.866932   8.898923   6.589085   5.308015
    35  H    8.732095   9.143810  10.364067   7.313882   6.379933
    36  H   10.160923  10.324562  11.375697   8.938789   7.718251
    37  H   11.168034  11.526502  12.720568   9.759839   8.790614
    38  H   12.360192  12.532102  13.589156  11.101642   9.913682
    39  H   12.963900  13.291028  14.418937  11.629515  10.530361
                   11         12         13         14         15
    11  C    0.000000
    12  C    1.512920   0.000000
    13  C    2.534403   1.520671   0.000000
    14  C    3.816614   2.538425   1.350218   0.000000
    15  C    4.986129   3.883886   2.461114   1.449363   0.000000
    16  C    6.238176   5.014688   3.705729   2.476420   1.349713
    17  N    7.404741   6.277718   4.881591   3.760606   2.421045
    18  N    8.654398   7.438357   6.119996   4.900250   3.689908
    19  H   10.555868  11.881281  13.088019  14.361287  15.522526
    20  H    9.904473  11.305558  12.397475  13.705871  14.781331
    21  H    9.976594  11.381483  12.469692  13.780450  14.851416
    22  H    8.547274   9.792228  11.076711  12.307918  13.532904
    23  H    6.430332   7.639583   8.947006  10.160328  11.405165
    24  H    4.930234   6.376759   7.370682   8.690238   9.729280
    25  H    5.020984   6.463745   7.459017   8.776604   9.817616
    26  H    4.081631   5.196496   6.533221   7.707857   8.978619
    27  H    3.816097   4.747192   6.018589   7.118192   8.370737
    28  H    5.934529   6.941229   8.346032   9.462447  10.783982
    29  H    2.057128   2.714411   4.186987   5.239759   6.597465
    30  H    1.087860   2.230724   2.647030   3.996885   4.921012
    31  H    2.136922   1.096728   2.135657   2.831029   4.207447
    32  H    2.138143   1.096238   2.138240   2.834003   4.206388
    33  H    2.640183   2.230457   1.086637   2.105666   2.683006
    34  H    4.222115   2.753782   2.106838   1.086627   2.178357
    35  H    5.027582   4.201405   2.681564   2.168614   1.085504
    36  H    6.523500   5.155841   4.066328   2.722424   2.112284
    37  H    7.445700   6.478519   4.997200   4.073683   2.628780
    38  H    8.682437   7.361766   6.172974   4.866973   3.878140
    39  H    9.238698   8.053527   6.719846   5.535484   4.299943
                   16         17         18         19         20
    16  C    0.000000
    17  N    1.370554   0.000000
    18  N    2.426164   1.392461   0.000000
    19  H   16.793483  17.927804  19.205110   0.000000
    20  H   16.084342  17.157105  18.464564   1.770293   0.000000
    21  H   16.154268  17.219102  18.536264   1.764290   1.780411
    22  H   14.767422  15.951852  17.190687   2.294706   2.744625
    23  H   12.623365  13.822277  15.048462   4.395230   4.411296
    24  H   11.034023  12.090869  13.408301   6.020408   5.366128
    25  H   11.124295  12.188193  13.494160   5.944296   4.979493
    26  H   10.167085  11.384496  12.588645   6.899788   6.697809
    27  H    9.520900  10.742064  11.895690   7.974403   7.381201
    28  H   11.931787  13.191193  14.344929   5.655207   5.596452
    29  H    7.712573   8.990073  10.129193   9.411769   9.026933
    30  H    6.247222   7.284086   8.604664  10.678735   9.886415
    31  H    5.211822   6.516012   7.583724  12.005560  11.434852
    32  H    5.204412   6.496279   7.584228  12.009805  11.580889
    33  H    4.030095   5.001286   6.338064  12.966936  12.166769
    34  H    2.721089   4.090808   5.006647  14.603170  14.048813
    35  H    2.099213   2.676342   4.060872  15.404900  14.573511
    36  H    1.085104   2.068676   2.580216  17.035576  16.410673
    37  H    2.045483   1.022838   2.092153  17.854586  17.005212
    38  H    2.528969   2.011465   1.021646  19.226179  18.558758
    39  H    3.102349   1.985448   1.023614  19.761915  19.040656
                   21         22         23         24         25
    21  H    0.000000
    22  H    2.888821   0.000000
    23  H    4.330029   2.231360   0.000000
    24  H    5.136327   4.457735   2.825951   0.000000
    25  H    5.351395   4.347251   3.034241   1.764668   0.000000
    26  H    6.557029   4.775689   2.547061   2.537747   3.097209
    27  H    7.933309   5.865871   4.161474   4.185789   3.273510
    28  H    5.949097   3.383485   1.911910   3.877565   3.454441
    29  H    9.102268   7.234374   5.077148   4.490216   4.576318
    30  H    9.955887   8.805086   6.768352   4.860683   4.946329
    31  H   11.650694   9.861532   7.768778   6.801937   6.651512
    32  H   11.522277   9.886843   7.680611   6.577703   6.893946
    33  H   12.233521  11.062851   8.986455   7.121303   7.210916
    34  H   14.127222  12.475396  10.312970   9.108038   9.192322
    35  H   14.637946  13.505999  11.420516   9.526441   9.616484
    36  H   16.485136  14.942186  12.781333  11.398275  11.486075
    37  H   17.074302  15.951171  13.858023  11.966022  12.047877
    38  H   18.631262  17.153736  14.995039  13.518740  13.607293
    39  H   19.034391  17.770569  15.609002  13.898111  14.087601
                   26         27         28         29         30
    26  H    0.000000
    27  H    2.992802   0.000000
    28  H    2.558068   2.895701   0.000000
    29  H    2.682485   2.681177   4.289980   0.000000
    30  H    4.583286   4.341862   6.475654   3.013475   0.000000
    31  H    5.428534   4.441069   6.813432   2.780639   2.931430
    32  H    5.154194   5.199030   7.040812   2.764327   2.946035
    33  H    6.668821   6.204733   8.548556   4.591017   2.291199
    34  H    7.838433   7.226538   9.484282   5.265164   4.640948
    35  H    9.062297   8.493127  10.926926   6.847252   4.726332
    36  H   10.300784   9.632936  11.983244   7.762583   6.704362
    37  H   11.473637  10.828411  13.313597   9.180325   7.176248
    38  H   12.513048  11.813568  14.210033   9.992000   8.760281
    39  H   13.127879  12.618644  14.992079  10.738834   9.155270
                   31         32         33         34         35
    31  H    0.000000
    32  H    1.782418   0.000000
    33  H    2.932992   2.935325   0.000000
    34  H    2.789235   2.790347   3.067741   0.000000
    35  H    4.653774   4.650344   2.444068   3.115483   0.000000
    36  H    5.216951   5.211550   4.626096   2.515283   3.066253
    37  H    6.791353   6.800554   4.893285   4.625857   2.450651
    38  H    7.424534   7.418573   6.558804   4.748310   4.483607
    39  H    8.297727   8.119251   6.886672   5.668891   4.574511
                   36         37         38         39
    36  H    0.000000
    37  H    2.964558   0.000000
    38  H    2.233532   2.923794   0.000000
    39  H    3.287194   2.474673   1.623167   0.000000
 Stoichiometry    C12H21N6(2)
 Framework group  C1[X(C12H21N6)]
 Deg. of freedom   111
 Full point group                 C1      NOp   1
 Largest Abelian subgroup         C1      NOp   1
 Largest concise Abelian subgroup C1      NOp   1
                         Standard orientation:                         
 ---------------------------------------------------------------------
 Center     Atomic      Atomic             Coordinates (Angstroms)
 Number     Number       Type             X           Y           Z
 ---------------------------------------------------------------------
      1          6           0        8.686918   -1.052311   -0.134067
      2          7           0        7.447178   -0.422018    0.267982
      3          7           0        6.279977   -0.914292   -0.207012
      4          6           0        5.226215   -0.289759    0.233601
      5          6           0        3.817468   -0.727885   -0.110504
      6          6           0        2.705750    0.286086    0.288906
      7          6           0        2.828357    1.558543   -0.541795
      8          7           0        3.813917    2.405820   -0.476728
      9          7           0        1.399464   -0.353622    0.000707
     10          6           0        0.258638    0.315592    0.312953
     11          6           0       -1.006460   -0.115153    0.091173
     12          6           0       -2.286439    0.633258    0.391941
     13          6           0       -3.539745   -0.144354    0.021829
     14          6           0       -4.797207    0.316386    0.193864
     15          6           0       -5.974972   -0.451240   -0.158664
     16          6           0       -7.243601   -0.026556    0.020075
     17          7           0       -8.375851   -0.745107   -0.262968
     18          7           0       -9.657205   -0.214119   -0.139957
     19          1           0        9.544450   -0.433018    0.151207
     20          1           0        8.748009   -1.232724   -1.212644
     21          1           0        8.784511   -2.007235    0.390061
     22          1           0        7.505591    0.582779    0.428487
     23          1           0        5.333213    0.549808    0.937072
     24          1           0        3.659404   -1.670713    0.433439
     25          1           0        3.775766   -0.966077   -1.180253
     26          1           0        2.819997    0.541514    1.350829
     27          1           0        2.015628    1.793174   -1.245938
     28          1           0        4.493677    2.109924    0.218311
     29          1           0        0.315679    1.307284    0.769699
     30          1           0       -1.101048   -1.098412   -0.364561
     31          1           0       -2.287620    1.575067   -0.170027
     32          1           0       -2.322967    0.862408    1.463339
     33          1           0       -3.391615   -1.131896   -0.406655
     34          1           0       -4.947474    1.302769    0.624242
     35          1           0       -5.810258   -1.438490   -0.578810
     36          1           0       -7.431913    0.956706    0.438625
     37          1           0       -8.246637   -1.628317   -0.762410
     38          1           0       -9.647134    0.711038    0.293338
     39          1           0      -10.211146   -0.797885    0.492618
 ---------------------------------------------------------------------
 Rotational constants (GHZ):           2.2106136           0.0645740           0.0631785
 Standard basis: 6-31G(2df,p) (6D, 7F)
 There are   663 symmetry adapted cartesian basis functions of A   symmetry.
 There are   609 symmetry adapted basis functions of A   symmetry.
   609 basis functions,   939 primitive gaussians,   663 cartesian basis functions
    68 alpha electrons       67 beta electrons
       nuclear repulsion energy      1100.4944452058 Hartrees.
 NAtoms=   39 NActive=   39 NUniq=   39 SFac= 1.00D+00 NAtFMM=   60 NAOKFM=F Big=F
 Integral buffers will be    131072 words long.
 Raffenetti 2 integral format.
 Two-electron integral symmetry is turned on.
 One-electron integrals computed using PRISM.
 PrsmSu:  requested number of processors reduced to:  12 ShMem   1 Linda.
 NBasis=   609 RedAO= T EigKep=  2.73D-04  NBF=   609
 NBsUse=   609 1.00D-06 EigRej= -1.00D+00 NBFU=   609
 ExpMin= 1.61D-01 ExpMax= 4.17D+03 ExpMxC= 6.27D+02 IAcc=3 IRadAn=         5 AccDes= 0.00D+00
 Harris functional with IExCor=  402 and IRadAn=       5 diagonalized for initial guess.
 HarFok:  IExCor=  402 AccDes= 0.00D+00 IRadAn=         5 IDoV= 1 UseB2=F ITyADJ=14
 ICtDFT=  3500011 ScaDFX=  1.000000  1.000000  1.000000  1.000000
 FoFCou: FMM=F IPFlag=           0 FMFlag=      100000 FMFlg1=           0
         NFxFlg=           0 DoJE=T BraDBF=F KetDBF=T FulRan=T
         wScrn=  0.000000 ICntrl=       500 IOpCl=  0 I1Cent=   200000004 NGrid=           0
         NMat0=    1 NMatS0=      1 NMatT0=    0 NMatD0=    1 NMtDS0=    0 NMtDT0=    0
 Petite list used in FoFCou.
 Initial guess <Sx>= 0.0000 <Sy>= 0.0000 <Sz>= 0.5000 <S**2>= 0.7500 S= 0.5000
 Requested convergence on RMS density matrix=1.00D-08 within 128 cycles.
 Requested convergence on MAX density matrix=1.00D-06.
 Requested convergence on             energy=1.00D-06.
 No special actions if energy rises.
 Integral accuracy reduced to 1.0D-05 until final iterations.
 EnCoef did     5 forward-backward iterations
 EnCoef did     5 forward-backward iterations
 Initial convergence to 1.0D-05 achieved.  Increase integral accuracy.
 SCF Done:  E(UB3LYP) =  -798.245196582     A.U. after   24 cycles
            NFock= 24  Conv=0.59D-08     -V/T= 2.0083
 <Sx>= 0.0000 <Sy>= 0.0000 <Sz>= 0.5000 <S**2>= 0.7785 S= 0.5142
 <L.S>=  0.00000000000    
 Annihilation of the first spin contaminant:
 S**2 before annihilation     0.7785,   after     0.7502

 **********************************************************************

            Population analysis using the SCF density.

 **********************************************************************

 Orbital symmetries:
 Alpha Orbitals:
       Occupied  (A) (A) (A) (A) (A) (A) (A) (A) (A) (A) (A) (A)
                 (A) (A) (A) (A) (A) (A) (A) (A) (A) (A) (A) (A)
                 (A) (A) (A) (A) (A) (A) (A) (A) (A) (A) (A) (A)
                 (A) (A) (A) (A) (A) (A) (A) (A) (A) (A) (A) (A)
                 (A) (A) (A) (A) (A) (A) (A) (A) (A) (A) (A) (A)
                 (A) (A) (A) (A) (A) (A) (A) (A)
       Virtual   (A) (A) (A) (A) (A) (A) (A) (A) (A) (A) (A) (A)
                 (A) (A) (A) (A) (A) (A) (A) (A) (A) (A) (A) (A)
                 (A) (A) (A) (A) (A) (A) (A) (A) (A) (A) (A) (A)
                 (A) (A) (A) (A) (A) (A) (A) (A) (A) (A) (A) (A)
                 (A) (A) (A) (A) (A) (A) (A) (A) (A) (A) (A) (A)
                 (A) (A) (A) (A) (A) (A) (A) (A) (A) (A) (A) (A)
                 (A) (A) (A) (A) (A) (A) (A) (A) (A) (A) (A) (A)
                 (A) (A) (A) (A) (A) (A) (A) (A) (A) (A) (A) (A)
                 (A) (A) (A) (A) (A) (A) (A) (A) (A) (A) (A) (A)
                 (A) (A) (A) (A) (A) (A) (A) (A) (A) (A) (A) (A)
                 (A) (A) (A) (A) (A) (A) (A) (A) (A) (A) (A) (A)
                 (A) (A) (A) (A) (A) (A) (A) (A) (A) (A) (A) (A)
                 (A) (A) (A) (A) (A) (A) (A) (A) (A) (A) (A) (A)
                 (A) (A) (A) (A) (A) (A) (A) (A) (A) (A) (A) (A)
                 (A) (A) (A) (A) (A) (A) (A) (A) (A) (A) (A) (A)
                 (A) (A) (A) (A) (A) (A) (A) (A) (A) (A) (A) (A)
                 (A) (A) (A) (A) (A) (A) (A) (A) (A) (A) (A) (A)
                 (A) (A) (A) (A) (A) (A) (A) (A) (A) (A) (A) (A)
                 (A) (A) (A) (A) (A) (A) (A) (A) (A) (A) (A) (A)
                 (A) (A) (A) (A) (A) (A) (A) (A) (A) (A) (A) (A)
                 (A) (A) (A) (A) (A) (A) (A) (A) (A) (A) (A) (A)
                 (A) (A) (A) (A) (A) (A) (A) (A) (A) (A) (A) (A)
                 (A) (A) (A) (A) (A) (A) (A) (A) (A) (A) (A) (A)
                 (A) (A) (A) (A) (A) (A) (A) (A) (A) (A) (A) (A)
                 (A) (A) (A) (A) (A) (A) (A) (A) (A) (A) (A) (A)
                 (A) (A) (A) (A) (A) (A) (A) (A) (A) (A) (A) (A)
                 (A) (A) (A) (A) (A) (A) (A) (A) (A) (A) (A) (A)
                 (A) (A) (A) (A) (A) (A) (A) (A) (A) (A) (A) (A)
                 (A) (A) (A) (A) (A) (A) (A) (A) (A) (A) (A) (A)
                 (A) (A) (A) (A) (A) (A) (A) (A) (A) (A) (A) (A)
                 (A) (A) (A) (A) (A) (A) (A) (A) (A) (A) (A) (A)
                 (A) (A) (A) (A) (A) (A) (A) (A) (A) (A) (A) (A)
                 (A) (A) (A) (A) (A) (A) (A) (A) (A) (A) (A) (A)
                 (A) (A) (A) (A) (A) (A) (A) (A) (A) (A) (A) (A)
                 (A) (A) (A) (A) (A) (A) (A) (A) (A) (A) (A) (A)
                 (A) (A) (A) (A) (A) (A) (A) (A) (A) (A) (A) (A)
                 (A) (A) (A) (A) (A) (A) (A) (A) (A) (A) (A) (A)
                 (A) (A) (A) (A) (A) (A) (A) (A) (A) (A) (A) (A)
                 (A) (A) (A) (A) (A) (A) (A) (A) (A) (A) (A) (A)
                 (A) (A) (A) (A) (A) (A) (A) (A) (A) (A) (A) (A)
                 (A) (A) (A) (A) (A) (A) (A) (A) (A) (A) (A) (A)
                 (A) (A) (A) (A) (A) (A) (A) (A) (A) (A) (A) (A)
                 (A) (A) (A) (A) (A) (A) (A) (A) (A) (A) (A) (A)
                 (A) (A) (A) (A) (A) (A) (A) (A) (A) (A) (A) (A)
                 (A) (A) (A) (A) (A) (A) (A) (A) (A) (A) (A) (A)
                 (A)
 Beta  Orbitals:
       Occupied  (A) (A) (A) (A) (A) (A) (A) (A) (A) (A) (A) (A)
                 (A) (A) (A) (A) (A) (A) (A) (A) (A) (A) (A) (A)
                 (A) (A) (A) (A) (A) (A) (A) (A) (A) (A) (A) (A)
                 (A) (A) (A) (A) (A) (A) (A) (A) (A) (A) (A) (A)
                 (A) (A) (A) (A) (A) (A) (A) (A) (A) (A) (A) (A)
                 (A) (A) (A) (A) (A) (A) (A)
       Virtual   (A) (A) (A) (A) (A) (A) (A) (A) (A) (A) (A) (A)
                 (A) (A) (A) (A) (A) (A) (A) (A) (A) (A) (A) (A)
                 (A) (A) (A) (A) (A) (A) (A) (A) (A) (A) (A) (A)
                 (A) (A) (A) (A) (A) (A) (A) (A) (A) (A) (A) (A)
                 (A) (A) (A) (A) (A) (A) (A) (A) (A) (A) (A) (A)
                 (A) (A) (A) (A) (A) (A) (A) (A) (A) (A) (A) (A)
                 (A) (A) (A) (A) (A) (A) (A) (A) (A) (A) (A) (A)
                 (A) (A) (A) (A) (A) (A) (A) (A) (A) (A) (A) (A)
                 (A) (A) (A) (A) (A) (A) (A) (A) (A) (A) (A) (A)
                 (A) (A) (A) (A) (A) (A) (A) (A) (A) (A) (A) (A)
                 (A) (A) (A) (A) (A) (A) (A) (A) (A) (A) (A) (A)
                 (A) (A) (A) (A) (A) (A) (A) (A) (A) (A) (A) (A)
                 (A) (A) (A) (A) (A) (A) (A) (A) (A) (A) (A) (A)
                 (A) (A) (A) (A) (A) (A) (A) (A) (A) (A) (A) (A)
                 (A) (A) (A) (A) (A) (A) (A) (A) (A) (A) (A) (A)
                 (A) (A) (A) (A) (A) (A) (A) (A) (A) (A) (A) (A)
                 (A) (A) (A) (A) (A) (A) (A) (A) (A) (A) (A) (A)
                 (A) (A) (A) (A) (A) (A) (A) (A) (A) (A) (A) (A)
                 (A) (A) (A) (A) (A) (A) (A) (A) (A) (A) (A) (A)
                 (A) (A) (A) (A) (A) (A) (A) (A) (A) (A) (A) (A)
                 (A) (A) (A) (A) (A) (A) (A) (A) (A) (A) (A) (A)
                 (A) (A) (A) (A) (A) (A) (A) (A) (A) (A) (A) (A)
                 (A) (A) (A) (A) (A) (A) (A) (A) (A) (A) (A) (A)
                 (A) (A) (A) (A) (A) (A) (A) (A) (A) (A) (A) (A)
                 (A) (A) (A) (A) (A) (A) (A) (A) (A) (A) (A) (A)
                 (A) (A) (A) (A) (A) (A) (A) (A) (A) (A) (A) (A)
                 (A) (A) (A) (A) (A) (A) (A) (A) (A) (A) (A) (A)
                 (A) (A) (A) (A) (A) (A) (A) (A) (A) (A) (A) (A)
                 (A) (A) (A) (A) (A) (A) (A) (A) (A) (A) (A) (A)
                 (A) (A) (A) (A) (A) (A) (A) (A) (A) (A) (A) (A)
                 (A) (A) (A) (A) (A) (A) (A) (A) (A) (A) (A) (A)
                 (A) (A) (A) (A) (A) (A) (A) (A) (A) (A) (A) (A)
                 (A) (A) (A) (A) (A) (A) (A) (A) (A) (A) (A) (A)
                 (A) (A) (A) (A) (A) (A) (A) (A) (A) (A) (A) (A)
                 (A) (A) (A) (A) (A) (A) (A) (A) (A) (A) (A) (A)
                 (A) (A) (A) (A) (A) (A) (A) (A) (A) (A) (A) (A)
                 (A) (A) (A) (A) (A) (A) (A) (A) (A) (A) (A) (A)
                 (A) (A) (A) (A) (A) (A) (A) (A) (A) (A) (A) (A)
                 (A) (A) (A) (A) (A) (A) (A) (A) (A) (A) (A) (A)
                 (A) (A) (A) (A) (A) (A) (A) (A) (A) (A) (A) (A)
                 (A) (A) (A) (A) (A) (A) (A) (A) (A) (A) (A) (A)
                 (A) (A) (A) (A) (A) (A) (A) (A) (A) (A) (A) (A)
                 (A) (A) (A) (A) (A) (A) (A) (A) (A) (A) (A) (A)
                 (A) (A) (A) (A) (A) (A) (A) (A) (A) (A) (A) (A)
                 (A) (A) (A) (A) (A) (A) (A) (A) (A) (A) (A) (A)
                 (A) (A)
 The electronic state is 2-A.
 Alpha  occ. eigenvalues --  -14.37780 -14.36528 -14.35098 -14.34847 -14.32803
 Alpha  occ. eigenvalues --  -14.31320 -10.22958 -10.22425 -10.22018 -10.20943
 Alpha  occ. eigenvalues --  -10.20352 -10.20334 -10.19964 -10.19401 -10.18540
 Alpha  occ. eigenvalues --  -10.17679 -10.16748 -10.16303  -0.99810  -0.98818
 Alpha  occ. eigenvalues --   -0.91177  -0.87926  -0.82956  -0.82107  -0.80547
 Alpha  occ. eigenvalues --   -0.77294  -0.74689  -0.71019  -0.67734  -0.65054
 Alpha  occ. eigenvalues --   -0.63364  -0.60391  -0.58699  -0.57458  -0.55979
 Alpha  occ. eigenvalues --   -0.54773  -0.52269  -0.51352  -0.50667  -0.48184
 Alpha  occ. eigenvalues --   -0.47912  -0.46728  -0.46641  -0.44495  -0.43800
 Alpha  occ. eigenvalues --   -0.43563  -0.43200  -0.42177  -0.39372  -0.38753
 Alpha  occ. eigenvalues --   -0.38504  -0.38082  -0.37511  -0.36917  -0.36048
 Alpha  occ. eigenvalues --   -0.35738  -0.33775  -0.33639  -0.33421  -0.30365
 Alpha  occ. eigenvalues --   -0.29841  -0.27895  -0.26797  -0.24858  -0.24157
 Alpha  occ. eigenvalues --   -0.20819  -0.19210  -0.16289
 Alpha virt. eigenvalues --   -0.01549   0.00156   0.00857   0.03347   0.06565
 Alpha virt. eigenvalues --    0.07890   0.08489   0.09386   0.09856   0.10262
 Alpha virt. eigenvalues --    0.11295   0.12270   0.13343   0.13497   0.14122
 Alpha virt. eigenvalues --    0.14597   0.15039   0.15338   0.15912   0.15984
 Alpha virt. eigenvalues --    0.17631   0.18104   0.18865   0.18970   0.19260
 Alpha virt. eigenvalues --    0.19705   0.21089   0.21819   0.22847   0.24672
 Alpha virt. eigenvalues --    0.25270   0.27327   0.28939   0.29302   0.30718
 Alpha virt. eigenvalues --    0.31453   0.32523   0.33343   0.34380   0.36343
 Alpha virt. eigenvalues --    0.37195   0.38991   0.41982   0.43851   0.44328
 Alpha virt. eigenvalues --    0.45980   0.47107   0.47508   0.48093   0.48627
 Alpha virt. eigenvalues --    0.49129   0.49368   0.50163   0.50664   0.51251
 Alpha virt. eigenvalues --    0.52090   0.52822   0.53246   0.53964   0.54662
 Alpha virt. eigenvalues --    0.55516   0.55948   0.56343   0.56613   0.57315
 Alpha virt. eigenvalues --    0.57868   0.59025   0.59329   0.60174   0.60432
 Alpha virt. eigenvalues --    0.61209   0.62075   0.62519   0.63183   0.64537
 Alpha virt. eigenvalues --    0.65124   0.66493   0.67220   0.67380   0.67613
 Alpha virt. eigenvalues --    0.68623   0.69802   0.69926   0.71210   0.71701
 Alpha virt. eigenvalues --    0.72292   0.72375   0.73004   0.73669   0.74117
 Alpha virt. eigenvalues --    0.74446   0.74806   0.75511   0.75643   0.76026
 Alpha virt. eigenvalues --    0.76178   0.76667   0.76996   0.77964   0.78041
 Alpha virt. eigenvalues --    0.79276   0.79505   0.80292   0.80414   0.81144
 Alpha virt. eigenvalues --    0.81348   0.81531   0.81963   0.82719   0.83034
 Alpha virt. eigenvalues --    0.83170   0.83919   0.84590   0.85873   0.86833
 Alpha virt. eigenvalues --    0.87566   0.89005   0.89446   0.90060   0.90278
 Alpha virt. eigenvalues --    0.90839   0.91579   0.92164   0.92872   0.94477
 Alpha virt. eigenvalues --    0.95955   0.96046   0.96346   0.97298   0.97884
 Alpha virt. eigenvalues --    0.99920   1.01147   1.01690   1.02582   1.04067
 Alpha virt. eigenvalues --    1.06296   1.08000   1.09648   1.11266   1.13492
 Alpha virt. eigenvalues --    1.14521   1.14623   1.15773   1.17740   1.19390
 Alpha virt. eigenvalues --    1.20482   1.21334   1.22178   1.22805   1.25259
 Alpha virt. eigenvalues --    1.26322   1.26619   1.27202   1.29726   1.30554
 Alpha virt. eigenvalues --    1.31909   1.33685   1.35063   1.35931   1.36347
 Alpha virt. eigenvalues --    1.37419   1.38690   1.40223   1.41129   1.41781
 Alpha virt. eigenvalues --    1.43036   1.43971   1.44230   1.45331   1.46867
 Alpha virt. eigenvalues --    1.47445   1.48007   1.48355   1.49655   1.49894
 Alpha virt. eigenvalues --    1.50438   1.51955   1.52301   1.53698   1.54429
 Alpha virt. eigenvalues --    1.55667   1.56842   1.57143   1.58540   1.60951
 Alpha virt. eigenvalues --    1.61543   1.62861   1.63927   1.64164   1.65184
 Alpha virt. eigenvalues --    1.68794   1.69516   1.70644   1.72132   1.72602
 Alpha virt. eigenvalues --    1.73425   1.73953   1.76539   1.78397   1.79228
 Alpha virt. eigenvalues --    1.80512   1.82254   1.82873   1.83858   1.84129
 Alpha virt. eigenvalues --    1.85112   1.86951   1.87648   1.89133   1.89831
 Alpha virt. eigenvalues --    1.92589   1.94666   1.95753   1.96177   1.99235
 Alpha virt. eigenvalues --    2.00717   2.03211   2.04389   2.05997   2.08148
 Alpha virt. eigenvalues --    2.10663   2.11351   2.12938   2.14696   2.15120
 Alpha virt. eigenvalues --    2.15937   2.17375   2.18019   2.20218   2.20425
 Alpha virt. eigenvalues --    2.22007   2.23668   2.26138   2.27393   2.27973
 Alpha virt. eigenvalues --    2.30577   2.31888   2.32576   2.34732   2.35889
 Alpha virt. eigenvalues --    2.36722   2.39445   2.39702   2.41653   2.42409
 Alpha virt. eigenvalues --    2.44440   2.45246   2.48988   2.49445   2.50816
 Alpha virt. eigenvalues --    2.51429   2.51736   2.53745   2.58074   2.59703
 Alpha virt. eigenvalues --    2.61775   2.63424   2.64456   2.66272   2.66832
 Alpha virt. eigenvalues --    2.67791   2.69356   2.70696   2.73698   2.74295
 Alpha virt. eigenvalues --    2.75371   2.76714   2.78155   2.78912   2.80215
 Alpha virt. eigenvalues --    2.81239   2.82650   2.83406   2.84419   2.84547
 Alpha virt. eigenvalues --    2.85320   2.88264   2.88784   2.88952   2.90843
 Alpha virt. eigenvalues --    2.91087   2.91792   2.92733   2.93165   2.94462
 Alpha virt. eigenvalues --    2.95127   2.95358   2.96466   2.99209   2.99667
 Alpha virt. eigenvalues --    3.00420   3.01384   3.01947   3.02960   3.03405
 Alpha virt. eigenvalues --    3.04498   3.05443   3.05687   3.06265   3.06537
 Alpha virt. eigenvalues --    3.07375   3.07840   3.09750   3.09932   3.10644
 Alpha virt. eigenvalues --    3.11272   3.11612   3.13258   3.15752   3.17537
 Alpha virt. eigenvalues --    3.18733   3.20261   3.23735   3.24699   3.25454
 Alpha virt. eigenvalues --    3.27284   3.28540   3.29389   3.30457   3.31048
 Alpha virt. eigenvalues --    3.32924   3.33355   3.34356   3.34608   3.36009
 Alpha virt. eigenvalues --    3.36214   3.38090   3.38905   3.40187   3.41108
 Alpha virt. eigenvalues --    3.41195   3.42254   3.43834   3.45199   3.45940
 Alpha virt. eigenvalues --    3.46909   3.47540   3.48386   3.49546   3.50729
 Alpha virt. eigenvalues --    3.50939   3.52390   3.54161   3.55567   3.56545
 Alpha virt. eigenvalues --    3.57733   3.58793   3.60091   3.61383   3.62096
 Alpha virt. eigenvalues --    3.63356   3.64288   3.64811   3.66890   3.69027
 Alpha virt. eigenvalues --    3.69983   3.71715   3.72231   3.73878   3.75604
 Alpha virt. eigenvalues --    3.76506   3.77632   3.79659   3.80379   3.81240
 Alpha virt. eigenvalues --    3.83272   3.83919   3.84705   3.86500   3.88791
 Alpha virt. eigenvalues --    3.89291   3.89596   3.91612   3.92678   3.94287
 Alpha virt. eigenvalues --    3.95607   3.96648   3.99363   4.00633   4.03536
 Alpha virt. eigenvalues --    4.04542   4.06081   4.06898   4.08447   4.09998
 Alpha virt. eigenvalues --    4.12186   4.13699   4.15081   4.16468   4.17390
 Alpha virt. eigenvalues --    4.19424   4.20613   4.21140   4.21631   4.23177
 Alpha virt. eigenvalues --    4.24600   4.25442   4.26739   4.27207   4.29516
 Alpha virt. eigenvalues --    4.30423   4.30872   4.32093   4.32605   4.32941
 Alpha virt. eigenvalues --    4.33943   4.34982   4.35292   4.36040   4.36904
 Alpha virt. eigenvalues --    4.38140   4.39327   4.40111   4.41437   4.41759
 Alpha virt. eigenvalues --    4.42349   4.42940   4.44170   4.44647   4.44972
 Alpha virt. eigenvalues --    4.45413   4.46692   4.47607   4.49070   4.49460
 Alpha virt. eigenvalues --    4.50326   4.51038   4.51884   4.52964   4.53300
 Alpha virt. eigenvalues --    4.53479   4.54838   4.55832   4.57020   4.57729
 Alpha virt. eigenvalues --    4.58087   4.59348   4.59686   4.59930   4.60498
 Alpha virt. eigenvalues --    4.60945   4.63570   4.64388   4.65378   4.66234
 Alpha virt. eigenvalues --    4.66803   4.68020   4.68511   4.69217   4.70168
 Alpha virt. eigenvalues --    4.71564   4.73087   4.73270   4.74077   4.75136
 Alpha virt. eigenvalues --    4.75300   4.75871   4.77339   4.77698   4.78479
 Alpha virt. eigenvalues --    4.81001   4.81220   4.82335   4.83724   4.85306
 Alpha virt. eigenvalues --    4.86566   4.87390   4.87766   4.90177   4.90445
 Alpha virt. eigenvalues --    4.93117   4.93586   4.94290   4.96111   4.99343
 Alpha virt. eigenvalues --    5.00839   5.02766   5.03134   5.03826   5.05145
 Alpha virt. eigenvalues --    5.06192   5.09490   5.11635   5.12302   5.16916
 Alpha virt. eigenvalues --    5.18786   5.20544   5.21400   5.22597   5.23056
 Alpha virt. eigenvalues --    5.26797   5.28566   5.29979   5.34896   5.36386
 Alpha virt. eigenvalues --    5.37092   5.37743   5.42789   5.46836   5.48566
 Alpha virt. eigenvalues --    5.51079   5.53408   5.56863   5.60240   5.62713
 Alpha virt. eigenvalues --    5.65171   5.65791   5.69770   5.73236   5.74187
 Alpha virt. eigenvalues --    5.78320   5.82407   5.85628   5.93489   6.09631
 Alpha virt. eigenvalues --    6.13092   6.47145   7.20594   8.30682   9.78064
 Alpha virt. eigenvalues --   10.01213  10.30686  10.56115  10.83704  11.00043
 Alpha virt. eigenvalues --   11.15836  11.24692  11.28954  11.30584  11.41015
 Alpha virt. eigenvalues --   11.43245  11.46351  11.58168  11.69583  11.90855
 Alpha virt. eigenvalues --   11.96535  12.30968  12.47061  13.71760  14.34483
 Alpha virt. eigenvalues --   14.89194
  Beta  occ. eigenvalues --  -14.37780 -14.36528 -14.35096 -14.34846 -14.31643
  Beta  occ. eigenvalues --  -14.31311 -10.22891 -10.22476 -10.22018 -10.21232
  Beta  occ. eigenvalues --  -10.20352 -10.20337 -10.19445 -10.19158 -10.18539
  Beta  occ. eigenvalues --  -10.17681 -10.16742 -10.16303  -0.99809  -0.98815
  Beta  occ. eigenvalues --   -0.90126  -0.87121  -0.82947  -0.82072  -0.79937
  Beta  occ. eigenvalues --   -0.77040  -0.74405  -0.70607  -0.67639  -0.64738
  Beta  occ. eigenvalues --   -0.62978  -0.60293  -0.58595  -0.57314  -0.55755
  Beta  occ. eigenvalues --   -0.54413  -0.52219  -0.51283  -0.50623  -0.47704
  Beta  occ. eigenvalues --   -0.47672  -0.46699  -0.46522  -0.44317  -0.43487
  Beta  occ. eigenvalues --   -0.43136  -0.42884  -0.42113  -0.39293  -0.38705
  Beta  occ. eigenvalues --   -0.38295  -0.37968  -0.37455  -0.36806  -0.35898
  Beta  occ. eigenvalues --   -0.35405  -0.33709  -0.33567  -0.30865  -0.30182
  Beta  occ. eigenvalues --   -0.29359  -0.27703  -0.26387  -0.24697  -0.23296
  Beta  occ. eigenvalues --   -0.19202  -0.16317
  Beta virt. eigenvalues --   -0.08937  -0.01369   0.00301   0.00886   0.05611
  Beta virt. eigenvalues --    0.06569   0.07904   0.08533   0.09583   0.09908
  Beta virt. eigenvalues --    0.10317   0.11373   0.12471   0.13408   0.13548
  Beta virt. eigenvalues --    0.14207   0.14687   0.15199   0.15368   0.15942
  Beta virt. eigenvalues --    0.16035   0.17651   0.18119   0.18919   0.19191
  Beta virt. eigenvalues --    0.19497   0.20007   0.21252   0.21875   0.22948
  Beta virt. eigenvalues --    0.24804   0.25410   0.27472   0.29290   0.29474
  Beta virt. eigenvalues --    0.30842   0.31587   0.32656   0.33541   0.34525
  Beta virt. eigenvalues --    0.36599   0.37315   0.39027   0.41976   0.43954
  Beta virt. eigenvalues --    0.44409   0.46100   0.47198   0.47727   0.48344
  Beta virt. eigenvalues --    0.48735   0.49269   0.49505   0.50369   0.50863
  Beta virt. eigenvalues --    0.51565   0.52362   0.53094   0.53564   0.54250
  Beta virt. eigenvalues --    0.54779   0.55646   0.56268   0.56556   0.57211
  Beta virt. eigenvalues --    0.57551   0.58024   0.59219   0.59518   0.60256
  Beta virt. eigenvalues --    0.60454   0.61356   0.62633   0.62847   0.63618
  Beta virt. eigenvalues --    0.64616   0.65192   0.66676   0.67483   0.67562
  Beta virt. eigenvalues --    0.67943   0.68748   0.69983   0.70118   0.71371
  Beta virt. eigenvalues --    0.71787   0.72468   0.72815   0.73055   0.73922
  Beta virt. eigenvalues --    0.74188   0.74594   0.74884   0.75606   0.75772
  Beta virt. eigenvalues --    0.76121   0.76325   0.76903   0.77244   0.78116
  Beta virt. eigenvalues --    0.78329   0.79385   0.79870   0.80386   0.80694
  Beta virt. eigenvalues --    0.81220   0.81586   0.81741   0.82212   0.82804
  Beta virt. eigenvalues --    0.83157   0.83312   0.84003   0.84796   0.86439
  Beta virt. eigenvalues --    0.87417   0.87954   0.89089   0.89533   0.90260
  Beta virt. eigenvalues --    0.90624   0.90960   0.91784   0.92297   0.93042
  Beta virt. eigenvalues --    0.94597   0.96145   0.96411   0.96666   0.97758
  Beta virt. eigenvalues --    0.97976   1.00148   1.01278   1.01722   1.02646
  Beta virt. eigenvalues --    1.04239   1.06367   1.08384   1.10007   1.11561
  Beta virt. eigenvalues --    1.13772   1.14672   1.14855   1.15872   1.17788
  Beta virt. eigenvalues --    1.19591   1.20628   1.21667   1.22375   1.22910
  Beta virt. eigenvalues --    1.25503   1.26427   1.26840   1.27592   1.29817
  Beta virt. eigenvalues --    1.30640   1.32118   1.33863   1.35282   1.36173
  Beta virt. eigenvalues --    1.36785   1.37685   1.39108   1.40423   1.41485
  Beta virt. eigenvalues --    1.41817   1.43135   1.44220   1.44382   1.45495
  Beta virt. eigenvalues --    1.47142   1.47577   1.48197   1.48383   1.49843
  Beta virt. eigenvalues --    1.50086   1.50688   1.51988   1.52457   1.53826
  Beta virt. eigenvalues --    1.54457   1.55792   1.57236   1.57332   1.58707
  Beta virt. eigenvalues --    1.61189   1.61945   1.63082   1.63980   1.64395
  Beta virt. eigenvalues --    1.65234   1.68963   1.69700   1.70701   1.72217
  Beta virt. eigenvalues --    1.72702   1.73481   1.73968   1.76602   1.78532
  Beta virt. eigenvalues --    1.79313   1.80723   1.82395   1.82968   1.83988
  Beta virt. eigenvalues --    1.84286   1.85270   1.87377   1.87899   1.89684
  Beta virt. eigenvalues --    1.90030   1.92657   1.94797   1.95768   1.96249
  Beta virt. eigenvalues --    1.99295   2.00813   2.03333   2.04516   2.06111
  Beta virt. eigenvalues --    2.08186   2.10805   2.11576   2.13195   2.14841
  Beta virt. eigenvalues --    2.15505   2.16135   2.17558   2.18103   2.20404
  Beta virt. eigenvalues --    2.20478   2.22124   2.23716   2.26191   2.27407
  Beta virt. eigenvalues --    2.28009   2.30726   2.32004   2.32666   2.35080
  Beta virt. eigenvalues --    2.36303   2.37010   2.39648   2.39738   2.41739
  Beta virt. eigenvalues --    2.42514   2.44571   2.45273   2.49073   2.49630
  Beta virt. eigenvalues --    2.50931   2.51495   2.51912   2.53866   2.58204
  Beta virt. eigenvalues --    2.59870   2.61881   2.63505   2.64600   2.66311
  Beta virt. eigenvalues --    2.66869   2.67880   2.69414   2.70792   2.73720
  Beta virt. eigenvalues --    2.74425   2.75478   2.77005   2.78258   2.78940
  Beta virt. eigenvalues --    2.80256   2.81320   2.82929   2.83510   2.84622
  Beta virt. eigenvalues --    2.84802   2.85440   2.88315   2.88962   2.89137
  Beta virt. eigenvalues --    2.91075   2.91156   2.92009   2.92818   2.93448
  Beta virt. eigenvalues --    2.94792   2.95181   2.95449   2.96609   2.99376
  Beta virt. eigenvalues --    2.99889   3.00589   3.01535   3.02258   3.03164
  Beta virt. eigenvalues --    3.03617   3.04656   3.05541   3.05868   3.06474
  Beta virt. eigenvalues --    3.06650   3.07717   3.08077   3.09775   3.09993
  Beta virt. eigenvalues --    3.10704   3.11560   3.11906   3.13578   3.15876
  Beta virt. eigenvalues --    3.17787   3.18819   3.20570   3.23840   3.24947
  Beta virt. eigenvalues --    3.25548   3.27391   3.28818   3.29536   3.31074
  Beta virt. eigenvalues --    3.31171   3.33174   3.33534   3.34651   3.34759
  Beta virt. eigenvalues --    3.36162   3.36409   3.38338   3.39251   3.40225
  Beta virt. eigenvalues --    3.41230   3.41437   3.42474   3.43916   3.45336
  Beta virt. eigenvalues --    3.46254   3.47326   3.47907   3.48586   3.49660
  Beta virt. eigenvalues --    3.51129   3.51266   3.52593   3.54565   3.56001
  Beta virt. eigenvalues --    3.56703   3.57961   3.58874   3.60247   3.61478
  Beta virt. eigenvalues --    3.62743   3.63515   3.64525   3.65082   3.67076
  Beta virt. eigenvalues --    3.69232   3.70140   3.71845   3.72511   3.74124
  Beta virt. eigenvalues --    3.75999   3.76878   3.78137   3.79876   3.80715
  Beta virt. eigenvalues --    3.81685   3.83491   3.84209   3.85020   3.86657
  Beta virt. eigenvalues --    3.89039   3.89386   3.89804   3.91800   3.93059
  Beta virt. eigenvalues --    3.94609   3.96340   3.96948   3.99790   4.01438
  Beta virt. eigenvalues --    4.03964   4.04631   4.06187   4.07060   4.08534
  Beta virt. eigenvalues --    4.10109   4.12274   4.13815   4.15210   4.16700
  Beta virt. eigenvalues --    4.17767   4.19744   4.20680   4.21271   4.21943
  Beta virt. eigenvalues --    4.23871   4.24906   4.25859   4.26823   4.27530
  Beta virt. eigenvalues --    4.29642   4.30612   4.30952   4.32192   4.32794
  Beta virt. eigenvalues --    4.33078   4.34150   4.35276   4.36451   4.36871
  Beta virt. eigenvalues --    4.37415   4.38265   4.39486   4.41122   4.41656
  Beta virt. eigenvalues --    4.42689   4.42849   4.43077   4.44315   4.44837
  Beta virt. eigenvalues --    4.45125   4.45923   4.47687   4.47907   4.49355
  Beta virt. eigenvalues --    4.50408   4.50569   4.51307   4.52109   4.53157
  Beta virt. eigenvalues --    4.53511   4.54018   4.54962   4.56070   4.57806
  Beta virt. eigenvalues --    4.58091   4.58714   4.59658   4.59804   4.60570
  Beta virt. eigenvalues --    4.61131   4.61653   4.64184   4.64950   4.65600
  Beta virt. eigenvalues --    4.66523   4.67139   4.68311   4.69072   4.69750
  Beta virt. eigenvalues --    4.70331   4.72128   4.73228   4.73957   4.74605
  Beta virt. eigenvalues --    4.75418   4.75573   4.76211   4.77360   4.77759
  Beta virt. eigenvalues --    4.78676   4.81147   4.81446   4.82607   4.84033
  Beta virt. eigenvalues --    4.85438   4.86674   4.87782   4.87973   4.90198
  Beta virt. eigenvalues --    4.90522   4.93118   4.93626   4.94777   4.96386
  Beta virt. eigenvalues --    4.99380   5.00959   5.02761   5.03399   5.04090
  Beta virt. eigenvalues --    5.05113   5.06237   5.09576   5.11840   5.12324
  Beta virt. eigenvalues --    5.16985   5.18854   5.20692   5.21462   5.22697
  Beta virt. eigenvalues --    5.23076   5.27020   5.28703   5.30157   5.34996
  Beta virt. eigenvalues --    5.36489   5.37205   5.37834   5.42912   5.47066
  Beta virt. eigenvalues --    5.48734   5.51137   5.53446   5.57138   5.60449
  Beta virt. eigenvalues --    5.62836   5.65209   5.65859   5.69817   5.73346
  Beta virt. eigenvalues --    5.74245   5.78376   5.82529   5.85841   5.93525
  Beta virt. eigenvalues --    6.09877   6.13343   6.47361   7.20595   8.30691
  Beta virt. eigenvalues --    9.78180  10.01224  10.31357  10.56133  10.83709
  Beta virt. eigenvalues --   11.00736  11.16005  11.24752  11.29468  11.30689
  Beta virt. eigenvalues --   11.41018  11.43248  11.47555  11.58195  11.69656
  Beta virt. eigenvalues --   11.90935  11.96748  12.31123  12.47090  13.72031
  Beta virt. eigenvalues --   14.34489  14.89196
          Condensed to atoms (all electrons):
               1          2          3          4          5          6
     1  C    4.877582   0.397991  -0.055139   0.002740  -0.000253   0.000001
     2  N    0.397991   6.322241   0.354713  -0.101080   0.003214  -0.000096
     3  N   -0.055139   0.354713   6.339229   0.642917  -0.022128   0.000193
     4  C    0.002740  -0.101080   0.642917   4.803034   0.347330  -0.027104
     5  C   -0.000253   0.003214  -0.022128   0.347330   5.027819   0.382190
     6  C    0.000001  -0.000096   0.000193  -0.027104   0.382190   4.891876
     7  C   -0.000000  -0.000000  -0.000103   0.003165  -0.027058   0.370116
     8  N   -0.000001  -0.000003   0.000099  -0.002671  -0.003834  -0.046200
     9  N   -0.000000   0.000000  -0.000013   0.003013  -0.034891   0.341556
    10  C    0.000000  -0.000000  -0.000000  -0.000121   0.001925  -0.083519
    11  C   -0.000000  -0.000000  -0.000000  -0.000001  -0.000141   0.005582
    12  C    0.000000   0.000000   0.000000   0.000000   0.000001  -0.000182
    13  C   -0.000000   0.000000  -0.000000   0.000000  -0.000000   0.000001
    14  C    0.000000   0.000000  -0.000000  -0.000000   0.000000  -0.000000
    15  C    0.000000   0.000000   0.000000   0.000000   0.000000   0.000000
    16  C    0.000000   0.000000   0.000000   0.000000  -0.000000   0.000000
    17  N    0.000000   0.000000   0.000000   0.000000   0.000000  -0.000000
    18  N    0.000000   0.000000   0.000000   0.000000   0.000000   0.000000
    19  H    0.373170  -0.019186   0.003292  -0.000266   0.000002   0.000000
    20  H    0.366920  -0.038451   0.005276   0.001477  -0.000002   0.000000
    21  H    0.382410  -0.036621  -0.000387   0.000212   0.000001   0.000000
    22  H   -0.054449   0.344484  -0.044767  -0.001336  -0.000801   0.000091
    23  H    0.000398  -0.004701  -0.057965   0.360306  -0.075967   0.002788
    24  H    0.000008   0.000159  -0.005753  -0.031723   0.352894  -0.024798
    25  H    0.000009   0.000080  -0.003360  -0.017277   0.344881  -0.021235
    26  H    0.000000  -0.000004   0.000037   0.001988  -0.049729   0.343879
    27  H   -0.000000   0.000000   0.000004   0.000163   0.001659  -0.062016
    28  H   -0.000000  -0.000066  -0.000136   0.002730  -0.001678  -0.013844
    29  H    0.000000   0.000000   0.000000   0.000044  -0.000076  -0.009957
    30  H   -0.000000   0.000000   0.000000   0.000000  -0.000010  -0.000187
    31  H   -0.000000  -0.000000   0.000000   0.000000  -0.000000   0.000003
    32  H   -0.000000  -0.000000  -0.000000   0.000000  -0.000000   0.000003
    33  H   -0.000000  -0.000000   0.000000  -0.000000  -0.000000   0.000000
    34  H    0.000000   0.000000  -0.000000  -0.000000  -0.000000   0.000000
    35  H    0.000000   0.000000   0.000000   0.000000   0.000000  -0.000000
    36  H    0.000000   0.000000   0.000000   0.000000   0.000000   0.000000
    37  H    0.000000   0.000000   0.000000   0.000000   0.000000  -0.000000
    38  H    0.000000   0.000000   0.000000   0.000000   0.000000   0.000000
    39  H    0.000000   0.000000   0.000000   0.000000   0.000000   0.000000
               7          8          9         10         11         12
     1  C   -0.000000  -0.000001  -0.000000   0.000000  -0.000000   0.000000
     2  N   -0.000000  -0.000003   0.000000  -0.000000  -0.000000   0.000000
     3  N   -0.000103   0.000099  -0.000013  -0.000000  -0.000000   0.000000
     4  C    0.003165  -0.002671   0.003013  -0.000121  -0.000001   0.000000
     5  C   -0.027058  -0.003834  -0.034891   0.001925  -0.000141   0.000001
     6  C    0.370116  -0.046200   0.341556  -0.083519   0.005582  -0.000182
     7  C    4.753416   0.659946  -0.030258  -0.001517  -0.000168   0.000009
     8  N    0.659946   6.477937   0.004184  -0.000148  -0.000012  -0.000000
     9  N   -0.030258   0.004184   6.560736   0.531916  -0.008520   0.002147
    10  C   -0.001517  -0.000148   0.531916   4.624131   0.560570  -0.010744
    11  C   -0.000168  -0.000012  -0.008520   0.560570   4.925238   0.383606
    12  C    0.000009  -0.000000   0.002147  -0.010744   0.383606   5.012297
    13  C   -0.000000  -0.000000  -0.000051   0.000940  -0.020583   0.387598
    14  C    0.000000   0.000000   0.000000  -0.000175   0.000988  -0.010040
    15  C   -0.000000  -0.000000  -0.000000   0.000002  -0.000105   0.002578
    16  C   -0.000000  -0.000000  -0.000000  -0.000000   0.000001  -0.000184
    17  N    0.000000   0.000000   0.000000  -0.000000  -0.000000   0.000001
    18  N    0.000000   0.000000   0.000000  -0.000000  -0.000000  -0.000000
    19  H   -0.000000  -0.000000   0.000000   0.000000   0.000000  -0.000000
    20  H    0.000000  -0.000000   0.000000   0.000000   0.000000  -0.000000
    21  H   -0.000000   0.000000  -0.000000  -0.000000  -0.000000   0.000000
    22  H   -0.000014  -0.000029   0.000000   0.000000   0.000000  -0.000000
    23  H   -0.002099  -0.003758   0.000086   0.000019   0.000000  -0.000000
    24  H    0.004048  -0.000001   0.001263   0.000389  -0.000010   0.000000
    25  H   -0.004834   0.000211   0.001273   0.000283  -0.000001   0.000000
    26  H   -0.037948  -0.003701  -0.029071  -0.001322  -0.000192   0.000012
    27  H    0.349897  -0.022302  -0.003655   0.004629  -0.000068   0.000001
    28  H   -0.095394   0.338153   0.000220   0.000010  -0.000000   0.000000
    29  H    0.003179  -0.000149  -0.074287   0.349428  -0.068416  -0.008556
    30  H   -0.000002  -0.000000  -0.007357  -0.013755   0.339781  -0.067846
    31  H   -0.000002   0.000000  -0.000111  -0.005020  -0.022631   0.343879
    32  H    0.000000  -0.000000  -0.000095  -0.005090  -0.022912   0.344109
    33  H   -0.000000   0.000000  -0.000018   0.000732  -0.001616  -0.073231
    34  H   -0.000000  -0.000000  -0.000000   0.000000   0.000363  -0.012287
    35  H   -0.000000   0.000000   0.000000  -0.000000  -0.000005   0.000043
    36  H    0.000000   0.000000  -0.000000   0.000000  -0.000000  -0.000008
    37  H    0.000000   0.000000   0.000000   0.000000   0.000000   0.000000
    38  H    0.000000   0.000000  -0.000000   0.000000  -0.000000   0.000000
    39  H    0.000000   0.000000  -0.000000   0.000000  -0.000000   0.000000
              13         14         15         16         17         18
     1  C   -0.000000   0.000000   0.000000   0.000000   0.000000   0.000000
     2  N    0.000000   0.000000   0.000000   0.000000   0.000000   0.000000
     3  N   -0.000000  -0.000000   0.000000   0.000000   0.000000   0.000000
     4  C    0.000000  -0.000000   0.000000   0.000000   0.000000   0.000000
     5  C   -0.000000   0.000000   0.000000  -0.000000   0.000000   0.000000
     6  C    0.000001  -0.000000   0.000000   0.000000  -0.000000   0.000000
     7  C   -0.000000   0.000000  -0.000000  -0.000000   0.000000   0.000000
     8  N   -0.000000   0.000000  -0.000000  -0.000000   0.000000   0.000000
     9  N   -0.000051   0.000000  -0.000000  -0.000000   0.000000   0.000000
    10  C    0.000940  -0.000175   0.000002  -0.000000  -0.000000  -0.000000
    11  C   -0.020583   0.000988  -0.000105   0.000001  -0.000000  -0.000000
    12  C    0.387598  -0.010040   0.002578  -0.000184   0.000001  -0.000000
    13  C    4.799674   0.657038   0.005198  -0.000179  -0.000079  -0.000000
    14  C    0.657038   4.685147   0.464053   0.009042   0.001870  -0.000107
    15  C    0.005198   0.464053   4.846512   0.611101  -0.020470   0.003952
    16  C   -0.000179   0.009042   0.611101   4.708793   0.428927  -0.062592
    17  N   -0.000079   0.001870  -0.020470   0.428927   6.374386   0.302684
    18  N   -0.000000  -0.000107   0.003952  -0.062592   0.302684   6.552631
    19  H    0.000000   0.000000   0.000000   0.000000   0.000000   0.000000
    20  H    0.000000   0.000000   0.000000   0.000000   0.000000   0.000000
    21  H   -0.000000   0.000000   0.000000   0.000000   0.000000   0.000000
    22  H    0.000000   0.000000   0.000000   0.000000   0.000000   0.000000
    23  H    0.000000   0.000000  -0.000000   0.000000   0.000000   0.000000
    24  H    0.000000  -0.000000   0.000000   0.000000   0.000000   0.000000
    25  H    0.000000  -0.000000   0.000000   0.000000   0.000000   0.000000
    26  H    0.000000  -0.000000   0.000000  -0.000000  -0.000000   0.000000
    27  H   -0.000000  -0.000000   0.000000  -0.000000  -0.000000   0.000000
    28  H   -0.000000   0.000000   0.000000  -0.000000   0.000000   0.000000
    29  H    0.000453  -0.000006   0.000000   0.000000  -0.000000   0.000000
    30  H   -0.002369   0.000368  -0.000012   0.000000  -0.000000   0.000000
    31  H   -0.023734  -0.007097   0.000022   0.000015  -0.000000  -0.000000
    32  H   -0.024678  -0.006474   0.000020   0.000015  -0.000000   0.000000
    33  H    0.367869  -0.033493  -0.015695   0.000658  -0.000005  -0.000000
    34  H   -0.044286   0.350659  -0.052294  -0.009451   0.000052  -0.000001
    35  H   -0.011602  -0.035915   0.352248  -0.052826  -0.010974   0.000056
    36  H    0.000338  -0.015399  -0.016643   0.338961  -0.044367  -0.005963
    37  H    0.000004  -0.000295  -0.000207  -0.045700   0.352203  -0.029046
    38  H    0.000000  -0.000029   0.000588  -0.005540  -0.037964   0.345922
    39  H   -0.000000   0.000001  -0.000014   0.002074  -0.061579   0.341654
              19         20         21         22         23         24
     1  C    0.373170   0.366920   0.382410  -0.054449   0.000398   0.000008
     2  N   -0.019186  -0.038451  -0.036621   0.344484  -0.004701   0.000159
     3  N    0.003292   0.005276  -0.000387  -0.044767  -0.057965  -0.005753
     4  C   -0.000266   0.001477   0.000212  -0.001336   0.360306  -0.031723
     5  C    0.000002  -0.000002   0.000001  -0.000801  -0.075967   0.352894
     6  C    0.000000   0.000000   0.000000   0.000091   0.002788  -0.024798
     7  C   -0.000000   0.000000  -0.000000  -0.000014  -0.002099   0.004048
     8  N   -0.000000  -0.000000   0.000000  -0.000029  -0.003758  -0.000001
     9  N    0.000000   0.000000  -0.000000   0.000000   0.000086   0.001263
    10  C    0.000000   0.000000  -0.000000   0.000000   0.000019   0.000389
    11  C    0.000000   0.000000  -0.000000   0.000000   0.000000  -0.000010
    12  C   -0.000000  -0.000000   0.000000  -0.000000  -0.000000   0.000000
    13  C    0.000000   0.000000  -0.000000   0.000000   0.000000   0.000000
    14  C    0.000000   0.000000   0.000000   0.000000   0.000000  -0.000000
    15  C    0.000000   0.000000   0.000000   0.000000  -0.000000   0.000000
    16  C    0.000000   0.000000   0.000000   0.000000   0.000000   0.000000
    17  N    0.000000   0.000000   0.000000   0.000000   0.000000   0.000000
    18  N    0.000000   0.000000   0.000000   0.000000   0.000000   0.000000
    19  H    0.587023  -0.029926  -0.032381  -0.002504   0.000038   0.000000
    20  H   -0.029926   0.618698  -0.046790   0.002587   0.000082   0.000006
    21  H   -0.032381  -0.046790   0.600202   0.005159  -0.000002  -0.000009
    22  H   -0.002504   0.002587   0.005159   0.506968   0.015578  -0.000005
    23  H    0.000038   0.000082  -0.000002   0.015578   0.671481   0.003892
    24  H    0.000000   0.000006  -0.000009  -0.000005   0.003892   0.605757
    25  H    0.000000  -0.000011   0.000004   0.000072   0.005150  -0.031265
    26  H   -0.000000  -0.000000   0.000000   0.000006   0.004452  -0.003208
    27  H   -0.000000  -0.000000   0.000000  -0.000000  -0.000028  -0.000181
    28  H    0.000000   0.000001  -0.000000   0.000317   0.012394   0.000021
    29  H    0.000000   0.000000  -0.000000  -0.000000   0.000001   0.000035
    30  H    0.000000   0.000000  -0.000000   0.000000  -0.000000   0.000007
    31  H   -0.000000  -0.000000  -0.000000  -0.000000   0.000000  -0.000000
    32  H    0.000000  -0.000000   0.000000   0.000000  -0.000000   0.000000
    33  H    0.000000  -0.000000   0.000000  -0.000000  -0.000000  -0.000000
    34  H    0.000000   0.000000   0.000000   0.000000   0.000000  -0.000000
    35  H    0.000000   0.000000   0.000000   0.000000   0.000000  -0.000000
    36  H    0.000000   0.000000   0.000000   0.000000   0.000000   0.000000
[...]
 02405,0.00002927,0.00000495,-0.00001658,-0.00003245,-0.00000342,0.0000
 4815,0.00002131,-0.00000449,-0.00003696,0.00000960,-0.00008289,0.00000
 252,-0.00001024,-0.00000657,-0.00001047,-0.00006727,0.00008460,-0.0000
 0310,0.00015158,-0.00048255,0.00006577,0.00008247,0.00085341,0.0010659
 4,-0.00170952,0.01764087,-0.01805109,-0.00451778,0.13294247,-0.2084624
 9,-0.01970752,-0.00174661,0.00275848,0.00216394,-0.00216772,0.00033519
 ,-0.00092008,-0.00011769,-0.00011684,-0.00065833,-0.00000179,-0.000000
 63,0.00000130,-0.00000147,-0.00000178,-0.00000112,0.00000001,-0.000000
 53,-0.00000149,0.00000150,-0.00000680,0.00000164,-0.00000065,-0.000003
 02,0.00000387,0.00000352,0.00000485,0.00000269,-0.00000177,-0.00000213
 ,-0.00000087,-0.00000550,-0.00000139,0.00001123,0.00000353,-0.00000395
 ,-0.00000227,0.00000041,0.00000672,-0.00000654,0.00000545,-0.00000346,
 0.00000327,0.00001110,-0.00000958,-0.00001053,-0.00003386,0.00028661,-
 0.00012179,-0.00006429,-0.00003082,0.00006782,-0.00096721,0.00036740,0
 .00069501,-0.00038653,-0.00284289,0.00331484,-0.14717779,0.22265567,0.
 00000108,0.00000080,0.00000094,-0.00000055,-0.00000050,0.00000128,0.00
 000005,-0.00000092,-0.00000430,-0.00000078,0.00000104,0.00000414,0.000
 00207,0.00000232,0.00000133,0.00000245,-0.00000566,0.00000501,-0.00000
 060,0.00000325,0.00000699,0.00000102,-0.00000082,-0.00000281,0.0000178
 2,0.00002109,-0.00000985,-0.00003878,0.00000076,0.00000781,0.00011447,
 -0.00002599,0.00002083,-0.00016205,-0.00015790,-0.00026944,-0.00172675
 ,-0.00027587,0.00021864,-0.01056191,0.01319308,0.00385873,0.02943726,-
 0.01890375,-0.04932593,0.01457531,-0.01642776,0.00171722,-0.00271830,-
 0.00313080,-0.00121009,-0.00056207,-0.00017283,-0.00110328,0.00000021,
 -0.00000020,-0.00000014,-0.00000024,-0.00000028,0.00000011,-0.00000037
 ,0.00000002,-0.00000032,-0.00000056,0.00000061,-0.00000069,0.00000101,
 -0.00000022,-0.00000278,0.00000100,0.00000013,0.00000252,-0.00000186,-
 0.00000257,-0.00000031,-0.00000132,-0.00000035,-0.00000389,-0.00000067
 ,-0.00000146,-0.00000109,-0.00000100,-0.00000123,-0.00000040,0.0000033
 0,-0.00000018,-0.00000875,-0.00001384,-0.00001321,-0.00000287,0.000143
 08,-0.00012594,-0.00004391,0.00002043,0.00008503,-0.00005662,0.0005102
 1,-0.00038366,0.00002232,0.00205170,0.00340482,0.00033689,-0.03730468,
 0.01872886,0.04282565,0.00000787,0.00000499,0.00000279,-0.00001595,0.0
 0000332,0.00000986,0.00000896,-0.00000187,-0.00001014,-0.00000264,-0.0
 0000128,-0.00000679,0.00000438,0.00000114,0.00000787,0.00000139,-0.000
 00607,-0.00000830,0.00000288,0.00002809,0.00000918,0.00000021,-0.00002
 222,0.00000490,-0.00000406,-0.00000410,-0.00000808,-0.00002154,0.00000
 387,-0.00000872,0.00008365,0.00002212,0.00000248,0.00005946,0.00007571
 ,0.00016145,0.00000999,-0.00056944,0.00020419,-0.00136069,0.00082984,-
 0.00427760,-0.01187995,0.01971248,0.00406463,-0.16215130,0.13518478,0.
 03332040,0.00618324,-0.00849878,0.00029535,0.00089212,-0.00073760,-0.0
 0031904,-0.00000107,-0.00000048,0.00000076,-0.00000066,-0.00000317,-0.
 00000028,-0.00000004,-0.00000005,-0.00000091,-0.00000008,-0.00000141,0
 .00000042,-0.00000065,0.00000014,-0.00000009,0.00000064,-0.00000279,0.
 00000070,-0.00000068,-0.00000034,-0.00000015,-0.00000234,-0.00000082,0
 .00000192,-0.00000029,-0.00000221,-0.00000173,-0.00000151,0.00000427,-
 0.00000371,0.00000358,0.00000300,-0.00000948,-0.00001704,0.00000448,-0
 .00000354,0.00000410,-0.00005338,0.00001219,-0.00002921,-0.00007457,0.
 00003964,0.00030395,0.00004116,-0.00000889,0.00030228,-0.00111985,0.00
 048353,0.00050563,0.00108768,0.00672915,0.16634680,0.00000123,-0.00000
 010,0.00000093,-0.00000336,0.00000162,0.00000226,0.00000193,0.00000076
 ,-0.00000244,-0.00000152,0.00000088,-0.00000246,0.00000129,-0.00000265
 ,0.00000343,0.00000185,0.00000111,-0.00000248,-0.00000023,0.00000403,0
 .00000336,-0.00000069,-0.00000232,0.00000007,-0.00000669,-0.00000170,-
 0.00000457,0.00000415,-0.00000201,0.00000156,0.00003005,0.00000366,-0.
 00000053,0.00000497,0.00000622,0.00001356,0.00004468,0.00022301,-0.000
 13916,-0.00268714,0.00029840,-0.00064631,-0.00098438,0.00392634,0.0016
 9755,0.12905800,-0.20500900,-0.02572754,0.02090435,-0.02825426,-0.0035
 0404,-0.00046656,0.00318716,-0.00235932,-0.00000020,-0.00000016,0.0000
 0017,-0.00000023,-0.00000010,-0.00000017,-0.00000004,-0.00000011,-0.00
 000031,0.00000015,-0.00000103,0.00000017,0.00000008,-0.00000051,0.0000
 0031,0.00000074,0.00000033,0.00000052,-0.00000034,-0.00000049,-0.00000
 017,-0.00000092,-0.00000022,0.00000045,0.00000019,-0.00000063,-0.00000
 063,0.00000024,0.00000004,-0.00000079,0.00000092,0.00000020,-0.0000026
 6,-0.00000470,-0.00000013,-0.00000273,0.00000394,-0.00002409,0.0000029
 5,0.00000790,-0.00002690,-0.00000056,0.00012319,-0.00007485,0.00021295
 ,0.00035804,0.00023886,-0.00031426,0.00060005,0.00136521,0.00261142,-0
 .14494832,0.22690475,0.00001527,0.00000530,0.00000632,-0.00003537,0.00
 001110,0.00002173,0.00001979,0.00000232,-0.00002007,-0.00000912,0.0000
 0154,-0.00002304,0.00001073,-0.00001322,0.00002330,0.00000600,-0.00000
 961,-0.00002573,0.00000157,0.00005234,0.00001782,-0.00000480,-0.000040
 98,0.00001156,-0.00004667,-0.00000841,-0.00001491,-0.00000187,-0.00000
 013,-0.00002730,0.00011562,0.00003843,0.00002170,0.00005868,0.00017266
 ,0.00020114,-0.00014597,0.00006873,0.00003085,-0.00233444,-0.00292605,
 -0.00279758,0.01261173,-0.01444634,0.00323612,0.03428874,-0.02754754,-
 0.05212922,-0.00837699,0.01429948,0.00095987,-0.00214123,-0.00058759,0
 .00240607,-0.00000250,-0.00000086,0.00000191,-0.00000169,-0.00000449,-
 0.00000121,0.00000018,-0.00000051,-0.00000201,0.00000118,-0.00000653,0
 .00000167,-0.00000141,-0.00000181,0.00000334,0.00000256,-0.00000066,0.
 00000172,-0.00000091,-0.00000085,-0.00000052,-0.00000534,-0.00000144,0
 .00000911,0.00000235,-0.00000394,-0.00000285,0.00000030,0.00000802,-0.
 00000757,0.00000436,0.00000138,-0.00000598,-0.00000894,0.00000296,-0.0
 0000766,0.00000754,0.00001809,-0.00003473,-0.00003558,-0.00011539,0.00
 006767,-0.00001724,0.00013747,0.00021843,-0.00017049,0.00067962,0.0000
 1324,0.00633078,0.00271534,0.00277984,-0.04204299,0.02286509,0.0453520
 3,-0.00001419,-0.00000598,-0.00000390,0.00003285,-0.00001089,-0.000019
 23,-0.00001974,-0.00000040,0.00001335,0.00000552,0.00000388,0.00002360
 ,-0.00000657,0.00000470,-0.00001339,-0.00000318,0.00000903,0.00002543,
 -0.00000322,-0.00004406,-0.00000380,0.00000390,0.00003958,-0.00001585,
 0.00002558,0.00000816,-0.00000846,0.00000071,-0.00000272,0.00003875,-0
 .00004425,0.00001631,-0.00003314,0.00006051,0.00002007,0.00004634,-0.0
 0001144,0.00007898,-0.00012455,0.00010176,-0.00009680,0.00049126,0.002
 31540,-0.00130064,-0.00128202,0.00406155,-0.01549887,-0.00045540,-0.21
 328437,0.22198483,0.01572915,-0.01361337,0.00318346,0.00214885,0.00000
 282,0.00000041,-0.00000218,0.00000117,0.00000504,0.00000129,-0.0000008
 4,0.00000052,0.00000144,-0.00000173,0.00000570,-0.00000224,0.00000293,
 -0.00000005,-0.00000578,0.00000008,0.00000392,0.00000139,-0.00000204,-
 0.00000239,-0.00000013,0.00000248,0.00000037,-0.00001204,-0.00000230,0
 .00000155,0.00000100,-0.00000021,-0.00001116,0.00000592,0.00000085,-0.
 00000308,-0.00000703,-0.00000172,-0.00001105,-0.00000031,-0.00000008,0
 .00001219,0.00000513,0.00001287,0.00001931,-0.00002808,-0.00006888,-0.
 00002843,-0.00002993,-0.00011969,0.00017333,0.00006435,-0.00069803,0.0
 0047240,-0.00069028,0.00104373,-0.00151655,0.00193910,0.22180424,-0.00
 003642,-0.00001311,-0.00001301,0.00008653,-0.00002841,-0.00005139,-0.0
 0004904,-0.00000432,0.00004141,0.00001754,0.00000220,0.00006051,-0.000
 02182,0.00002324,-0.00004707,-0.00001301,0.00003520,0.00006848,-0.0000
 0322,-0.00012575,-0.00002672,0.00000886,0.00010545,-0.00003722,0.00010
 075,0.00000418,-0.00000411,0.00001433,-0.00001227,0.00012045,-0.000160
 97,0.00002013,-0.00013130,0.00018252,0.00000438,0.00014679,0.00039062,
 0.00040813,-0.00046134,-0.00131810,-0.00155299,0.00012994,0.00164640,0
 .00261676,-0.00397484,0.02108839,-0.02824375,0.00391168,0.19150079,-0.
 24464488,0.01573915,-0.00138581,0.00406693,-0.00277089,0.00000669,0.00
 000167,-0.00000512,0.00000378,0.00001135,0.00000328,-0.00000134,0.0000
 0148,0.00000418,-0.00000396,0.00001603,-0.00000504,0.00000563,0.000002
 72,-0.00001230,-0.00000422,0.00000513,0.00000005,-0.00000204,-0.000001
 78,0.00000012,0.00001005,0.00000208,-0.00002940,-0.00000645,0.00000671
 ,0.00000421,0.00000049,-0.00002480,0.00001668,-0.00000313,-0.00000491,
 -0.00001371,-0.00000032,-0.00002100,0.00000235,-0.00001263,0.00001714,
 -0.00000265,0.00000664,0.00007867,-0.00007652,-0.00007069,-0.00002133,
 -0.00004846,0.00002326,0.00034646,-0.00010079,-0.00058229,0.00058033,0
 .00135316,-0.00095494,-0.00259679,0.00389668,-0.20903190,0.26950784,-0
 .00002073,-0.00000725,-0.00000726,0.00005054,-0.00001682,-0.00002976,-
 0.00002982,-0.00000411,0.00002135,0.00001245,0.00000222,0.00003988,-0.
 00001297,0.00001649,-0.00003006,-0.00000704,0.00002179,0.00004723,-0.0
 0000136,-0.00007766,-0.00001601,0.00000475,0.00006615,-0.00002391,0.00
 006898,0.00000247,-0.00000844,0.00000180,-0.00000546,0.00008759,-0.000
 09831,0.00002762,-0.00010062,0.00015518,-0.00000586,0.00014155,0.00021
 371,0.00018891,-0.00029355,-0.00013502,-0.00104576,-0.00035850,0.00001
 685,0.00072299,-0.00077386,-0.01707391,0.00699973,0.00431932,-0.000455
 53,0.03748884,-0.04134430,0.02953257,-0.02275237,-0.01306048,0.0000040
 7,0.00000086,-0.00000298,0.00000210,0.00000670,0.00000198,-0.00000099,
 0.00000078,0.00000220,-0.00000246,0.00000983,-0.00000299,0.00000369,0.
 00000138,-0.00000908,-0.00000247,0.00000275,0.00000110,-0.00000176,-0.
 00000208,-0.00000018,0.00000567,0.00000130,-0.00002043,-0.00000414,0.0
 0000372,0.00000234,0.00000065,-0.00001607,0.00001031,-0.00000158,-0.00
 000333,-0.00001300,-0.00000325,-0.00001618,0.00000162,-0.00001323,0.00
 000936,0.00000051,-0.00000185,0.00007072,-0.00005438,-0.00003904,-0.00
 001622,-0.00013809,0.00006393,-0.00015876,0.00011163,0.00108375,-0.000
 41252,-0.00002689,0.00222036,0.00343564,0.00024547,-0.02031415,-0.0183
 9660,0.05710560,0.00000118,-0.00000058,0.00000138,-0.00000306,0.000001
 21,0.00000192,0.00000091,0.00000096,-0.00000370,-0.00000166,0.00000202
 ,-0.00000150,0.00000251,-0.00000281,0.00000532,0.00000287,-0.00000266,
 -0.00000235,-0.00000120,0.00000403,0.00000746,-0.00000102,-0.00000105,
 -0.00000179,-0.00000427,0.00000690,-0.00000591,-0.00001400,-0.00000215
 ,-0.00000321,0.00002727,0.00002112,0.00000444,0.00003342,0.00002022,0.
 00003780,-0.00015118,-0.00004560,0.00009790,-0.00006775,0.00007502,-0.
 00043517,-0.00106440,-0.00029993,0.00034986,0.00198382,0.00217551,-0.0
 0142324,0.00688083,0.01824683,0.01627514,-0.11103557,-0.10393202,-0.05
 566369,-0.00000006,-0.00000024,0.00000004,-0.00000036,0.00000026,-0.00
 000011,-0.00000027,-0.00000009,-0.00000036,0.,-0.00000091,0.00000002,0
 .00000059,-0.00000086,-0.00000069,0.00000122,0.00000117,0.00000131,-0.
 00000127,-0.00000172,-0.00000019,-0.00000145,-0.00000036,-0.00000067,0
 .00000031,-0.00000125,-0.00000078,0.00000019,-0.00000114,-0.00000092,0
 .00000233,-0.00000110,-0.00000400,-0.00000210,-0.00000456,-0.00000025,
 -0.00000113,0.00000166,-0.00000059,-0.00000628,-0.00001501,0.00000961,
 -0.00000694,0.00000084,0.00000158,0.00002067,0.00002109,0.00000677,0.0
 0012427,0.00010050,0.00024488,0.00000713,0.00014321,-0.00021448,0.0001
 3484,0.00109901,0.00301275,0.11774909,-0.00002700,-0.00001006,-0.00001
 058,0.00006181,-0.00001962,-0.00003819,-0.00003465,-0.00000223,0.00003
 467,0.00001289,-0.00000070,0.00003808,-0.00001722,0.00001685,-0.000035
 24,-0.00000633,0.00001713,0.00004199,-0.00000418,-0.00008741,-0.000023
 64,0.00000837,0.00007067,-0.00002197,0.00008024,0.00001316,0.00001313,
 -0.00000680,0.00000394,0.00006952,-0.00012481,0.00001378,-0.00012537,0
 .00013792,0.00001471,0.00005577,-0.00011867,0.00011098,0.00007748,-0.0
 0008458,-0.00029551,-0.00070523,-0.00093915,-0.00011786,0.00010606,0.0
 0264750,0.00373859,0.00217169,0.00489156,-0.00198574,0.00842970,-0.129
 40329,-0.26369983,-0.17493166,0.00000440,0.00000139,-0.00000346,0.0000
 0281,0.00000831,0.00000224,-0.00000048,0.00000100,0.00000359,-0.000002
 11,0.00001088,-0.00000304,0.00000321,0.00000243,-0.00000576,-0.0000030
 8,0.00000288,-0.00000215,0.00000023,0.00000086,0.00000086,0.00000842,0
 .00000164,-0.00001655,-0.00000411,0.00000596,0.00000414,-0.00000052,-0
 .00001579,0.00001202,-0.00000256,-0.00000157,-0.00000107,0.00000357,-0
 .00000761,0.00000642,-0.00000461,0.00001131,0.00000673,0.00000726,0.00
 005435,-0.00004098,0.00000188,0.00000141,-0.00001685,-0.00001590,0.000
 03695,0.00001143,0.00022201,0.00005088,0.00025293,-0.00005061,0.000183
 23,0.00032502,-0.00153170,-0.00136286,-0.00352487,0.11712642,0.2639565
 4,-0.00000509,-0.00000257,-0.00000176,0.00001254,-0.00000343,-0.000007
 38,-0.00000718,-0.00000054,0.00000520,0.00000318,0.00000043,0.00001015
 ,-0.00000316,0.00000349,-0.00000887,-0.00000263,0.00001012,0.00001426,
 -0.00000013,-0.00002577,-0.00000611,-0.00000084,0.00002199,-0.00000709
 ,0.00001763,-0.00000273,-0.00000214,0.00001022,-0.00000572,0.00003109,
 -0.00004618,0.00000290,-0.00002156,-0.00000912,-0.00006377,0.00000206,
 0.00025568,0.00013561,-0.00026999,-0.00020183,-0.00056675,0.00069543,0
 .00146885,0.00139168,-0.00102681,-0.00297957,-0.00545331,0.00420738,0.
 00222549,-0.02745364,-0.03499985,-0.04968818,-0.12357435,-0.10876055,0
 .00000101,0.00000024,-0.00000064,0.00000044,0.00000201,0.00000043,-0.0
 0000021,0.00000017,0.00000046,-0.00000048,0.00000205,-0.00000072,0.000
 00097,0.00000012,-0.00000209,-0.00000096,0.00000110,0.00000009,-0.0000
 0020,-0.00000037,-0.00000003,0.00000182,0.00000051,-0.00000561,-0.0000
 0058,0.00000143,0.00000087,0.00000143,-0.00000525,0.00000312,-0.000002
 06,-0.00000226,-0.00000159,0.00000499,-0.00000564,0.00000166,-0.000012
 42,0.00002049,-0.00000948,0.00000188,0.00004412,-0.00003027,-0.0000152
 2,0.00001819,0.00001027,-0.00002205,0.00009262,-0.00003792,-0.00030982
 ,0.00000967,-0.00004835,-0.00054870,0.00110010,-0.00068002,-0.00154139
 ,-0.00014112,-0.00218653,0.05701129,0.16003408,0.14568664,-0.00000833,
 -0.00000312,-0.00000294,0.00001931,-0.00000625,-0.00001153,-0.00001099
 ,-0.00000082,0.00000961,0.00000403,0.00000038,0.00001314,-0.00000479,0
 .00000523,-0.00001036,-0.00000336,0.00000581,0.00001442,-0.00000093,-0
 .00002656,-0.00000567,0.00000244,0.00002218,-0.00000800,0.00002100,0.0
 0000244,0.00000089,0.00000079,0.00000018,0.00001967,-0.00004044,-0.000
 01032,-0.00001593,-0.00002072,-0.00004007,-0.00004712,0.00004967,0.000
 03975,-0.00004515,0.00011982,-0.00005508,0.00023096,0.00024819,-0.0002
 3992,0.00009242,-0.00091041,0.00023422,-0.00138078,-0.01165715,0.01122
 149,0.00731944,-0.39949753,0.03281985,-0.05799316,0.00000153,0.0000003
 5,-0.00000117,0.00000082,0.00000263,0.00000075,-0.00000029,0.00000034,
 0.00000097,-0.00000086,0.00000349,-0.00000116,0.00000118,0.00000058,-0
 .00000254,-0.00000088,0.00000113,-0.00000031,-0.00000030,-0.00000021,0
 .00000007,0.00000228,0.00000042,-0.00000608,-0.00000145,0.00000153,0.0
 0000100,-0.00000019,-0.00000534,0.00000380,-0.00000070,-0.00000094,-0.
 00000142,0.00000041,-0.00000378,0.00000147,-0.00000050,0.00000611,0.00
 000181,0.00000737,0.00003551,-0.00002577,0.00002326,0.00001607,0.00002
 116,-0.00001062,-0.00000789,0.00002404,0.00017065,0.00004363,-0.000069
 90,-0.00028233,-0.00066930,0.00018158,-0.00171791,-0.00252999,0.001765
 79,-0.01460951,0.00716184,-0.00561943,0.42810743,-0.00003071,-0.000011
 67,-0.00001055,0.00007021,-0.00002266,-0.00004220,-0.00004014,-0.00000
 208,0.00003576,0.00001360,0.00000203,0.00004539,-0.00001739,0.00001662
 ,-0.00003503,-0.00000957,0.00001972,0.00004822,-0.00000447,-0.00009407
 ,-0.00001935,0.00000964,0.00007863,-0.00002790,0.00007259,0.00001148,0
 .00000379,0.00000255,0.00000062,0.00007022,-0.00012605,-0.00001062,-0.
 00007823,0.00002140,-0.00006758,-0.00002549,0.00016191,0.00011260,-0.0
 0017052,-0.00010925,-0.00040566,0.00051040,0.00095705,-0.00018471,-0.0
 0019182,-0.00351582,-0.00026163,0.00119031,0.00150360,-0.00451446,0.00
 423931,0.08064430,-0.03167353,-0.00906182,0.00000548,0.00000127,-0.000
 00432,0.00000302,0.00000970,0.00000264,-0.00000105,0.00000118,0.000003
 65,-0.00000303,0.00001238,-0.00000404,0.00000430,0.00000193,-0.0000085
 1,-0.00000239,0.00000457,-0.00000098,-0.00000115,-0.00000094,0.0000003
 5,0.00000792,0.00000153,-0.00002053,-0.00000499,0.00000538,0.00000346,
 -0.00000109,-0.00001886,0.00001319,-0.00000218,-0.00000320,-0.00000451
 ,0.00000193,-0.00001300,0.00000394,-0.00000223,0.00001512,0.00000691,0
 .00001722,0.00008453,-0.00006762,0.00000700,0.00001397,-0.00000597,-0.
 00001445,0.00003266,0.00001721,0.00004158,0.00001171,-0.00002723,0.000
 04721,-0.00034774,0.00041478,0.00305296,0.00079474,-0.00261835,-0.0347
 3394,-0.00072305,-0.00558589,-0.04802558,0.03712307,0.00000910,0.00000
 383,0.00000290,-0.00001971,0.00000613,0.00001207,0.00001139,-0.0000000
 4,-0.00001083,-0.00000340,-0.00000072,-0.00001092,0.00000456,-0.000004
 09,0.00000793,0.00000209,-0.00000247,-0.00000969,0.00000194,0.00002374
 ,0.00000396,-0.00000324,-0.00001967,0.00000721,-0.00001848,-0.00000831
 ,-0.00000466,0.00000807,0.00000049,-0.00000663,0.00002999,0.00001255,-
 0.00000072,0.00006114,0.00006337,0.00006988,-0.00001394,0.00004060,0.0
 0000877,-0.00023981,-0.00016719,-0.00057029,-0.00026870,0.00098485,-0.
 00096308,0.00379945,-0.00175751,0.00080525,0.04653790,-0.00922769,-0.0
 1048134,-0.08983967,-0.01092783,-0.05738015,-0.00000151,-0.00000034,0.
 00000128,-0.00000085,-0.00000294,-0.00000067,0.00000029,-0.00000029,-0
 .00000110,0.00000073,-0.00000320,0.00000104,-0.00000113,-0.00000049,0.
 00000185,0.00000031,-0.00000147,0.00000039,0.00000033,0.00000043,-0.00
 000017,-0.00000202,-0.00000048,0.00000448,0.00000127,-0.00000127,-0.00
 000102,0.00000072,0.00000454,-0.00000347,0.00000034,0.00000104,-0.0000
 0076,-0.00000154,0.00000444,-0.00000222,-0.00000115,-0.00000731,-0.000
 00061,-0.00000578,-0.00003695,0.00002246,-0.00001977,-0.00002012,-0.00
 001886,0.00000651,0.00004150,-0.00001777,-0.00001928,0.00018334,0.0003
 1247,-0.00031260,0.00075863,0.00014952,0.00405691,0.00085052,-0.003638
 34,-0.01930588,0.00780905,-0.00255370,0.05554543,0.01140133,0.07426553
 \\-0.00000301,-0.00000245,-0.00000042,0.00000794,0.00000197,-0.0000029
 7,-0.00000109,-0.00000150,0.00000130,0.00000065,-0.00000189,0.00000378
 ,-0.00000311,-0.00000039,0.00000053,0.00000313,-0.00000042,-0.00000306
 ,-0.00000287,-0.00000411,0.00000480,-0.00000160,0.00000098,-0.00000192
 ,-0.00000636,-0.00000068,0.00000098,0.00001027,0.00000008,-0.00000268,
 -0.00000362,-0.00000444,0.00000524,-0.00000438,0.00000235,-0.00000743,
 0.00000178,0.00000043,0.00000225,-0.00000060,-0.00000379,0.00000377,0.
 00000271,0.00000383,-0.00000420,-0.00000245,-0.00000635,0.00000903,0.0
 0000367,0.00000450,-0.00002149,-0.00000220,0.00000236,0.00001434,0.000
 00140,0.00000017,0.00000073,0.00000094,0.00000130,-0.00000103,-0.00000
 149,0.00000057,-0.00000018,-0.00000242,0.00000051,0.00000129,0.0000005
 2,0.00000090,-0.00000144,0.00000044,0.00000048,0.00000018,0.00000052,0
 .00000031,-0.00000070,-0.00000022,0.00000174,0.00000055,0.00000145,0.0
 0000154,-0.00000229,0.00000119,-0.00000037,-0.00000004,-0.00000221,0.0
 0000259,-0.00000133,-0.00000092,0.00000065,-0.00000008,0.00000003,0.00
 000016,0.00000011,0.00000210,0.00000014,0.00000267,0.00000014,-0.00000
 048,-0.00000069,0.00000001,0.00000041,-0.00000109,0.00000024,-0.000000
 15,0.00000130,0.00000006,-0.00000010,-0.00000042,-0.00000082,0.0000006
 3,0.00000308,0.00000029,0.00000002,-0.00000155,-0.00000012,-0.00000153
 ,-0.00000092\\\@


 ... THE UNIVERSE IS NOT ONLY QUEERER THAN WE SUPPOSE,
 BUT QUEERER THAN WE CAN SUPPOSE ... 

                                   -- J. B. S. HALDANE
 Job cpu time:       0 days 22 hours 14 minutes 23.8 seconds.
 Elapsed time:       0 days  5 hours 33 minutes 39.7 seconds.
 File lengths (MBytes):  RWF=   2019 Int=      0 D2E=      0 Chk=     42 Scr=      1
 Normal termination of Gaussian 16 at Thu May 18 05:55:05 2023.
### All Done ###
