### Starting Gaussian ###
 Entering Gaussian System, Link 0=g16
 Initial command:
 /cluster/software/gaussian/gaussian-16-A.03/avx2/g16/l1.exe "/local/scratch/cz9n3/Gau-7196.inp" -scrdir="/local/scratch/cz9n3/"
 Entering Link 1 = /cluster/software/gaussian/gaussian-16-A.03/avx2/g16/l1.exe PID=      7199.
  
 Copyright (c) 1988,1990,1992,1993,1995,1998,2003,2009,2016,
            Gaussian, Inc.  All Rights Reserved.
  
 This is part of the Gaussian(R) 16 program.  It is based on
 the Gaussian(R) 09 system (copyright 2009, Gaussian, Inc.),
 the Gaussian(R) 03 system (copyright 2003, Gaussian, Inc.),
 the Gaussian(R) 98 system (copyright 1998, Gaussian, Inc.),
 the Gaussian(R) 94 system (copyright 1995, Gaussian, Inc.),
 the Gaussian 92(TM) system (copyright 1992, Gaussian, Inc.),
 the Gaussian 90(TM) system (copyright 1990, Gaussian, Inc.),
 the Gaussian 88(TM) system (copyright 1988, Gaussian, Inc.),
 the Gaussian 86(TM) system (copyright 1986, Carnegie Mellon
 University), and the Gaussian 82(TM) system (copyright 1983,
 Carnegie Mellon University). Gaussian is a federally registered
 trademark of Gaussian, Inc.
  
 This software contains proprietary and confidential information,
 including trade secrets, belonging to Gaussian, Inc.
  
 This software is provided under written license and may be
 used, copied, transmitted, or stored only in accord with that
 written license.
  
 The following legend is applicable only to US Government
 contracts under FAR:
  
                    RESTRICTED RIGHTS LEGEND
  
 Use, reproduction and disclosure by the US Government is
 subject to restrictions as set forth in subparagraphs (a)
 and (c) of the Commercial Computer Software - Restricted
 Rights clause in FAR 52.227-19.
  
 Gaussian, Inc.
 340 Quinnipiac St., Bldg. 40, Wallingford CT 06492
  
  
 ---------------------------------------------------------------
 Warning -- This program may not be used in any manner that
 competes with the business of Gaussian, Inc. or will provide
 assistance to any competitor of Gaussian, Inc.  The licensee
 of this program is prohibited from giving any competitor of
 Gaussian, Inc. access to this program.  By using this program,
 the user acknowledges that Gaussian, Inc. is engaged in the
 business of creating and licensing software in the field of
 computational chemistry and represents and warrants to the
 licensee that it is not a competitor of Gaussian, Inc. and that
 it will not use this program in any manner prohibited above.
 ---------------------------------------------------------------
  

 Cite this work as:
 Gaussian 16, Revision A.03,
 M. J. Frisch, G. W. Trucks, H. B. Schlegel, G. E. Scuseria, 
 M. A. Robb, J. R. Cheeseman, G. Scalmani, V. Barone, 
 G. A. Petersson, H. Nakatsuji, X. Li, M. Caricato, A. V. Marenich, 
 J. Bloino, B. G. Janesko, R. Gomperts, B. Mennucci, H. P. Hratchian, 
 J. V. Ortiz, A. F. Izmaylov, J. L. Sonnenberg, D. Williams-Young, 
 F. Ding, F. Lipparini, F. Egidi, J. Goings, B. Peng, A. Petrone, 
 T. Henderson, D. Ranasinghe, V. G. Zakrzewski, J. Gao, N. Rega, 
 G. Zheng, W. Liang, M. Hada, M. Ehara, K. Toyota, R. Fukuda, 
 J. Hasegawa, M. Ishida, T. Nakajima, Y. Honda, O. Kitao, H. Nakai, 
 T. Vreven, K. Throssell, J. A. Montgomery, Jr., J. E. Peralta, 
 F. Ogliaro, M. J. Bearpark, J. J. Heyd, E. N. Brothers, K. N. Kudin, 
 V. N. Staroverov, T. A. Keith, R. Kobayashi, J. Normand, 
 K. Raghavachari, A. P. Rendell, J. C. Burant, S. S. Iyengar, 
 J. Tomasi, M. Cossi, J. M. Millam, M. Klene, C. Adamo, R. Cammi, 
 J. W. Ochterski, R. L. Martin, K. Morokuma, O. Farkas, 
 J. B. Foresman, and D. J. Fox, Gaussian, Inc., Wallingford CT, 2016.
 
 ******************************************
 Gaussian 16:  ES64L-G16RevA.03 25-Dec-2016
                17-May-2023 
 ******************************************
 %chk=CNSCd[SH]CqdCSCSrCSCSS.chk
 %NProcShared=20
 Will use up to   20 processors via shared memory.
 -----------------------------
 # opt freq b3lyp/6-31g(2df,p)
 -----------------------------
 1/18=20,19=15,26=3,38=1/1,3;
 2/9=110,12=2,17=6,18=5,40=1/2;
 3/5=1,6=6,7=104,11=2,25=1,30=1,71=1,74=-5/1,2,3;
 4//1;
 5/5=2,38=5/2;
 6/7=2,8=2,9=2,10=2,28=1/1;
 7//1,2,3,16;
 1/18=20,19=15,26=3/3(2);
 2/9=110/2;
 99//99;
 2/9=110/2;
 3/5=1,6=6,7=104,11=2,25=1,30=1,71=1,74=-5/1,2,3;
 4/5=5,16=3,69=1/1;
 5/5=2,38=5/2;
 7//1,2,3,16;
 1/18=20,19=15,26=3/3(-5);
 2/9=110/2;
 6/7=2,8=2,9=2,10=2,19=2,28=1/1;
 99/9=1/99;
 -------------------
 Title Card Required
 -------------------
 Symbolic Z-matrix:
 Charge =  0 Multiplicity = 1
 C                     0.92819  -0.03453  -0.02386 
 N                     2.34627   0.246    -0.19943 
 S                     2.81314   1.63255  -1.03761 
 C                     4.53423   1.46852  -0.85623 
 S                     5.60799   2.65043  -1.63514 
 C                     7.38508   2.1999   -1.25178 
 C                     7.78091   1.05805  -0.61143 
 S                     6.819    -0.19265   0.03012 
 C                     7.77888  -1.47537   0.78513 
 S                     6.59546  -2.71588   1.4242 
 C                     8.43613   3.23608  -1.8154 
 S                     10.17608   2.70277  -1.52423 
 C                     11.23193   4.00292  -2.2511 
 S                     12.96339   3.42697  -1.93468 
 S                     14.16354   4.8784   -2.73528 
 H                     0.76987  -0.97688   0.51483 
 H                     0.43529  -0.11763  -0.9965 
 H                     0.45538   0.76092   0.55857 
 H                     2.79391  -0.59269  -0.58099 
 H                     4.76824   0.59523  -0.27383 
 H                     5.4325    3.68034  -0.83311 
 H                     8.83714   0.87556  -0.47831 
 H                     8.36656  -1.09573   1.62159 
 H                     8.42013  -1.9577    0.04756 
 H                     5.85314  -1.86337   2.15393 
 H                     8.27775   4.21195  -1.33975 
 H                     8.28159   3.352    -2.8959 
 H                     11.07181   4.95991  -1.74887 
 H                     11.0687   4.08311  -3.32853 
 H                     15.36419   4.34387  -2.44115 
 

 GradGradGradGradGradGradGradGradGradGradGradGradGradGradGradGradGradGrad
 Berny optimization.
 Initialization pass.
                           ----------------------------
                           !    Initial Parameters    !
                           ! (Angstroms and Degrees)  !
 --------------------------                            --------------------------
 ! Name  Definition              Value          Derivative Info.                !
 --------------------------------------------------------------------------------
 ! R1    R(1,2)                  1.4562         estimate D2E/DX2                !
 ! R2    R(1,16)                 1.0969         estimate D2E/DX2                !
 ! R3    R(1,17)                 1.0936         estimate D2E/DX2                !
 ! R4    R(1,18)                 1.0934         estimate D2E/DX2                !
 ! R5    R(2,3)                  1.6861         estimate D2E/DX2                !
 ! R6    R(2,19)                 1.0244         estimate D2E/DX2                !
 ! R7    R(3,4)                  1.7384         estimate D2E/DX2                !
 ! R8    R(4,5)                  1.7767         estimate D2E/DX2                !
 ! R9    R(4,20)                 1.0754         estimate D2E/DX2                !
 ! R10   R(5,6)                  1.873          estimate D2E/DX2                !
 ! R11   R(5,21)                 1.3171         estimate D2E/DX2                !
 ! R12   R(6,7)                  1.3677         estimate D2E/DX2                !
 ! R13   R(6,11)                 1.5799         estimate D2E/DX2                !
 ! R14   R(7,8)                  1.7033         estimate D2E/DX2                !
 ! R15   R(7,22)                 1.0801         estimate D2E/DX2                !
 ! R16   R(8,9)                  1.7711         estimate D2E/DX2                !
 ! R17   R(9,10)                 1.8297         estimate D2E/DX2                !
 ! R18   R(9,23)                 1.0905         estimate D2E/DX2                !
 ! R19   R(9,24)                 1.0899         estimate D2E/DX2                !
 ! R20   R(10,25)                1.3455         estimate D2E/DX2                !
 ! R21   R(11,12)                1.843          estimate D2E/DX2                !
 ! R22   R(11,26)                1.0971         estimate D2E/DX2                !
 ! R23   R(11,27)                1.0976         estimate D2E/DX2                !
 ! R24   R(12,13)                1.8258         estimate D2E/DX2                !
 ! R25   R(13,14)                1.852          estimate D2E/DX2                !
 ! R26   R(13,28)                1.0926         estimate D2E/DX2                !
 ! R27   R(13,29)                1.0927         estimate D2E/DX2                !
 ! R28   R(14,15)                2.0465         estimate D2E/DX2                !
 ! R29   R(15,30)                1.3468         estimate D2E/DX2                !
 ! A1    A(2,1,16)             111.4236         estimate D2E/DX2                !
 ! A2    A(2,1,17)             110.2634         estimate D2E/DX2                !
 ! A3    A(2,1,18)             110.1928         estimate D2E/DX2                !
 ! A4    A(16,1,17)            107.8453         estimate D2E/DX2                !
 ! A5    A(16,1,18)            107.5163         estimate D2E/DX2                !
 ! A6    A(17,1,18)            109.5211         estimate D2E/DX2                !
 ! A7    A(1,2,3)              119.209          estimate D2E/DX2                !
 ! A8    A(1,2,19)             108.224          estimate D2E/DX2                !
 ! A9    A(3,2,19)             111.5371         estimate D2E/DX2                !
 ! A10   A(2,3,4)               98.3184         estimate D2E/DX2                !
 ! A11   A(3,4,5)              119.3302         estimate D2E/DX2                !
 ! A12   A(3,4,20)             110.3989         estimate D2E/DX2                !
 ! A13   A(5,4,20)             130.2482         estimate D2E/DX2                !
 ! A14   A(4,5,6)              108.8854         estimate D2E/DX2                !
 ! A15   A(4,5,21)              99.9445         estimate D2E/DX2                !
 ! A16   A(6,5,21)             100.9455         estimate D2E/DX2                !
 ! A17   A(5,6,7)              124.8381         estimate D2E/DX2                !
 ! A18   A(5,6,11)             113.6053         estimate D2E/DX2                !
 ! A19   A(7,6,11)             121.47           estimate D2E/DX2                !
 ! A20   A(6,7,8)              128.7523         estimate D2E/DX2                !
 ! A21   A(6,7,22)             118.8016         estimate D2E/DX2                !
 ! A22   A(8,7,22)             112.4435         estimate D2E/DX2                !
 ! A23   A(7,8,9)              112.725          estimate D2E/DX2                !
 ! A24   A(8,9,10)             106.8216         estimate D2E/DX2                !
 ! A25   A(8,9,23)             111.5262         estimate D2E/DX2                !
 ! A26   A(8,9,24)             110.5425         estimate D2E/DX2                !
 ! A27   A(10,9,23)            108.4625         estimate D2E/DX2                !
 ! A28   A(10,9,24)            108.4739         estimate D2E/DX2                !
 ! A29   A(23,9,24)            110.86           estimate D2E/DX2                !
 ! A30   A(9,10,25)             96.7013         estimate D2E/DX2                !
 ! A31   A(6,11,12)            112.453          estimate D2E/DX2                !
 ! A32   A(6,11,26)            109.4311         estimate D2E/DX2                !
 ! A33   A(6,11,27)            109.0733         estimate D2E/DX2                !
 ! A34   A(12,11,26)           108.977          estimate D2E/DX2                !
 ! A35   A(12,11,27)           108.6027         estimate D2E/DX2                !
 ! A36   A(26,11,27)           108.211          estimate D2E/DX2                !
 ! A37   A(11,12,13)           106.0815         estimate D2E/DX2                !
 ! A38   A(12,13,14)           104.5477         estimate D2E/DX2                !
 ! A39   A(12,13,28)           110.8535         estimate D2E/DX2                !
 ! A40   A(12,13,29)           111.0037         estimate D2E/DX2                !
 ! A41   A(14,13,28)           109.3222         estimate D2E/DX2                !
 ! A42   A(14,13,29)           109.3272         estimate D2E/DX2                !
 ! A43   A(28,13,29)           111.5364         estimate D2E/DX2                !
 ! A44   A(13,14,15)           105.1224         estimate D2E/DX2                !
 ! A45   A(14,15,30)            98.9684         estimate D2E/DX2                !
 ! D1    D(16,1,2,3)           178.5464         estimate D2E/DX2                !
 ! D2    D(16,1,2,19)           49.7268         estimate D2E/DX2                !
 ! D3    D(17,1,2,3)            58.8261         estimate D2E/DX2                !
 ! D4    D(17,1,2,19)          -69.9936         estimate D2E/DX2                !
 ! D5    D(18,1,2,3)           -62.192          estimate D2E/DX2                !
 ! D6    D(18,1,2,19)          168.9884         estimate D2E/DX2                !
 ! D7    D(1,2,3,4)            177.4245         estimate D2E/DX2                !
 ! D8    D(19,2,3,4)           -55.2867         estimate D2E/DX2                !
 ! D9    D(2,3,4,5)            176.9919         estimate D2E/DX2                !
 ! D10   D(2,3,4,20)            -1.4505         estimate D2E/DX2                !
 ! D11   D(3,4,5,6)            179.9794         estimate D2E/DX2                !
 ! D12   D(3,4,5,21)            74.6886         estimate D2E/DX2                !
 ! D13   D(20,4,5,6)            -1.9335         estimate D2E/DX2                !
 ! D14   D(20,4,5,21)         -107.2243         estimate D2E/DX2                !
 ! D15   D(4,5,6,7)              7.0905         estimate D2E/DX2                !
 ! D16   D(4,5,6,11)          -176.2646         estimate D2E/DX2                !
 ! D17   D(21,5,6,7)           111.69           estimate D2E/DX2                !
 ! D18   D(21,5,6,11)          -71.6652         estimate D2E/DX2                !
 ! D19   D(5,6,7,8)             -2.0008         estimate D2E/DX2                !
 ! D20   D(5,6,7,22)           177.3725         estimate D2E/DX2                !
 ! D21   D(11,6,7,8)          -178.3959         estimate D2E/DX2                !
 ! D22   D(11,6,7,22)            0.9774         estimate D2E/DX2                !
 ! D23   D(5,6,11,12)         -175.9727         estimate D2E/DX2                !
 ! D24   D(5,6,11,26)           62.7691         estimate D2E/DX2                !
 ! D25   D(5,6,11,27)          -55.435          estimate D2E/DX2                !
 ! D26   D(7,6,11,12)            0.7987         estimate D2E/DX2                !
 ! D27   D(7,6,11,26)         -120.4594         estimate D2E/DX2                !
 ! D28   D(7,6,11,27)          121.3364         estimate D2E/DX2                !
 ! D29   D(6,7,8,9)           -179.5827         estimate D2E/DX2                !
 ! D30   D(22,7,8,9)             1.0115         estimate D2E/DX2                !
 ! D31   D(7,8,9,10)           179.5941         estimate D2E/DX2                !
 ! D32   D(7,8,9,23)            61.2415         estimate D2E/DX2                !
 ! D33   D(7,8,9,24)           -62.5786         estimate D2E/DX2                !
 ! D34   D(8,9,10,25)          -53.8747         estimate D2E/DX2                !
 ! D35   D(23,9,10,25)          66.4611         estimate D2E/DX2                !
 ! D36   D(24,9,10,25)        -173.0517         estimate D2E/DX2                !
 ! D37   D(6,11,12,13)         179.4395         estimate D2E/DX2                !
 ! D38   D(26,11,12,13)        -59.0431         estimate D2E/DX2                !
 ! D39   D(27,11,12,13)         58.6311         estimate D2E/DX2                !
 ! D40   D(11,12,13,14)        179.9582         estimate D2E/DX2                !
 ! D41   D(11,12,13,28)         62.2702         estimate D2E/DX2                !
 ! D42   D(11,12,13,29)        -62.2737         estimate D2E/DX2                !
 ! D43   D(12,13,14,15)       -179.7238         estimate D2E/DX2                !
 ! D44   D(28,13,14,15)        -60.9918         estimate D2E/DX2                !
 ! D45   D(29,13,14,15)         61.3664         estimate D2E/DX2                !
 ! D46   D(13,14,15,30)        179.9913         estimate D2E/DX2                !
 --------------------------------------------------------------------------------
 Trust Radius=3.00D-01 FncErr=1.00D-07 GrdErr=1.00D-06 EigMax=2.50D+02 EigMin=1.00D-04
 Number of steps in this run=    130 maximum allowed number of steps=    180.
 GradGradGradGradGradGradGradGradGradGradGradGradGradGradGradGradGradGrad

                          Input orientation:                          
 ---------------------------------------------------------------------
 Center     Atomic      Atomic             Coordinates (Angstroms)
 Number     Number       Type             X           Y           Z
 ---------------------------------------------------------------------
      1          6           0        0.928190   -0.034530   -0.023860
      2          7           0        2.346270    0.246000   -0.199430
      3         16           0        2.813140    1.632550   -1.037610
      4          6           0        4.534230    1.468520   -0.856230
      5         16           0        5.607990    2.650430   -1.635140
      6          6           0        7.385080    2.199900   -1.251780
      7          6           0        7.780910    1.058050   -0.611430
      8         16           0        6.819000   -0.192650    0.030120
      9          6           0        7.778880   -1.475370    0.785130
     10         16           0        6.595460   -2.715880    1.424200
     11          6           0        8.436130    3.236080   -1.815400
     12         16           0       10.176080    2.702770   -1.524230
     13          6           0       11.231930    4.002920   -2.251100
     14         16           0       12.963390    3.426970   -1.934680
     15         16           0       14.163540    4.878400   -2.735280
     16          1           0        0.769870   -0.976880    0.514830
     17          1           0        0.435290   -0.117630   -0.996500
     18          1           0        0.455380    0.760920    0.558570
     19          1           0        2.793910   -0.592690   -0.580990
     20          1           0        4.768240    0.595230   -0.273830
     21          1           0        5.432500    3.680340   -0.833110
     22          1           0        8.837140    0.875560   -0.478310
     23          1           0        8.366560   -1.095730    1.621590
     24          1           0        8.420130   -1.957700    0.047560
     25          1           0        5.853140   -1.863370    2.153930
     26          1           0        8.277750    4.211950   -1.339750
     27          1           0        8.281590    3.352000   -2.895900
     28          1           0       11.071810    4.959910   -1.748870
     29          1           0       11.068700    4.083110   -3.328530
     30          1           0       15.364190    4.343870   -2.441150
 ---------------------------------------------------------------------
                    Distance matrix (angstroms):
                    1          2          3          4          5
     1  C    0.000000
     2  N    1.456184   0.000000
     3  S    2.712910   1.686130   0.000000
     4  C    3.994437   2.590967   1.738377   0.000000
     5  S    5.630787   4.298996   3.033860   1.776675   0.000000
     6  C    6.942038   5.505885   4.611983   2.969633   1.872963
     7  C    6.964104   5.510398   5.019006   3.281668   2.881881
     8  S    5.893179   4.500047   4.529715   2.960621   3.510376
     9  C    7.047158   5.783228   6.135155   4.678494   5.252875
    10  S    6.434630   5.428123   6.267001   5.192132   6.255553
    11  C    8.383058   6.974119   5.898668   4.389658   2.893761
    12  S    9.760502   8.312445   7.456209   5.813783   4.569736
    13  C   11.288430   9.862999   8.829906   7.295754   5.816987
    14  S   12.668041  11.218418  10.346606   8.720626   7.402341
    15  S   14.375784  12.943629  11.926827  10.386613   8.909074
    16  H    1.096939   2.119113   3.659802   4.693633   6.417722
    17  H    1.093565   2.102235   2.952794   4.397369   5.901427
    18  H    1.093396   2.101231   2.977677   4.374857   5.910330
    19  H    2.025549   1.024388   2.271688   2.711652   4.421324
    20  H    3.899367   2.448149   2.341326   1.075447   2.604264
    21  H    5.894400   4.660585   3.331113   2.387377   1.317104
    22  H    7.974100   6.527290   6.097083   4.359984   3.862102
    23  H    7.691749   6.431193   6.734637   5.234666   5.678883
    24  H    7.735170   6.465994   6.745801   5.258901   5.654597
    25  H    5.687052   4.720793   5.625743   4.679966   5.898435
    26  H    8.589540   7.225756   6.050335   4.666277   3.106963
    27  H    8.590093   7.221233   6.026085   4.663739   3.038067
    28  H   11.437356  10.037767   8.932124   7.465023   5.932956
    29  H   11.432661  10.029729   8.911107   7.459735   5.894022
    30  H   15.277820  13.830549  12.917044  11.316698   9.934829
                    6          7          8          9         10
     6  C    0.000000
     7  C    1.367681   0.000000
     8  S    2.772726   1.703264   0.000000
     9  C    4.220390   2.892853   1.771096   0.000000
    10  S    5.652368   4.448778   2.891387   1.829688   0.000000
    11  C    1.579887   2.573455   4.216307   5.421485   7.022030
    12  S    2.848998   3.045513   4.697813   5.341963   7.132731
    13  C    4.364376   4.823932   6.502363   7.152196   8.952483
    14  S    5.752356   5.849861   7.397001   7.636062   9.463996
    15  S    7.437920   7.735876   9.343728   9.670965  11.500009
    16  H    7.548102   7.386751   6.118981   7.031911   6.147241
    17  H    7.330463   7.449069   6.466168   7.677628   7.110442
    18  H    7.305393   7.424323   6.456331   7.660677   7.109011
    19  H    5.415474   5.253193   4.090824   5.243599   4.793799
    20  H    3.221677   3.066652   2.217827   3.804305   4.145538
    21  H    2.485871   3.527120   4.203284   5.891141   6.881828
    22  H    2.112016   1.080114   2.339330   2.871074   4.641456
    23  H    4.481153   3.157235   2.396513   1.090486   2.408453
    24  H    4.477192   3.152399   2.383133   1.089887   2.408193
    25  H    5.518683   4.460741   2.869627   2.394292   1.345481
    26  H    2.202940   3.274811   4.837871   6.091765   7.646198
    27  H    2.198680   3.275926   4.823412   6.091486   7.637111
    28  H    4.632141   5.229561   6.913760   7.660116   9.435244
    29  H    4.629085   5.229071   6.900913   7.657794   9.424679
    30  H    8.347299   8.464669   9.985362  10.090063  11.902589
                   11         12         13         14         15
    11  C    0.000000
    12  S    1.842994   0.000000
    13  C    2.931617   1.825801   0.000000
    14  S    4.532852   2.908957   1.851970   0.000000
    15  S    6.028816   4.701047   3.097617   2.046453   0.000000
    16  H    9.052654  10.304095  11.912325  13.193784  14.974576
    17  H    8.713863  10.154612  11.624130  13.053645  14.712189
    18  H    8.686456  10.129208  11.599088  13.029752  14.687299
    19  H    6.929495   8.139176   9.752388  11.018551  12.800089
    20  H    4.775348   5.937168   7.569758   8.828231  10.614893
    21  H    3.191246   4.892325   5.978975   7.615245   9.015800
    22  H    2.742385   2.495076   4.319512   5.065239   7.034712
    23  H    5.530128   5.253489   7.014578   7.364287   9.395612
    24  H    5.517810   5.222439   6.979903   7.318822   9.352177
    25  H    6.959297   7.284662   9.096649   9.760127  11.765143
    26  H    1.097110   2.432142   3.098618   4.788043   6.085572
    27  H    1.097634   2.427359   3.089332   4.780043   6.078901
    28  H    3.150052   2.438745   1.092567   2.441824   3.246297
    29  H    3.152372   2.440821   1.092671   2.441964   3.249995
    30  H    7.043918   5.518191   4.150655   2.619362   1.346772
                   16         17         18         19         20
    16  H    0.000000
    17  H    1.770416   0.000000
    18  H    1.766569   1.786196   0.000000
    19  H    2.333487   2.441602   2.932504   0.000000
    20  H    4.368121   4.450267   4.395578   2.324539   0.000000
    21  H    6.726571   6.278804   5.935614   5.028370   3.204987
    22  H    8.336588   8.476204   8.446429   6.219882   4.083668
    23  H    7.677808   8.409288   8.195360   6.013222   4.404528
    24  H    7.727019   8.260363   8.431445   5.823459   4.467331
    25  H    5.414069   6.505837   6.210305   4.295731   3.621566
    26  H    9.312985   8.964779   8.758008   7.330265   5.151069
    27  H    9.316556   8.786949   8.938491   7.143810   5.178674
    28  H   12.103709  11.810293  11.647505  10.035883   7.807763
    29  H   12.101273  11.668504  11.780877   9.893646   7.822550
    30  H   15.812728  15.648133  15.623971  13.632379  11.446560
                   21         22         23         24         25
    21  H    0.000000
    22  H    4.425409   0.000000
    23  H    6.119241   2.918392   0.000000
    24  H    6.441196   2.911666   1.795392   0.000000
    25  H    6.311265   4.830598   2.681406   3.321917   0.000000
    26  H    2.938493   3.490916   6.078560   6.325305   7.415797
    27  H    3.532736   3.505158   6.340129   6.072567   7.654949
    28  H    5.854719   4.825970   7.439701   7.623116   9.435227
    29  H    6.177062   4.836527   7.656738   7.409743   9.623932
    30  H   10.082883   7.647503   9.749971   9.701723  12.251721
                   26         27         28         29         30
    26  H    0.000000
    27  H    1.777957   0.000000
    28  H    2.921232   3.418535   0.000000
    29  H    3.429468   2.913704   1.806686   0.000000
    30  H    7.172734   7.166158   4.391273   4.393936   0.000000
 Stoichiometry    C7H15NS7
 Framework group  C1[X(C7H15NS7)]
 Deg. of freedom    84
 Full point group                 C1      NOp   1
 Largest Abelian subgroup         C1      NOp   1
 Largest concise Abelian subgroup C1      NOp   1
                         Standard orientation:                         
 ---------------------------------------------------------------------
 Center     Atomic      Atomic             Coordinates (Angstroms)
 Number     Number       Type             X           Y           Z
 ---------------------------------------------------------------------
      1          6           0        6.882989   -1.311822    0.046545
      2          7           0        5.465778   -0.978175    0.020800
      3         16           0        4.328564   -2.221804   -0.035473
      4          6           0        2.889071   -1.249465    0.030640
      5         16           0        1.300591   -2.037791   -0.078197
      6          6           0       -0.034424   -0.728072    0.023601
      7          6           0        0.192429    0.620662    0.021024
      8         16           0        1.678465    1.451773   -0.024363
      9          6           0        1.479265    3.211458    0.000290
     10         16           0        3.159252    3.935141   -0.040748
     11          6           0       -1.500053   -1.317911    0.031442
     12         16           0       -2.788999   -0.000759    0.012603
     13          6           0       -4.396578   -0.866327    0.007104
     14         16           0       -5.655919    0.491444   -0.010504
     15         16           0       -7.467466   -0.460531   -0.007332
     16          1           0        7.506886   -0.409644    0.056680
     17          1           0        7.151013   -1.894688   -0.839071
     18          1           0        7.119367   -1.885532    0.946821
     19          1           0        5.311381   -0.293371   -0.725240
     20          1           0        3.143765   -0.207628    0.109965
     21          1           0        1.225562   -2.565517    1.126228
     22          1           0       -0.654417    1.290822    0.040605
     23          1           0        0.981694    3.545090    0.911483
     24          1           0        0.936856    3.547359   -0.883348
     25          1           0        3.646011    3.262152    1.017775
     26          1           0       -1.638445   -1.939761    0.924639
     27          1           0       -1.635730   -1.953273   -0.853265
     28          1           0       -4.520408   -1.462507    0.914263
     29          1           0       -4.509867   -1.476326   -0.892339
     30          1           0       -8.272138    0.619342   -0.020463
 ---------------------------------------------------------------------
 Rotational constants (GHZ):           0.4360734           0.0867040           0.0725257
 Standard basis: 6-31G(2df,p) (6D, 7F)
 There are   568 symmetry adapted cartesian basis functions of A   symmetry.
 There are   523 symmetry adapted basis functions of A   symmetry.
   523 basis functions,   933 primitive gaussians,   568 cartesian basis functions
    88 alpha electrons       88 beta electrons
       nuclear repulsion energy      1760.4457898883 Hartrees.
 NAtoms=   30 NActive=   30 NUniq=   30 SFac= 1.00D+00 NAtFMM=   60 NAOKFM=F Big=F
 Integral buffers will be    131072 words long.
 Raffenetti 2 integral format.
 Two-electron integral symmetry is turned on.
 One-electron integrals computed using PRISM.
 PrsmSu:  requested number of processors reduced to:  12 ShMem   1 Linda.
 NBasis=   523 RedAO= T EigKep=  5.52D-04  NBF=   523
 NBsUse=   523 1.00D-06 EigRej= -1.00D+00 NBFU=   523
 ExpMin= 1.17D-01 ExpMax= 2.19D+04 ExpMxC= 3.30D+03 IAcc=3 IRadAn=         5 AccDes= 0.00D+00
 Harris functional with IExCor=  402 and IRadAn=       5 diagonalized for initial guess.
 HarFok:  IExCor=  402 AccDes= 0.00D+00 IRadAn=         5 IDoV= 1 UseB2=F ITyADJ=14
 ICtDFT=  3500011 ScaDFX=  1.000000  1.000000  1.000000  1.000000
 FoFCou: FMM=F IPFlag=           0 FMFlag=      100000 FMFlg1=           0
         NFxFlg=           0 DoJE=T BraDBF=F KetDBF=T FulRan=T
         wScrn=  0.000000 ICntrl=       500 IOpCl=  0 I1Cent=   200000004 NGrid=           0
         NMat0=    1 NMatS0=      1 NMatT0=    0 NMatD0=    1 NMtDS0=    0 NMtDT0=    0
 Petite list used in FoFCou.
 Requested convergence on RMS density matrix=1.00D-08 within 128 cycles.
 Requested convergence on MAX density matrix=1.00D-06.
 Requested convergence on             energy=1.00D-06.
 No special actions if energy rises.
 Integral accuracy reduced to 1.0D-05 until final iterations.
 EnCoef did     5 forward-backward iterations
 Initial convergence to 1.0D-05 achieved.  Increase integral accuracy.
 SCF Done:  E(RB3LYP) =  -3117.63991195     A.U. after   18 cycles
            NFock= 18  Conv=0.60D-08     -V/T= 2.0035

 **********************************************************************

            Population analysis using the SCF density.

 **********************************************************************

 Orbital symmetries:
       Occupied  (A) (A) (A) (A) (A) (A) (A) (A) (A) (A) (A) (A)
                 (A) (A) (A) (A) (A) (A) (A) (A) (A) (A) (A) (A)
                 (A) (A) (A) (A) (A) (A) (A) (A) (A) (A) (A) (A)
                 (A) (A) (A) (A) (A) (A) (A) (A) (A) (A) (A) (A)
                 (A) (A) (A) (A) (A) (A) (A) (A) (A) (A) (A) (A)
                 (A) (A) (A) (A) (A) (A) (A) (A) (A) (A) (A) (A)
                 (A) (A) (A) (A) (A) (A) (A) (A) (A) (A) (A) (A)
                 (A) (A) (A) (A)
       Virtual   (A) (A) (A) (A) (A) (A) (A) (A) (A) (A) (A) (A)
                 (A) (A) (A) (A) (A) (A) (A) (A) (A) (A) (A) (A)
                 (A) (A) (A) (A) (A) (A) (A) (A) (A) (A) (A) (A)
                 (A) (A) (A) (A) (A) (A) (A) (A) (A) (A) (A) (A)
                 (A) (A) (A) (A) (A) (A) (A) (A) (A) (A) (A) (A)
                 (A) (A) (A) (A) (A) (A) (A) (A) (A) (A) (A) (A)
                 (A) (A) (A) (A) (A) (A) (A) (A) (A) (A) (A) (A)
                 (A) (A) (A) (A) (A) (A) (A) (A) (A) (A) (A) (A)
                 (A) (A) (A) (A) (A) (A) (A) (A) (A) (A) (A) (A)
                 (A) (A) (A) (A) (A) (A) (A) (A) (A) (A) (A) (A)
                 (A) (A) (A) (A) (A) (A) (A) (A) (A) (A) (A) (A)
                 (A) (A) (A) (A) (A) (A) (A) (A) (A) (A) (A) (A)
                 (A) (A) (A) (A) (A) (A) (A) (A) (A) (A) (A) (A)
                 (A) (A) (A) (A) (A) (A) (A) (A) (A) (A) (A) (A)
                 (A) (A) (A) (A) (A) (A) (A) (A) (A) (A) (A) (A)
                 (A) (A) (A) (A) (A) (A) (A) (A) (A) (A) (A) (A)
                 (A) (A) (A) (A) (A) (A) (A) (A) (A) (A) (A) (A)
                 (A) (A) (A) (A) (A) (A) (A) (A) (A) (A) (A) (A)
                 (A) (A) (A) (A) (A) (A) (A) (A) (A) (A) (A) (A)
                 (A) (A) (A) (A) (A) (A) (A) (A) (A) (A) (A) (A)
                 (A) (A) (A) (A) (A) (A) (A) (A) (A) (A) (A) (A)
                 (A) (A) (A) (A) (A) (A) (A) (A) (A) (A) (A) (A)
                 (A) (A) (A) (A) (A) (A) (A) (A) (A) (A) (A) (A)
                 (A) (A) (A) (A) (A) (A) (A) (A) (A) (A) (A) (A)
                 (A) (A) (A) (A) (A) (A) (A) (A) (A) (A) (A) (A)
                 (A) (A) (A) (A) (A) (A) (A) (A) (A) (A) (A) (A)
                 (A) (A) (A) (A) (A) (A) (A) (A) (A) (A) (A) (A)
                 (A) (A) (A) (A) (A) (A) (A) (A) (A) (A) (A) (A)
                 (A) (A) (A) (A) (A) (A) (A) (A) (A) (A) (A) (A)
                 (A) (A) (A) (A) (A) (A) (A) (A) (A) (A) (A) (A)
                 (A) (A) (A) (A) (A) (A) (A) (A) (A) (A) (A) (A)
                 (A) (A) (A) (A) (A) (A) (A) (A) (A) (A) (A) (A)
                 (A) (A) (A) (A) (A) (A) (A) (A) (A) (A) (A) (A)
                 (A) (A) (A) (A) (A) (A) (A) (A) (A) (A) (A) (A)
                 (A) (A) (A) (A) (A) (A) (A) (A) (A) (A) (A) (A)
                 (A) (A) (A) (A) (A) (A) (A) (A) (A) (A) (A) (A)
                 (A) (A) (A)
 The electronic state is 1-A.
 Alpha  occ. eigenvalues --  -88.97157 -88.90775 -88.90313 -88.90239 -88.90125
 Alpha  occ. eigenvalues --  -88.89708 -88.86400 -14.31647 -10.27149 -10.26518
 Alpha  occ. eigenvalues --  -10.26368 -10.26084 -10.25059 -10.19712 -10.15717
 Alpha  occ. eigenvalues --   -8.02464  -7.97150  -7.97041  -7.96719  -7.96442
 Alpha  occ. eigenvalues --   -7.96323  -7.92255  -5.98847  -5.98689  -5.98268
 Alpha  occ. eigenvalues --   -5.93696  -5.93528  -5.93325  -5.93182  -5.93167
 Alpha  occ. eigenvalues --   -5.92965  -5.92791  -5.92747  -5.92590  -5.92514
 Alpha  occ. eigenvalues --   -5.92446  -5.92433  -5.92308  -5.91900  -5.91806
 Alpha  occ. eigenvalues --   -5.88865  -5.88414  -5.87734  -0.89467  -0.87376
 Alpha  occ. eigenvalues --   -0.84853  -0.83834  -0.80557  -0.78814  -0.75538
 Alpha  occ. eigenvalues --   -0.72322  -0.70533  -0.66653  -0.63831  -0.63028
 Alpha  occ. eigenvalues --   -0.61286  -0.56386  -0.56126  -0.50295  -0.48646
 Alpha  occ. eigenvalues --   -0.48376  -0.47944  -0.46971  -0.46222  -0.45835
 Alpha  occ. eigenvalues --   -0.44986  -0.43202  -0.42752  -0.42489  -0.42024
 Alpha  occ. eigenvalues --   -0.40587  -0.38627  -0.36840  -0.36376  -0.35733
 Alpha  occ. eigenvalues --   -0.34176  -0.33687  -0.33085  -0.32362  -0.32354
 Alpha  occ. eigenvalues --   -0.29551  -0.27277  -0.26393  -0.25202  -0.23444
 Alpha  occ. eigenvalues --   -0.21636  -0.19428  -0.10376
 Alpha virt. eigenvalues --   -0.05280  -0.03490  -0.02268  -0.01120  -0.00559
 Alpha virt. eigenvalues --    0.01284   0.01805   0.02714   0.04134   0.04722
 Alpha virt. eigenvalues --    0.05425   0.06514   0.07722   0.08198   0.08354
 Alpha virt. eigenvalues --    0.09864   0.11806   0.11909   0.12131   0.12842
 Alpha virt. eigenvalues --    0.13130   0.13711   0.14709   0.16448   0.17738
 Alpha virt. eigenvalues --    0.18756   0.19418   0.20379   0.20865   0.21497
 Alpha virt. eigenvalues --    0.22962   0.24186   0.24332   0.24647   0.25917
 Alpha virt. eigenvalues --    0.26927   0.27161   0.27761   0.28204   0.29150
 Alpha virt. eigenvalues --    0.30564   0.30834   0.31250   0.31590   0.32172
 Alpha virt. eigenvalues --    0.32532   0.33195   0.33283   0.33890   0.34268
 Alpha virt. eigenvalues --    0.34598   0.35006   0.35430   0.35760   0.36190
 Alpha virt. eigenvalues --    0.36443   0.37097   0.37570   0.38444   0.39075
 Alpha virt. eigenvalues --    0.39564   0.41086   0.41226   0.41398   0.42076
 Alpha virt. eigenvalues --    0.42737   0.43767   0.44226   0.45938   0.46219
 Alpha virt. eigenvalues --    0.46365   0.47005   0.49242   0.49834   0.50993
 Alpha virt. eigenvalues --    0.51936   0.52607   0.53479   0.54757   0.54996
 Alpha virt. eigenvalues --    0.55239   0.55506   0.56986   0.57437   0.57814
 Alpha virt. eigenvalues --    0.58282   0.60916   0.62410   0.62605   0.62812
 Alpha virt. eigenvalues --    0.63360   0.63449   0.64594   0.65711   0.66853
 Alpha virt. eigenvalues --    0.67571   0.69218   0.69967   0.70044   0.70905
 Alpha virt. eigenvalues --    0.71145   0.72401   0.72508   0.73292   0.74536
 Alpha virt. eigenvalues --    0.74600   0.75443   0.75718   0.76270   0.77488
 Alpha virt. eigenvalues --    0.77641   0.78502   0.78875   0.79542   0.79991
 Alpha virt. eigenvalues --    0.81337   0.82632   0.83695   0.85613   0.86091
 Alpha virt. eigenvalues --    0.86158   0.86238   0.87198   0.87516   0.88270
 Alpha virt. eigenvalues --    0.89678   0.91567   0.93016   0.94136   0.94652
 Alpha virt. eigenvalues --    0.95274   0.96162   0.96638   0.97421   0.98683
 Alpha virt. eigenvalues --    1.00435   1.00928   1.02764   1.03476   1.04692
 Alpha virt. eigenvalues --    1.04979   1.07817   1.09851   1.10637   1.12828
 Alpha virt. eigenvalues --    1.13962   1.15413   1.16753   1.17519   1.20629
 Alpha virt. eigenvalues --    1.23687   1.24660   1.25168   1.26134   1.28848
 Alpha virt. eigenvalues --    1.30451   1.31142   1.32303   1.33641   1.34535
 Alpha virt. eigenvalues --    1.35860   1.38148   1.38494   1.39798   1.41832
 Alpha virt. eigenvalues --    1.43104   1.43266   1.43405   1.45233   1.45791
 Alpha virt. eigenvalues --    1.47623   1.48081   1.49441   1.49478   1.50430
 Alpha virt. eigenvalues --    1.50912   1.51989   1.53291   1.53554   1.54911
 Alpha virt. eigenvalues --    1.57186   1.57518   1.57911   1.60381   1.61458
 Alpha virt. eigenvalues --    1.61856   1.63928   1.64375   1.65364   1.65783
 Alpha virt. eigenvalues --    1.66825   1.67507   1.68562   1.69000   1.70295
 Alpha virt. eigenvalues --    1.71060   1.71569   1.71787   1.72196   1.73616
 Alpha virt. eigenvalues --    1.74326   1.76233   1.77197   1.78344   1.78852
 Alpha virt. eigenvalues --    1.80041   1.80698   1.81761   1.82868   1.83539
 Alpha virt. eigenvalues --    1.83774   1.84550   1.85202   1.85714   1.86939
 Alpha virt. eigenvalues --    1.87552   1.88205   1.89390   1.90213   1.90462
 Alpha virt. eigenvalues --    1.91457   1.93588   1.93837   1.94131   1.95550
 Alpha virt. eigenvalues --    1.95604   1.96266   1.98621   1.99430   2.00700
 Alpha virt. eigenvalues --    2.03173   2.04253   2.04779   2.07091   2.08752
 Alpha virt. eigenvalues --    2.09229   2.10612   2.11673   2.13030   2.13727
 Alpha virt. eigenvalues --    2.15163   2.17119   2.18990   2.19504   2.19984
 Alpha virt. eigenvalues --    2.20758   2.22235   2.24483   2.26181   2.27404
 Alpha virt. eigenvalues --    2.27914   2.29143   2.29334   2.30848   2.31378
 Alpha virt. eigenvalues --    2.31907   2.32141   2.32774   2.34313   2.35100
 Alpha virt. eigenvalues --    2.36387   2.37144   2.37325   2.38094   2.38829
 Alpha virt. eigenvalues --    2.39137   2.41483   2.42223   2.43812   2.44620
 Alpha virt. eigenvalues --    2.45909   2.47121   2.47938   2.48462   2.49551
 Alpha virt. eigenvalues --    2.50388   2.50790   2.51885   2.54037   2.54367
 Alpha virt. eigenvalues --    2.55377   2.60266   2.61086   2.61567   2.62738
 Alpha virt. eigenvalues --    2.63745   2.64437   2.65987   2.69503   2.70489
 Alpha virt. eigenvalues --    2.70934   2.73323   2.75220   2.76648   2.77792
 Alpha virt. eigenvalues --    2.78693   2.81156   2.81833   2.82002   2.82956
 Alpha virt. eigenvalues --    2.83287   2.84348   2.85037   2.85939   2.87561
 Alpha virt. eigenvalues --    2.88916   2.90114   2.91800   2.93519   2.95553
 Alpha virt. eigenvalues --    2.96164   2.97945   2.99178   3.01559   3.04681
 Alpha virt. eigenvalues --    3.07121   3.09359   3.11356   3.13293   3.14430
 Alpha virt. eigenvalues --    3.16063   3.16345   3.17975   3.20538   3.22539
 Alpha virt. eigenvalues --    3.23356   3.29751   3.30584   3.32851   3.33754
 Alpha virt. eigenvalues --    3.36307   3.36885   3.37251   3.38996   3.39794
 Alpha virt. eigenvalues --    3.40685   3.41561   3.44824   3.46619   3.47462
 Alpha virt. eigenvalues --    3.47968   3.50195   3.51978   3.52943   3.55136
 Alpha virt. eigenvalues --    3.55391   3.56282   3.57163   3.58497   3.59327
 Alpha virt. eigenvalues --    3.61110   3.63898   3.64560   3.65806   3.66689
 Alpha virt. eigenvalues --    3.70838   3.75418   3.79536   3.81480   3.83482
 Alpha virt. eigenvalues --    3.85259   3.86078   3.86472   3.88791   3.89663
 Alpha virt. eigenvalues --    3.91520   3.99077   4.00670   4.07060   4.09169
 Alpha virt. eigenvalues --    4.11634   4.15758   4.19297   4.23059   4.25553
 Alpha virt. eigenvalues --    4.28811   4.30622   4.33183   4.34951   4.35531
 Alpha virt. eigenvalues --    4.36594   4.38543   4.42771   4.43044   4.44624
 Alpha virt. eigenvalues --    4.44818   4.46831   4.47141   4.50473   4.52939
 Alpha virt. eigenvalues --    4.53174   4.53876   4.57394   4.58733   4.59174
 Alpha virt. eigenvalues --    4.59729   4.62594   4.62821   4.65248   4.69625
 Alpha virt. eigenvalues --    4.69994   4.71363   4.72679   4.73565   4.75549
 Alpha virt. eigenvalues --    4.76442   4.76639   4.78510   4.79186   4.83855
 Alpha virt. eigenvalues --    4.86166   4.89292   4.92038   4.93280   4.95670
 Alpha virt. eigenvalues --    4.96903   5.01631   5.04027   5.05739   5.11795
 Alpha virt. eigenvalues --    5.12835   5.15678   5.39286   5.42166   5.51353
 Alpha virt. eigenvalues --    5.60040  10.01864  10.52757  11.33107  11.42437
 Alpha virt. eigenvalues --   11.44977  11.54741  11.69445  12.09566  12.49725
          Condensed to atoms (all electrons):
               1          2          3          4          5          6
     1  C    4.898914   0.383838  -0.062854   0.002196  -0.000134   0.000000
     2  N    0.383838   6.428566   0.268718  -0.033288   0.001859   0.000003
     3  S   -0.062854   0.268718  15.795632   0.244325  -0.063647   0.000645
     4  C    0.002196  -0.033288   0.244325   5.399413   0.445627  -0.001565
     5  S   -0.000134   0.001859  -0.063647   0.445627  15.400562   0.305153
     6  C    0.000000   0.000003   0.000645  -0.001565   0.305153   4.774781
     7  C   -0.000000   0.000009   0.000407  -0.005815  -0.035463   0.694845
     8  S   -0.000001  -0.000879   0.000138  -0.011892  -0.007191  -0.044830
     9  C    0.000000  -0.000003  -0.000034   0.000572   0.000080   0.001628
    10  S   -0.000001  -0.000017  -0.000019   0.000019  -0.000015  -0.000009
    11  C   -0.000000   0.000000  -0.000039   0.000872  -0.052820   0.372245
    12  S    0.000000  -0.000000   0.000001  -0.000031   0.002198  -0.029429
    13  C   -0.000000  -0.000000  -0.000000   0.000000  -0.000028   0.000839
    14  S    0.000000  -0.000000   0.000000  -0.000000   0.000001  -0.000019
    15  S    0.000000  -0.000000  -0.000000   0.000000  -0.000000   0.000000
    16  H    0.380188  -0.021427   0.003985  -0.000045   0.000000  -0.000000
    17  H    0.371899  -0.041173   0.004344  -0.000281   0.000020   0.000000
    18  H    0.374342  -0.029564   0.006229   0.000108  -0.000009  -0.000000
    19  H   -0.043826   0.307432  -0.064598   0.012341   0.000024  -0.000005
    20  H   -0.000029   0.021044  -0.038256   0.356506  -0.037403   0.000826
    21  H    0.000000  -0.000136   0.013289  -0.086426  -0.027450  -0.035564
    22  H   -0.000000   0.000000   0.000007  -0.000184   0.005883  -0.032379
    23  H   -0.000000  -0.000000   0.000000  -0.000010  -0.000001   0.000015
    24  H    0.000000  -0.000000   0.000001  -0.000008   0.000016   0.000018
    25  H    0.000000   0.000009   0.000005  -0.000033   0.000000  -0.000003
    26  H    0.000000  -0.000000   0.000004  -0.000025  -0.004756  -0.028453
    27  H   -0.000000   0.000000   0.000000  -0.000000   0.003118  -0.024149
    28  H   -0.000000  -0.000000   0.000000   0.000000   0.000001   0.000014
    29  H   -0.000000   0.000000   0.000000   0.000000   0.000000   0.000014
    30  H    0.000000   0.000000   0.000000  -0.000000   0.000000  -0.000000
               7          8          9         10         11         12
     1  C   -0.000000  -0.000001   0.000000  -0.000001  -0.000000   0.000000
     2  N    0.000009  -0.000879  -0.000003  -0.000017   0.000000  -0.000000
     3  S    0.000407   0.000138  -0.000034  -0.000019  -0.000039   0.000001
     4  C   -0.005815  -0.011892   0.000572   0.000019   0.000872  -0.000031
     5  S   -0.035463  -0.007191   0.000080  -0.000015  -0.052820   0.002198
     6  C    0.694845  -0.044830   0.001628  -0.000009   0.372245  -0.029429
     7  C    4.794478   0.342525  -0.001849   0.002119  -0.035466  -0.002769
     8  S    0.342525  15.649251   0.253529  -0.061078   0.005526  -0.000068
     9  C   -0.001849   0.253529   4.970219   0.303552  -0.000011  -0.000013
    10  S    0.002119  -0.061078   0.303552  15.756728   0.000002  -0.000001
    11  C   -0.035466   0.005526  -0.000011   0.000002   5.022454   0.281749
    12  S   -0.002769  -0.000068  -0.000013  -0.000001   0.281749  15.751796
    13  C    0.000083  -0.000006  -0.000000  -0.000000  -0.007458   0.286886
    14  S   -0.000002  -0.000000   0.000000  -0.000000   0.001134  -0.039422
    15  S    0.000000   0.000000   0.000000  -0.000000  -0.000028   0.001866
    16  H   -0.000000   0.000000   0.000000   0.000001   0.000000  -0.000000
    17  H    0.000000  -0.000003  -0.000000  -0.000000   0.000000   0.000000
    18  H   -0.000000   0.000001   0.000000   0.000000   0.000000  -0.000000
    19  H   -0.000013   0.000852   0.000013   0.000149   0.000000  -0.000000
    20  H   -0.000896  -0.014790   0.000191   0.000268   0.000022   0.000000
    21  H   -0.001747   0.002353   0.000007  -0.000000   0.000847  -0.000212
    22  H    0.356081  -0.045013  -0.006938  -0.000111  -0.017357   0.008950
    23  H   -0.000924  -0.044035   0.372651  -0.040245  -0.000002  -0.000007
    24  H   -0.001731  -0.036733   0.370713  -0.034561  -0.000001   0.000005
    25  H    0.000013   0.003882  -0.011235   0.284865   0.000000  -0.000000
    26  H   -0.000187   0.000034   0.000001  -0.000000   0.365393  -0.048987
    27  H   -0.000158  -0.000003   0.000000  -0.000000   0.364094  -0.045653
    28  H    0.000001   0.000000   0.000000  -0.000000  -0.000965  -0.043159
    29  H   -0.000000   0.000000   0.000000  -0.000000  -0.000924  -0.042883
    30  H   -0.000000   0.000000  -0.000000  -0.000000   0.000000  -0.000032
              13         14         15         16         17         18
     1  C   -0.000000   0.000000   0.000000   0.380188   0.371899   0.374342
     2  N   -0.000000  -0.000000  -0.000000  -0.021427  -0.041173  -0.029564
     3  S   -0.000000   0.000000  -0.000000   0.003985   0.004344   0.006229
     4  C    0.000000  -0.000000   0.000000  -0.000045  -0.000281   0.000108
     5  S   -0.000028   0.000001  -0.000000   0.000000   0.000020  -0.000009
     6  C    0.000839  -0.000019   0.000000  -0.000000   0.000000  -0.000000
     7  C    0.000083  -0.000002   0.000000  -0.000000   0.000000  -0.000000
     8  S   -0.000006  -0.000000   0.000000   0.000000  -0.000003   0.000001
     9  C   -0.000000   0.000000   0.000000   0.000000  -0.000000   0.000000
    10  S   -0.000000  -0.000000  -0.000000   0.000001  -0.000000   0.000000
    11  C   -0.007458   0.001134  -0.000028   0.000000   0.000000   0.000000
    12  S    0.286886  -0.039422   0.001866  -0.000000   0.000000  -0.000000
    13  C    4.936692   0.286696  -0.007387   0.000000  -0.000000   0.000000
    14  S    0.286696  15.802655   0.091904  -0.000000  -0.000000   0.000000
    15  S   -0.007387   0.091904  15.838010   0.000000   0.000000   0.000000
    16  H    0.000000  -0.000000   0.000000   0.589001  -0.042442  -0.028482
    17  H   -0.000000  -0.000000   0.000000  -0.042442   0.650219  -0.045414
    18  H    0.000000   0.000000   0.000000  -0.028482  -0.045414   0.583128
    19  H    0.000000   0.000000   0.000000  -0.003329  -0.006989   0.007377
    20  H   -0.000000  -0.000000  -0.000000  -0.000052   0.000166  -0.000073
    21  H    0.000001  -0.000000   0.000000   0.000000  -0.000000   0.000001
    22  H   -0.000086   0.000010  -0.000000  -0.000000   0.000000  -0.000000
    23  H    0.000000  -0.000000  -0.000000   0.000000  -0.000000  -0.000000
    24  H    0.000000   0.000000   0.000000  -0.000000  -0.000000   0.000000
    25  H    0.000000  -0.000000  -0.000000  -0.000000   0.000000  -0.000000
    26  H   -0.000740  -0.000045   0.000003   0.000000  -0.000000   0.000000
    27  H   -0.001232  -0.000027   0.000002   0.000000   0.000000  -0.000000
    28  H    0.373566  -0.044849   0.002768   0.000000  -0.000000   0.000000
    29  H    0.373720  -0.044970   0.002767   0.000000   0.000000  -0.000000
    30  H    0.000736  -0.007592   0.284973   0.000000   0.000000   0.000000
              19         20         21         22         23         24
     1  C   -0.043826  -0.000029   0.000000  -0.000000  -0.000000   0.000000
     2  N    0.307432   0.021044  -0.000136   0.000000  -0.000000  -0.000000
     3  S   -0.064598  -0.038256   0.013289   0.000007   0.000000   0.000001
     4  C    0.012341   0.356506  -0.086426  -0.000184  -0.000010  -0.000008
     5  S    0.000024  -0.037403  -0.027450   0.005883  -0.000001   0.000016
     6  C   -0.000005   0.000826  -0.035564  -0.032379   0.000015   0.000018
     7  C   -0.000013  -0.000896  -0.001747   0.356081  -0.000924  -0.001731
     8  S    0.000852  -0.014790   0.002353  -0.045013  -0.044035  -0.036733
     9  C    0.000013   0.000191   0.000007  -0.006938   0.372651   0.370713
    10  S    0.000149   0.000268  -0.000000  -0.000111  -0.040245  -0.034561
    11  C    0.000000   0.000022   0.000847  -0.017357  -0.000002  -0.000001
    12  S   -0.000000   0.000000  -0.000212   0.008950  -0.000007   0.000005
    13  C    0.000000  -0.000000   0.000001  -0.000086   0.000000   0.000000
    14  S    0.000000  -0.000000  -0.000000   0.000010  -0.000000   0.000000
    15  S    0.000000  -0.000000   0.000000  -0.000000  -0.000000   0.000000
    16  H   -0.003329  -0.000052   0.000000  -0.000000   0.000000  -0.000000
    17  H   -0.006989   0.000166  -0.000000   0.000000  -0.000000  -0.000000
    18  H    0.007377  -0.000073   0.000001  -0.000000  -0.000000   0.000000
    19  H    0.569471  -0.004401   0.000071  -0.000000   0.000000  -0.000000
    20  H   -0.004401   0.557125  -0.004124   0.000007  -0.000007  -0.000021
    21  H    0.000071  -0.004124   1.038831  -0.000090  -0.000001   0.000000
    22  H   -0.000000   0.000007  -0.000090   0.565499   0.002145   0.001908
    23  H    0.000000  -0.000007  -0.000001   0.002145   0.584326  -0.035713
    24  H   -0.000000  -0.000021   0.000000   0.001908  -0.035713   0.565040
    25  H   -0.000013   0.000024   0.000000   0.000006  -0.003468   0.002729
    26  H    0.000000  -0.000005   0.005784   0.000225  -0.000000   0.000000
    27  H   -0.000000   0.000001  -0.000995   0.000253   0.000000  -0.000000
    28  H    0.000000  -0.000000  -0.000000   0.000002  -0.000000   0.000000
    29  H    0.000000  -0.000000   0.000000   0.000004   0.000000  -0.000000
    30  H    0.000000   0.000000  -0.000000  -0.000000   0.000000  -0.000000
              25         26         27         28         29         30
     1  C    0.000000   0.000000  -0.000000  -0.000000  -0.000000   0.000000
     2  N    0.000009  -0.000000   0.000000  -0.000000   0.000000   0.000000
     3  S    0.000005   0.000004   0.000000   0.000000   0.000000   0.000000
     4  C   -0.000033  -0.000025  -0.000000   0.000000   0.000000  -0.000000
     5  S    0.000000  -0.004756   0.003118   0.000001   0.000000   0.000000
     6  C   -0.000003  -0.028453  -0.024149   0.000014   0.000014  -0.000000
     7  C    0.000013  -0.000187  -0.000158   0.000001  -0.000000  -0.000000
     8  S    0.003882   0.000034  -0.000003   0.000000   0.000000   0.000000
     9  C   -0.011235   0.000001   0.000000   0.000000   0.000000  -0.000000
    10  S    0.284865  -0.000000  -0.000000  -0.000000  -0.000000  -0.000000
    11  C    0.000000   0.365393   0.364094  -0.000965  -0.000924   0.000000
    12  S   -0.000000  -0.048987  -0.045653  -0.043159  -0.042883  -0.000032
    13  C    0.000000  -0.000740  -0.001232   0.373566   0.373720   0.000736
    14  S   -0.000000  -0.000045  -0.000027  -0.044849  -0.044970  -0.007592
    15  S   -0.000000   0.000003   0.000002   0.002768   0.002767   0.284973
    16  H   -0.000000   0.000000   0.000000   0.000000   0.000000   0.000000
    17  H    0.000000  -0.000000   0.000000  -0.000000   0.000000   0.000000
    18  H   -0.000000   0.000000  -0.000000   0.000000  -0.000000   0.000000
    19  H   -0.000013   0.000000  -0.000000   0.000000   0.000000   0.000000
    20  H    0.000024  -0.000005   0.000001  -0.000000  -0.000000   0.000000
    21  H    0.000000   0.005784  -0.000995  -0.000000   0.000000  -0.000000
    22  H    0.000006   0.000225   0.000253   0.000002   0.000004  -0.000000
    23  H   -0.003468  -0.000000   0.000000  -0.000000   0.000000   0.000000
    24  H    0.002729   0.000000  -0.000000   0.000000  -0.000000  -0.000000
    25  H    0.539767   0.000000  -0.000000  -0.000000  -0.000000  -0.000000
    26  H    0.000000   0.605230  -0.046500   0.003378  -0.000455  -0.000000
    27  H   -0.000000  -0.046500   0.590359  -0.000469   0.003378   0.000000
    28  H   -0.000000   0.003378  -0.000469   0.589761  -0.043862  -0.000018
    29  H   -0.000000  -0.000455   0.003378  -0.043862   0.588790  -0.000018
    30  H   -0.000000  -0.000000   0.000000  -0.000018  -0.000018   0.533100
 Mulliken charges:
               1
     1  C   -0.304534
     2  N   -0.284992
     3  S   -0.108282
     4  C   -0.322375
     5  S    0.064374
     6  C    0.045380
     7  C   -0.103541
     8  S    0.008430
     9  C   -0.253074
    10  S   -0.211644
    11  C   -0.299267
    12  S   -0.080784
    13  C   -0.242283
    14  S   -0.045472
    15  S   -0.214878
    16  H    0.122602
    17  H    0.109653
    18  H    0.132355
    19  H    0.225445
    20  H    0.163875
    21  H    0.095562
    22  H    0.161178
    23  H    0.165275
    24  H    0.168340
    25  H    0.183453
    26  H    0.150103
    27  H    0.157981
    28  H    0.163830
    29  H    0.164440
    30  H    0.188851
 Sum of Mulliken charges =  -0.00000
 Mulliken charges with hydrogens summed into heavy atoms:
               1
     1  C    0.060077
     2  N   -0.059547
     3  S   -0.108282
     4  C   -0.158500
     5  S    0.159936
     6  C    0.045380
     7  C    0.057637
     8  S    0.008430
     9  C    0.080541
    10  S   -0.028191
    11  C    0.008816
    12  S   -0.080784
    13  C    0.085987
    14  S   -0.045472
    15  S   -0.026027
 Electronic spatial extent (au):  <R**2>=          13495.6876
 Charge=             -0.0000 electrons
 Dipole moment (field-independent basis, Debye):
    X=             -3.7182    Y=              1.4395    Z=              0.4970  Tot=              4.0180
 Quadrupole moment (field-independent basis, Debye-Ang):
   XX=           -140.5575   YY=           -139.2363   ZZ=           -146.6560
   XY=             11.2291   XZ=              0.3743   YZ=             -0.4713
 Traceless Quadrupole moment (field-independent basis, Debye-Ang):
   XX=              1.5924   YY=              2.9136   ZZ=             -4.5060
   XY=             11.2291   XZ=              0.3743   YZ=             -0.4713
 Octapole moment (field-independent basis, Debye-Ang**2):
  XXX=            -55.7927  YYY=              0.5102  ZZZ=              1.1174  XYY=            -48.3324
  XXY=             66.1468  XXZ=             -4.3649  XZZ=              9.8798  YZZ=              5.2857
  YYZ=              8.0574  XYZ=              5.3689
 Hexadecapole moment (field-independent basis, Debye-Ang**3):
 XXXX=         -13063.0179 YYYY=          -3228.6302 ZZZZ=           -219.2493 XXXY=           -231.2641
 XXXZ=            -16.4056 YYYX=              0.4800 YYYZ=            -29.8899 ZZZX=              3.9356
 ZZZY=              0.9743 XXYY=          -3090.1225 XXZZ=          -2664.5578 YYZZ=           -541.5792
 XXYZ=             23.3420 YYXZ=             35.7796 ZZXY=             33.3433
 N-N= 1.760445789888D+03 E-N=-1.090974800080D+04  KE= 3.106794334401D+03
 PrsmSu:  requested number of processors reduced to:  13 ShMem   1 Linda.
 Calling FoFJK, ICntrl=      2127 FMM=F ISym2X=0 I1Cent= 0 IOpClX= 0 NMat=1 NMatS=1 NMatT=0.
 ***** Axes restored to original set *****
 -------------------------------------------------------------------
 Center     Atomic                   Forces (Hartrees/Bohr)
 Number     Number              X              Y              Z
 -------------------------------------------------------------------
      1        6           0.000535467    0.010058056   -0.007117767
      2        7           0.013333559   -0.042758892    0.021791065
      3       16          -0.022799494    0.033600266   -0.027260829
      4        6           0.025770948    0.006671330   -0.018979987
      5       16          -0.023858841   -0.074320120    0.003154798
      6        6           0.015543151    0.000003735    0.003827316
      7        6           0.003103006    0.021891328   -0.010966921
      8       16          -0.041502381   -0.002696150   -0.002666943
      9        6           0.020099733   -0.002851725    0.010423772
     10       16           0.002675107   -0.002974123   -0.004622654
     11        6          -0.019535058   -0.005945872    0.000757882
     12       16           0.001702265   -0.012534238    0.007168894
     13        6           0.003890346    0.010863235   -0.005758120
     14       16          -0.015114381   -0.033890619    0.018720927
     15       16           0.006565258    0.032946855   -0.018167074
     16        1           0.006728737    0.001412654   -0.000339919
     17        1          -0.009801639    0.000132366   -0.001794860
     18        1          -0.000793790    0.001892694   -0.001021331
     19        1          -0.002263091    0.006470694   -0.004480730
     20        1           0.011827760    0.017330884    0.008048411
     21        1           0.019185242    0.041353286    0.025915814
     22        1           0.006109349    0.004359869   -0.003282273
     23        1           0.003883495   -0.000961970   -0.001526245
     24        1           0.001245052   -0.005570927    0.002949503
     25        1           0.001012593    0.001551054    0.000759290
     26        1          -0.000512010   -0.000852827   -0.000279591
     27        1          -0.000770841    0.000071081    0.001832392
     28        1          -0.000675420    0.000393815   -0.001597599
     29        1          -0.000819609    0.001384591    0.000631660
     30        1          -0.004764512   -0.007030331    0.003881121
 -------------------------------------------------------------------
 Cartesian Forces:  Max     0.074320120 RMS     0.016000441

 GradGradGradGradGradGradGradGradGradGradGradGradGradGradGradGradGradGrad
 Berny optimization.
 FormGI is forming the generalized inverse of G from B-inverse, IUseBI=4.
 Internal  Forces:  Max     0.056380790 RMS     0.015667660
 Search for a local minimum.
 Step number   1 out of a maximum of  130
 All quantities printed in internal units (Hartrees-Bohrs-Radians)
 Mixed Optimization -- RFO/linear search
 Second derivative matrix not updated -- first step.
 ITU=  0
     Eigenvalues ---    0.00230   0.00230   0.00230   0.00230   0.00230
     Eigenvalues ---    0.00230   0.00679   0.00683   0.00753   0.00807
     Eigenvalues ---    0.00949   0.00981   0.01185   0.01480   0.01650
     Eigenvalues ---    0.02248   0.02516   0.02966   0.05122   0.05616
     Eigenvalues ---    0.07069   0.07388   0.07440   0.08221   0.08427
     Eigenvalues ---    0.09363   0.09377   0.10981   0.11016   0.11408
     Eigenvalues ---    0.11450   0.13886   0.13970   0.14011   0.14085
     Eigenvalues ---    0.15997   0.16000   0.16000   0.16000   0.16000
     Eigenvalues ---    0.16000   0.16000   0.21119   0.22000   0.22001
     Eigenvalues ---    0.22109   0.22205   0.22221   0.22416   0.23003
     Eigenvalues ---    0.23194   0.23911   0.24185   0.24479   0.24955
     Eigenvalues ---    0.24977   0.25000   0.25000   0.25000   0.25000
     Eigenvalues ---    0.25259   0.25888   0.25989   0.28044   0.28342
     Eigenvalues ---    0.28533   0.29770   0.31641   0.33945   0.34004
     Eigenvalues ---    0.34023   0.34404   0.34423   0.34506   0.34518
     Eigenvalues ---    0.34757   0.34826   0.35500   0.35981   0.36550
     Eigenvalues ---    0.37446   0.37613   0.43645   0.51425
 RFO step:  Lambda=-9.39185473D-02 EMin= 2.30000000D-03
 Linear search not attempted -- first point.
 Maximum step size (   0.300) exceeded in Quadratic search.
    -- Step size scaled by   0.592
 Iteration  1 RMS(Cart)=  0.36534349 RMS(Int)=  0.01124254
 Iteration  2 RMS(Cart)=  0.08710015 RMS(Int)=  0.00083224
 Iteration  3 RMS(Cart)=  0.00201119 RMS(Int)=  0.00049966
 Iteration  4 RMS(Cart)=  0.00000074 RMS(Int)=  0.00049966
 Variable       Old X    -DE/DX   Delta X   Delta X   Delta X     New X
                                 (Linear)    (Quad)   (Total)
    R1        2.75179  -0.00059   0.00000  -0.00075  -0.00075   2.75104
    R2        2.07291  -0.00235   0.00000  -0.00321  -0.00321   2.06971
    R3        2.06654   0.00600   0.00000   0.00811   0.00811   2.07465
    R4        2.06622   0.00118   0.00000   0.00159   0.00159   2.06781
    R5        3.18632   0.02010   0.00000   0.02530   0.02530   3.21162
    R6        1.93581  -0.00462   0.00000  -0.00515  -0.00515   1.93066
    R7        3.28506   0.01804   0.00000   0.02601   0.02601   3.31107
    R8        3.35743  -0.05044   0.00000  -0.07972  -0.07972   3.27771
    R9        2.03230  -0.00714   0.00000  -0.00920  -0.00920   2.02310
   R10        3.53939  -0.01608   0.00000  -0.03118  -0.03118   3.50820
   R11        2.48897   0.04556   0.00000   0.07144   0.07144   2.56041
   R12        2.58454  -0.01580   0.00000  -0.01537  -0.01537   2.56917
   R13        2.98555  -0.03212   0.00000  -0.05484  -0.05484   2.93071
   R14        3.21870   0.01903   0.00000   0.02508   0.02508   3.24378
   R15        2.04112   0.00483   0.00000   0.00630   0.00630   2.04742
   R16        3.34689   0.02690   0.00000   0.04197   0.04197   3.38886
   R17        3.45761  -0.00277   0.00000  -0.00492  -0.00492   3.45269
   R18        2.06072   0.00059   0.00000   0.00079   0.00079   2.06151
   R19        2.05959   0.00120   0.00000   0.00161   0.00161   2.06120
   R20        2.54259   0.00084   0.00000   0.00140   0.00140   2.54399
   R21        3.48275  -0.00565   0.00000  -0.01033  -0.01033   3.47243
   R22        2.07324  -0.00081   0.00000  -0.00110  -0.00110   2.07214
   R23        2.07423  -0.00169   0.00000  -0.00230  -0.00230   2.07192
   R24        3.45026  -0.00208   0.00000  -0.00366  -0.00366   3.44660
   R25        3.49972  -0.00921   0.00000  -0.01713  -0.01713   3.48259
   R26        2.06465  -0.00029   0.00000  -0.00039  -0.00039   2.06426
   R27        2.06485  -0.00040   0.00000  -0.00054  -0.00054   2.06431
   R28        3.86724   0.02503   0.00000   0.03781   0.03781   3.90505
   R29        2.54503  -0.00061   0.00000  -0.00102  -0.00102   2.54401
    A1        1.94471  -0.01142   0.00000  -0.02727  -0.02724   1.91747
    A2        1.92446   0.01337   0.00000   0.03249   0.03256   1.95702
    A3        1.92323  -0.00100   0.00000  -0.00298  -0.00309   1.92013
    A4        1.88225   0.00018   0.00000   0.00166   0.00186   1.88411
    A5        1.87651   0.00364   0.00000   0.00593   0.00578   1.88230
    A6        1.91150  -0.00506   0.00000  -0.01048  -0.01055   1.90095
    A7        2.08059  -0.02004   0.00000  -0.03786  -0.03794   2.04265
    A8        1.88886   0.00980   0.00000   0.01772   0.01755   1.90642
    A9        1.94669   0.00195   0.00000  -0.00307  -0.00309   1.94360
   A10        1.71598  -0.01935   0.00000  -0.03328  -0.03328   1.68270
   A11        2.08270  -0.01704   0.00000  -0.03215  -0.03217   2.05054
   A12        1.92682   0.02273   0.00000   0.04912   0.04910   1.97593
   A13        2.27326  -0.00574   0.00000  -0.01722  -0.01723   2.25603
   A14        1.90041   0.05363   0.00000   0.09536   0.09491   1.99532
   A15        1.74436   0.01572   0.00000   0.05991   0.06135   1.80572
   A16        1.76183  -0.02708   0.00000  -0.06533  -0.06787   1.69396
   A17        2.17884   0.05309   0.00000   0.09141   0.09139   2.27023
   A18        1.98279  -0.04106   0.00000  -0.07074  -0.07073   1.91206
   A19        2.12005  -0.01206   0.00000  -0.02084  -0.02083   2.09922
   A20        2.24715   0.03711   0.00000   0.06993   0.06993   2.31708
   A21        2.07348  -0.02523   0.00000  -0.05055  -0.05055   2.02293
   A22        1.96251  -0.01188   0.00000  -0.01943  -0.01943   1.94308
   A23        1.96742  -0.05638   0.00000  -0.09700  -0.09700   1.87043
   A24        1.86439   0.00180   0.00000   0.00424   0.00421   1.86860
   A25        1.94650   0.00140   0.00000   0.00620   0.00615   1.95265
   A26        1.92933   0.00413   0.00000   0.01035   0.01035   1.93968
   A27        1.89303   0.00229   0.00000   0.00691   0.00686   1.89988
   A28        1.89323  -0.00692   0.00000  -0.01903  -0.01903   1.87420
   A29        1.93487  -0.00283   0.00000  -0.00902  -0.00905   1.92582
   A30        1.68776  -0.00394   0.00000  -0.00918  -0.00918   1.67858
   A31        1.96267  -0.00477   0.00000  -0.00913  -0.00913   1.95355
   A32        1.90993   0.00045   0.00000  -0.00027  -0.00027   1.90967
   A33        1.90369   0.00071   0.00000   0.00103   0.00104   1.90473
   A34        1.90201   0.00172   0.00000   0.00306   0.00305   1.90505
   A35        1.89547   0.00239   0.00000   0.00559   0.00558   1.90106
   A36        1.88864  -0.00035   0.00000   0.00004   0.00003   1.88867
   A37        1.85147  -0.03352   0.00000  -0.05767  -0.05767   1.79380
   A38        1.82470  -0.00614   0.00000  -0.01129  -0.01129   1.81342
   A39        1.93476   0.00170   0.00000   0.00316   0.00317   1.93793
   A40        1.93738   0.00137   0.00000   0.00222   0.00222   1.93960
   A41        1.90803   0.00226   0.00000   0.00472   0.00473   1.91276
   A42        1.90812   0.00238   0.00000   0.00494   0.00494   1.91306
   A43        1.94668  -0.00173   0.00000  -0.00396  -0.00397   1.94270
   A44        1.83473  -0.03776   0.00000  -0.06496  -0.06496   1.76977
   A45        1.72732  -0.02371   0.00000  -0.05526  -0.05526   1.67207
    D1        3.11622  -0.00068   0.00000  -0.00323  -0.00341   3.11282
    D2        0.86790   0.00436   0.00000   0.01681   0.01671   0.88460
    D3        1.02671  -0.00236   0.00000  -0.00914  -0.00907   1.01764
    D4       -1.22162   0.00268   0.00000   0.01090   0.01104  -1.21058
    D5       -1.08546  -0.00410   0.00000  -0.01526  -0.01526  -1.10071
    D6        2.94940   0.00094   0.00000   0.00478   0.00485   2.95426
    D7        3.09664  -0.00601   0.00000  -0.03247  -0.03266   3.06398
    D8       -0.96493  -0.00811   0.00000  -0.04439  -0.04420  -1.00914
    D9        3.08909  -0.01388   0.00000  -0.07729  -0.07741   3.01169
   D10       -0.02532  -0.01219   0.00000  -0.06856  -0.06844  -0.09376
   D11        3.14123   0.00474   0.00000   0.04233   0.04403  -3.09792
   D12        1.30356   0.01323   0.00000   0.06331   0.06151   1.36508
   D13       -0.03375   0.00312   0.00000   0.03271   0.03450   0.00076
   D14       -1.87142   0.01160   0.00000   0.05369   0.05199  -1.81943
   D15        0.12375  -0.00813   0.00000  -0.01844  -0.01687   0.10688
   D16       -3.07640  -0.00955   0.00000  -0.02310  -0.02176  -3.09816
   D17        1.94936   0.01366   0.00000   0.04837   0.04703   1.99639
   D18       -1.25079   0.01224   0.00000   0.04371   0.04214  -1.20865
   D19       -0.03492  -0.00047   0.00000   0.00018   0.00008  -0.03484
   D20        3.09573  -0.00151   0.00000  -0.00529  -0.00536   3.09037
   D21       -3.11360   0.00172   0.00000   0.00634   0.00641  -3.10719
   D22        0.01706   0.00068   0.00000   0.00086   0.00096   0.01802
   D23       -3.07130  -0.00098   0.00000  -0.00165  -0.00180  -3.07311
   D24        1.09553  -0.00032   0.00000   0.00071   0.00055   1.09607
   D25       -0.96752  -0.00057   0.00000   0.00021   0.00005  -0.96747
   D26        0.01394   0.00015   0.00000  -0.00183  -0.00167   0.01228
   D27       -2.10241   0.00082   0.00000   0.00053   0.00068  -2.10173
   D28        2.11772   0.00057   0.00000   0.00003   0.00019   2.11791
   D29       -3.13431  -0.00028   0.00000  -0.00130  -0.00133  -3.13564
   D30        0.01765   0.00080   0.00000   0.00409   0.00412   0.02177
   D31        3.13451   0.00279   0.00000   0.00721   0.00723  -3.14144
   D32        1.06887  -0.00186   0.00000  -0.00719  -0.00720   1.06166
   D33       -1.09220  -0.00221   0.00000  -0.00750  -0.00751  -1.09971
   D34       -0.94029  -0.00138   0.00000  -0.00796  -0.00799  -0.94828
   D35        1.15997   0.00254   0.00000   0.00556   0.00556   1.16553
   D36       -3.02032  -0.00357   0.00000  -0.01239  -0.01236  -3.03268
   D37        3.13181   0.00040   0.00000   0.00193   0.00192   3.13373
   D38       -1.03050  -0.00096   0.00000  -0.00227  -0.00228  -1.03278
   D39        1.02331   0.00093   0.00000   0.00265   0.00266   1.02597
   D40        3.14086  -0.00000   0.00000  -0.00003  -0.00003   3.14083
   D41        1.08682  -0.00002   0.00000  -0.00076  -0.00075   1.08607
   D42       -1.08688  -0.00002   0.00000   0.00046   0.00046  -1.08642
   D43       -3.13677  -0.00011   0.00000  -0.00034  -0.00034  -3.13712
   D44       -1.06451  -0.00035   0.00000  -0.00048  -0.00049  -1.06500
   D45        1.07105   0.00046   0.00000   0.00079   0.00080   1.07185
   D46        3.14144  -0.00001   0.00000  -0.00004  -0.00004   3.14140
         Item               Value     Threshold  Converged?
 Maximum Force            0.056381     0.000450     NO 
 RMS     Force            0.015668     0.000300     NO 
 Maximum Displacement     1.721944     0.001800     NO 
 RMS     Displacement     0.445086     0.001200     NO 
 Predicted change in Energy=-4.468812D-02
 GradGradGradGradGradGradGradGradGradGradGradGradGradGradGradGradGradGrad

                          Input orientation:                          
 ---------------------------------------------------------------------
 Center     Atomic      Atomic             Coordinates (Angstroms)
 Number     Number       Type             X           Y           Z
 ---------------------------------------------------------------------
      1          6           0        0.632825    0.357505   -0.400990
      2          7           0        2.084756    0.458358   -0.433228
      3         16           0        2.746473    1.860000   -1.130283
      4          6           0        4.419949    1.486473   -0.769781
      5         16           0        5.635096    2.523948   -1.444703
      6          6           0        7.377695    2.006286   -1.068102
      7          6           0        7.844437    0.891069   -0.446163
      8         16           0        7.061032   -0.454496    0.276484
      9          6           0        8.343487   -1.536816    0.908814
     10         16           0        7.506674   -2.967868    1.676974
     11          6           0        8.367046    3.039306   -1.667466
     12         16           0       10.116891    2.529995   -1.432607
     13          6           0       11.041920    3.887057   -2.225814
     14         16           0       12.807574    3.406872   -2.006297
     15         16           0       13.777194    4.988224   -2.917024
     16          1           0        0.335976   -0.598568    0.043265
     17          1           0        0.191847    0.415662   -1.404707
     18          1           0        0.215387    1.158381    0.216827
     19          1           0        2.471400   -0.386583   -0.857933
     20          1           0        4.536661    0.603802   -0.175296
     21          1           0        5.606029    3.611023   -0.636494
     22          1           0        8.922285    0.796357   -0.390162
     23          1           0        8.958260   -1.041919    1.661939
     24          1           0        8.968487   -1.919795    0.101093
     25          1           0        6.721340   -2.250560    2.502218
     26          1           0        8.209103    4.014223   -1.191056
     27          1           0        8.168781    3.146118   -2.740503
     28          1           0       10.855056    4.837044   -1.719992
     29          1           0       10.809396    3.952116   -3.291181
     30          1           0       15.023361    4.529837   -2.695013
 ---------------------------------------------------------------------
                    Distance matrix (angstroms):
                    1          2          3          4          5
     1  C    0.000000
     2  N    1.455787   0.000000
     3  S    2.693858   1.699517   0.000000
     4  C    3.968991   2.573600   1.752143   0.000000
     5  S    5.550273   4.230208   2.980575   1.734490   0.000000
     6  C    6.975442   5.551067   4.633948   3.017857   1.856462
     7  C    7.231465   5.775927   5.234127   3.490896   2.923108
     8  S    6.514612   5.108847   5.094242   3.440545   3.723830
     9  C    8.047257   6.704738   6.857320   5.229924   5.418877
    10  S    7.913649   6.751974   7.338154   5.946060   6.588453
    11  C    8.283368   6.903028   5.768029   4.335516   2.789044
    12  S    9.784245   8.354976   7.406980   5.829530   4.481815
    13  C   11.141678   9.757055   8.609505   7.192589   5.630448
    14  S   12.653070  11.231523  10.216945   8.693052   7.248406
    15  S   14.161513  12.782881  11.604096  10.219146   8.633316
    16  H    1.095243   2.098183   3.637619   4.656961   6.328099
    17  H    1.097857   2.128074   2.947463   4.407563   5.837416
    18  H    1.094237   2.099320   2.951842   4.331210   5.830840
    19  H    2.035393   1.021662   2.279688   2.704247   4.338717
    20  H    3.918104   2.469721   2.386379   1.070580   2.550473
    21  H    5.947571   4.730748   3.389243   2.436856   1.354909
    22  H    8.301075   6.846013   6.310290   4.570710   3.860341
    23  H    8.690623   7.340681   7.402967   5.736052   5.780142
    24  H    8.655718   7.302525   7.383536   5.748938   5.766094
    25  H    7.231918   6.119884   6.774314   5.474284   6.289200
    26  H    8.449602   7.122226   5.872366   4.574350   2.985091
    27  H    8.369009   7.040094   5.800717   4.548835   2.913031
    28  H   11.238329   9.886699   8.657924   7.317091   5.716133
    29  H   11.173050   9.823115   8.605647   7.298074   5.676489
    30  H   15.157784  13.751368  12.660900  11.198255   9.681239
                    6          7          8          9         10
     6  C    0.000000
     7  C    1.359546   0.000000
     8  S    2.821992   1.716534   0.000000
     9  C    4.170674   2.824826   1.793306   0.000000
    10  S    5.682806   4.417374   2.911530   1.827084   0.000000
    11  C    1.550865   2.525792   4.206099   5.251540   6.929045
    12  S    2.812531   2.970386   4.600701   5.016588   6.834414
    13  C    4.278334   4.729375   6.399847   6.820984   8.644056
    14  S    5.685547   5.778928   7.289993   7.270901   9.072119
    15  S    7.298223   7.621643   9.215668   9.313343  11.123113
    16  H    7.589876   7.670434   6.730642   8.108621   7.726674
    17  H    7.367482   7.727027   7.125257   8.695618   8.628541
    18  H    7.325888   7.662468   7.033334   8.591213   8.504164
    19  H    5.462758   5.538184   4.728238   6.239057   6.200222
    20  H    3.291737   3.331257   2.774265   4.499940   5.000870
    21  H    2.429046   3.527725   4.413503   6.031741   7.228167
    22  H    2.075882   1.083449   2.339511   2.732406   4.521769
    23  H    4.386669   3.069387   2.421574   1.090902   2.411765
    24  H    4.394514   3.076351   2.411690   1.090738   2.391392
    25  H    5.594527   4.452430   2.880126   2.383218   1.346220
    26  H    2.176733   3.231398   4.841610   5.936459   7.580804
    27  H    2.173006   3.233332   4.826358   5.939520   7.571876
    28  H    4.531025   5.124176   6.810355   7.337894   9.147005
    29  H    4.528234   5.123974   6.796815   7.338190   9.136559
    30  H    8.214095   8.356728   9.852515   9.716613  11.481744
                   11         12         13         14         15
    11  C    0.000000
    12  S    1.837530   0.000000
    13  C    2.861011   1.823862   0.000000
    14  S    4.468580   2.887527   1.842905   0.000000
    15  S    5.884674   4.652334   3.028542   2.066461   0.000000
    16  H    8.981026  10.374604  11.827375  13.258395  14.854021
    17  H    8.589902  10.147792  11.421422  12.979438  14.413781
    18  H    8.575429  10.131225  11.429172  12.983111  14.436458
    19  H    6.866637   8.203061   9.674136  11.070029  12.686583
    20  H    4.778085   6.035728   7.569860   8.922879  10.589036
    21  H    3.002162   4.706410   5.670189   7.333505   8.594501
    22  H    2.640192   2.349313   4.173115   4.951985   6.893978
    23  H    5.300082   4.865923   6.614458   6.932887   8.975058
    24  H    5.299266   4.844760   6.590383   6.895873   8.941668
    25  H    6.933780   7.061608   8.870853   9.453862  11.469667
    26  H    1.096528   2.429184   3.018567   4.709504   5.910270
    27  H    1.096414   2.425970   3.011449   4.703770   5.905829
    28  H    3.069986   2.439253   1.092360   2.437148   3.161430
    29  H    3.071603   2.440551   1.092386   2.437403   3.165650
    30  H    6.898121   5.446695   4.060195   2.577807   1.346231
                   16         17         18         19         20
    16  H    0.000000
    17  H    1.773713   0.000000
    18  H    1.769614   1.783692   0.000000
    19  H    2.327474   2.477685   2.937961   0.000000
    20  H    4.374840   4.519321   4.374326   2.390013   0.000000
    21  H    6.779100   6.333549   5.983530   5.084859   3.224846
    22  H    8.709672   8.797429   8.735534   6.575110   4.395104
    23  H    8.784102   9.401002   9.130579   6.989890   5.063039
    24  H    8.733227   9.206042   9.279295   6.744080   5.107447
    25  H    7.039063   8.062696   7.692289   5.729486   4.482107
    26  H    9.208014   8.790431   8.604502   7.238736   5.113664
    27  H    9.117284   8.536463   8.715122   6.963059   5.122103
    28  H   11.971049  11.547815  11.423063   9.915398   7.760704
    29  H   11.896209  11.348905  11.504091   9.709129   7.763192
    30  H   15.796139  15.445554  15.463558  13.605064  11.477526
                   21         22         23         24         25
    21  H    0.000000
    22  H    4.356670   0.000000
    23  H    6.178197   2.755299   0.000000
    24  H    6.514608   2.760607   1.790813   0.000000
    25  H    6.741928   4.742755   2.677815   3.305220   0.000000
    26  H    2.691859   3.391860   5.853664   6.120366   7.423019
    27  H    3.348236   3.407820   6.127350   5.863247   7.661940
    28  H    5.498125   4.672387   7.042549   7.247784   9.227611
    29  H    5.851388   4.683579   7.273272   7.026792   9.420662
    30  H    9.683381   7.514941   9.317347   9.277794  11.912538
                   26         27         28         29         30
[...]
   A22        2.00406  -0.00007   0.00057   0.00002   0.00058   2.00465
   A23        1.71419   0.00010   0.00068  -0.00013   0.00055   1.71474
   A24        1.93936   0.00004   0.00001   0.00014   0.00015   1.93951
   A25        1.91496   0.00000  -0.00024   0.00007  -0.00016   1.91480
   A26        1.92635  -0.00004   0.00017  -0.00018  -0.00001   1.92634
   A27        1.93500  -0.00002   0.00008   0.00004   0.00012   1.93512
   A28        1.83962   0.00001   0.00006  -0.00001   0.00005   1.83967
   A29        1.90727  -0.00000  -0.00007  -0.00007  -0.00014   1.90714
   A30        1.68652  -0.00001   0.00002  -0.00005  -0.00004   1.68648
   A31        1.92132   0.00029  -0.00048   0.00024  -0.00024   1.92108
   A32        1.94511  -0.00010  -0.00024  -0.00008  -0.00031   1.94480
   A33        1.92927  -0.00006   0.00047  -0.00013   0.00034   1.92961
   A34        1.87058  -0.00000  -0.00010   0.00035   0.00024   1.87083
   A35        1.90962  -0.00020   0.00050  -0.00074  -0.00024   1.90938
   A36        1.88654   0.00007  -0.00015   0.00036   0.00020   1.88674
   A37        1.76335  -0.00006   0.00014  -0.00020  -0.00006   1.76329
   A38        1.91413  -0.00037   0.00088  -0.00080   0.00009   1.91421
   A39        1.86255   0.00018  -0.00081   0.00091   0.00010   1.86265
   A40        1.93814   0.00015  -0.00060   0.00028  -0.00032   1.93782
   A41        1.91552   0.00013  -0.00066   0.00094   0.00029   1.91580
   A42        1.92120   0.00000   0.00066  -0.00088  -0.00022   1.92099
   A43        1.91143  -0.00009   0.00047  -0.00039   0.00008   1.91151
   A44        1.79840   0.00043  -0.00078   0.00051  -0.00027   1.79813
   A45        1.73219  -0.00003   0.00021  -0.00015   0.00006   1.73225
    D1        3.09724  -0.00000  -0.00222   0.00025  -0.00197   3.09527
    D2        0.92713   0.00006  -0.00335   0.00131  -0.00204   0.92509
    D3        0.98201  -0.00002  -0.00220   0.00018  -0.00201   0.98000
    D4       -1.18811   0.00005  -0.00333   0.00125  -0.00208  -1.19019
    D5       -1.13103  -0.00002  -0.00210   0.00014  -0.00196  -1.13299
    D6        2.98203   0.00004  -0.00323   0.00120  -0.00202   2.98001
    D7        1.96551  -0.00004  -0.00322  -0.00049  -0.00371   1.96180
    D8       -2.12289  -0.00007  -0.00225  -0.00134  -0.00359  -2.12649
    D9        1.70486  -0.00019  -0.00328  -0.00077  -0.00407   1.70079
   D10       -1.47855  -0.00000   0.00271   0.00098   0.00371  -1.47485
   D11       -2.35846   0.00034   0.00313   0.00322   0.00634  -2.35212
   D12        2.18981   0.00010   0.00342   0.00285   0.00626   2.19607
   D13        0.82258   0.00017  -0.00263   0.00161  -0.00101   0.82157
   D14       -0.91233  -0.00006  -0.00233   0.00123  -0.00109  -0.91342
   D15        1.15867  -0.00000   0.02189   0.00140   0.02331   1.18197
   D16       -1.98023  -0.00007   0.02663  -0.00121   0.02541  -1.95482
   D17        3.09293   0.00006   0.02107   0.00129   0.02237   3.11530
   D18       -0.04597  -0.00001   0.02581  -0.00132   0.02447  -0.02149
   D19       -0.04742   0.00000  -0.00030  -0.00106  -0.00138  -0.04881
   D20       -3.14046  -0.00003   0.00242  -0.00084   0.00156  -3.13890
   D21        3.09134   0.00008  -0.00530   0.00168  -0.00360   3.08774
   D22       -0.00170   0.00005  -0.00258   0.00190  -0.00065  -0.00235
   D23        1.38292   0.00014  -0.00659   0.00268  -0.00393   1.37898
   D24       -0.69020   0.00002  -0.00599   0.00213  -0.00388  -0.69408
   D25       -2.78858   0.00004  -0.00596   0.00182  -0.00416  -2.79274
   D26       -1.75592   0.00007  -0.00179   0.00000  -0.00177  -1.75769
   D27        2.45415  -0.00005  -0.00120  -0.00054  -0.00172   2.45243
   D28        0.35577  -0.00003  -0.00117  -0.00085  -0.00200   0.35377
   D29        2.81851  -0.00001  -0.01252  -0.00040  -0.01292   2.80558
   D30       -0.37028   0.00003  -0.01516  -0.00061  -0.01577  -0.38604
   D31        2.97435  -0.00000  -0.00415   0.00008  -0.00408   2.97027
   D32        0.82828  -0.00001  -0.00409  -0.00012  -0.00421   0.82407
   D33       -1.27449   0.00002  -0.00396   0.00003  -0.00393  -1.27842
   D34       -1.10356  -0.00001   0.00004  -0.00016  -0.00012  -1.10368
   D35        1.03094   0.00001  -0.00020   0.00006  -0.00014   1.03080
   D36        3.09275   0.00001  -0.00020  -0.00001  -0.00021   3.09254
   D37       -2.87423  -0.00004  -0.00132  -0.00040  -0.00172  -2.87595
   D38       -0.75601  -0.00000  -0.00195  -0.00014  -0.00209  -0.75810
   D39        1.28552  -0.00002  -0.00192   0.00008  -0.00184   1.28368
   D40       -1.32955   0.00010  -0.00301   0.00181  -0.00119  -1.33074
   D41        2.87982   0.00004  -0.00225   0.00060  -0.00164   2.87818
   D42        0.79771  -0.00004  -0.00198   0.00036  -0.00162   0.79608
   D43        3.07568  -0.00005   0.00148  -0.00176  -0.00028   3.07541
   D44       -1.16668   0.00003   0.00064  -0.00057   0.00007  -1.16661
   D45        0.93833   0.00000   0.00122  -0.00101   0.00021   0.93854
   D46       -1.55435  -0.00008   0.00257  -0.00249   0.00008  -1.55427
         Item               Value     Threshold  Converged?
 Maximum Force            0.000433     0.000450     YES
 RMS     Force            0.000125     0.000300     YES
 Maximum Displacement     0.104076     0.001800     NO 
 RMS     Displacement     0.034042     0.001200     NO 
 Predicted change in Energy=-1.405067D-06
 GradGradGradGradGradGradGradGradGradGradGradGradGradGradGradGradGradGrad

                          Input orientation:                          
 ---------------------------------------------------------------------
 Center     Atomic      Atomic             Coordinates (Angstroms)
 Number     Number       Type             X           Y           Z
 ---------------------------------------------------------------------
      1          6           0        2.199825    0.694715    0.885724
      2          7           0        3.082642    0.583735   -0.273114
      3         16           0        3.292292    2.044719   -1.200765
      4          6           0        4.923321    2.540743   -0.989837
      5         16           0        6.033497    2.121228   -2.175212
      6          6           0        7.621113    1.462020   -1.548596
      7          6           0        7.657697    0.272083   -0.930480
      8         16           0        6.295308   -0.766378   -0.566062
      9          6           0        7.219432   -2.337183   -0.319544
     10         16           0        6.142910   -3.629295    0.367853
     11          6           0        8.845860    2.299166   -1.749462
     12         16           0        8.907005    3.649162   -0.484524
     13          6           0       10.153928    4.746544   -1.208695
     14         16           0       11.832781    4.034607   -0.948706
     15         16           0       13.066570    5.365151   -1.957284
     16          1           0        2.109536   -0.290835    1.357460
     17          1           0        1.186282    1.059290    0.657319
     18          1           0        2.645778    1.379295    1.613216
     19          1           0        2.778211   -0.153981   -0.898183
     20          1           0        5.269042    3.133899   -0.151700
     21          1           0        6.668022    3.262148   -2.605301
     22          1           0        8.618279   -0.089158   -0.567735
     23          1           0        8.078811   -2.160688    0.330026
     24          1           0        7.566372   -2.728249   -1.277629
     25          1           0        5.880068   -3.008563    1.533937
     26          1           0        8.845997    2.778665   -2.735348
     27          1           0        9.746089    1.686754   -1.670000
     28          1           0       10.073075    5.701323   -0.686681
     29          1           0        9.971811    4.896977   -2.274691
     30          1           0       13.044868    4.795156   -3.183165
 ---------------------------------------------------------------------
                    Distance matrix (angstroms):
                    1          2          3          4          5
     1  C    0.000000
     2  N    1.461023   0.000000
     3  S    2.714669   1.743262   0.000000
     4  C    3.787212   2.780588   1.717786   0.000000
     5  S    5.108944   3.832676   2.910259   1.677378   0.000000
     6  C    5.992081   4.795410   4.381691   2.958705   1.829680
     7  C    5.767632   4.632535   4.719328   3.553471   2.758029
     8  S    4.584261   3.497119   4.162117   3.605410   3.316049
     9  C    5.986780   5.064282   5.949794   5.432825   4.972663
    10  S    5.874791   5.246493   6.540720   6.434290   6.288693
    11  C    7.327227   6.191687   5.586406   4.002712   2.849967
    12  S    7.456044   6.585191   5.883217   4.165773   3.667432
    13  C    9.169060   8.258776   7.374414   5.680907   4.980401
    14  S   10.359239   9.430263   8.772864   7.069226   6.228726
    15  S   12.164777  11.197195  10.350560   8.673277   7.748203
    16  H    1.096356   2.090593   3.660360   4.630877   5.804764
    17  H    1.101069   2.165189   2.976377   4.344340   5.713706
    18  H    1.093969   2.093325   2.962981   3.648568   5.136078
    19  H    2.058432   1.013713   2.278183   3.445496   4.171842
    20  H    4.055361   3.361312   2.488853   1.083434   2.388408
    21  H    6.224447   5.046577   3.853623   2.484780   1.374517
    22  H    6.627485   5.584162   5.772374   4.554917   3.761767
    23  H    6.559314   5.732132   6.552826   5.814001   5.366035
    24  H    6.722842   5.664108   6.407409   5.901764   5.164570
    25  H    5.261049   4.898533   6.301654   6.170867   6.332147
    26  H    7.850262   6.640525   5.808379   4.300093   2.942131
    27  H    8.028821   6.897062   6.480727   4.944797   3.771916
    28  H    9.461852   8.673344   7.721014   6.049887   5.599196
    29  H    9.383548   8.370843   7.341980   5.717511   4.819232
    30  H   12.287572  11.200465  10.325094   8.709340   7.571340
                    6          7          8          9         10
     6  C    0.000000
     7  C    1.341401   0.000000
     8  S    2.772885   1.751372   0.000000
     9  C    4.013210   2.715435   1.839077   0.000000
    10  S    5.637317   4.381894   3.015247   1.816857   0.000000
    11  C    1.497052   2.488279   4.159725   5.117193   6.850957
    12  S    2.751246   3.628265   5.130751   6.221852   7.832158
    13  C    4.161584   5.131216   6.759752   7.718876   9.419578
    14  S    4.971540   5.620342   7.338902   7.891675   9.635525
    15  S    6.712261   7.499972   9.240191   9.808015  11.586345
    16  H    6.472646   6.027738   4.631065   5.754209   5.328484
    17  H    6.814345   6.709695   5.561642   6.992081   6.828966
    18  H    5.895580   5.728493   4.761537   6.202104   6.234327
    19  H    5.146669   4.898159   3.585430   4.982534   5.000185
    20  H    3.206046   3.808170   4.054266   5.810760   6.839178
    21  H    2.294661   3.567208   4.530611   6.072993   7.523787
    22  H    2.088680   1.088484   2.419675   2.659321   4.419881
    23  H    4.106424   2.772109   2.434740   1.091615   2.430216
    24  H    4.199377   3.021728   2.443536   1.091433   2.354940
    25  H    5.702575   4.471683   3.099970   2.383284   1.346901
    26  H    2.154594   3.309466   4.876387   5.886741   7.615674
    27  H    2.140273   2.628606   4.375435   4.939615   6.737665
    28  H    4.972596   5.947280   7.491144   8.537895  10.179326
    29  H    4.225153   5.343377   6.964889   7.983186   9.712921
    30  H    6.572574   7.386095   9.128881   9.643977  11.455049
                   11         12         13         14         15
    11  C    0.000000
    12  S    1.851026   0.000000
    13  C    2.827213   1.812040   0.000000
    14  S    3.546077   2.987340   1.842009   0.000000
    15  S    5.220904   4.734514   3.070267   2.076009   0.000000
    16  H    7.857425   8.069824   9.832222  10.888955  12.768488
    17  H    8.123978   8.223187   9.874033  11.170486  12.904178
    18  H    7.113002   6.982533   8.699073   9.900260  11.714453
    19  H    6.599923   7.224758   8.860743   9.976576  11.723176
    20  H    4.005403   3.689314   5.251664   6.673017   8.309034
    21  H    2.530371   3.108137   4.038005   5.478662   6.766385
    22  H    2.674390   3.750377   5.114007   5.242480   7.174094
    23  H    4.980254   5.924842   7.374526   7.355891   9.313849
    24  H    5.209089   6.564882   7.910292   8.002915   9.809037
    25  H    6.910037   7.586952   9.269822   9.550107  11.573829
    26  H    1.096308   2.414062   2.813166   3.700048   5.010841
    27  H    1.091684   2.441405   3.121130   3.222880   4.963741
    28  H    3.769647   2.368956   1.091164   2.437861   3.269320
    29  H    2.879627   2.428076   1.091854   2.442361   3.146024
    30  H    5.090888   5.071280   3.501205   2.653375   1.352091
                   16         17         18         19         20
    16  H    0.000000
    17  H    1.779166   0.000000
    18  H    1.772654   1.773773   0.000000
    19  H    2.356646   2.534926   2.945438   0.000000
    20  H    4.897841   4.650531   3.615948   4.191853   0.000000
    21  H    7.007636   6.748833   6.125314   5.451130   2.827322
    22  H    6.790493   7.619336   6.525617   5.849769   4.666752
    23  H    6.339102   7.614613   6.610288   5.799287   6.013278
    24  H    6.531596   7.667792   7.031440   5.449525   6.396109
    25  H    4.651248   6.272760   5.451625   4.866761   6.398794
    26  H    8.458890   8.552057   7.701361   6.985243   4.426741
    27  H    8.449457   8.892718   7.828695   7.248127   4.944028
    28  H   10.173614  10.115824   8.895741   9.356515   5.473263
    29  H   10.095607  10.025469   9.008921   8.896900   5.452666
    30  H   12.886663  13.012766  11.950501  11.624086   8.509584
                   21         22         23         24         25
    21  H    0.000000
    22  H    4.380232   0.000000
    23  H    6.325632   2.321258   0.000000
    24  H    6.201177   2.928354   1.780245   0.000000
    25  H    7.554865   4.520813   2.646273   3.290456   0.000000
    26  H    2.234780   3.602057   5.863643   5.838535   7.779174
    27  H    3.582060   2.375039   4.645722   4.939370   6.874397
    28  H    4.607067   5.971621   8.174473   8.814219   9.918396
    29  H    3.700944   5.441258   7.757489   8.057564   9.682229
    30  H    6.583936   7.091664   9.240563   9.499821  11.596700
                   26         27         28         29         30
    26  H    0.000000
    27  H    1.771272   0.000000
    28  H    3.774213   4.146155   0.000000
    29  H    2.442725   3.274467   1.782976   0.000000
    30  H    4.679455   4.778470   3.985615   3.206147   0.000000
 Stoichiometry    C7H15NS7
 Framework group  C1[X(C7H15NS7)]
 Deg. of freedom    84
 Full point group                 C1      NOp   1
 Largest Abelian subgroup         C1      NOp   1
 Largest concise Abelian subgroup C1      NOp   1
                         Standard orientation:                         
 ---------------------------------------------------------------------
 Center     Atomic      Atomic             Coordinates (Angstroms)
 Number     Number       Type             X           Y           Z
 ---------------------------------------------------------------------
      1          6           0        4.969978   -2.130696    1.426202
      2          7           0        4.164747   -1.683057    0.292266
      3         16           0        3.012338   -2.841577   -0.314982
      4          6           0        1.448981   -2.221343    0.034320
      5         16           0        0.638448   -1.398519   -1.182066
      6          6           0       -0.156574    0.164715   -0.660560
      7          6           0        0.596816    1.212669   -0.295114
      8         16           0        2.343885    1.264418   -0.183854
      9          6           0        2.557593    3.090289   -0.236099
     10         16           0        4.270144    3.560379    0.147509
     11          6           0       -1.652856    0.212536   -0.656003
     12         16           0       -2.310615   -0.626862    0.856961
     13          6           0       -4.050857   -0.846935    0.402413
     14         16           0       -4.940033    0.758853    0.556708
     15         16           0       -6.846301    0.305948   -0.129464
     16          1           0        5.684640   -1.341033    1.686369
     17          1           0        5.534740   -3.059309    1.249916
     18          1           0        4.316991   -2.294612    2.288471
     19          1           0        4.750188   -1.377399   -0.476790
     20          1           0        0.945197   -2.357365    0.983809
     21          1           0       -0.596024   -1.977459   -1.355862
     22          1           0        0.091500    2.126532    0.011984
     23          1           0        1.859833    3.562633    0.457908
     24          1           0        2.372722    3.465762   -1.244101
     25          1           0        4.283192    3.085301    1.407777
     26          1           0       -2.072892   -0.308698   -1.524205
     27          1           0       -2.003451    1.246145   -0.678602
     28          1           0       -4.469744   -1.569663    1.104437
     29          1           0       -4.144420   -1.230627   -0.615512
     30          1           0       -6.670041    0.561538   -1.445426
 ---------------------------------------------------------------------
 Rotational constants (GHZ):           0.3813996           0.1061942           0.0872473
 Standard basis: 6-31G(2df,p) (6D, 7F)
 There are   568 symmetry adapted cartesian basis functions of A   symmetry.
 There are   523 symmetry adapted basis functions of A   symmetry.
   523 basis functions,   933 primitive gaussians,   568 cartesian basis functions
    88 alpha electrons       88 beta electrons
       nuclear repulsion energy      1822.6129799452 Hartrees.
 NAtoms=   30 NActive=   30 NUniq=   30 SFac= 1.00D+00 NAtFMM=   60 NAOKFM=F Big=F
 Integral buffers will be    131072 words long.
 Raffenetti 2 integral format.
 Two-electron integral symmetry is turned on.
 One-electron integrals computed using PRISM.
 PrsmSu:  requested number of processors reduced to:  12 ShMem   1 Linda.
 NBasis=   523 RedAO= T EigKep=  5.51D-04  NBF=   523
 NBsUse=   523 1.00D-06 EigRej= -1.00D+00 NBFU=   523
 Initial guess from the checkpoint file:  "CNSCd[SH]CqdCSCSrCSCSS.chk"
 B after Tr=    -0.000000    0.000000   -0.000000
         Rot=    0.999997   -0.002132    0.000305    0.001108 Ang=  -0.28 deg.
 ExpMin= 1.17D-01 ExpMax= 2.19D+04 ExpMxC= 3.30D+03 IAcc=2 IRadAn=         4 AccDes= 0.00D+00
 Harris functional with IExCor=  402 and IRadAn=       4 diagonalized for initial guess.
 HarFok:  IExCor=  402 AccDes= 0.00D+00 IRadAn=         4 IDoV= 1 UseB2=F ITyADJ=14
 ICtDFT=  3500011 ScaDFX=  1.000000  1.000000  1.000000  1.000000
 FoFCou: FMM=F IPFlag=           0 FMFlag=      100000 FMFlg1=           0
         NFxFlg=           0 DoJE=T BraDBF=F KetDBF=T FulRan=T
         wScrn=  0.000000 ICntrl=       500 IOpCl=  0 I1Cent=   200000004 NGrid=           0
         NMat0=    1 NMatS0=      1 NMatT0=    0 NMatD0=    1 NMtDS0=    0 NMtDT0=    0
 Petite list used in FoFCou.
 Requested convergence on RMS density matrix=1.00D-08 within 128 cycles.
 Requested convergence on MAX density matrix=1.00D-06.
 Requested convergence on             energy=1.00D-06.
 No special actions if energy rises.
 Integral accuracy reduced to 1.0D-05 until final iterations.
 Initial convergence to 1.0D-05 achieved.  Increase integral accuracy.
 SCF Done:  E(RB3LYP) =  -3117.77663789     A.U. after   11 cycles
            NFock= 11  Conv=0.55D-08     -V/T= 2.0035
 PrsmSu:  requested number of processors reduced to:  13 ShMem   1 Linda.
slurmstepd: error: *** JOB 27447174 ON lewis4-r630-hpc4rc-node352 CANCELLED AT 2023-05-17T08:44:06 DUE TO TIME LIMIT ***
