### Starting Gaussian ###
 Entering Gaussian System, Link 0=g16
 Initial command:
 /cluster/software/gaussian/gaussian-16-A.03/avx2/g16/l1.exe "/local/scratch/ks29c/Gau-8603.inp" -scrdir="/local/scratch/ks29c/"
 Entering Link 1 = /cluster/software/gaussian/gaussian-16-A.03/avx2/g16/l1.exe PID=      8604.
  
 Copyright (c) 1988,1990,1992,1993,1995,1998,2003,2009,2016,
            Gaussian, Inc.  All Rights Reserved.
  
 This is part of the Gaussian(R) 16 program.  It is based on
 the Gaussian(R) 09 system (copyright 2009, Gaussian, Inc.),
 the Gaussian(R) 03 system (copyright 2003, Gaussian, Inc.),
 the Gaussian(R) 98 system (copyright 1998, Gaussian, Inc.),
 the Gaussian(R) 94 system (copyright 1995, Gaussian, Inc.),
 the Gaussian 92(TM) system (copyright 1992, Gaussian, Inc.),
 the Gaussian 90(TM) system (copyright 1990, Gaussian, Inc.),
 the Gaussian 88(TM) system (copyright 1988, Gaussian, Inc.),
 the Gaussian 86(TM) system (copyright 1986, Carnegie Mellon
 University), and the Gaussian 82(TM) system (copyright 1983,
 Carnegie Mellon University). Gaussian is a federally registered
 trademark of Gaussian, Inc.
  
 This software contains proprietary and confidential information,
 including trade secrets, belonging to Gaussian, Inc.
  
 This software is provided under written license and may be
 used, copied, transmitted, or stored only in accord with that
 written license.
  
 The following legend is applicable only to US Government
 contracts under FAR:
  
                    RESTRICTED RIGHTS LEGEND
  
 Use, reproduction and disclosure by the US Government is
 subject to restrictions as set forth in subparagraphs (a)
 and (c) of the Commercial Computer Software - Restricted
 Rights clause in FAR 52.227-19.
  
 Gaussian, Inc.
 340 Quinnipiac St., Bldg. 40, Wallingford CT 06492
  
  
 ---------------------------------------------------------------
 Warning -- This program may not be used in any manner that
 competes with the business of Gaussian, Inc. or will provide
 assistance to any competitor of Gaussian, Inc.  The licensee
 of this program is prohibited from giving any competitor of
 Gaussian, Inc. access to this program.  By using this program,
 the user acknowledges that Gaussian, Inc. is engaged in the
 business of creating and licensing software in the field of
 computational chemistry and represents and warrants to the
 licensee that it is not a competitor of Gaussian, Inc. and that
 it will not use this program in any manner prohibited above.
 ---------------------------------------------------------------
  

 Cite this work as:
 Gaussian 16, Revision A.03,
 M. J. Frisch, G. W. Trucks, H. B. Schlegel, G. E. Scuseria, 
 M. A. Robb, J. R. Cheeseman, G. Scalmani, V. Barone, 
 G. A. Petersson, H. Nakatsuji, X. Li, M. Caricato, A. V. Marenich, 
 J. Bloino, B. G. Janesko, R. Gomperts, B. Mennucci, H. P. Hratchian, 
 J. V. Ortiz, A. F. Izmaylov, J. L. Sonnenberg, D. Williams-Young, 
 F. Ding, F. Lipparini, F. Egidi, J. Goings, B. Peng, A. Petrone, 
 T. Henderson, D. Ranasinghe, V. G. Zakrzewski, J. Gao, N. Rega, 
 G. Zheng, W. Liang, M. Hada, M. Ehara, K. Toyota, R. Fukuda, 
 J. Hasegawa, M. Ishida, T. Nakajima, Y. Honda, O. Kitao, H. Nakai, 
 T. Vreven, K. Throssell, J. A. Montgomery, Jr., J. E. Peralta, 
 F. Ogliaro, M. J. Bearpark, J. J. Heyd, E. N. Brothers, K. N. Kudin, 
 V. N. Staroverov, T. A. Keith, R. Kobayashi, J. Normand, 
 K. Raghavachari, A. P. Rendell, J. C. Burant, S. S. Iyengar, 
 J. Tomasi, M. Cossi, J. M. Millam, M. Klene, C. Adamo, R. Cammi, 
 J. W. Ochterski, R. L. Martin, K. Morokuma, O. Farkas, 
 J. B. Foresman, and D. J. Fox, Gaussian, Inc., Wallingford CT, 2016.
 
 ******************************************
 Gaussian 16:  ES64L-G16RevA.03 25-Dec-2016
                17-May-2023 
 ******************************************
 %chk=CNSC1CdCC2dCCdCC2dCCdCCdN1.chk
 %NProcShared=20
 Will use up to   20 processors via shared memory.
 -----------------------------
 # opt freq b3lyp/6-31g(2df,p)
 -----------------------------
 1/18=20,19=15,26=3,38=1/1,3;
 2/9=110,12=2,17=6,18=5,40=1/2;
 3/5=1,6=6,7=104,11=2,25=1,30=1,71=1,74=-5/1,2,3;
 4//1;
 5/5=2,38=5/2;
 6/7=2,8=2,9=2,10=2,28=1/1;
 7//1,2,3,16;
 1/18=20,19=15,26=3/3(2);
 2/9=110/2;
 99//99;
 2/9=110/2;
 3/5=1,6=6,7=104,11=2,25=1,30=1,71=1,74=-5/1,2,3;
 4/5=5,16=3,69=1/1;
 5/5=2,38=5/2;
 7//1,2,3,16;
 1/18=20,19=15,26=3/3(-5);
 2/9=110/2;
 6/7=2,8=2,9=2,10=2,19=2,28=1/1;
 99/9=1/99;
 -------------------
 Title Card Required
 -------------------
 Symbolic Z-matrix:
 Charge =  0 Multiplicity = 1
 C                     1.17825  -0.00298  -0.10913 
 N                     2.67409  -0.13826  -0.06908 
 S                     3.42033  -1.47059  -0.81273 
 C                     5.4133   -1.22641  -0.99314 
 C                     5.5938   -1.79133  -2.40309 
 C                     6.70074  -1.59004  -3.13645 
 C                     7.16578  -2.60785  -4.06488 
 C                     6.76467  -2.72668  -5.34088 
 C                     7.43701  -3.85507  -5.95988 
 C                     8.2448   -4.46612  -5.07449 
 C                     8.12587  -3.73927  -3.82663 
 C                     8.74067  -4.08925  -2.67655 
 C                     8.36408  -3.38091  -1.48918 
 C                     8.49992  -3.33708  -0.19942 
 C                     7.47745  -2.32591   0.43153 
 N                     6.41794  -1.65913   0.09785 
 H                     0.8166    0.64272   0.70899 
 H                     0.67283  -0.96767   0.03046 
 H                     0.79319   0.44758  -1.03548 
 H                     2.88268  -0.246     0.92283 
 H                     5.53149  -0.13868  -1.08422 
 H                     4.79197  -2.37566  -2.86348 
 H                     7.47663  -0.97371  -2.68012 
 H                     6.05475  -2.07304  -5.82156 
 H                     7.28843  -4.14226  -6.98692 
 H                     8.85255  -5.34214  -5.22782 
 H                     9.4064   -4.94289  -2.6076 
 H                     7.69913  -2.60728  -1.70817 
 H                     9.20545  -3.97157   0.34348 
 H                     7.8421   -2.13267   1.46531 
 

 GradGradGradGradGradGradGradGradGradGradGradGradGradGradGradGradGradGrad
 Berny optimization.
 Initialization pass.
                           ----------------------------
                           !    Initial Parameters    !
                           ! (Angstroms and Degrees)  !
 --------------------------                            --------------------------
 ! Name  Definition              Value          Derivative Info.                !
 --------------------------------------------------------------------------------
 ! R1    R(1,2)                  1.5025         estimate D2E/DX2                !
 ! R2    R(1,17)                 1.1032         estimate D2E/DX2                !
 ! R3    R(1,18)                 1.098          estimate D2E/DX2                !
 ! R4    R(1,19)                 1.0997         estimate D2E/DX2                !
 ! R5    R(2,3)                  1.6985         estimate D2E/DX2                !
 ! R6    R(2,20)                 1.0193         estimate D2E/DX2                !
 ! R7    R(3,4)                  2.016          estimate D2E/DX2                !
 ! R8    R(4,5)                  1.5296         estimate D2E/DX2                !
 ! R9    R(4,16)                 1.5449         estimate D2E/DX2                !
 ! R10   R(4,21)                 1.0979         estimate D2E/DX2                !
 ! R11   R(5,6)                  1.343          estimate D2E/DX2                !
 ! R12   R(5,22)                 1.0938         estimate D2E/DX2                !
 ! R13   R(6,7)                  1.454          estimate D2E/DX2                !
 ! R14   R(6,23)                 1.0909         estimate D2E/DX2                !
 ! R15   R(7,8)                  1.3428         estimate D2E/DX2                !
 ! R16   R(7,11)                 1.5029         estimate D2E/DX2                !
 ! R17   R(8,9)                  1.4521         estimate D2E/DX2                !
 ! R18   R(8,24)                 1.0781         estimate D2E/DX2                !
 ! R19   R(9,10)                 1.3453         estimate D2E/DX2                !
 ! R20   R(9,25)                 1.0767         estimate D2E/DX2                !
 ! R21   R(10,11)                1.449          estimate D2E/DX2                !
 ! R22   R(10,26)                1.0772         estimate D2E/DX2                !
 ! R23   R(11,12)                1.3502         estimate D2E/DX2                !
 ! R24   R(12,13)                1.433          estimate D2E/DX2                !
 ! R25   R(12,27)                1.0847         estimate D2E/DX2                !
 ! R26   R(13,14)                1.2976         estimate D2E/DX2                !
 ! R27   R(13,28)                1.0434         estimate D2E/DX2                !
 ! R28   R(14,15)                1.5704         estimate D2E/DX2                !
 ! R29   R(14,29)                1.0932         estimate D2E/DX2                !
 ! R30   R(15,16)                1.2956         estimate D2E/DX2                !
 ! R31   R(15,30)                1.1131         estimate D2E/DX2                !
 ! A1    A(2,1,17)             111.0574         estimate D2E/DX2                !
 ! A2    A(2,1,18)             112.073          estimate D2E/DX2                !
 ! A3    A(2,1,19)             114.0753         estimate D2E/DX2                !
 ! A4    A(17,1,18)            105.6086         estimate D2E/DX2                !
 ! A5    A(17,1,19)            105.6699         estimate D2E/DX2                !
 ! A6    A(18,1,19)            107.8111         estimate D2E/DX2                !
 ! A7    A(1,2,3)              119.7595         estimate D2E/DX2                !
 ! A8    A(1,2,20)             103.8387         estimate D2E/DX2                !
 ! A9    A(3,2,20)             104.6689         estimate D2E/DX2                !
 ! A10   A(2,3,4)              112.2412         estimate D2E/DX2                !
 ! A11   A(3,4,5)               98.8829         estimate D2E/DX2                !
 ! A12   A(3,4,16)             123.0755         estimate D2E/DX2                !
 ! A13   A(3,4,21)             103.5236         estimate D2E/DX2                !
 ! A14   A(5,4,16)             118.0833         estimate D2E/DX2                !
 ! A15   A(5,4,21)             106.065          estimate D2E/DX2                !
 ! A16   A(16,4,21)            105.4306         estimate D2E/DX2                !
 ! A17   A(4,5,6)              123.0421         estimate D2E/DX2                !
 ! A18   A(4,5,22)             119.9202         estimate D2E/DX2                !
 ! A19   A(6,5,22)             117.03           estimate D2E/DX2                !
 ! A20   A(5,6,7)              120.4889         estimate D2E/DX2                !
 ! A21   A(5,6,23)             116.2618         estimate D2E/DX2                !
 ! A22   A(7,6,23)             115.7914         estimate D2E/DX2                !
 ! A23   A(6,7,8)              124.9707         estimate D2E/DX2                !
 ! A24   A(6,7,11)             129.0556         estimate D2E/DX2                !
 ! A25   A(8,7,11)             105.9526         estimate D2E/DX2                !
 ! A26   A(7,8,9)              109.6051         estimate D2E/DX2                !
 ! A27   A(7,8,24)             124.5216         estimate D2E/DX2                !
 ! A28   A(9,8,24)             125.8724         estimate D2E/DX2                !
 ! A29   A(8,9,10)             110.5139         estimate D2E/DX2                !
 ! A30   A(8,9,25)             123.3665         estimate D2E/DX2                !
 ! A31   A(10,9,25)            126.1193         estimate D2E/DX2                !
 ! A32   A(9,10,11)            106.8371         estimate D2E/DX2                !
 ! A33   A(9,10,26)            127.9154         estimate D2E/DX2                !
 ! A34   A(11,10,26)           125.229          estimate D2E/DX2                !
 ! A35   A(7,11,10)            107.0705         estimate D2E/DX2                !
 ! A36   A(7,11,12)            128.3921         estimate D2E/DX2                !
 ! A37   A(10,11,12)           124.4809         estimate D2E/DX2                !
 ! A38   A(11,12,13)           117.2572         estimate D2E/DX2                !
 ! A39   A(11,12,27)           122.518          estimate D2E/DX2                !
 ! A40   A(13,12,27)           119.8429         estimate D2E/DX2                !
 ! A41   A(12,13,14)           144.3668         estimate D2E/DX2                !
 ! A42   A(12,13,28)           111.106          estimate D2E/DX2                !
 ! A43   A(14,13,28)           104.4944         estimate D2E/DX2                !
 ! A44   A(13,14,15)           110.6673         estimate D2E/DX2                !
 ! A45   A(13,14,29)           122.7897         estimate D2E/DX2                !
 ! A46   A(15,14,29)           126.47           estimate D2E/DX2                !
 ! A47   A(14,15,16)           139.4984         estimate D2E/DX2                !
 ! A48   A(14,15,30)           105.7618         estimate D2E/DX2                !
 ! A49   A(16,15,30)           114.6931         estimate D2E/DX2                !
 ! A50   A(4,16,15)            149.0736         estimate D2E/DX2                !
 ! D1    D(17,1,2,3)           157.6859         estimate D2E/DX2                !
 ! D2    D(17,1,2,20)           41.5007         estimate D2E/DX2                !
 ! D3    D(18,1,2,3)            39.8301         estimate D2E/DX2                !
 ! D4    D(18,1,2,20)          -76.355          estimate D2E/DX2                !
 ! D5    D(19,1,2,3)           -83.0378         estimate D2E/DX2                !
 ! D6    D(19,1,2,20)          160.7771         estimate D2E/DX2                !
 ! D7    D(1,2,3,4)            167.0404         estimate D2E/DX2                !
 ! D8    D(20,2,3,4)           -77.2075         estimate D2E/DX2                !
 ! D9    D(2,3,4,5)           -138.666          estimate D2E/DX2                !
 ! D10   D(2,3,4,16)            89.2359         estimate D2E/DX2                !
 ! D11   D(2,3,4,21)           -29.6602         estimate D2E/DX2                !
 ! D12   D(3,4,5,6)            164.3865         estimate D2E/DX2                !
 ! D13   D(3,4,5,22)           -14.5693         estimate D2E/DX2                !
 ! D14   D(16,4,5,6)           -60.4213         estimate D2E/DX2                !
 ! D15   D(16,4,5,22)          120.6228         estimate D2E/DX2                !
 ! D16   D(21,4,5,6)            57.4501         estimate D2E/DX2                !
 ! D17   D(21,4,5,22)         -121.5057         estimate D2E/DX2                !
 ! D18   D(3,4,16,15)          126.2957         estimate D2E/DX2                !
 ! D19   D(5,4,16,15)            2.4901         estimate D2E/DX2                !
 ! D20   D(21,4,16,15)        -115.7173         estimate D2E/DX2                !
 ! D21   D(4,5,6,7)            147.3478         estimate D2E/DX2                !
 ! D22   D(4,5,6,23)            -1.2501         estimate D2E/DX2                !
 ! D23   D(22,5,6,7)           -33.6682         estimate D2E/DX2                !
 ! D24   D(22,5,6,23)          177.7339         estimate D2E/DX2                !
 ! D25   D(5,6,7,8)             87.4528         estimate D2E/DX2                !
 ! D26   D(5,6,7,11)           -90.6389         estimate D2E/DX2                !
 ! D27   D(23,6,7,8)          -123.8095         estimate D2E/DX2                !
 ! D28   D(23,6,7,11)           58.0988         estimate D2E/DX2                !
 ! D29   D(6,7,8,9)           -179.8988         estimate D2E/DX2                !
 ! D30   D(6,7,8,24)             0.4199         estimate D2E/DX2                !
 ! D31   D(11,7,8,9)            -1.4399         estimate D2E/DX2                !
 ! D32   D(11,7,8,24)          178.8787         estimate D2E/DX2                !
 ! D33   D(6,7,11,10)          179.7116         estimate D2E/DX2                !
 ! D34   D(6,7,11,12)            2.3798         estimate D2E/DX2                !
 ! D35   D(8,7,11,10)            1.3379         estimate D2E/DX2                !
 ! D36   D(8,7,11,12)         -175.9939         estimate D2E/DX2                !
 ! D37   D(7,8,9,10)             1.0832         estimate D2E/DX2                !
 ! D38   D(7,8,9,25)          -179.0907         estimate D2E/DX2                !
 ! D39   D(24,8,9,10)         -179.2407         estimate D2E/DX2                !
 ! D40   D(24,8,9,25)            0.5854         estimate D2E/DX2                !
 ! D41   D(8,9,10,11)           -0.1706         estimate D2E/DX2                !
 ! D42   D(8,9,10,26)          178.3162         estimate D2E/DX2                !
 ! D43   D(25,9,10,11)        -179.9908         estimate D2E/DX2                !
 ! D44   D(25,9,10,26)          -1.504          estimate D2E/DX2                !
 ! D45   D(9,10,11,7)           -0.6895         estimate D2E/DX2                !
 ! D46   D(9,10,11,12)         176.7736         estimate D2E/DX2                !
 ! D47   D(26,10,11,7)        -179.2281         estimate D2E/DX2                !
 ! D48   D(26,10,11,12)         -1.765          estimate D2E/DX2                !
 ! D49   D(7,11,12,13)           5.87           estimate D2E/DX2                !
 ! D50   D(7,11,12,27)         178.7563         estimate D2E/DX2                !
 ! D51   D(10,11,12,13)       -171.0354         estimate D2E/DX2                !
 ! D52   D(10,11,12,27)          1.851          estimate D2E/DX2                !
 ! D53   D(11,12,13,14)        172.328          estimate D2E/DX2                !
 ! D54   D(11,12,13,28)         -5.0816         estimate D2E/DX2                !
 ! D55   D(27,12,13,14)         -0.7576         estimate D2E/DX2                !
 ! D56   D(27,12,13,28)       -178.1672         estimate D2E/DX2                !
 ! D57   D(12,13,14,15)       -169.2168         estimate D2E/DX2                !
 ! D58   D(12,13,14,29)          7.8589         estimate D2E/DX2                !
 ! D59   D(28,13,14,15)          8.2872         estimate D2E/DX2                !
 ! D60   D(28,13,14,29)       -174.6372         estimate D2E/DX2                !
 ! D61   D(13,14,15,16)         12.7929         estimate D2E/DX2                !
 ! D62   D(13,14,15,30)       -164.4206         estimate D2E/DX2                !
 ! D63   D(29,14,15,16)       -164.1499         estimate D2E/DX2                !
 ! D64   D(29,14,15,30)         18.6365         estimate D2E/DX2                !
 ! D65   D(14,15,16,4)          -5.4864         estimate D2E/DX2                !
 ! D66   D(30,15,16,4)         171.5619         estimate D2E/DX2                !
 --------------------------------------------------------------------------------
 Trust Radius=3.00D-01 FncErr=1.00D-07 GrdErr=1.00D-06 EigMax=2.50D+02 EigMin=1.00D-04
 Number of steps in this run=    157 maximum allowed number of steps=    180.
 GradGradGradGradGradGradGradGradGradGradGradGradGradGradGradGradGradGrad

                          Input orientation:                          
 ---------------------------------------------------------------------
 Center     Atomic      Atomic             Coordinates (Angstroms)
 Number     Number       Type             X           Y           Z
 ---------------------------------------------------------------------
      1          6           0        1.178250   -0.002980   -0.109130
      2          7           0        2.674090   -0.138260   -0.069080
      3         16           0        3.420330   -1.470590   -0.812730
      4          6           0        5.413300   -1.226410   -0.993140
      5          6           0        5.593800   -1.791330   -2.403090
      6          6           0        6.700740   -1.590040   -3.136450
      7          6           0        7.165780   -2.607850   -4.064880
      8          6           0        6.764670   -2.726680   -5.340880
      9          6           0        7.437010   -3.855070   -5.959880
     10          6           0        8.244800   -4.466120   -5.074490
     11          6           0        8.125870   -3.739270   -3.826630
     12          6           0        8.740670   -4.089250   -2.676550
     13          6           0        8.364080   -3.380910   -1.489180
     14          6           0        8.499920   -3.337080   -0.199420
     15          6           0        7.477450   -2.325910    0.431530
     16          7           0        6.417940   -1.659130    0.097850
     17          1           0        0.816600    0.642720    0.708990
     18          1           0        0.672830   -0.967670    0.030460
     19          1           0        0.793190    0.447580   -1.035480
     20          1           0        2.882680   -0.246000    0.922830
     21          1           0        5.531490   -0.138680   -1.084220
     22          1           0        4.791970   -2.375660   -2.863480
     23          1           0        7.476630   -0.973710   -2.680120
     24          1           0        6.054750   -2.073040   -5.821560
     25          1           0        7.288430   -4.142260   -6.986920
     26          1           0        8.852550   -5.342140   -5.227820
     27          1           0        9.406400   -4.942890   -2.607600
     28          1           0        7.699130   -2.607280   -1.708170
     29          1           0        9.205450   -3.971570    0.343480
     30          1           0        7.842100   -2.132670    1.465310
 ---------------------------------------------------------------------
                    Distance matrix (angstroms):
                    1          2          3          4          5
     1  C    0.000000
     2  N    1.502479   0.000000
     3  S    2.770533   1.698527   0.000000
     4  C    4.495987   3.088888   2.015962   0.000000
     5  C    5.287488   4.087169   2.712211   1.529599   0.000000
     6  C    6.494715   5.265960   4.021820   2.526560   1.343001
     7  C    7.634384   6.499275   5.089031   3.796729   2.428862
     8  C    8.123905   7.157139   5.767713   4.793731   3.297943
     9  C    9.393719   8.438105   6.950728   5.972752   4.506351
    10  C    9.721654   8.649700   7.100092   5.930475   4.617216
    11  C    8.720613   7.537132   6.030971   4.658451   3.497473
    12  C    8.971034   7.694973   6.215885   4.701182   3.906150
    13  C    8.059225   6.701302   5.342993   3.687144   3.322115
    14  C    8.045572   6.647536   5.446299   3.822583   3.961191
    15  C    6.735595   5.301763   4.328970   2.738485   3.445139
    16  N    5.499093   4.044419   3.138530   1.544930   2.636548
    17  H    1.103195   2.159998   3.682543   5.246003   6.199297
    18  H    1.097981   2.168610   2.917645   4.856620   5.551264
    19  H    1.099727   2.194293   3.260500   4.914209   5.470734
    20  H    2.007257   1.019315   2.191086   3.322075   4.560697
    21  H    4.463173   3.032366   2.510914   1.097917   2.115314
    22  H    5.125917   4.159332   2.627950   2.281447   1.093770
    23  H    6.871819   5.529909   4.493062   2.677142   2.071303
    24  H    7.790844   6.947177   5.691352   4.943873   3.460892
    25  H   10.088208   9.229337   7.760196   6.924138   5.423112
    26  H   10.658447   9.584693   7.999433   6.833754   5.586305
    27  H    9.917032   8.651737   7.149228   5.688897   4.950765
    28  H    7.201471   5.833841   4.516858   2.764614   2.362436
    29  H    8.966075   7.584401   6.407756   4.868558   5.033995
    30  H    7.170867   5.748074   5.017954   3.572723   4.487303
                    6          7          8          9         10
     6  C    0.000000
     7  C    1.454023   0.000000
     8  C    2.481038   1.342828   0.000000
     9  C    3.693807   2.284764   1.452056   0.000000
    10  C    3.796308   2.374187   2.299435   1.345296   0.000000
    11  C    2.669557   1.502880   2.274018   2.244703   1.449003
    12  C    3.258661   2.569491   3.586060   3.540427   2.477506
    13  C    2.947442   2.944109   4.221578   4.590364   3.747847
    14  C    3.862039   4.153732   5.460613   5.880560   5.010601
    15  C    3.724952   4.516008   5.830042   6.571917   5.956978
    16  N    3.247375   4.334473   5.553348   6.523553   6.161957
    17  H    7.375346   8.583014   9.128709  10.417954  10.711071
    18  H    6.837570   7.849866   8.309989   9.485535   9.779284
    19  H    6.592808   7.689137   8.016918   9.322170   9.797170
    20  H    5.732519   6.985738   7.775454   9.007719   9.084580
    21  H    2.772226   4.201433   5.132020   6.419861   6.481593
    22  H    2.082094   2.670627   3.186263   4.332734   4.602241
    23  H    1.090919   2.164394   3.264879   4.365848   4.303489
    24  H    2.803642   2.146237   1.078093   2.259515   3.328853
    25  H    4.656751   3.302692   2.233302   1.076738   2.162618
    26  H    4.804411   3.416718   3.348530   2.179689   1.077163
    27  H    4.340724   3.549148   4.400130   4.037280   2.768063
    28  H    2.017807   2.416308   3.752873   4.438775   3.883961
    29  H    4.904607   5.045158   6.310238   6.547771   5.524656
    30  H    4.772143   5.591619   6.916497   7.633099   6.955296
                   11         12         13         14         15
    11  C    0.000000
    12  C    1.350240   0.000000
    13  C    2.376729   1.432974   0.000000
    14  C    3.668559   2.599979   1.297634   0.000000
    15  C    4.533207   3.790152   2.363951   1.570353   0.000000
    16  N    4.758734   4.358653   3.044774   2.690451   1.295569
    17  H    9.653969   9.830784   8.830968   8.700427   7.297717
    18  H    8.837800   9.064337   8.202948   8.181093   6.950434
    19  H    8.893167   9.297224   8.495973   8.626490   7.384016
    20  H    7.889952   7.876684   6.759527   6.509040   5.067476
    21  H    5.216883   5.333044   4.324305   4.452439   3.296700
    22  H    3.728536   4.308546   3.957170   4.665880   4.251043
    23  H    3.063384   3.362202   2.828519   3.575823   3.392759
    24  H    3.323493   4.601126   5.080654   6.259801   6.417878
    25  H    3.294107   4.548747   5.653479   6.941627   7.639912
    26  H    2.249575   2.844509   4.249995   5.424889   6.558718
    27  H    2.138806   1.084736   2.185652   3.033095   4.450364
    28  H    2.439545   2.053972   1.043369   1.857471   2.169476
    29  H    4.313847   3.057851   2.101291   1.093202   2.387872
    30  H    5.537718   4.668044   3.249550   2.157465   1.113109
                   16         17         18         19         20
    16  N    0.000000
    17  H    6.086626   0.000000
    18  H    5.786964   1.753405   0.000000
    19  H    6.112322   1.755507   1.775851   0.000000
    20  H    3.895586   2.259256   2.490094   2.946523   0.000000
    21  H    2.120106   5.104545   5.053347   4.774679   3.325051
    22  H    3.453501   6.138137   5.227297   5.225180   4.745206
    23  H    3.050859   7.645581   7.323863   7.028035   5.883467
    24  H    5.944968   8.801230   8.027020   7.546131   7.673780
    25  H    7.557622  11.135872  10.153217   9.933499   9.856755
    26  H    6.917706  11.646491  10.662707  10.772644   9.971985
    27  H    5.199368  10.769562   9.951732  10.281834   8.779729
    28  H    2.408764   7.985886   7.421593   7.581338   5.974613
    29  H    3.630141   9.581131   9.051354   9.601903   7.361585
    30  H    2.030374   7.591605   7.403678   7.911939   5.333822
                   21         22         23         24         25
    21  H    0.000000
    22  H    2.952412   0.000000
    23  H    2.650989   3.034219   0.000000
    24  H    5.143728   3.230546   3.619242   0.000000
    25  H    7.345567   5.133804   5.350108   2.676136   0.000000
    26  H    7.434706   5.556835   5.240908   4.343642   2.642086
    27  H    6.357362   5.286692   4.414030   5.458858   4.930035
    28  H    3.343944   3.136872   1.913830   4.461992   5.512716
    29  H    5.497941   5.684217   4.595448   7.179070   7.578843
    30  H    3.976810   5.301015   4.319878   7.503109   8.705469
                   26         27         28         29         30
    26  H    0.000000
    27  H    2.707712   0.000000
    28  H    4.604104   3.029657   0.000000
    29  H    5.748251   3.113313   2.887829   0.000000
    30  H    7.491308   5.189698   3.211957   2.549270   0.000000
 Stoichiometry    C13H14N2S
 Framework group  C1[X(C13H14N2S)]
 Deg. of freedom    84
 Full point group                 C1      NOp   1
 Largest Abelian subgroup         C1      NOp   1
 Largest concise Abelian subgroup C1      NOp   1
                         Standard orientation:                         
 ---------------------------------------------------------------------
 Center     Atomic      Atomic             Coordinates (Angstroms)
 Number     Number       Type             X           Y           Z
 ---------------------------------------------------------------------
      1          6           0        5.534679   -1.286212   -0.286832
      2          7           0        4.407943   -0.421545    0.203330
      3         16           0        2.894799   -0.492790   -0.564987
      4          6           0        1.451531    0.420685    0.505827
      5          6           0        0.325486   -0.593449    0.297911
      6          6           0       -0.785393   -0.619105    1.052192
      7          6           0       -2.056872   -1.030364    0.479141
      8          6           0       -2.495884   -2.297502    0.409732
      9          6           0       -3.801027   -2.326817   -0.226042
     10          6           0       -4.180457   -1.085929   -0.581079
     11          6           0       -3.116030   -0.189753   -0.176760
     12          6           0       -3.101469    1.138414   -0.419471
     13          6           0       -1.889510    1.845477   -0.128559
     14          6           0       -1.282139    2.986943   -0.238158
     15          6           0        0.234071    2.847124    0.145984
     16          7           0        1.114963    1.921374    0.359330
     17          1           0        6.511985   -0.871305    0.012773
     18          1           0        5.562443   -1.345686   -1.382849
     19          1           0        5.515240   -2.313429    0.105402
     20          1           0        4.738351    0.527964    0.035205
     21          1           0        1.784687    0.296065    1.544527
     22          1           0        0.412996   -1.353158   -0.484084
     23          1           0       -0.842403    0.119718    1.852814
     24          1           0       -1.953719   -3.153038    0.779055
     25          1           0       -4.363741   -3.231522   -0.381694
     26          1           0       -5.081775   -0.789886   -1.091241
     27          1           0       -3.916922    1.648520   -0.920948
     28          1           0       -1.189013    1.219460    0.325342
     29          1           0       -1.779703    3.889789   -0.602012
     30          1           0        0.602537    3.885286    0.305562
 ---------------------------------------------------------------------
 Rotational constants (GHZ):           0.8014478           0.2503155           0.1990764
 Standard basis: 6-31G(2df,p) (6D, 7F)
 There are   570 symmetry adapted cartesian basis functions of A   symmetry.
 There are   522 symmetry adapted basis functions of A   symmetry.
   522 basis functions,   826 primitive gaussians,   570 cartesian basis functions
    61 alpha electrons       61 beta electrons
       nuclear repulsion energy      1091.0074605686 Hartrees.
 NAtoms=   30 NActive=   30 NUniq=   30 SFac= 1.00D+00 NAtFMM=   60 NAOKFM=F Big=F
 Integral buffers will be    131072 words long.
 Raffenetti 2 integral format.
 Two-electron integral symmetry is turned on.
 One-electron integrals computed using PRISM.
 PrsmSu:  requested number of processors reduced to:  12 ShMem   1 Linda.
 NBasis=   522 RedAO= T EigKep=  2.17D-04  NBF=   522
 NBsUse=   522 1.00D-06 EigRej= -1.00D+00 NBFU=   522
 ExpMin= 1.17D-01 ExpMax= 2.19D+04 ExpMxC= 3.30D+03 IAcc=3 IRadAn=         5 AccDes= 0.00D+00
 Harris functional with IExCor=  402 and IRadAn=       5 diagonalized for initial guess.
 HarFok:  IExCor=  402 AccDes= 0.00D+00 IRadAn=         5 IDoV= 1 UseB2=F ITyADJ=14
 ICtDFT=  3500011 ScaDFX=  1.000000  1.000000  1.000000  1.000000
 FoFCou: FMM=F IPFlag=           0 FMFlag=      100000 FMFlg1=           0
         NFxFlg=           0 DoJE=T BraDBF=F KetDBF=T FulRan=T
         wScrn=  0.000000 ICntrl=       500 IOpCl=  0 I1Cent=   200000004 NGrid=           0
         NMat0=    1 NMatS0=      1 NMatT0=    0 NMatD0=    1 NMtDS0=    0 NMtDT0=    0
 Petite list used in FoFCou.
 Requested convergence on RMS density matrix=1.00D-08 within 128 cycles.
 Requested convergence on MAX density matrix=1.00D-06.
 Requested convergence on             energy=1.00D-06.
 No special actions if energy rises.
 Integral accuracy reduced to 1.0D-05 until final iterations.
 EnCoef did    11 forward-backward iterations
 EnCoef did     5 forward-backward iterations
 Initial convergence to 1.0D-05 achieved.  Increase integral accuracy.
 SCF Done:  E(RB3LYP) =  -1011.28639080     A.U. after   18 cycles
            NFock= 18  Conv=0.39D-08     -V/T= 2.0063

 **********************************************************************

            Population analysis using the SCF density.

 **********************************************************************

 Orbital symmetries:
       Occupied  (A) (A) (A) (A) (A) (A) (A) (A) (A) (A) (A) (A)
                 (A) (A) (A) (A) (A) (A) (A) (A) (A) (A) (A) (A)
                 (A) (A) (A) (A) (A) (A) (A) (A) (A) (A) (A) (A)
                 (A) (A) (A) (A) (A) (A) (A) (A) (A) (A) (A) (A)
                 (A) (A) (A) (A) (A) (A) (A) (A) (A) (A) (A) (A)
                 (A)
       Virtual   (A) (A) (A) (A) (A) (A) (A) (A) (A) (A) (A) (A)
                 (A) (A) (A) (A) (A) (A) (A) (A) (A) (A) (A) (A)
                 (A) (A) (A) (A) (A) (A) (A) (A) (A) (A) (A) (A)
                 (A) (A) (A) (A) (A) (A) (A) (A) (A) (A) (A) (A)
                 (A) (A) (A) (A) (A) (A) (A) (A) (A) (A) (A) (A)
                 (A) (A) (A) (A) (A) (A) (A) (A) (A) (A) (A) (A)
                 (A) (A) (A) (A) (A) (A) (A) (A) (A) (A) (A) (A)
                 (A) (A) (A) (A) (A) (A) (A) (A) (A) (A) (A) (A)
                 (A) (A) (A) (A) (A) (A) (A) (A) (A) (A) (A) (A)
                 (A) (A) (A) (A) (A) (A) (A) (A) (A) (A) (A) (A)
                 (A) (A) (A) (A) (A) (A) (A) (A) (A) (A) (A) (A)
                 (A) (A) (A) (A) (A) (A) (A) (A) (A) (A) (A) (A)
                 (A) (A) (A) (A) (A) (A) (A) (A) (A) (A) (A) (A)
                 (A) (A) (A) (A) (A) (A) (A) (A) (A) (A) (A) (A)
                 (A) (A) (A) (A) (A) (A) (A) (A) (A) (A) (A) (A)
                 (A) (A) (A) (A) (A) (A) (A) (A) (A) (A) (A) (A)
                 (A) (A) (A) (A) (A) (A) (A) (A) (A) (A) (A) (A)
                 (A) (A) (A) (A) (A) (A) (A) (A) (A) (A) (A) (A)
                 (A) (A) (A) (A) (A) (A) (A) (A) (A) (A) (A) (A)
                 (A) (A) (A) (A) (A) (A) (A) (A) (A) (A) (A) (A)
                 (A) (A) (A) (A) (A) (A) (A) (A) (A) (A) (A) (A)
                 (A) (A) (A) (A) (A) (A) (A) (A) (A) (A) (A) (A)
                 (A) (A) (A) (A) (A) (A) (A) (A) (A) (A) (A) (A)
                 (A) (A) (A) (A) (A) (A) (A) (A) (A) (A) (A) (A)
                 (A) (A) (A) (A) (A) (A) (A) (A) (A) (A) (A) (A)
                 (A) (A) (A) (A) (A) (A) (A) (A) (A) (A) (A) (A)
                 (A) (A) (A) (A) (A) (A) (A) (A) (A) (A) (A) (A)
                 (A) (A) (A) (A) (A) (A) (A) (A) (A) (A) (A) (A)
                 (A) (A) (A) (A) (A) (A) (A) (A) (A) (A) (A) (A)
                 (A) (A) (A) (A) (A) (A) (A) (A) (A) (A) (A) (A)
                 (A) (A) (A) (A) (A) (A) (A) (A) (A) (A) (A) (A)
                 (A) (A) (A) (A) (A) (A) (A) (A) (A) (A) (A) (A)
                 (A) (A) (A) (A) (A) (A) (A) (A) (A) (A) (A) (A)
                 (A) (A) (A) (A) (A) (A) (A) (A) (A) (A) (A) (A)
                 (A) (A) (A) (A) (A) (A) (A) (A) (A) (A) (A) (A)
                 (A) (A) (A) (A) (A) (A) (A) (A) (A) (A) (A) (A)
                 (A) (A) (A) (A) (A) (A) (A) (A) (A) (A) (A) (A)
                 (A) (A) (A) (A) (A) (A) (A) (A) (A) (A) (A) (A)
                 (A) (A) (A) (A) (A)
 The electronic state is 1-A.
 Alpha  occ. eigenvalues --  -88.89181 -14.34514 -14.33260 -10.27425 -10.25092
 Alpha  occ. eigenvalues --  -10.22234 -10.20954 -10.20535 -10.19787 -10.19637
 Alpha  occ. eigenvalues --  -10.18843 -10.18705 -10.18095 -10.17842 -10.17467
 Alpha  occ. eigenvalues --  -10.17219  -7.95096  -5.91638  -5.91324  -5.90518
 Alpha  occ. eigenvalues --   -0.90839  -0.89146  -0.87443  -0.81774  -0.80134
 Alpha  occ. eigenvalues --   -0.75812  -0.73750  -0.70569  -0.68032  -0.64357
 Alpha  occ. eigenvalues --   -0.62078  -0.60436  -0.56516  -0.55391  -0.52614
 Alpha  occ. eigenvalues --   -0.52240  -0.50711  -0.47994  -0.46690  -0.46552
 Alpha  occ. eigenvalues --   -0.45210  -0.43657  -0.42353  -0.40871  -0.40447
 Alpha  occ. eigenvalues --   -0.39071  -0.38437  -0.38088  -0.36852  -0.36358
 Alpha  occ. eigenvalues --   -0.35882  -0.35735  -0.34296  -0.32620  -0.29798
 Alpha  occ. eigenvalues --   -0.27003  -0.25705  -0.23062  -0.21657  -0.20945
 Alpha  occ. eigenvalues --   -0.19617
 Alpha virt. eigenvalues --   -0.08886  -0.03449  -0.01405   0.01528   0.03363
 Alpha virt. eigenvalues --    0.07093   0.08540   0.09811   0.10414   0.11595
 Alpha virt. eigenvalues --    0.12098   0.12362   0.13048   0.13412   0.14660
 Alpha virt. eigenvalues --    0.15576   0.16282   0.16772   0.17162   0.17514
 Alpha virt. eigenvalues --    0.17666   0.18191   0.18858   0.20286   0.22378
 Alpha virt. eigenvalues --    0.24251   0.25468   0.27420   0.27942   0.30218
 Alpha virt. eigenvalues --    0.31163   0.32114   0.34440   0.34756   0.35741
 Alpha virt. eigenvalues --    0.36409   0.37050   0.38639   0.39553   0.39613
 Alpha virt. eigenvalues --    0.41023   0.42017   0.42784   0.43483   0.43844
 Alpha virt. eigenvalues --    0.45872   0.47710   0.47860   0.49283   0.49804
 Alpha virt. eigenvalues --    0.50439   0.51140   0.51490   0.52536   0.52948
 Alpha virt. eigenvalues --    0.53866   0.54007   0.54692   0.55615   0.56298
 Alpha virt. eigenvalues --    0.57456   0.57998   0.58406   0.59964   0.60376
 Alpha virt. eigenvalues --    0.61076   0.61871   0.63618   0.63767   0.64892
 Alpha virt. eigenvalues --    0.66243   0.66574   0.68220   0.69948   0.70519
 Alpha virt. eigenvalues --    0.71029   0.72027   0.72518   0.73033   0.73787
 Alpha virt. eigenvalues --    0.74264   0.75649   0.75807   0.76334   0.76728
 Alpha virt. eigenvalues --    0.77169   0.77477   0.78635   0.79484   0.79601
 Alpha virt. eigenvalues --    0.79875   0.80822   0.81183   0.81719   0.81958
 Alpha virt. eigenvalues --    0.82992   0.83410   0.83851   0.85025   0.85949
 Alpha virt. eigenvalues --    0.87192   0.88726   0.89653   0.90110   0.90926
 Alpha virt. eigenvalues --    0.91548   0.92580   0.93057   0.94208   0.95529
 Alpha virt. eigenvalues --    0.96235   0.97598   0.99816   1.01010   1.01577
 Alpha virt. eigenvalues --    1.02213   1.04555   1.05801   1.06346   1.08364
 Alpha virt. eigenvalues --    1.09110   1.12196   1.14358   1.14472   1.16406
 Alpha virt. eigenvalues --    1.17461   1.19263   1.19967   1.21729   1.23508
 Alpha virt. eigenvalues --    1.23814   1.24222   1.25781   1.26474   1.28211
 Alpha virt. eigenvalues --    1.29909   1.31578   1.32082   1.33900   1.35266
 Alpha virt. eigenvalues --    1.36126   1.36759   1.38293   1.38705   1.40529
 Alpha virt. eigenvalues --    1.41593   1.42763   1.43809   1.44833   1.45694
 Alpha virt. eigenvalues --    1.46905   1.47491   1.48258   1.49232   1.50729
 Alpha virt. eigenvalues --    1.53314   1.54016   1.54344   1.56604   1.57760
 Alpha virt. eigenvalues --    1.59870   1.60521   1.61248   1.61994   1.62899
 Alpha virt. eigenvalues --    1.63765   1.64553   1.66646   1.68047   1.70566
 Alpha virt. eigenvalues --    1.72309   1.72993   1.74643   1.75569   1.76856
 Alpha virt. eigenvalues --    1.78728   1.79462   1.79727   1.80820   1.81291
 Alpha virt. eigenvalues --    1.83726   1.85344   1.86320   1.87393   1.88596
 Alpha virt. eigenvalues --    1.92440   1.93239   1.94355   1.95172   1.97078
 Alpha virt. eigenvalues --    1.99039   1.99658   2.02568   2.04038   2.04124
 Alpha virt. eigenvalues --    2.05816   2.07308   2.09246   2.10190   2.13699
 Alpha virt. eigenvalues --    2.14694   2.16354   2.21661   2.22840   2.24805
 Alpha virt. eigenvalues --    2.25067   2.25942   2.27811   2.29436   2.30460
 Alpha virt. eigenvalues --    2.31714   2.34205   2.35323   2.37136   2.37428
 Alpha virt. eigenvalues --    2.38355   2.40293   2.40863   2.42509   2.44218
 Alpha virt. eigenvalues --    2.44800   2.45755   2.48908   2.51394   2.54229
 Alpha virt. eigenvalues --    2.54694   2.58389   2.59372   2.61839   2.64148
 Alpha virt. eigenvalues --    2.64952   2.67408   2.67705   2.69938   2.70907
 Alpha virt. eigenvalues --    2.74915   2.76276   2.77901   2.79098   2.79692
 Alpha virt. eigenvalues --    2.81160   2.84004   2.84131   2.85417   2.86353
 Alpha virt. eigenvalues --    2.88385   2.88845   2.90028   2.90233   2.91995
 Alpha virt. eigenvalues --    2.94124   2.95004   2.95293   2.96364   2.96811
 Alpha virt. eigenvalues --    2.98004   2.99242   2.99917   3.00955   3.01777
 Alpha virt. eigenvalues --    3.01826   3.04022   3.04752   3.05551   3.07864
 Alpha virt. eigenvalues --    3.08929   3.09720   3.10772   3.11440   3.12755
 Alpha virt. eigenvalues --    3.14258   3.15072   3.17216   3.18147   3.19777
 Alpha virt. eigenvalues --    3.20166   3.21641   3.22666   3.24452   3.25768
 Alpha virt. eigenvalues --    3.26446   3.26887   3.29205   3.29970   3.30838
 Alpha virt. eigenvalues --    3.31610   3.32823   3.33304   3.35329   3.35935
 Alpha virt. eigenvalues --    3.37088   3.39080   3.40045   3.40624   3.42044
 Alpha virt. eigenvalues --    3.43054   3.44087   3.45358   3.46704   3.48326
 Alpha virt. eigenvalues --    3.48500   3.49367   3.50631   3.52971   3.53772
 Alpha virt. eigenvalues --    3.55968   3.58491   3.59387   3.59984   3.60904
 Alpha virt. eigenvalues --    3.62218   3.64295   3.64756   3.66415   3.68372
 Alpha virt. eigenvalues --    3.70973   3.71446   3.73645   3.74806   3.77862
 Alpha virt. eigenvalues --    3.79370   3.80483   3.81024   3.81850   3.82570
 Alpha virt. eigenvalues --    3.86235   3.87878   3.89936   3.91452   3.92688
 Alpha virt. eigenvalues --    3.95603   3.96446   3.97827   3.99759   4.00886
 Alpha virt. eigenvalues --    4.02943   4.04121   4.07179   4.08523   4.09278
 Alpha virt. eigenvalues --    4.12662   4.14611   4.14774   4.16896   4.19229
 Alpha virt. eigenvalues --    4.20662   4.22944   4.24507   4.25643   4.26421
 Alpha virt. eigenvalues --    4.29358   4.29914   4.30135   4.32410   4.33382
 Alpha virt. eigenvalues --    4.35063   4.35769   4.36934   4.37590   4.39743
 Alpha virt. eigenvalues --    4.40131   4.40401   4.42989   4.43772   4.43921
 Alpha virt. eigenvalues --    4.47106   4.48105   4.50320   4.51252   4.51654
 Alpha virt. eigenvalues --    4.52356   4.53093   4.54461   4.56540   4.56882
 Alpha virt. eigenvalues --    4.57681   4.58146   4.59549   4.60494   4.61278
 Alpha virt. eigenvalues --    4.62785   4.63075   4.64387   4.65641   4.66016
 Alpha virt. eigenvalues --    4.67402   4.69206   4.70346   4.71461   4.72751
 Alpha virt. eigenvalues --    4.74422   4.75102   4.75802   4.77977   4.79116
 Alpha virt. eigenvalues --    4.79434   4.79837   4.81842   4.83634   4.84447
 Alpha virt. eigenvalues --    4.85646   4.88934   4.89600   4.91507   4.95246
 Alpha virt. eigenvalues --    4.96325   4.97446   4.98533   4.99640   5.00539
 Alpha virt. eigenvalues --    5.02162   5.05476   5.07740   5.09534   5.13121
 Alpha virt. eigenvalues --    5.14324   5.16478   5.18613   5.22137   5.26017
 Alpha virt. eigenvalues --    5.27898   5.29301   5.29939   5.32332   5.33372
 Alpha virt. eigenvalues --    5.37501   5.40313   5.41712   5.44377   5.48233
 Alpha virt. eigenvalues --    5.57729   5.61988   5.64138   5.69721   5.75808
 Alpha virt. eigenvalues --    5.83445   5.85523   5.89769   5.93990   6.03896
 Alpha virt. eigenvalues --    6.04574   6.20949   6.47026   6.88939   9.57041
 Alpha virt. eigenvalues --    9.79198  10.09394  10.37369  10.69647  10.82383
 Alpha virt. eigenvalues --   11.08547  11.21338  11.38295  11.40007  11.66438
 Alpha virt. eigenvalues --   11.85173  11.93762  12.03122  12.19473  12.46111
 Alpha virt. eigenvalues --   14.60919
          Condensed to atoms (all electrons):
               1          2          3          4          5          6
     1  C    4.925950   0.363781  -0.052514   0.000771  -0.000046   0.000000
     2  N    0.363781   6.413552   0.259163  -0.011455   0.000280  -0.000027
     3  S   -0.052514   0.259163  15.783577   0.231005  -0.028578   0.002635
     4  C    0.000771  -0.011455   0.231005   4.941170   0.294307  -0.018976
     5  C   -0.000046   0.000280  -0.028578   0.294307   4.923970   0.642361
     6  C    0.000000  -0.000027   0.002635  -0.018976   0.642361   5.184883
     7  C   -0.000000   0.000000  -0.000247   0.004366  -0.042004   0.374544
     8  C   -0.000000   0.000000  -0.000036   0.000154  -0.010214  -0.078836
     9  C    0.000000   0.000000  -0.000000   0.000005   0.000250   0.003653
    10  C   -0.000000   0.000000   0.000000  -0.000004   0.000196   0.013493
    11  C   -0.000000   0.000000  -0.000005  -0.000119   0.000110  -0.041576
    12  C   -0.000000  -0.000000   0.000005   0.000012  -0.000548  -0.031374
    13  C   -0.000000   0.000000  -0.000016   0.000897  -0.008872  -0.014195
    14  C   -0.000000  -0.000000   0.000032  -0.004058   0.003028   0.002048
    15  C    0.000000  -0.000004   0.001530  -0.059424   0.003395   0.001084
    16  N   -0.000008  -0.000289  -0.016776   0.378023  -0.042697  -0.008654
    17  H    0.380055  -0.016223   0.002999  -0.000018   0.000000  -0.000000
    18  H    0.374282  -0.036157  -0.000238  -0.000090   0.000001  -0.000000
    19  H    0.378859  -0.024644   0.004756   0.000022   0.000002   0.000000
    20  H   -0.048785   0.340519  -0.063845   0.000077   0.000056   0.000001
    21  H    0.000028   0.005223  -0.037582   0.345554  -0.034727  -0.006472
    22  H   -0.000005   0.000101  -0.004808  -0.045238   0.363654  -0.042201
    23  H    0.000000   0.000001  -0.000005  -0.009094  -0.053235   0.344105
    24  H   -0.000000  -0.000000  -0.000002  -0.000000   0.001688  -0.006379
    25  H    0.000000  -0.000000   0.000000  -0.000000  -0.000003  -0.000148
    26  H   -0.000000  -0.000000  -0.000000  -0.000000  -0.000004  -0.000023
    27  H   -0.000000  -0.000000   0.000000   0.000001  -0.000080  -0.000351
    28  H    0.000000  -0.000000   0.000176   0.000278  -0.005957  -0.002268
    29  H    0.000000  -0.000000   0.000001  -0.000005  -0.000060  -0.000072
    30  H    0.000000   0.000000  -0.000129   0.004943  -0.000361  -0.000115
               7          8          9         10         11         12
     1  C   -0.000000  -0.000000   0.000000  -0.000000  -0.000000  -0.000000
     2  N    0.000000   0.000000   0.000000   0.000000   0.000000  -0.000000
     3  S   -0.000247  -0.000036  -0.000000   0.000000  -0.000005   0.000005
     4  C    0.004366   0.000154   0.000005  -0.000004  -0.000119   0.000012
     5  C   -0.042004  -0.010214   0.000250   0.000196   0.000110  -0.000548
     6  C    0.374544  -0.078836   0.003653   0.013493  -0.041576  -0.031374
     7  C    4.684081   0.515275   0.000218  -0.023913   0.393043  -0.058806
     8  C    0.515275   5.017682   0.420960  -0.042799   0.036689   0.016124
     9  C    0.000218   0.420960   4.811159   0.575562   0.005570   0.007384
    10  C   -0.023913  -0.042799   0.575562   5.110740   0.346083  -0.101885
    11  C    0.393043   0.036689   0.005570   0.346083   4.568378   0.529317
    12  C   -0.058806   0.016124   0.007384  -0.101885   0.529317   5.223600
    13  C   -0.009352  -0.000131  -0.000413   0.006704   0.009309   0.437027
    14  C    0.001185  -0.000075   0.000016  -0.000347   0.001205  -0.008868
    15  C   -0.000029  -0.000003   0.000000   0.000000   0.000016   0.005978
    16  N    0.000212  -0.000000   0.000000  -0.000001  -0.000083   0.000818
    17  H   -0.000000   0.000000  -0.000000   0.000000   0.000000  -0.000000
    18  H    0.000000   0.000000   0.000000   0.000000   0.000000  -0.000000
    19  H   -0.000000  -0.000000  -0.000000  -0.000000  -0.000000   0.000000
    20  H   -0.000000  -0.000000  -0.000000   0.000000  -0.000000  -0.000000
    21  H    0.000192  -0.000002  -0.000000   0.000000  -0.000000  -0.000006
    22  H   -0.007344   0.003857  -0.000170  -0.000052   0.000070  -0.000077
    23  H   -0.030281   0.002431  -0.000061  -0.000273  -0.003231   0.002465
    24  H   -0.041431   0.369295  -0.047239   0.005126   0.006143  -0.000203
    25  H    0.005878  -0.048151   0.369523  -0.048274   0.005487  -0.000173
    26  H    0.007014   0.003015  -0.044693   0.376384  -0.044675  -0.005802
    27  H    0.004786  -0.000063   0.000064  -0.011673  -0.027403   0.344268
    28  H   -0.004624   0.001396  -0.000051  -0.000211  -0.027720  -0.047680
    29  H    0.000000   0.000001  -0.000000   0.000003  -0.000094  -0.010371
    30  H    0.000002  -0.000000   0.000000  -0.000000  -0.000008  -0.000119
              13         14         15         16         17         18
     1  C   -0.000000  -0.000000   0.000000  -0.000008   0.380055   0.374282
     2  N    0.000000  -0.000000  -0.000004  -0.000289  -0.016223  -0.036157
     3  S   -0.000016   0.000032   0.001530  -0.016776   0.002999  -0.000238
     4  C    0.000897  -0.004058  -0.059424   0.378023  -0.000018  -0.000090
     5  C   -0.008872   0.003028   0.003395  -0.042697   0.000000   0.000001
     6  C   -0.014195   0.002048   0.001084  -0.008654  -0.000000  -0.000000
     7  C   -0.009352   0.001185  -0.000029   0.000212  -0.000000   0.000000
     8  C   -0.000131  -0.000075  -0.000003  -0.000000   0.000000   0.000000
     9  C   -0.000413   0.000016   0.000000   0.000000  -0.000000   0.000000
    10  C    0.006704  -0.000347   0.000000  -0.000001   0.000000   0.000000
    11  C    0.009309   0.001205   0.000016  -0.000083   0.000000   0.000000
    12  C    0.437027  -0.008868   0.005978   0.000818  -0.000000  -0.000000
    13  C    4.499832   0.616351  -0.000504  -0.008538  -0.000000   0.000000
    14  C    0.616351   5.242992   0.328841  -0.045427   0.000000   0.000000
    15  C   -0.000504   0.328841   4.710843   0.695524   0.000000   0.000000
    16  N   -0.008538  -0.045427   0.695524   6.359845   0.000000  -0.000000
    17  H   -0.000000   0.000000   0.000000   0.000000   0.568931  -0.036937
    18  H    0.000000   0.000000   0.000000  -0.000000  -0.036937   0.617837
    19  H   -0.000000  -0.000000  -0.000000  -0.000000  -0.032223  -0.043885
    20  H   -0.000000   0.000000  -0.000007   0.000294  -0.005973  -0.001828
    21  H   -0.000021  -0.000069   0.000740  -0.030426  -0.000001   0.000017
    22  H    0.000080  -0.000057   0.000014   0.001227   0.000000   0.000002
    23  H   -0.007175   0.000255   0.000916   0.001273  -0.000000   0.000000
    24  H   -0.000002   0.000000  -0.000000   0.000000  -0.000000   0.000000
    25  H   -0.000001  -0.000000   0.000000  -0.000000  -0.000000  -0.000000
    26  H    0.000214   0.000002  -0.000000   0.000000  -0.000000   0.000000
    27  H   -0.042781  -0.004061  -0.000208   0.000005  -0.000000   0.000000
    28  H    0.350102  -0.076417  -0.044814   0.016043  -0.000000  -0.000000
    29  H   -0.023892   0.331580  -0.033304   0.001606  -0.000000  -0.000000
    30  H    0.000029  -0.098686   0.344522  -0.028698  -0.000000  -0.000000
              19         20         21         22         23         24
     1  C    0.378859  -0.048785   0.000028  -0.000005   0.000000  -0.000000
     2  N   -0.024644   0.340519   0.005223   0.000101   0.000001  -0.000000
     3  S    0.004756  -0.063845  -0.037582  -0.004808  -0.000005  -0.000002
     4  C    0.000022   0.000077   0.345554  -0.045238  -0.009094  -0.000000
     5  C    0.000002   0.000056  -0.034727   0.363654  -0.053235   0.001688
     6  C    0.000000   0.000001  -0.006472  -0.042201   0.344105  -0.006379
     7  C   -0.000000  -0.000000   0.000192  -0.007344  -0.030281  -0.041431
     8  C   -0.000000  -0.000000  -0.000002   0.003857   0.002431   0.369295
     9  C   -0.000000  -0.000000  -0.000000  -0.000170  -0.000061  -0.047239
    10  C   -0.000000   0.000000   0.000000  -0.000052  -0.000273   0.005126
    11  C   -0.000000  -0.000000  -0.000000   0.000070  -0.003231   0.006143
    12  C    0.000000  -0.000000  -0.000006  -0.000077   0.002465  -0.000203
    13  C   -0.000000  -0.000000  -0.000021   0.000080  -0.007175  -0.000002
    14  C   -0.000000   0.000000  -0.000069  -0.000057   0.000255   0.000000
    15  C   -0.000000  -0.000007   0.000740   0.000014   0.000916  -0.000000
    16  N   -0.000000   0.000294  -0.030426   0.001227   0.001273   0.000000
    17  H   -0.032223  -0.005973  -0.000001   0.000000  -0.000000  -0.000000
    18  H   -0.043885  -0.001828   0.000017   0.000002   0.000000   0.000000
    19  H    0.570714   0.005312  -0.000016  -0.000000  -0.000000  -0.000000
    20  H    0.005312   0.526455  -0.000225   0.000001  -0.000000  -0.000000
    21  H   -0.000016  -0.000225   0.584612   0.005689   0.003576  -0.000001
    22  H   -0.000000   0.000001   0.005689   0.597507   0.007801   0.000374
    23  H   -0.000000  -0.000000   0.003576   0.007801   0.634230  -0.000050
    24  H   -0.000000  -0.000000  -0.000001   0.000374  -0.000050   0.612066
    25  H    0.000000   0.000000   0.000000   0.000002   0.000004  -0.002174
    26  H   -0.000000  -0.000000  -0.000000  -0.000000  -0.000001  -0.000130
    27  H   -0.000000  -0.000000  -0.000000  -0.000001  -0.000029   0.000004
    28  H    0.000000   0.000000   0.000016  -0.000305  -0.000305   0.000022
    29  H   -0.000000  -0.000000   0.000000   0.000000  -0.000019   0.000000
    30  H    0.000000   0.000000  -0.000050   0.000005  -0.000001   0.000000
              25         26         27         28         29         30
     1  C    0.000000  -0.000000  -0.000000   0.000000   0.000000   0.000000
     2  N   -0.000000  -0.000000  -0.000000  -0.000000  -0.000000   0.000000
     3  S    0.000000  -0.000000   0.000000   0.000176   0.000001  -0.000129
     4  C   -0.000000  -0.000000   0.000001   0.000278  -0.000005   0.004943
     5  C   -0.000003  -0.000004  -0.000080  -0.005957  -0.000060  -0.000361
     6  C   -0.000148  -0.000023  -0.000351  -0.002268  -0.000072  -0.000115
     7  C    0.005878   0.007014   0.004786  -0.004624   0.000000   0.000002
     8  C   -0.048151   0.003015  -0.000063   0.001396   0.000001  -0.000000
     9  C    0.369523  -0.044693   0.000064  -0.000051  -0.000000   0.000000
    10  C   -0.048274   0.376384  -0.011673  -0.000211   0.000003  -0.000000
    11  C    0.005487  -0.044675  -0.027403  -0.027720  -0.000094  -0.000008
    12  C   -0.000173  -0.005802   0.344268  -0.047680  -0.010371  -0.000119
    13  C   -0.000001   0.000214  -0.042781   0.350102  -0.023892   0.000029
    14  C   -0.000000   0.000002  -0.004061  -0.076417   0.331580  -0.098686
    15  C    0.000000  -0.000000  -0.000208  -0.044814  -0.033304   0.344522
    16  N   -0.000000   0.000000   0.000005   0.016043   0.001606  -0.028698
    17  H   -0.000000  -0.000000  -0.000000  -0.000000  -0.000000  -0.000000
    18  H   -0.000000   0.000000   0.000000  -0.000000  -0.000000  -0.000000
    19  H    0.000000  -0.000000  -0.000000   0.000000  -0.000000   0.000000
    20  H    0.000000  -0.000000  -0.000000   0.000000  -0.000000   0.000000
    21  H    0.000000  -0.000000  -0.000000   0.000016   0.000000  -0.000050
    22  H    0.000002  -0.000000  -0.000001  -0.000305   0.000000   0.000005
    23  H    0.000004  -0.000001  -0.000029  -0.000305  -0.000019  -0.000001
    24  H   -0.002174  -0.000130   0.000004   0.000022   0.000000   0.000000
    25  H    0.624633  -0.003095  -0.000003   0.000001  -0.000000  -0.000000
    26  H   -0.003095   0.606093   0.002838  -0.000006   0.000000   0.000000
    27  H   -0.000003   0.002838   0.620215   0.007351   0.002421   0.000009
    28  H    0.000001  -0.000006   0.007351   0.734103   0.012092   0.002452
    29  H   -0.000000   0.000000   0.002421   0.012092   0.610421   0.004191
    30  H   -0.000000   0.000000   0.000009   0.002452   0.004191   0.677289
 Mulliken charges:
               1
     1  C   -0.322368
     2  N   -0.293821
     3  S   -0.081094
     4  C   -0.053105
     5  C   -0.005913
     6  C   -0.317140
     7  C    0.227233
     8  C   -0.206569
     9  C   -0.101737
    10  C   -0.204859
    11  C    0.243494
    12  C   -0.301085
    13  C    0.195346
    14  C   -0.289470
    15  C    0.044891
    16  N   -0.273272
    17  H    0.139390
    18  H    0.126997
    19  H    0.141104
    20  H    0.247949
    21  H    0.163950
    22  H    0.119875
    23  H    0.106702
    24  H    0.102892
    25  H    0.096494
    26  H    0.102869
    27  H    0.104693
    28  H    0.086326
    29  H    0.105500
    30  H    0.094725
 Sum of Mulliken charges =  -0.00000
 Mulliken charges with hydrogens summed into heavy atoms:
               1
     1  C    0.085123
     2  N   -0.045872
     3  S   -0.081094
     4  C    0.110845
     5  C    0.113962
     6  C   -0.210438
     7  C    0.227233
     8  C   -0.103677
     9  C   -0.005243
    10  C   -0.101990
    11  C    0.243494
    12  C   -0.196392
    13  C    0.281672
    14  C   -0.183970
    15  C    0.139617
    16  N   -0.273272
 Electronic spatial extent (au):  <R**2>=           5330.6934
 Charge=             -0.0000 electrons
 Dipole moment (field-independent basis, Debye):
    X=             -0.0305    Y=              0.4784    Z=             -0.2340  Tot=              0.5335
 Quadrupole moment (field-independent basis, Debye-Ang):
   XX=            -82.9618   YY=            -94.8939   ZZ=           -103.3064
   XY=             -4.4830   XZ=              1.6918   YZ=             -0.7185
 Traceless Quadrupole moment (field-independent basis, Debye-Ang):
   XX=             10.7589   YY=             -1.1732   ZZ=             -9.5857
   XY=             -4.4830   XZ=              1.6918   YZ=             -0.7185
 Octapole moment (field-independent basis, Debye-Ang**2):
  XXX=            109.2334  YYY=              4.4806  ZZZ=              3.4358  XYY=             -9.1349
  XXY=             -4.6636  XXZ=            -27.6957  XZZ=              4.5678  YZZ=              1.5093
  YYZ=             -5.0531  XYZ=              5.2382
 Hexadecapole moment (field-independent basis, Debye-Ang**3):
 XXXX=          -4487.9321 YYYY=          -1543.4193 ZZZZ=           -270.9261 XXXY=            -85.4994
 XXXZ=             28.3961 YYYX=            -17.4937 YYYZ=            -22.2304 ZZZX=              0.9554
 ZZZY=              4.8237 XXYY=          -1087.8079 XXZZ=           -967.5503 YYZZ=           -337.2080
 XXYZ=              5.2547 YYXZ=             11.2422 ZZXY=            -12.0752
 N-N= 1.091007460569D+03 E-N=-4.550583094219D+03  KE= 1.005001014209D+03
 PrsmSu:  requested number of processors reduced to:  13 ShMem   1 Linda.
 Calling FoFJK, ICntrl=      2127 FMM=F ISym2X=0 I1Cent= 0 IOpClX= 0 NMat=1 NMatS=1 NMatT=0.
 ***** Axes restored to original set *****
 -------------------------------------------------------------------
 Center     Atomic                   Forces (Hartrees/Bohr)
 Number     Number              X              Y              Z
 -------------------------------------------------------------------
      1        6           0.002539980   -0.008504645   -0.009065886
      2        7          -0.004125041    0.026980607    0.033810127
      3       16           0.022879347   -0.027955907   -0.007248979
      4        6           0.012981461   -0.002287562   -0.011094613
      5        6          -0.006241156    0.004582827   -0.004270681
      6        6           0.007433837   -0.011034078    0.034522345
      7        6          -0.001888713    0.002201772   -0.019414575
      8        6          -0.001357671    0.000320119   -0.006453443
      9        6          -0.003424675   -0.007249444   -0.015936714
     10        6          -0.000780906    0.002879231   -0.003275586
     11        6           0.005278957    0.001484486    0.001891576
     12        6           0.001857507   -0.000159616    0.020065907
     13        6           0.001537033    0.000297949   -0.052326739
     14        6          -0.019887808    0.010151707    0.038959977
     15        6           0.011745254   -0.004971236    0.012746654
     16        7          -0.017989486    0.004757309   -0.004177975
     17        1           0.012197192   -0.001573260   -0.002130931
     18        1          -0.000941649   -0.001379741   -0.001667863
     19        1           0.008577351   -0.003244180   -0.000728277
     20        1          -0.000557221    0.004339604   -0.001792442
     21        1           0.001008577   -0.002314019    0.010403932
     22        1           0.005325834   -0.007311002    0.009718029
     23        1          -0.000020624    0.005345528   -0.002892789
     24        1          -0.000658760    0.001280919   -0.003177278
     25        1          -0.000642776   -0.002185380   -0.004413405
     26        1           0.002095021   -0.000972785    0.000464973
     27        1           0.001049002   -0.002391346   -0.004731766
     28        1          -0.017582149    0.009643075   -0.017187650
     29        1          -0.008336639    0.007632229    0.011813586
     30        1          -0.012071078    0.001636840   -0.002409513
 -------------------------------------------------------------------
 Cartesian Forces:  Max     0.052326739 RMS     0.012288063

 GradGradGradGradGradGradGradGradGradGradGradGradGradGradGradGradGradGrad
 Berny optimization.
 FormGI is forming the generalized inverse of G from B-inverse, IUseBI=4.
 Internal  Forces:  Max     0.068260611 RMS     0.013781131
 Search for a local minimum.
 Step number   1 out of a maximum of  157
 All quantities printed in internal units (Hartrees-Bohrs-Radians)
 Mixed Optimization -- RFO/linear search
 Second derivative matrix not updated -- first step.
 ITU=  0
     Eigenvalues ---    0.00230   0.00335   0.00336   0.00732   0.01123
     Eigenvalues ---    0.01316   0.01326   0.01396   0.01558   0.01607
     Eigenvalues ---    0.01820   0.01899   0.01939   0.02104   0.02123
     Eigenvalues ---    0.02191   0.02313   0.02431   0.02528   0.02672
     Eigenvalues ---    0.03184   0.03319   0.04683   0.05782   0.06466
     Eigenvalues ---    0.06927   0.07343   0.09299   0.13505   0.13844
     Eigenvalues ---    0.14484   0.14621   0.15925   0.15978   0.15991
     Eigenvalues ---    0.15996   0.15998   0.15999   0.16000   0.16000
     Eigenvalues ---    0.16000   0.16000   0.16000   0.19251   0.21293
     Eigenvalues ---    0.21988   0.22038   0.22200   0.22819   0.23505
     Eigenvalues ---    0.23911   0.24059   0.24819   0.25000   0.25913
     Eigenvalues ---    0.27993   0.29245   0.30654   0.32119   0.32273
     Eigenvalues ---    0.33331   0.33712   0.33906   0.33914   0.34381
     Eigenvalues ---    0.34445   0.34707   0.35428   0.35661   0.36068
     Eigenvalues ---    0.36226   0.36339   0.36391   0.37255   0.37848
     Eigenvalues ---    0.40128   0.40809   0.44448   0.51390   0.54338
     Eigenvalues ---    0.55277   0.55682   0.66923   0.67713
 RFO step:  Lambda=-8.43505263D-02 EMin= 2.30000000D-03
 Linear search not attempted -- first point.
 Maximum step size (   0.300) exceeded in Quadratic search.
    -- Step size scaled by   0.635
 Iteration  1 RMS(Cart)=  0.12337304 RMS(Int)=  0.00198272
 Iteration  2 RMS(Cart)=  0.00473839 RMS(Int)=  0.00044170
 Iteration  3 RMS(Cart)=  0.00000855 RMS(Int)=  0.00044167
 Iteration  4 RMS(Cart)=  0.00000001 RMS(Int)=  0.00044167
 Variable       Old X    -DE/DX   Delta X   Delta X   Delta X     New X
                                 (Linear)    (Quad)   (Total)
    R1        2.83927  -0.02323   0.00000  -0.03640  -0.03640   2.80288
    R2        2.08474  -0.00650   0.00000  -0.00989  -0.00989   2.07485
    R3        2.07488   0.00143   0.00000   0.00215   0.00215   2.07703
    R4        2.07818  -0.00372   0.00000  -0.00561  -0.00561   2.07258
    R5        3.20975   0.01333   0.00000   0.01903   0.01903   3.22878
    R6        1.92623  -0.00232   0.00000  -0.00278  -0.00278   1.92344
    R7        3.80962  -0.03773   0.00000  -0.10459  -0.10459   3.70503
    R8        2.89052   0.00231   0.00000  -0.00008  -0.00012   2.89041
    R9        2.91949  -0.04989   0.00000  -0.08963  -0.08975   2.82974
   R10        2.07476  -0.00305   0.00000  -0.00457  -0.00457   2.07019
   R11        2.53790   0.00267   0.00000   0.00216   0.00248   2.54038
   R12        2.06692  -0.00409   0.00000  -0.00607  -0.00607   2.06086
   R13        2.74770   0.02071   0.00000   0.02576   0.02571   2.77342
   R14        2.06154   0.00180   0.00000   0.00264   0.00264   2.06418
   R15        2.53758   0.01864   0.00000   0.01816   0.01814   2.55571
   R16        2.84003  -0.00618   0.00000  -0.01138  -0.01139   2.82864
   R17        2.74399   0.01100   0.00000   0.01628   0.01629   2.76028
   R18        2.03730   0.00263   0.00000   0.00374   0.00374   2.04104
   R19        2.54224   0.01009   0.00000   0.01061   0.01065   2.55289
   R20        2.03474   0.00488   0.00000   0.00692   0.00692   2.04166
   R21        2.73822   0.01131   0.00000   0.01471   0.01471   2.75293
   R22        2.03554   0.00191   0.00000   0.00271   0.00271   2.03825
   R23        2.55158   0.00865   0.00000   0.01052   0.01058   2.56216
   R24        2.70793   0.00358   0.00000   0.00750   0.00750   2.71543
   R25        2.04985   0.00222   0.00000   0.00322   0.00322   2.05308
   R26        2.45217   0.06826   0.00000   0.05873   0.05874   2.51091
   R27        1.97168   0.02196   0.00000   0.02833   0.02833   2.00001
   R28        2.96754  -0.03097   0.00000  -0.05494  -0.05500   2.91254
   R29        2.06585  -0.00394   0.00000  -0.00584  -0.00584   2.06001
   R30        2.44827  -0.04137   0.00000  -0.03460  -0.03474   2.41354
   R31        2.10347  -0.00591   0.00000  -0.00922  -0.00922   2.09425
    A1        1.93832  -0.01308   0.00000  -0.03419  -0.03441   1.90391
    A2        1.95604   0.00544   0.00000   0.01567   0.01579   1.97183
    A3        1.99099  -0.00969   0.00000  -0.02654  -0.02677   1.96422
    A4        1.84322   0.00625   0.00000   0.01889   0.01903   1.86225
    A5        1.84429   0.01021   0.00000   0.02374   0.02318   1.86747
    A6        1.88166   0.00254   0.00000   0.00687   0.00695   1.88861
    A7        2.09020  -0.03155   0.00000  -0.05953  -0.05920   2.03100
    A8        1.81233   0.01071   0.00000   0.02856   0.02906   1.84139
    A9        1.82682   0.01019   0.00000   0.02784   0.02847   1.85529
   A10        1.95898  -0.04788   0.00000  -0.09098  -0.09098   1.86800
   A11        1.72583   0.00999   0.00000   0.02992   0.03093   1.75676
   A12        2.14807  -0.03812   0.00000  -0.09409  -0.09480   2.05327
   A13        1.80683   0.00577   0.00000   0.00591   0.00394   1.81077
   A14        2.06094   0.02704   0.00000   0.04560   0.04552   2.10646
   A15        1.85118   0.00310   0.00000   0.03429   0.03343   1.88461
   A16        1.84011  -0.00535   0.00000  -0.00983  -0.01176   1.82835
   A17        2.14749   0.00639   0.00000   0.00493   0.00532   2.15281
   A18        2.09300  -0.00766   0.00000  -0.01388  -0.01407   2.07894
   A19        2.04256   0.00127   0.00000   0.00902   0.00881   2.05137
   A20        2.10293   0.01106   0.00000   0.02805   0.02757   2.13050
   A21        2.02915  -0.00696   0.00000  -0.00778  -0.00792   2.02124
   A22        2.02094   0.00139   0.00000   0.00459   0.00394   2.02488
   A23        2.18115   0.02030   0.00000   0.04451   0.04460   2.22575
   A24        2.25245  -0.02167   0.00000  -0.04915  -0.04927   2.20318
   A25        1.84922   0.00134   0.00000   0.00456   0.00460   1.85382
   A26        1.91297   0.00079   0.00000   0.00209   0.00207   1.91504
   A27        2.17331   0.00160   0.00000   0.00415   0.00416   2.17747
   A28        2.19689  -0.00240   0.00000  -0.00625  -0.00624   2.19065
   A29        1.92883  -0.00776   0.00000  -0.01428  -0.01425   1.91459
   A30        2.15315   0.00461   0.00000   0.00904   0.00902   2.16217
   A31        2.20120   0.00315   0.00000   0.00525   0.00523   2.20643
   A32        1.86466   0.00548   0.00000   0.01085   0.01087   1.87553
   A33        2.23254  -0.00174   0.00000  -0.00282  -0.00284   2.22971
   A34        2.18566  -0.00378   0.00000  -0.00821  -0.00823   2.17743
   A35        1.86873   0.00012   0.00000  -0.00331  -0.00340   1.86534
   A36        2.24087  -0.01569   0.00000  -0.02849  -0.02850   2.21236
   A37        2.17260   0.01544   0.00000   0.03131   0.03137   2.20397
   A38        2.04652  -0.00636   0.00000  -0.00654  -0.00642   2.04010
   A39        2.13834  -0.00221   0.00000  -0.01019  -0.01023   2.12811
   A40        2.09165   0.00836   0.00000   0.01665   0.01662   2.10828
   A41        2.51968  -0.01515   0.00000  -0.03467  -0.03460   2.48507
   A42        1.93917  -0.00576   0.00000  -0.01750  -0.01756   1.92161
   A43        1.82377   0.02084   0.00000   0.05186   0.05180   1.87558
   A44        1.93151   0.02581   0.00000   0.05948   0.05933   1.99084
   A45        2.14308   0.00325   0.00000   0.01273   0.01274   2.15582
   A46        2.20732  -0.02889   0.00000  -0.07134  -0.07136   2.13596
   A47        2.43471  -0.02151   0.00000  -0.04977  -0.05015   2.38455
   A48        1.84589   0.02107   0.00000   0.05193   0.05211   1.89800
   A49        2.00177   0.00042   0.00000  -0.00177  -0.00160   2.00017
   A50        2.60182  -0.01491   0.00000  -0.04477  -0.04530   2.55652
    D1        2.75214   0.00432   0.00000   0.02433   0.02392   2.77605
    D2        0.72432   0.00070   0.00000   0.00015   0.00001   0.72434
    D3        0.69517   0.00157   0.00000   0.01300   0.01289   0.70805
    D4       -1.33265  -0.00205   0.00000  -0.01118  -0.01102  -1.34367
    D5       -1.44928   0.00132   0.00000   0.01183   0.01195  -1.43733
    D6        2.80609  -0.00230   0.00000  -0.01235  -0.01196   2.79413
    D7        2.91540  -0.01029   0.00000  -0.06724  -0.06708   2.84833
    D8       -1.34753  -0.00665   0.00000  -0.04312  -0.04328  -1.39081
    D9       -2.42018  -0.00082   0.00000  -0.04108  -0.04136  -2.46154
   D10        1.55746  -0.01938   0.00000  -0.06187  -0.06099   1.49647
   D11       -0.51767   0.00697   0.00000   0.00589   0.00529  -0.51238
   D12        2.86909   0.01016   0.00000   0.01397   0.01355   2.88264
   D13       -0.25428   0.01012   0.00000   0.00903   0.00882  -0.24546
   D14       -1.05455  -0.01217   0.00000  -0.05240  -0.05347  -1.10802
   D15        2.10527  -0.01222   0.00000  -0.05735  -0.05820   2.04706
   D16        1.00269  -0.00028   0.00000  -0.01140  -0.01164   0.99105
   D17       -2.12068  -0.00032   0.00000  -0.01634  -0.01638  -2.13706
   D18        2.20428   0.01176   0.00000   0.02117   0.01905   2.22333
   D19        0.04346   0.00593   0.00000   0.02247   0.02239   0.06585
   D20       -2.01965  -0.01021   0.00000  -0.04143  -0.04101  -2.06066
   D21        2.57170   0.01516   0.00000   0.05559   0.05521   2.62691
   D22       -0.02182   0.00439   0.00000   0.00680   0.00634  -0.01548
   D23       -0.58762   0.01511   0.00000   0.06018   0.05965  -0.52797
   D24        3.10204   0.00435   0.00000   0.01138   0.01078   3.11283
   D25        1.52634   0.00188   0.00000   0.00111   0.00010   1.52644
   D26       -1.58195   0.00296   0.00000   0.00427   0.00318  -1.57877
   D27       -2.16088   0.01009   0.00000   0.04596   0.04556  -2.11532
   D28        1.01402   0.01117   0.00000   0.04912   0.04863   1.06265
   D29       -3.13983   0.00040   0.00000   0.00194   0.00216  -3.13766
   D30        0.00733   0.00099   0.00000   0.00374   0.00382   0.01115
   D31       -0.02513  -0.00096   0.00000  -0.00172  -0.00150  -0.02663
   D32        3.12202  -0.00037   0.00000   0.00008   0.00016   3.12218
   D33        3.13656   0.00091   0.00000   0.00384   0.00373   3.14029
   D34        0.04153   0.00340   0.00000   0.01429   0.01366   0.05519
   D35        0.02335   0.00145   0.00000   0.00569   0.00539   0.02874
   D36       -3.07167   0.00393   0.00000   0.01614   0.01532  -3.05635
   D37        0.01891  -0.00010   0.00000  -0.00357  -0.00365   0.01525
   D38       -3.12572  -0.00010   0.00000  -0.00120  -0.00130  -3.12702
   D39       -3.12834  -0.00068   0.00000  -0.00537  -0.00529  -3.13363
   D40        0.01022  -0.00068   0.00000  -0.00300  -0.00293   0.00729
   D41       -0.00298   0.00096   0.00000   0.00700   0.00690   0.00393
   D42        3.11220  -0.00076   0.00000  -0.00028  -0.00025   3.11195
   D43       -3.14143   0.00096   0.00000   0.00454   0.00447  -3.13697
   D44       -0.02625  -0.00077   0.00000  -0.00274  -0.00269  -0.02894
   D45       -0.01203  -0.00152   0.00000  -0.00782  -0.00765  -0.01968
   D46        3.08528  -0.00491   0.00000  -0.01971  -0.01951   3.06577
   D47       -3.12812   0.00011   0.00000  -0.00088  -0.00085  -3.12897
   D48       -0.03080  -0.00327   0.00000  -0.01277  -0.01271  -0.04352
   D49        0.10245  -0.00200   0.00000  -0.01081  -0.01123   0.09122
   D50        3.11989  -0.00324   0.00000  -0.01043  -0.01033   3.10955
   D51       -2.98513   0.00145   0.00000   0.00254   0.00184  -2.98329
   D52        0.03231   0.00021   0.00000   0.00292   0.00273   0.03504
   D53        3.00769  -0.00465   0.00000  -0.01201  -0.01143   2.99626
   D54       -0.08869  -0.00245   0.00000  -0.00130  -0.00100  -0.08969
   D55       -0.01322  -0.00268   0.00000  -0.01044  -0.01034  -0.02356
   D56       -3.10960  -0.00049   0.00000   0.00028   0.00009  -3.10951
   D57       -2.95339  -0.00572   0.00000  -0.02528  -0.02549  -2.97888
   D58        0.13716  -0.00309   0.00000  -0.01007  -0.00974   0.12743
   D59        0.14464  -0.00817   0.00000  -0.03648  -0.03670   0.10794
   D60       -3.04799  -0.00554   0.00000  -0.02127  -0.02095  -3.06894
   D61        0.22328   0.00064   0.00000   0.01038   0.01027   0.23354
   D62       -2.86968   0.00054   0.00000  -0.00219  -0.00266  -2.87234
   D63       -2.86496  -0.00336   0.00000  -0.00877  -0.00826  -2.87321
   D64        0.32527  -0.00347   0.00000  -0.02134  -0.02118   0.30409
   D65       -0.09576   0.00554   0.00000   0.01744   0.01692  -0.07884
   D66        2.99432   0.00595   0.00000   0.03155   0.03124   3.02556
         Item               Value     Threshold  Converged?
 Maximum Force            0.068261     0.000450     NO 
 RMS     Force            0.013781     0.000300     NO 
 Maximum Displacement     0.412499     0.001800     NO 
 RMS     Displacement     0.124946     0.001200     NO 
 Predicted change in Energy=-4.197856D-02
 GradGradGradGradGradGradGradGradGradGradGradGradGradGradGradGradGradGrad

                          Input orientation:                          
 ---------------------------------------------------------------------
 Center     Atomic      Atomic             Coordinates (Angstroms)
 Number     Number       Type             X           Y           Z
 ---------------------------------------------------------------------
      1          6           0        1.344193   -0.005170   -0.038195
      2          7           0        2.815921   -0.182608    0.011478
      3         16           0        3.440898   -1.563009   -0.777949
      4          6           0        5.362808   -1.263076   -1.023547
      5          6           0        5.566327   -1.859695   -2.417144
      6          6           0        6.665178   -1.642843   -3.160564
      7          6           0        7.158050   -2.629447   -4.128873
      8          6           0        6.794181   -2.765217   -5.424335
      9          6           0        7.523975   -3.877569   -6.027372
     10          6           0        8.328582   -4.448061   -5.104247
     11          6           0        8.143735   -3.722102   -3.854828
     12          6           0        8.704920   -4.027486   -2.658955
     13          6           0        8.231678   -3.299335   -1.514119
     14          6           0        8.308970   -3.256521   -0.188342
     15          6           0        7.312133   -2.281476    0.468204
     16          7           0        6.273555   -1.632157    0.106333
     17          1           0        1.034885    0.659284    0.779334
     18          1           0        0.793716   -0.947139    0.094971
     19          1           0        1.007985    0.459018   -0.973277
     20          1           0        3.043911   -0.289761    0.997653
     21          1           0        5.447906   -0.174021   -1.106206
     22          1           0        4.782558   -2.484845   -2.846343
     23          1           0        7.419556   -0.990411   -2.715138
     24          1           0        6.076643   -2.137134   -5.931488
     25          1           0        7.417493   -4.178860   -7.059432
     26          1           0        8.973854   -5.303324   -5.228812
     27          1           0        9.393089   -4.860156   -2.543034
     28          1           0        7.549705   -2.548757   -1.816900
     29          1           0        8.989263   -3.876880    0.395351
     30          1           0        7.627230   -2.101394    1.515323
 ---------------------------------------------------------------------
                    Distance matrix (angstroms):
                    1          2          3          4          5
     1  C    0.000000
     2  N    1.483218   0.000000
     3  S    2.714824   1.708595   0.000000
     4  C    4.324641   2.953866   1.960617   0.000000
     5  C    5.188938   4.034298   2.700451   1.529538   0.000000
     6  C    6.383107   5.197203   4.009889   2.531251   1.344311
     7  C    7.577692   6.479476   5.116953   3.838348   2.460918
     8  C    8.144369   7.214187   5.854803   4.865408   3.372061
     9  C    9.436918   8.502130   7.041672   6.045203   4.575800
    10  C    9.704940   8.646049   7.136514   5.965908   4.642221
    11  C    8.638058   7.474085   6.020427   4.668673   3.489774
    12  C    8.787930   7.522939   6.109154   4.635324   3.822114
    13  C    7.776074   6.432096   5.148626   3.552101   3.161030
    14  C    7.687779   6.297814   5.187846   3.653937   3.800101
    15  C    6.407364   4.982947   4.129837   2.657503   3.398671
    16  N    5.192937   3.750390   2.968280   1.497434   2.630566
    17  H    1.097964   2.114349   3.626653   5.067225   6.090706
    18  H    1.099119   2.163513   2.854620   4.714605   5.470036
    19  H    1.096761   2.156399   3.169512   4.683227   5.314100
    20  H    2.010725   1.017842   2.220703   3.226434   4.526380
    21  H    4.243775   2.859483   2.462747   1.095498   2.138709
    22  H    5.084962   4.163544   2.632126   2.269800   1.090559
    23  H    6.711689   5.411140   4.462095   2.676946   2.068553
    24  H    7.853169   7.054879   5.816849   5.036012   3.562023
    25  H   10.178528   9.335002   7.881181   7.011093   5.509644
    26  H   10.640708   9.570920   8.025817   6.859118   5.601366
    27  H    9.727787   8.465467   7.029601   5.611683   4.864434
    28  H    6.938444   5.599137   4.351254   2.657988   2.183778
    29  H    8.580513   7.204524   6.124948   4.690034   4.867817
    30  H    6.803244   5.393699   4.803575   3.503747   4.446350
                    6          7          8          9         10
     6  C    0.000000
     7  C    1.467628   0.000000
     8  C    2.530025   1.352426   0.000000
     9  C    3.734985   2.301305   1.460678   0.000000
[...]
 0000056,-0.00000099,-0.00000347,-0.00000112,0.00000135,0.00000125,0.00
 000007,0.00000177,0.00000607,0.00000083,0.00000218,-0.00000388,0.00002
 253,-0.00001426,-0.00008844,-0.00003313,0.00002070,0.00037028,-0.00047
 157,-0.00006569,-0.10502521,0.09110457,0.00000228,0.00000572,-0.000005
 15,0.00000164,-0.00000253,0.00002835,0.00002373,0.00000781,0.00002426,
 -0.00012572,0.00002190,-0.00010686,0.00030299,-0.00019514,-0.00029896,
 0.00041982,0.00108698,0.00169360,-0.02151223,0.01421528,-0.00708728,-0
 .11666278,0.06719382,-0.15486613,0.00891386,-0.00516756,0.01014764,0.0
 0205828,-0.00230793,-0.00134852,-0.00111748,-0.00229391,-0.00547152,-0
 .00124634,0.00114291,0.00030545,0.00005487,0.00010475,0.00018028,0.000
 03521,-0.00008379,-0.00008814,-0.00007878,0.00009890,0.00007265,0.0000
 6447,-0.00004739,-0.00003177,-0.00000157,0.00000259,0.00000386,0.00000
 075,-0.00000083,-0.00000111,-0.00000125,-0.00000627,-0.00000128,-0.000
 01278,0.00000671,0.00000198,-0.00000050,-0.00000722,0.00002181,-0.0000
 3477,-0.00002654,0.00002454,-0.00001551,-0.00031496,-0.00030724,0.1293
 7267,-0.07391242,0.15684762,0.00001407,-0.00000620,0.00001753,-0.00004
 595,0.00000374,0.00004199,0.00004581,0.00003283,0.00000159,0.00000585,
 -0.00016353,-0.00018236,-0.00034958,0.00010573,0.00036477,0.00124356,-
 0.00015654,0.00038669,-0.00251110,0.00391772,0.00128952,0.00271180,0.0
 0194996,0.01871921,-0.05191886,0.02052080,0.02804565,0.00735098,-0.006
 12054,-0.01605648,0.00175918,0.00652757,-0.00364923,0.00062628,-0.0005
 6369,-0.00036260,-0.00079982,-0.00071483,0.00013929,0.00002093,0.00002
 776,0.00004734,0.00008039,0.00008412,0.00017245,-0.00000320,0.00000716
 ,-0.00002775,-0.00000481,0.00000437,-0.00000033,-0.00000596,0.00000060
 ,-0.00000120,0.00000229,-0.00000205,-0.00000319,-0.00001338,0.00001313
 ,0.00001138,-0.00000888,0.00000536,0.00004017,0.00005648,-0.00001314,-
 0.00000337,-0.00011645,0.00006361,-0.00000471,0.00006999,-0.00067284,-
 0.00061150,0.04284001,-0.00002821,0.00003950,-0.00002894,0.00003947,-0
 .00007226,-0.00006203,-0.00006713,-0.00000925,0.00001886,0.00019788,0.
 00007449,-0.00002048,0.00003540,-0.00040975,-0.00003886,0.00012149,0.0
 0081153,-0.00127717,0.00381740,-0.00154351,-0.00051400,-0.00247604,-0.
 00114777,-0.01701393,0.02016491,-0.06790545,-0.08110176,-0.00201827,0.
 00750110,0.01047527,0.00658706,0.00431848,0.00030798,-0.00044586,0.000
 92865,0.00038343,-0.00063465,-0.00093665,0.00066489,-0.00013538,0.0001
 9497,0.00011434,0.00014492,-0.00005578,0.00012924,-0.00002457,0.000021
 58,-0.00008492,0.00000838,-0.00000913,-0.00000429,0.00001681,-0.000003
 67,0.00000626,-0.00000116,0.00000197,0.00000556,0.00002167,-0.00001184
 ,0.00000098,-0.00000661,0.00000498,0.00001284,-0.00002351,-0.00001149,
 -0.00005123,-0.00003076,-0.00002734,-0.00000282,-0.00047186,-0.0001805
 9,0.00071227,-0.02276615,0.06046717,-0.00003337,0.00003510,-0.00002484
 ,0.00004037,-0.00005237,-0.00004818,-0.00004877,0.00000504,0.00004438,
 -0.00003359,0.00008274,0.00005205,0.00010459,-0.00006377,-0.00004049,-
 0.00023670,0.00010116,0.00009171,0.00006990,-0.00033853,-0.00010320,-0
 .00272451,0.00190181,-0.00140231,0.02683020,-0.07968124,-0.31867461,0.
 00745073,-0.00968193,-0.01278202,-0.00319329,0.00033029,-0.00234572,0.
 00043368,-0.00078659,-0.00062392,-0.00007621,0.00031035,-0.00027746,0.
 00004453,-0.00013599,-0.00005812,0.00003585,0.00004301,0.00005731,0.00
 001370,-0.00005296,-0.00009597,0.00000757,-0.00000898,-0.00000417,0.00
 001754,-0.00000250,0.00000586,-0.00000112,0.00000254,0.00000409,0.0000
 1026,-0.00001353,-0.00000173,0.00000774,-0.00000044,-0.00000254,-0.000
 02601,-0.00000587,0.00000090,0.00003743,-0.00005168,-0.00005601,0.0004
 5283,-0.00024797,0.00000050,-0.02938476,0.08756526,0.33570961,0.000008
 17,-0.00000355,-0.00000159,-0.00000189,0.00000997,-0.00000987,-0.00002
 209,-0.00001497,0.00000316,-0.00013264,0.00008006,0.00005069,0.0001888
 8,-0.00009687,-0.00020617,0.00065634,0.00144156,-0.00034256,-0.0002720
 9,-0.00005291,-0.00007556,0.00136006,0.00410397,-0.00201903,-0.0052421
 2,0.00715053,0.00601961,-0.22063976,0.15766818,-0.00184555,-0.00364084
 ,0.00085962,-0.00327936,-0.00012934,-0.00086703,-0.00024104,-0.0000748
 8,-0.00022834,0.00029826,-0.00003502,0.00016793,0.00003483,0.00010826,
 -0.00009249,-0.00002617,-0.00003767,-0.00001643,-0.00004415,-0.0000000
 1,0.00000119,0.00000155,-0.00000443,-0.00000120,-0.00000109,0.00000030
 ,-0.00000139,0.00000145,0.00000712,-0.00000034,-0.00000427,-0.00000246
 ,-0.00002422,-0.00002364,0.00006429,-0.00000927,0.00001067,-0.00028050
 ,0.00015383,0.00033329,0.00018544,0.00076869,0.00024189,-0.00137107,-0
 .00236101,0.00026591,0.22894834,-0.00002839,0.00003515,-0.00002849,0.0
 0004067,-0.00004660,-0.00006545,-0.00007633,-0.00001772,0.00005735,-0.
 00021646,0.00015696,0.00006727,0.00024493,-0.00022020,-0.00010867,0.00
 111683,0.00139034,-0.00008309,-0.00016437,-0.00068838,-0.00197003,0.00
 364049,0.00438481,0.00139517,0.00489087,-0.00179086,-0.00335911,0.1557
 2052,-0.15462215,-0.00692983,0.00617723,-0.00489575,0.00443347,-0.0006
 2977,-0.00067334,0.00059585,-0.00012278,0.00005835,-0.00018152,-0.0000
 3949,-0.00005555,-0.00002255,0.00005965,-0.00001821,0.00003936,0.00003
 304,-0.00006993,-0.00011671,0.00000876,-0.00000947,-0.00000386,0.00001
 471,-0.00000394,0.00000621,-0.00000017,0.00000224,0.00000627,0.0000177
 9,-0.00001576,-0.00000591,0.00000904,-0.00003055,-0.00000687,0.0000633
 2,-0.00000824,0.00001069,-0.00017959,0.00012481,0.00027689,0.00054495,
 0.00024551,-0.00033447,-0.00230333,-0.00238878,0.00078813,-0.16882869,
 0.15882730,-0.00000118,0.00000115,-0.00000201,0.00000738,-0.00000165,-
 0.00000266,-0.00000984,-0.00001074,-0.00000392,0.00000277,0.00000256,-
 0.00001964,-0.00010480,-0.00008975,0.00014191,0.00053398,-0.00093631,0
 .00075983,0.00126465,-0.00196182,-0.00425036,-0.00293717,0.00026434,-0
 .00410870,-0.01808137,0.01583073,0.00747998,0.00008356,-0.00753833,-0.
 05570590,0.01847790,-0.01321146,0.00463950,0.00075716,0.00009226,0.001
 97345,-0.00018914,0.00032574,-0.00014531,0.00000525,-0.00005868,-0.000
 03098,-0.00003427,0.00002138,0.00000718,0.00004938,0.00000709,0.000027
 71,0.00000060,-0.00000034,0.00000017,0.00000134,-0.00000016,-0.0000000
 5,-0.00000079,0.00000036,-0.00000027,0.00000142,-0.00000144,-0.0000004
 5,-0.00000071,0.00000128,0.00001467,0.00000797,0.00002587,0.00000965,0
 .00018363,-0.00021209,-0.00026605,-0.00091803,0.00082255,0.00086389,0.
 00122750,0.00002400,0.00057167,0.00035023,0.00602626,0.04827607,0.0000
 2080,-0.00001265,0.00001644,-0.00004055,0.00000440,0.00004571,0.000019
 18,0.00003267,-0.00001692,0.00019030,-0.00014637,-0.00003620,-0.000263
 75,0.00005704,-0.00039245,-0.00027922,-0.00044033,0.00058465,0.0059615
 7,0.00444893,-0.00356489,-0.00147777,0.00022226,0.00019790,0.00071509,
 0.00064809,-0.00034187,-0.00223001,-0.00469123,0.00261934,-0.00801381,
 0.01346020,-0.00566221,-0.18678836,0.14081711,-0.02675436,-0.00016906,
 0.00626187,-0.00781576,0.00071362,-0.00076165,0.00186289,0.00015394,-0
 .00060190,-0.00013312,-0.00014914,0.00026187,-0.00017340,-0.00000444,0
 .00000535,0.00000114,-0.00000884,-0.00000015,-0.00000329,0.00000103,-0
 .00000248,-0.00000229,-0.00000828,0.00001686,0.00000603,0.00000644,0.0
 0000799,-0.00001259,0.00003088,-0.00003283,0.00002965,0.00015450,0.000
 04022,0.00004886,-0.00065818,-0.00100265,-0.00008605,0.00035188,0.0003
 2882,-0.00006720,0.00033040,-0.00001558,-0.00068869,0.19165880,-0.0000
 3748,0.00005488,-0.00001897,-0.00000743,-0.00009456,0.00000203,0.00002
 034,0.00008576,0.00010586,0.00003198,-0.00017288,-0.00017515,-0.000286
 29,0.00009414,-0.00026931,-0.00031720,-0.00028872,0.00032562,0.0039894
 2,0.00605619,-0.00146592,-0.00019676,-0.00086705,-0.00047307,0.0000525
 9,0.00118796,-0.00041780,-0.00385503,-0.00292442,0.00099184,0.00257413
 ,0.00314386,-0.00410714,0.14178575,-0.16802762,0.03232678,0.01356766,-
 0.00959897,-0.00352774,-0.00122572,-0.00110281,0.00251918,-0.00071693,
 -0.00048670,-0.00088092,-0.00022284,0.00042628,-0.00006328,0.00000578,
 -0.00000888,-0.00000647,0.00002288,-0.00000291,0.00000851,0.00000043,-
 0.00000068,0.00000207,-0.00001575,0.00000152,0.00001356,0.00002044,0.0
 0004249,0.00007174,-0.00002490,-0.00005820,0.00001008,0.00011712,0.000
 03650,0.00000781,-0.00076434,-0.00085291,0.00017799,0.00029434,0.00031
 639,-0.00003301,0.00016377,0.00027125,0.00051977,-0.15813608,0.1736067
 1,-0.00000987,0.00001086,-0.00000473,0.00000595,-0.00002063,0.00000521
 ,0.00002249,0.00002353,0.00000489,-0.00012084,-0.00002480,-0.00010863,
 -0.00008895,0.00004397,0.00031320,0.00048824,-0.00008294,-0.00068481,-
 0.00215264,-0.00350506,-0.00288564,-0.00107185,0.00133141,-0.00012273,
 0.00008936,-0.00052440,0.00047687,0.00063893,0.00222127,0.00069415,-0.
 02407809,0.01920590,-0.00072782,-0.02798413,0.02338325,-0.06212991,0.0
 1500753,-0.01732172,0.00893262,-0.00116346,-0.00012302,-0.00044433,-0.
 00055408,0.00036535,-0.00011262,0.00001764,-0.00006894,0.00013610,0.00
 000065,-0.00000140,-0.00000080,0.00000555,0.00000012,0.00000167,-0.000
 00051,-0.00000056,-0.00000005,-0.00000393,-0.00000006,0.00000400,-0.00
 000598,0.00001478,0.00002503,-0.00003149,0.00000748,-0.00002830,-0.000
 13214,0.00007379,0.00004515,0.00031676,0.00030166,-0.00056122,-0.00009
 134,-0.00016656,0.00001679,0.00047609,-0.00050184,-0.00029082,0.038828
 12,-0.02357636,0.06034717,-0.00009643,0.00013042,-0.00006997,0.0000202
 7,-0.00022954,-0.00007782,-0.00003046,0.00015412,0.00016466,-0.0007909
 5,-0.00046427,-0.00003313,-0.00602207,0.00009952,-0.00306791,-0.003728
 78,-0.00075013,-0.00193781,0.00064244,-0.00002773,0.00066539,0.0001739
 9,-0.00021713,-0.00093681,-0.00087086,0.00066948,-0.00038181,-0.000344
 73,-0.00004271,0.00178912,-0.00135128,-0.00015121,-0.00339660,0.000801
 83,0.01353719,0.00492529,-0.04258759,0.05211293,-0.01049846,0.00711674
 ,-0.00844574,0.00261572,-0.00579318,-0.00219359,-0.00280816,0.00031577
 ,0.00094652,0.00073964,0.00002166,-0.00002452,-0.00001469,0.00005205,-
 0.00000896,0.00002036,-0.00000049,0.00000267,0.00001246,0.00001261,-0.
 00001244,0.00001945,0.00001009,0.00015494,0.00006687,0.00071170,-0.000
 15476,0.00038253,-0.00015369,0.00011326,-0.00011356,0.00000269,-0.0000
 2230,0.00000211,0.00002496,0.00006294,0.00000162,0.00005595,0.00003435
 ,0.00001105,-0.00009353,0.00174177,0.00132772,0.04375703,-0.00002594,0
 .00003863,-0.00001952,-0.00001492,-0.00007583,-0.00006063,-0.00010309,
 0.00005462,0.00017722,-0.00001908,0.00013432,0.00010888,0.00148495,0.0
 0035987,0.00126973,0.00206174,0.00187454,0.00082219,0.00058195,-0.0007
 2194,-0.00043409,-0.00002932,-0.00021192,-0.00009077,-0.00035093,0.000
 01738,-0.00018337,-0.00005378,0.00050503,0.00004622,0.00035289,0.00134
 193,0.00025765,0.00637485,-0.01440902,0.00426572,0.04601550,-0.3148956
 6,0.06299059,0.00382149,-0.00911666,0.00256617,-0.00121600,0.00065448,
 -0.00254067,-0.00103839,0.00018023,0.00068606,0.00000670,-0.00000785,-
 0.00000326,0.00001396,-0.00000212,0.00000728,0.00000164,0.00000092,0.0
 0000411,0.00000228,-0.00001154,0.00000192,0.00014413,-0.00001291,0.000
 03766,-0.00016865,-0.00016662,-0.00003634,-0.00021315,-0.00009772,-0.0
 0001207,0.00000995,0.00005497,-0.00004656,-0.00002813,0.00002294,-0.00
 001234,0.00000512,0.00003582,0.00006016,-0.00046471,-0.00126296,-0.001
 89169,-0.05948730,0.33379613,-0.00001368,0.00003343,-0.00002347,-0.000
 00349,-0.00008736,-0.00007688,-0.00013458,0.00001048,0.00002932,0.0009
 8564,-0.00005013,0.00022996,-0.00286496,0.00041299,-0.00031029,-0.0025
 1067,-0.00069743,-0.00176707,0.00018794,-0.00034336,0.00105229,0.00076
 307,-0.00053165,-0.00154602,-0.00118166,0.00059583,-0.00042012,0.00040
 065,0.00112502,0.00089587,-0.00023574,-0.00014221,-0.00078250,0.006971
 36,-0.02222706,0.00659591,-0.00609094,0.05983353,-0.06701149,-0.004257
 58,0.03102418,-0.00843718,-0.00371807,0.00127701,-0.00046156,0.0000182
 3,-0.00084219,0.00063717,0.00000836,-0.00000660,-0.00000318,0.00001143
 ,-0.00000368,0.00000384,-0.00000022,0.00000105,0.00000542,0.00004125,-
 0.00000464,0.00000543,0.00009179,-0.00000124,0.00005839,0.00035919,0.0
 0000499,0.00004748,-0.00034517,0.00018803,-0.00006112,-0.00000878,0.00
 001826,-0.00001786,-0.00010172,-0.00004798,0.00001202,-0.00000603,0.00
 003410,0.00008452,0.00102677,-0.00203158,-0.00260039,0.00559520,-0.070
 27327,0.07687709,0.00001103,-0.00004568,0.00000964,0.00007555,0.000092
 64,0.00002902,0.00003401,-0.00020100,-0.00011167,0.00007403,0.00082267
 ,0.00011770,0.00077870,0.00033653,0.00032317,0.00109027,0.00019409,-0.
 00011912,-0.00025005,-0.00020496,-0.00012450,-0.00000598,-0.00000224,-
 0.00004512,0.00009573,-0.00011107,-0.00001377,0.00008599,0.00037063,-0
 .00031763,0.00037583,-0.00076140,0.00004105,-0.00531764,-0.00137747,-0
 .00343350,0.00496929,-0.01289049,0.00945387,-0.04429188,0.04944001,-0.
 01519861,-0.00554441,0.01999397,-0.00410535,-0.00030512,-0.00197363,0.
 00383257,-0.00000044,0.00000479,0.00000336,-0.00001591,0.00000318,-0.0
 0000753,-0.00000520,0.00000276,0.00000097,0.00001554,0.00000317,-0.000
 03709,-0.00002095,-0.00007415,-0.00012150,-0.00010761,-0.00013903,-0.0
 0011734,-0.00003415,-0.00001924,0.00004398,0.00000907,0.00002018,-0.00
 001399,-0.00005367,-0.00002447,-0.00000283,0.00000033,-0.00000476,0.00
 000028,-0.00008788,0.00121840,0.00008477,0.00744535,0.00199004,0.00480
 389,0.04122287,-0.00008183,0.00010632,-0.00004435,-0.00001856,-0.00004
 866,-0.00002745,0.00025623,0.00003727,0.00035395,-0.00087958,-0.000177
 69,-0.00084571,0.00019979,-0.00017138,0.00005677,0.00023397,0.00029502
 ,0.00018638,0.00008118,-0.00016181,-0.00009906,-0.00002404,-0.00002382
 ,0.00000918,0.00004346,-0.00004246,-0.00003799,0.00000794,0.00017055,-
 0.00011660,-0.00000428,-0.00005076,0.00029202,-0.00255018,0.00015035,-
 0.00195250,0.00308489,-0.00810387,0.00426737,0.05007359,-0.28759726,0.
 07814488,0.00112322,-0.01155811,0.00980724,0.00218514,-0.00062103,-0.0
 0259469,0.00001311,-0.00002321,-0.00001592,0.00004023,-0.00000764,0.00
 001863,0.00000353,0.00000431,0.00000621,-0.00005202,-0.00002874,0.0000
 1026,0.00003504,-0.00001244,0.00016989,0.00002861,-0.00001219,0.000051
 87,0.00001220,0.00002546,-0.00000094,-0.00000619,-0.00000134,-0.000012
 98,-0.00002590,-0.00000990,0.00000839,-0.00000238,0.00000288,-0.000002
 71,-0.00019439,0.00062090,0.00079311,0.00253144,0.00170354,0.00252761,
 -0.05647106,0.30476505,-0.00006486,0.00007637,-0.00003880,-0.00008374,
 -0.00001456,-0.00000364,0.00050868,0.00005842,0.00039047,-0.00072292,-
 0.00023177,-0.00124727,0.00036096,-0.00008667,0.00010565,0.00032051,0.
 00008893,0.00019623,-0.00001973,-0.00009671,0.00002271,-0.00004226,-0.
 00003029,0.00003712,0.00010367,-0.00010489,-0.00003977,0.00002158,0.00
 021078,-0.00021795,0.00016481,-0.00049869,-0.00002350,-0.00353609,-0.0
 0009729,0.00089661,-0.00499731,0.02897968,-0.00266470,-0.00722086,0.07
 393583,-0.08112847,0.00109633,-0.01533131,0.01121712,0.00424224,-0.000
 77492,-0.00133173,0.00001265,-0.00002175,-0.00001514,0.00002320,-0.000
 00413,0.00001542,0.00000593,0.00000420,0.00000612,-0.00004448,-0.00001
 894,0.00000878,0.00008056,-0.00011097,0.00013296,-0.00002215,0.0000010
 7,-0.00002284,0.00006355,-0.00002857,0.00003560,0.00000224,0.00000425,
 -0.00000838,-0.00003094,-0.00001531,0.00000182,0.00001303,-0.00000122,
 -0.00001574,0.00044312,0.00012756,-0.00018685,0.00544914,0.00245658,-0
 .00300330,0.00433626,-0.09019818,0.07701307,0.00010940,-0.00005014,0.0
 0004339,0.00008405,0.00005085,0.00006822,0.00047736,-0.00039401,0.0006
 2345,0.00494009,0.00811643,-0.00311035,-0.00025538,0.00076208,0.000689
 17,0.00076897,-0.00016023,-0.00044348,-0.00066045,0.00022138,-0.000227
 78,-0.00007314,0.00024780,0.00018314,0.00011863,-0.00006559,0.00021443
 ,0.00026277,-0.00005280,-0.00006067,0.00052025,-0.00027520,-0.00014140
 ,-0.00165954,-0.00029507,-0.00008689,-0.00133417,0.00202684,0.00092450
 ,0.00546258,0.00314453,0.02011330,-0.04612759,0.00073196,-0.03755469,-
 0.02606828,0.00627570,-0.03259666,-0.00002614,0.00003231,0.00001439,-0
 .00002664,0.00000167,-0.00000867,0.00000345,-0.00001054,-0.00000710,-0
 .00007909,0.00001999,-0.00007509,-0.00126096,0.00035125,-0.00185166,-0
 .00000316,-0.00019559,-0.00006077,-0.00015695,-0.00009590,-0.00005397,
 0.00002864,0.00000623,0.00002668,-0.00000175,-0.00003152,0.00000390,-0
 .00002705,-0.00000746,-0.00000004,-0.00003564,0.00019994,0.00017950,0.
 00069890,0.00034622,0.00020851,-0.00024270,0.00035681,-0.00046310,0.06
 456354,0.00000508,0.00017809,-0.00009947,0.00016581,-0.00047973,-0.000
 31359,0.00067500,-0.00011023,0.00102452,0.00661588,0.01005595,-0.00023
 548,0.00064106,-0.00033394,0.00114419,0.00033147,0.00003704,-0.0000864
 7,0.00015355,-0.00014257,0.00030365,0.00021004,-0.00022591,-0.00049322
 ,-0.00055011,0.00037281,-0.00027965,-0.00014773,0.00026620,0.00074887,
 -0.00002698,-0.00039926,-0.00098310,-0.00008185,0.00125015,0.00101605,
 0.00264027,-0.00218078,-0.00396407,-0.00062339,0.00962815,-0.01472973,
 0.00471165,-0.05087567,-0.00455550,0.00780996,-0.00808785,0.02278807,0
 .00002259,-0.00002956,-0.00000946,0.00005224,-0.00000143,0.00003574,-0
 .00001147,0.00001067,0.00000245,0.00007695,-0.00009057,0.00000566,-0.0
 0105950,-0.00000630,-0.00141580,0.00008866,0.00001913,0.00004758,-0.00
 006871,0.00001476,-0.00000331,-0.00001498,-0.00001991,-0.00001714,-0.0
 0002192,0.00001938,-0.00000412,0.00002669,0.00002003,-0.00000002,-0.00
 011068,-0.00019458,0.00003351,-0.00005921,0.00021738,0.00020386,-0.000
 19243,0.00077063,0.00172247,-0.02125793,0.04031793,0.00004732,-0.00013
 541,0.00005355,-0.00023543,0.00021962,0.00010018,0.00012110,-0.0000309
 7,0.00008907,0.00232157,-0.00130371,0.00238596,-0.00017127,0.00001836,
 -0.00065610,-0.00042447,-0.00020460,0.00007615,0.00050173,-0.00007243,
 0.00019479,0.00007625,-0.00015029,-0.00014030,-0.00009755,0.00006415,-
 0.00013140,-0.00016415,-0.00002933,0.00005472,-0.00009585,0.00004441,-
 0.00019280,0.00063973,0.00069521,-0.00022638,0.00101739,-0.00364829,-0
 .00107994,-0.00069312,0.00060087,-0.01727626,-0.04024005,-0.00359745,-
 0.29342089,-0.01627523,0.01022265,-0.00634722,-0.00001946,0.00002645,0
 .00001226,-0.00005040,0.00002126,-0.00002243,0.00000392,-0.00000733,-0
 .00001127,0.00000420,0.00005925,-0.00003569,-0.00007733,0.00012515,-0.
 00000832,0.00006777,0.00001506,-0.00001913,0.00000740,0.00003392,0.000
 02507,-0.00002376,0.00000018,-0.00001501,0.00000642,0.00000908,-0.0000
 2741,0.00002541,-0.00001739,-0.00000734,0.00004069,-0.00016369,-0.0001
 1319,-0.00045160,-0.00015355,-0.00001228,0.00068902,-0.00075468,-0.000
 13160,0.05344974,-0.00188649,0.31688321\\-0.00000278,0.00000060,0.0000
 0068,0.00001257,-0.00004355,-0.00000571,0.00004621,0.00004639,0.000006
 45,-0.00001406,-0.00003768,-0.00000090,0.00000781,0.00001826,0.0000361
 0,-0.00005172,0.00001120,-0.00002502,0.00003554,-0.00003339,0.00001756
 ,0.00000555,0.00001808,-0.00001814,0.00001286,-0.00000661,0.00001402,-
 0.00002848,-0.00002047,-0.00001993,-0.00000020,0.00003684,0.00000696,0
 .00000480,-0.00002545,-0.00004434,-0.00001720,0.00003696,0.00003026,-0
 .00002993,-0.00002165,0.00004823,0.00003362,0.00000867,-0.00007435,-0.
 00005514,0.00002577,0.00002975,0.00000172,0.00000025,-0.00000263,0.000
 00263,-0.00000377,-0.00000095,0.00000265,-0.00000064,-0.00000237,-0.00
 000326,0.00001366,0.00000088,0.00000379,0.00000146,0.00000413,0.000000
 26,-0.00001343,-0.00001845,0.00001155,0.00000439,0.00000071,-0.0000082
 3,-0.00001197,0.00000269,-0.00000497,0.00000705,-0.00000245,0.00000556
 ,0.00000423,0.00000970,0.00001673,0.00001312,0.00000222,0.00000517,-0.
 00004569,0.00002496,0.00000225,0.00001503,-0.00001952,0.00000470,0.000
 00232,-0.00000056\\\@


 THE WISE MAN HAS THE POWER TO REASON AWAY
 WHAT A FOOL BELIEVES.
                     - DOOBIE BROTHERS
 Job cpu time:       0 days 10 hours 24 minutes 54.4 seconds.
 Elapsed time:       0 days  2 hours 36 minutes 15.2 seconds.
 File lengths (MBytes):  RWF=    609 Int=      0 D2E=      0 Chk=     23 Scr=      1
 Normal termination of Gaussian 16 at Wed May 17 09:08:36 2023.
### All Done ###
