### Starting Gaussian ###
 Entering Gaussian System, Link 0=g16
 Initial command:
 /cluster/software/gaussian/gaussian-16-A.03/avx2/g16/l1.exe "/local/scratch/cz9n3/Gau-460.inp" -scrdir="/local/scratch/cz9n3/"
 Entering Link 1 = /cluster/software/gaussian/gaussian-16-A.03/avx2/g16/l1.exe PID=       461.
  
 Copyright (c) 1988,1990,1992,1993,1995,1998,2003,2009,2016,
            Gaussian, Inc.  All Rights Reserved.
  
 This is part of the Gaussian(R) 16 program.  It is based on
 the Gaussian(R) 09 system (copyright 2009, Gaussian, Inc.),
 the Gaussian(R) 03 system (copyright 2003, Gaussian, Inc.),
 the Gaussian(R) 98 system (copyright 1998, Gaussian, Inc.),
 the Gaussian(R) 94 system (copyright 1995, Gaussian, Inc.),
 the Gaussian 92(TM) system (copyright 1992, Gaussian, Inc.),
 the Gaussian 90(TM) system (copyright 1990, Gaussian, Inc.),
 the Gaussian 88(TM) system (copyright 1988, Gaussian, Inc.),
 the Gaussian 86(TM) system (copyright 1986, Carnegie Mellon
 University), and the Gaussian 82(TM) system (copyright 1983,
 Carnegie Mellon University). Gaussian is a federally registered
 trademark of Gaussian, Inc.
  
 This software contains proprietary and confidential information,
 including trade secrets, belonging to Gaussian, Inc.
  
 This software is provided under written license and may be
 used, copied, transmitted, or stored only in accord with that
 written license.
  
 The following legend is applicable only to US Government
 contracts under FAR:
  
                    RESTRICTED RIGHTS LEGEND
  
 Use, reproduction and disclosure by the US Government is
 subject to restrictions as set forth in subparagraphs (a)
 and (c) of the Commercial Computer Software - Restricted
 Rights clause in FAR 52.227-19.
  
 Gaussian, Inc.
 340 Quinnipiac St., Bldg. 40, Wallingford CT 06492
  
  
 ---------------------------------------------------------------
 Warning -- This program may not be used in any manner that
 competes with the business of Gaussian, Inc. or will provide
 assistance to any competitor of Gaussian, Inc.  The licensee
 of this program is prohibited from giving any competitor of
 Gaussian, Inc. access to this program.  By using this program,
 the user acknowledges that Gaussian, Inc. is engaged in the
 business of creating and licensing software in the field of
 computational chemistry and represents and warrants to the
 licensee that it is not a competitor of Gaussian, Inc. and that
 it will not use this program in any manner prohibited above.
 ---------------------------------------------------------------
  

 Cite this work as:
 Gaussian 16, Revision A.03,
 M. J. Frisch, G. W. Trucks, H. B. Schlegel, G. E. Scuseria, 
 M. A. Robb, J. R. Cheeseman, G. Scalmani, V. Barone, 
 G. A. Petersson, H. Nakatsuji, X. Li, M. Caricato, A. V. Marenich, 
 J. Bloino, B. G. Janesko, R. Gomperts, B. Mennucci, H. P. Hratchian, 
 J. V. Ortiz, A. F. Izmaylov, J. L. Sonnenberg, D. Williams-Young, 
 F. Ding, F. Lipparini, F. Egidi, J. Goings, B. Peng, A. Petrone, 
 T. Henderson, D. Ranasinghe, V. G. Zakrzewski, J. Gao, N. Rega, 
 G. Zheng, W. Liang, M. Hada, M. Ehara, K. Toyota, R. Fukuda, 
 J. Hasegawa, M. Ishida, T. Nakajima, Y. Honda, O. Kitao, H. Nakai, 
 T. Vreven, K. Throssell, J. A. Montgomery, Jr., J. E. Peralta, 
 F. Ogliaro, M. J. Bearpark, J. J. Heyd, E. N. Brothers, K. N. Kudin, 
 V. N. Staroverov, T. A. Keith, R. Kobayashi, J. Normand, 
 K. Raghavachari, A. P. Rendell, J. C. Burant, S. S. Iyengar, 
 J. Tomasi, M. Cossi, J. M. Millam, M. Klene, C. Adamo, R. Cammi, 
 J. W. Ochterski, R. L. Martin, K. Morokuma, O. Farkas, 
 J. B. Foresman, and D. J. Fox, Gaussian, Inc., Wallingford CT, 2016.
 
 ******************************************
 Gaussian 16:  ES64L-G16RevA.03 25-Dec-2016
                19-May-2023 
 ******************************************
 %chk=COC1dCqCrCCC2dCCdCC2dC1.chk
 %NProcShared=20
 Will use up to   20 processors via shared memory.
 -----------------------------
 # opt freq b3lyp/6-31g(2df,p)
 -----------------------------
 1/18=20,19=15,26=3,38=1/1,3;
 2/9=110,12=2,17=6,18=5,40=1/2;
 3/5=1,6=6,7=104,11=2,25=1,30=1,71=1,74=-5/1,2,3;
 4//1;
 5/5=2,38=5/2;
 6/7=2,8=2,9=2,10=2,28=1/1;
 7//1,2,3,16;
 1/18=20,19=15,26=3/3(2);
 2/9=110/2;
 99//99;
 2/9=110/2;
 3/5=1,6=6,7=104,11=2,25=1,30=1,71=1,74=-5/1,2,3;
 4/5=5,16=3,69=1/1;
 5/5=2,38=5/2;
 7//1,2,3,16;
 1/18=20,19=15,26=3/3(-5);
 2/9=110/2;
 6/7=2,8=2,9=2,10=2,19=2,28=1/1;
 99/9=1/99;
 -------------------
 Title Card Required
 -------------------
 Symbolic Z-matrix:
 Charge =  0 Multiplicity = 1
 C                     1.15949   0.14818   0.07276 
 O                     2.60508   0.08852   0.09269 
 C                     3.12552  -1.05639   0.71614 
 C                     2.61313  -2.27529   0.48006 
 C                     1.91262  -2.60509  -0.82185 
 C                     2.73446  -3.52167   1.34864 
 C                     3.94474  -3.66096   2.24311 
 C                     5.10151  -3.07669   1.47206 
 C                     6.37254  -3.55313   1.45066 
 C                     7.06755  -2.95491   2.63499 
 C                     6.42413  -1.75051   2.7946 
 C                     5.23046  -1.71321   1.94089 
 C                     4.28877  -0.77129   1.6126 
 H                     0.84641   0.9829   -0.56189 
 H                     0.76459   0.28366   1.08311 
 H                     0.65494  -0.72112  -0.35513 
 H                     1.9499   -1.78222  -1.5438 
 H                     0.87696  -2.88837  -0.62456 
 H                     2.42112  -3.43551  -1.32105 
 H                     2.73395  -4.40482   0.70459 
 H                     1.8269   -3.56922   1.96307 
 H                     4.11084  -4.7067    2.52041 
 H                     3.75807  -3.1392    3.20038 
 H                     7.04481  -3.21859   0.65176 
 H                     6.96408  -3.9646    3.09389 
 H                     6.91562  -0.86121   3.15247 
 H                     4.39874   0.25066   1.94665 
 

 GradGradGradGradGradGradGradGradGradGradGradGradGradGradGradGradGradGrad
 Berny optimization.
 Initialization pass.
                           ----------------------------
                           !    Initial Parameters    !
                           ! (Angstroms and Degrees)  !
 --------------------------                            --------------------------
 ! Name  Definition              Value          Derivative Info.                !
 --------------------------------------------------------------------------------
 ! R1    R(1,2)                  1.447          estimate D2E/DX2                !
 ! R2    R(1,14)                 1.0943         estimate D2E/DX2                !
 ! R3    R(1,15)                 1.0932         estimate D2E/DX2                !
 ! R4    R(1,16)                 1.0924         estimate D2E/DX2                !
 ! R5    R(2,3)                  1.4037         estimate D2E/DX2                !
 ! R6    R(3,4)                  1.3431         estimate D2E/DX2                !
 ! R7    R(3,13)                 1.496          estimate D2E/DX2                !
 ! R8    R(4,5)                  1.5147         estimate D2E/DX2                !
 ! R9    R(4,6)                  1.524          estimate D2E/DX2                !
 ! R10   R(5,17)                 1.0953         estimate D2E/DX2                !
 ! R11   R(5,18)                 1.0917         estimate D2E/DX2                !
 ! R12   R(5,19)                 1.0942         estimate D2E/DX2                !
 ! R13   R(6,7)                  1.5114         estimate D2E/DX2                !
 ! R14   R(6,20)                 1.093          estimate D2E/DX2                !
 ! R15   R(6,21)                 1.097          estimate D2E/DX2                !
 ! R16   R(7,8)                  1.508          estimate D2E/DX2                !
 ! R17   R(7,22)                 1.0946         estimate D2E/DX2                !
 ! R18   R(7,23)                 1.1061         estimate D2E/DX2                !
 ! R19   R(8,9)                  1.3576         estimate D2E/DX2                !
 ! R20   R(8,12)                 1.4476         estimate D2E/DX2                !
 ! R21   R(9,10)                 1.4978         estimate D2E/DX2                !
 ! R22   R(9,24)                 1.0964         estimate D2E/DX2                !
 ! R23   R(10,11)                1.3748         estimate D2E/DX2                !
 ! R24   R(10,25)                1.1139         estimate D2E/DX2                !
 ! R25   R(11,12)                1.468          estimate D2E/DX2                !
 ! R26   R(11,26)                1.0773         estimate D2E/DX2                !
 ! R27   R(12,13)                1.3718         estimate D2E/DX2                !
 ! R28   R(13,27)                1.0808         estimate D2E/DX2                !
 ! A1    A(2,1,14)             108.9814         estimate D2E/DX2                !
 ! A2    A(2,1,15)             110.6874         estimate D2E/DX2                !
 ! A3    A(2,1,16)             115.7229         estimate D2E/DX2                !
 ! A4    A(14,1,15)            109.762          estimate D2E/DX2                !
 ! A5    A(14,1,16)            104.3407         estimate D2E/DX2                !
 ! A6    A(15,1,16)            107.0847         estimate D2E/DX2                !
 ! A7    A(1,2,3)              114.2149         estimate D2E/DX2                !
 ! A8    A(2,3,4)              121.3785         estimate D2E/DX2                !
 ! A9    A(2,3,13)             113.5158         estimate D2E/DX2                !
 ! A10   A(4,3,13)             125.093          estimate D2E/DX2                !
 ! A11   A(3,4,5)              121.6739         estimate D2E/DX2                !
 ! A12   A(3,4,6)              127.708          estimate D2E/DX2                !
 ! A13   A(5,4,6)              110.402          estimate D2E/DX2                !
 ! A14   A(4,5,17)             112.7805         estimate D2E/DX2                !
 ! A15   A(4,5,18)             109.8707         estimate D2E/DX2                !
 ! A16   A(4,5,19)             110.0249         estimate D2E/DX2                !
 ! A17   A(17,5,18)            110.2644         estimate D2E/DX2                !
 ! A18   A(17,5,19)            104.6918         estimate D2E/DX2                !
 ! A19   A(18,5,19)            109.0491         estimate D2E/DX2                !
 ! A20   A(4,6,7)              118.452          estimate D2E/DX2                !
 ! A21   A(4,6,20)             108.9611         estimate D2E/DX2                !
 ! A22   A(4,6,21)             106.786          estimate D2E/DX2                !
 ! A23   A(7,6,20)             105.9398         estimate D2E/DX2                !
 ! A24   A(7,6,21)             109.0876         estimate D2E/DX2                !
 ! A25   A(20,6,21)            107.1342         estimate D2E/DX2                !
 ! A26   A(6,7,8)              106.0193         estimate D2E/DX2                !
 ! A27   A(6,7,22)             111.0698         estimate D2E/DX2                !
 ! A28   A(6,7,23)             109.4861         estimate D2E/DX2                !
 ! A29   A(8,7,22)             112.5384         estimate D2E/DX2                !
 ! A30   A(8,7,23)             112.9053         estimate D2E/DX2                !
 ! A31   A(22,7,23)            104.8938         estimate D2E/DX2                !
 ! A32   A(7,8,9)              126.1774         estimate D2E/DX2                !
 ! A33   A(7,8,12)             105.5259         estimate D2E/DX2                !
 ! A34   A(9,8,12)             104.6117         estimate D2E/DX2                !
 ! A35   A(8,9,10)             106.3677         estimate D2E/DX2                !
 ! A36   A(8,9,24)             118.586          estimate D2E/DX2                !
 ! A37   A(10,9,24)             99.7742         estimate D2E/DX2                !
 ! A38   A(9,10,11)            102.9749         estimate D2E/DX2                !
 ! A39   A(9,10,25)             85.4471         estimate D2E/DX2                !
 ! A40   A(11,10,25)           134.6521         estimate D2E/DX2                !
 ! A41   A(10,11,12)           109.5905         estimate D2E/DX2                !
 ! A42   A(10,11,26)           123.2469         estimate D2E/DX2                !
 ! A43   A(12,11,26)           122.9013         estimate D2E/DX2                !
 ! A44   A(8,12,11)            103.7003         estimate D2E/DX2                !
 ! A45   A(8,12,13)            120.5367         estimate D2E/DX2                !
 ! A46   A(11,12,13)           135.6273         estimate D2E/DX2                !
 ! A47   A(3,13,12)            123.1156         estimate D2E/DX2                !
 ! A48   A(3,13,27)            116.3934         estimate D2E/DX2                !
 ! A49   A(12,13,27)           120.3615         estimate D2E/DX2                !
 ! D1    D(14,1,2,3)          -171.2516         estimate D2E/DX2                !
 ! D2    D(15,1,2,3)            67.9456         estimate D2E/DX2                !
 ! D3    D(16,1,2,3)           -54.0934         estimate D2E/DX2                !
 ! D4    D(1,2,3,4)             44.0423         estimate D2E/DX2                !
 ! D5    D(1,2,3,13)          -137.1973         estimate D2E/DX2                !
 ! D6    D(2,3,4,5)             26.7144         estimate D2E/DX2                !
 ! D7    D(2,3,4,6)           -159.1568         estimate D2E/DX2                !
 ! D8    D(13,3,4,5)          -151.8963         estimate D2E/DX2                !
 ! D9    D(13,3,4,6)            22.2324         estimate D2E/DX2                !
 ! D10   D(2,3,13,12)         -156.2334         estimate D2E/DX2                !
 ! D11   D(2,3,13,27)           19.6346         estimate D2E/DX2                !
 ! D12   D(4,3,13,12)           22.4731         estimate D2E/DX2                !
 ! D13   D(4,3,13,27)         -161.6589         estimate D2E/DX2                !
 ! D14   D(3,4,5,17)             4.5218         estimate D2E/DX2                !
 ! D15   D(3,4,5,18)          -118.9289         estimate D2E/DX2                !
 ! D16   D(3,4,5,19)           120.9987         estimate D2E/DX2                !
 ! D17   D(6,4,5,17)          -170.5248         estimate D2E/DX2                !
 ! D18   D(6,4,5,18)            66.0245         estimate D2E/DX2                !
 ! D19   D(6,4,5,19)           -54.0479         estimate D2E/DX2                !
 ! D20   D(3,4,6,7)            -27.4487         estimate D2E/DX2                !
 ! D21   D(3,4,6,20)          -148.5429         estimate D2E/DX2                !
 ! D22   D(3,4,6,21)            96.0519         estimate D2E/DX2                !
 ! D23   D(5,4,6,7)            147.2217         estimate D2E/DX2                !
 ! D24   D(5,4,6,20)            26.1275         estimate D2E/DX2                !
 ! D25   D(5,4,6,21)           -89.2777         estimate D2E/DX2                !
 ! D26   D(4,6,7,8)            -36.5723         estimate D2E/DX2                !
 ! D27   D(4,6,7,22)          -159.118          estimate D2E/DX2                !
 ! D28   D(4,6,7,23)            85.5095         estimate D2E/DX2                !
 ! D29   D(20,6,7,8)            86.0505         estimate D2E/DX2                !
 ! D30   D(20,6,7,22)          -36.4952         estimate D2E/DX2                !
 ! D31   D(20,6,7,23)         -151.8678         estimate D2E/DX2                !
 ! D32   D(21,6,7,8)          -158.9223         estimate D2E/DX2                !
 ! D33   D(21,6,7,22)           78.532          estimate D2E/DX2                !
 ! D34   D(21,6,7,23)          -36.8405         estimate D2E/DX2                !
 ! D35   D(6,7,8,9)           -141.818          estimate D2E/DX2                !
 ! D36   D(6,7,8,12)            96.3441         estimate D2E/DX2                !
 ! D37   D(22,7,8,9)           -20.2097         estimate D2E/DX2                !
 ! D38   D(22,7,8,12)         -142.0476         estimate D2E/DX2                !
 ! D39   D(23,7,8,9)            98.3093         estimate D2E/DX2                !
 ! D40   D(23,7,8,12)          -23.5285         estimate D2E/DX2                !
 ! D41   D(7,8,9,10)           -85.5604         estimate D2E/DX2                !
 ! D42   D(7,8,9,24)           163.2448         estimate D2E/DX2                !
 ! D43   D(12,8,9,10)           36.6708         estimate D2E/DX2                !
 ! D44   D(12,8,9,24)          -74.5239         estimate D2E/DX2                !
 ! D45   D(7,8,12,11)          105.6901         estimate D2E/DX2                !
 ! D46   D(7,8,12,13)          -70.707          estimate D2E/DX2                !
 ! D47   D(9,8,12,11)          -29.1834         estimate D2E/DX2                !
 ! D48   D(9,8,12,13)          154.4195         estimate D2E/DX2                !
 ! D49   D(8,9,10,11)          -29.8739         estimate D2E/DX2                !
 ! D50   D(8,9,10,25)          104.9677         estimate D2E/DX2                !
 ! D51   D(24,9,10,11)          93.9491         estimate D2E/DX2                !
 ! D52   D(24,9,10,25)        -131.2093         estimate D2E/DX2                !
 ! D53   D(9,10,11,12)          10.6504         estimate D2E/DX2                !
 ! D54   D(9,10,11,26)        -146.6774         estimate D2E/DX2                !
 ! D55   D(25,10,11,12)        -85.8447         estimate D2E/DX2                !
 ! D56   D(25,10,11,26)        116.8275         estimate D2E/DX2                !
 ! D57   D(10,11,12,8)          10.3257         estimate D2E/DX2                !
 ! D58   D(10,11,12,13)       -174.1132         estimate D2E/DX2                !
 ! D59   D(26,11,12,8)         167.7473         estimate D2E/DX2                !
 ! D60   D(26,11,12,13)        -16.6916         estimate D2E/DX2                !
 ! D61   D(8,12,13,3)           -2.9886         estimate D2E/DX2                !
 ! D62   D(8,12,13,27)        -178.6987         estimate D2E/DX2                !
 ! D63   D(11,12,13,3)        -177.9801         estimate D2E/DX2                !
 ! D64   D(11,12,13,27)          6.3098         estimate D2E/DX2                !
 --------------------------------------------------------------------------------
 Trust Radius=3.00D-01 FncErr=1.00D-07 GrdErr=1.00D-06 EigMax=2.50D+02 EigMin=1.00D-04
 Number of steps in this run=    151 maximum allowed number of steps=    162.
 GradGradGradGradGradGradGradGradGradGradGradGradGradGradGradGradGradGrad

                          Input orientation:                          
 ---------------------------------------------------------------------
 Center     Atomic      Atomic             Coordinates (Angstroms)
 Number     Number       Type             X           Y           Z
 ---------------------------------------------------------------------
      1          6           0        1.159490    0.148180    0.072760
      2          8           0        2.605080    0.088520    0.092690
      3          6           0        3.125520   -1.056390    0.716140
      4          6           0        2.613130   -2.275290    0.480060
      5          6           0        1.912620   -2.605090   -0.821850
      6          6           0        2.734460   -3.521670    1.348640
      7          6           0        3.944740   -3.660960    2.243110
      8          6           0        5.101510   -3.076690    1.472060
      9          6           0        6.372540   -3.553130    1.450660
     10          6           0        7.067550   -2.954910    2.634990
     11          6           0        6.424130   -1.750510    2.794600
     12          6           0        5.230460   -1.713210    1.940890
     13          6           0        4.288770   -0.771290    1.612600
     14          1           0        0.846410    0.982900   -0.561890
     15          1           0        0.764590    0.283660    1.083110
     16          1           0        0.654940   -0.721120   -0.355130
     17          1           0        1.949900   -1.782220   -1.543800
     18          1           0        0.876960   -2.888370   -0.624560
     19          1           0        2.421120   -3.435510   -1.321050
     20          1           0        2.733950   -4.404820    0.704590
     21          1           0        1.826900   -3.569220    1.963070
     22          1           0        4.110840   -4.706700    2.520410
     23          1           0        3.758070   -3.139200    3.200380
     24          1           0        7.044810   -3.218590    0.651760
     25          1           0        6.964080   -3.964600    3.093890
     26          1           0        6.915620   -0.861210    3.152470
     27          1           0        4.398740    0.250660    1.946650
 ---------------------------------------------------------------------
                    Distance matrix (angstroms):
                    1          2          3          4          5
     1  C    0.000000
     2  O    1.446958   0.000000
     3  C    2.393784   1.403697   0.000000
     4  C    2.855200   2.395353   1.343129   0.000000
     5  C    2.991325   2.927699   2.497000   1.514745   0.000000
     6  C    4.192398   3.824607   2.574993   1.524013   2.495309
     7  C    5.193995   4.525218   3.128345   2.607990   3.826010
     8  C    5.281794   4.260678   2.925331   2.796130   3.956444
     9  C    6.540198   5.412897   4.161294   4.087555   5.094504
    10  C    7.148382   5.969874   4.777653   4.994744   6.216544
    11  C    6.223333   5.026678   3.960130   4.489567   5.844890
    12  C    4.850513   3.681670   2.522340   3.049652   4.408656
    13  C    3.606789   2.425739   1.496019   2.520403   3.864642
    14  H    1.094330   2.078776   3.314575   3.850034   3.752073
    15  H    1.093210   2.099146   2.739414   3.213875   3.645781
    16  H    1.092402   2.158496   2.713631   2.635810   2.312775
    17  H    2.639026   2.570414   2.648819   2.186093   1.095316
    18  H    3.128372   3.516066   3.195254   2.147170   1.091679
    19  H    4.046882   3.801485   3.210379   2.151041   1.094244
    20  H    4.858801   4.536643   3.371267   2.144740   2.498726
    21  H    4.223479   4.181261   3.091207   2.119370   2.948334
    22  H    6.186382   5.581691   4.189392   3.509689   4.518809
    23  H    5.228909   4.626586   3.302978   3.075284   4.457499
    24  H    6.804952   5.564237   4.476616   4.534213   5.374689
    25  H    7.728871   6.666023   5.370840   5.349452   6.534412
    26  H    6.605794   5.370754   4.509840   5.258595   6.623167
    27  H    3.743622   2.584700   2.200823   3.423407   4.690490
                    6          7          8          9         10
     6  C    0.000000
     7  C    1.511376   0.000000
     8  C    2.411673   1.507981   0.000000
     9  C    3.639646   2.556133   1.357560   0.000000
    10  C    4.555390   3.225526   2.287477   1.497846   0.000000
    11  C    4.340677   3.178260   2.292856   2.249061   1.374789
    12  C    3.138679   2.353326   1.447587   2.220355   2.323466
    13  C    3.170196   2.977598   2.448503   3.479505   3.679007
    14  H    5.244617   6.247648   6.222789   7.427250   8.026766
    15  H    4.293184   5.197979   5.500192   6.804789   7.254238
    16  H    3.882050   5.120185   5.353440   6.631147   7.419717
    17  H    3.465174   4.674370   4.550133   5.626958   6.710278
    18  H    2.782965   4.269860   4.719968   5.911839   6.996606
    19  H    2.689396   3.882716   3.887764   4.828036   6.121319
    20  H    1.093048   2.094370   2.821042   3.810687   4.960723
    21  H    1.097019   2.138243   3.347648   4.574458   5.319141
    22  H    2.161426   1.094558   2.176556   2.755064   3.438609
    23  H    2.150117   1.106094   2.189938   3.173060   3.362482
    24  H    4.376827   3.512623   2.114106   1.096406   2.000811
    25  H    4.596930   3.151577   2.624478   1.794278   1.113898
    26  H    5.273893   4.182304   3.320109   3.230716   2.162047
    27  H    4.166283   3.949022   3.433712   4.314013   4.227533
                   11         12         13         14         15
    11  C    0.000000
    12  C    1.468012   0.000000
    13  C    2.629783   1.371775   0.000000
    14  H    7.060348   5.723007   4.433445   0.000000
    15  H    6.252794   4.966616   3.716601   1.789317   0.000000
    16  H    6.653119   5.214531   4.132699   1.727164   1.757879
    17  H    6.232291   4.786429   4.056495   3.134920   3.545910
    18  H    6.614868   5.188015   4.596451   3.871898   3.604239
    19  H    5.983468   4.636697   4.380923   4.751672   4.728245
    20  H    5.003092   3.873727   4.055180   5.847590   5.099363
    21  H    5.013349   3.876788   3.743267   5.297035   4.092373
    22  H    3.763715   3.248134   4.042676   7.247663   6.177938
    23  H    3.033314   2.405763   2.899946   6.294771   5.015947
    24  H    2.670630   2.686985   3.808969   7.585883   7.203678
    25  H    2.298546   3.066530   4.421395   8.675735   7.779757
    26  H    1.077259   2.243567   3.046248   7.350682   6.590004
    27  H    2.970843   2.132739   1.080770   4.409988   3.735483
                   16         17         18         19         20
    16  H    0.000000
    17  H    2.053239   0.000000
    18  H    2.195190   1.794372   0.000000
    19  H    3.379394   1.733503   1.780138   0.000000
    20  H    4.360612   3.542319   2.741290   2.267298   0.000000
    21  H    3.854765   3.937847   2.839326   3.340123   1.762027
    22  H    6.008063   5.453444   4.863655   4.384962   2.298730
    23  H    5.302658   5.255294   4.795193   4.724253   2.979863
    24  H    6.934091   5.730772   6.307171   5.031654   4.471403
    25  H    7.888038   7.170283   7.213749   6.356895   4.878171
    26  H    7.177674   6.896491   7.405454   6.843970   6.002970
    27  H    4.500954   4.723628   5.372854   5.308172   5.097816
                   21         22         23         24         25
    21  H    0.000000
    22  H    2.611680   0.000000
    23  H    2.333510   1.744667   0.000000
    24  H    5.391573   3.783451   4.159859   0.000000
    25  H    5.275007   3.003426   3.312269   2.554809   0.000000
    26  H    5.885836   4.801467   3.893797   3.439110   3.104321
    27  H    4.605010   4.998750   3.670620   4.551277   5.066117
                   26         27
    26  H    0.000000
    27  H    3.004154   0.000000
 Stoichiometry    C12H14O
 Framework group  C1[X(C12H14O)]
 Deg. of freedom    75
 Full point group                 C1      NOp   1
 Largest Abelian subgroup         C1      NOp   1
 Largest concise Abelian subgroup C1      NOp   1
                         Standard orientation:                         
 ---------------------------------------------------------------------
 Center     Atomic      Atomic             Coordinates (Angstroms)
 Number     Number       Type             X           Y           Z
 ---------------------------------------------------------------------
      1          6           0       -3.525168   -0.958287   -0.319922
      2          8           0       -2.307416   -1.375916    0.340647
      3          6           0       -1.188313   -0.583917    0.039459
      4          6           0       -1.266852    0.756660    0.013441
      5          6           0       -2.291799    1.509467    0.836373
      6          6           0       -0.331057    1.731732   -0.690930
      7          6           0        1.105604    1.318136   -0.912740
      8          6           0        1.504272    0.527594    0.307962
      9          6           0        2.712951    0.561540    0.925143
     10          6           0        3.583739   -0.419605    0.202214
     11          6           0        2.684862   -1.358233   -0.246162
     12          6           0        1.316986   -0.861939   -0.052081
     13          6           0        0.055424   -1.377563   -0.208166
     14          1           0       -4.365464   -1.527092    0.089860
     15          1           0       -3.456493   -1.125361   -1.398105
     16          1           0       -3.809106    0.086498   -0.174503
     17          1           0       -2.878261    0.852454    1.487613
     18          1           0       -2.952360    2.076656    0.177800
     19          1           0       -1.789205    2.200773    1.519648
     20          1           0       -0.290658    2.661820   -0.118165
     21          1           0       -0.789899    1.967978   -1.658970
     22          1           0        1.745828    2.191002   -1.074833
     23          1           0        1.180805    0.732753   -1.848217
     24          1           0        2.792828    0.165564    1.944421
     25          1           0        4.068934    0.476885   -0.246853
     26          1           0        2.920092   -2.405655   -0.335957
     27          1           0       -0.081607   -2.420462   -0.456457
 ---------------------------------------------------------------------
 Rotational constants (GHZ):           1.6854683           0.5683076           0.4714358
 Standard basis: 6-31G(2df,p) (6D, 7F)
 There are   473 symmetry adapted cartesian basis functions of A   symmetry.
 There are   434 symmetry adapted basis functions of A   symmetry.
   434 basis functions,   670 primitive gaussians,   473 cartesian basis functions
    47 alpha electrons       47 beta electrons
       nuclear repulsion energy       778.5322864465 Hartrees.
 NAtoms=   27 NActive=   27 NUniq=   27 SFac= 1.00D+00 NAtFMM=   60 NAOKFM=F Big=F
 Integral buffers will be    131072 words long.
 Raffenetti 2 integral format.
 Two-electron integral symmetry is turned on.
 One-electron integrals computed using PRISM.
 PrsmSu:  requested number of processors reduced to:  12 ShMem   1 Linda.
 NBasis=   434 RedAO= T EigKep=  2.83D-04  NBF=   434
 NBsUse=   434 1.00D-06 EigRej= -1.00D+00 NBFU=   434
 ExpMin= 1.61D-01 ExpMax= 5.48D+03 ExpMxC= 8.25D+02 IAcc=3 IRadAn=         5 AccDes= 0.00D+00
 Harris functional with IExCor=  402 and IRadAn=       5 diagonalized for initial guess.
 HarFok:  IExCor=  402 AccDes= 0.00D+00 IRadAn=         5 IDoV= 1 UseB2=F ITyADJ=14
 ICtDFT=  3500011 ScaDFX=  1.000000  1.000000  1.000000  1.000000
 FoFCou: FMM=F IPFlag=           0 FMFlag=      100000 FMFlg1=           0
         NFxFlg=           0 DoJE=T BraDBF=F KetDBF=T FulRan=T
         wScrn=  0.000000 ICntrl=       500 IOpCl=  0 I1Cent=   200000004 NGrid=           0
         NMat0=    1 NMatS0=      1 NMatT0=    0 NMatD0=    1 NMtDS0=    0 NMtDT0=    0
 Petite list used in FoFCou.
 Requested convergence on RMS density matrix=1.00D-08 within 128 cycles.
 Requested convergence on MAX density matrix=1.00D-06.
 Requested convergence on             energy=1.00D-06.
 No special actions if energy rises.
 Integral accuracy reduced to 1.0D-05 until final iterations.
 Initial convergence to 1.0D-05 achieved.  Increase integral accuracy.
 SCF Done:  E(RB3LYP) =  -540.592281181     A.U. after   21 cycles
            NFock= 21  Conv=0.96D-08     -V/T= 2.0072

 **********************************************************************

            Population analysis using the SCF density.

 **********************************************************************

 Orbital symmetries:
       Occupied  (A) (A) (A) (A) (A) (A) (A) (A) (A) (A) (A) (A)
                 (A) (A) (A) (A) (A) (A) (A) (A) (A) (A) (A) (A)
                 (A) (A) (A) (A) (A) (A) (A) (A) (A) (A) (A) (A)
                 (A) (A) (A) (A) (A) (A) (A) (A) (A) (A) (A)
       Virtual   (A) (A) (A) (A) (A) (A) (A) (A) (A) (A) (A) (A)
                 (A) (A) (A) (A) (A) (A) (A) (A) (A) (A) (A) (A)
                 (A) (A) (A) (A) (A) (A) (A) (A) (A) (A) (A) (A)
                 (A) (A) (A) (A) (A) (A) (A) (A) (A) (A) (A) (A)
                 (A) (A) (A) (A) (A) (A) (A) (A) (A) (A) (A) (A)
                 (A) (A) (A) (A) (A) (A) (A) (A) (A) (A) (A) (A)
                 (A) (A) (A) (A) (A) (A) (A) (A) (A) (A) (A) (A)
                 (A) (A) (A) (A) (A) (A) (A) (A) (A) (A) (A) (A)
                 (A) (A) (A) (A) (A) (A) (A) (A) (A) (A) (A) (A)
                 (A) (A) (A) (A) (A) (A) (A) (A) (A) (A) (A) (A)
                 (A) (A) (A) (A) (A) (A) (A) (A) (A) (A) (A) (A)
                 (A) (A) (A) (A) (A) (A) (A) (A) (A) (A) (A) (A)
                 (A) (A) (A) (A) (A) (A) (A) (A) (A) (A) (A) (A)
                 (A) (A) (A) (A) (A) (A) (A) (A) (A) (A) (A) (A)
                 (A) (A) (A) (A) (A) (A) (A) (A) (A) (A) (A) (A)
                 (A) (A) (A) (A) (A) (A) (A) (A) (A) (A) (A) (A)
                 (A) (A) (A) (A) (A) (A) (A) (A) (A) (A) (A) (A)
                 (A) (A) (A) (A) (A) (A) (A) (A) (A) (A) (A) (A)
                 (A) (A) (A) (A) (A) (A) (A) (A) (A) (A) (A) (A)
                 (A) (A) (A) (A) (A) (A) (A) (A) (A) (A) (A) (A)
                 (A) (A) (A) (A) (A) (A) (A) (A) (A) (A) (A) (A)
                 (A) (A) (A) (A) (A) (A) (A) (A) (A) (A) (A) (A)
                 (A) (A) (A) (A) (A) (A) (A) (A) (A) (A) (A) (A)
                 (A) (A) (A) (A) (A) (A) (A) (A) (A) (A) (A) (A)
                 (A) (A) (A) (A) (A) (A) (A) (A) (A) (A) (A) (A)
                 (A) (A) (A) (A) (A) (A) (A) (A) (A) (A) (A) (A)
                 (A) (A) (A) (A) (A) (A) (A) (A) (A) (A) (A) (A)
                 (A) (A) (A) (A) (A) (A) (A) (A) (A) (A) (A) (A)
                 (A) (A) (A) (A) (A) (A) (A) (A) (A) (A) (A) (A)
                 (A) (A) (A) (A) (A) (A) (A) (A) (A) (A) (A) (A)
                 (A) (A) (A) (A) (A) (A) (A) (A) (A) (A) (A) (A)
                 (A) (A) (A) (A) (A) (A) (A) (A) (A) (A) (A) (A)
                 (A) (A) (A)
 The electronic state is 1-A.
 Alpha  occ. eigenvalues --  -19.15662 -10.23399 -10.22656 -10.20657 -10.19678
 Alpha  occ. eigenvalues --  -10.19416 -10.18982 -10.18686 -10.18620 -10.18246
 Alpha  occ. eigenvalues --  -10.18238 -10.17853 -10.17244  -1.03366  -0.89344
 Alpha  occ. eigenvalues --   -0.81927  -0.76783  -0.75621  -0.70967  -0.69537
 Alpha  occ. eigenvalues --   -0.66385  -0.62769  -0.62037  -0.55146  -0.52433
 Alpha  occ. eigenvalues --   -0.51088  -0.48566  -0.47534  -0.45879  -0.45205
 Alpha  occ. eigenvalues --   -0.44770  -0.43933  -0.42741  -0.41239  -0.39471
 Alpha  occ. eigenvalues --   -0.38000  -0.37145  -0.36414  -0.34840  -0.33844
 Alpha  occ. eigenvalues --   -0.33109  -0.32710  -0.30136  -0.28204  -0.23602
 Alpha  occ. eigenvalues --   -0.18935  -0.15848
 Alpha virt. eigenvalues --   -0.10364  -0.07236   0.01448   0.08605   0.09460
 Alpha virt. eigenvalues --    0.11101   0.12236   0.12894   0.13264   0.13677
 Alpha virt. eigenvalues --    0.15005   0.15346   0.15987   0.16517   0.17055
 Alpha virt. eigenvalues --    0.17546   0.19331   0.19347   0.20456   0.21698
 Alpha virt. eigenvalues --    0.22163   0.23845   0.24909   0.26503   0.26906
 Alpha virt. eigenvalues --    0.29929   0.31342   0.33898   0.36585   0.39090
 Alpha virt. eigenvalues --    0.41465   0.42212   0.42797   0.43984   0.44408
 Alpha virt. eigenvalues --    0.46533   0.47340   0.48245   0.49391   0.49920
 Alpha virt. eigenvalues --    0.50438   0.51882   0.53022   0.53228   0.53724
 Alpha virt. eigenvalues --    0.54469   0.55856   0.57052   0.57536   0.58380
 Alpha virt. eigenvalues --    0.58856   0.60135   0.62133   0.63768   0.65176
 Alpha virt. eigenvalues --    0.66277   0.66893   0.68069   0.68562   0.70040
 Alpha virt. eigenvalues --    0.71581   0.72049   0.72365   0.72950   0.74110
 Alpha virt. eigenvalues --    0.74385   0.74645   0.74880   0.75693   0.76333
 Alpha virt. eigenvalues --    0.76901   0.77592   0.78709   0.79494   0.79874
 Alpha virt. eigenvalues --    0.81557   0.82008   0.83660   0.84062   0.85563
 Alpha virt. eigenvalues --    0.85926   0.88339   0.88745   0.90275   0.91394
 Alpha virt. eigenvalues --    0.91694   0.92658   0.94650   0.95051   0.97688
 Alpha virt. eigenvalues --    0.99950   1.01252   1.02463   1.08860   1.08976
 Alpha virt. eigenvalues --    1.11032   1.12115   1.12656   1.15491   1.16983
 Alpha virt. eigenvalues --    1.18320   1.20479   1.22815   1.24071   1.24663
 Alpha virt. eigenvalues --    1.26233   1.27971   1.28855   1.30914   1.32624
 Alpha virt. eigenvalues --    1.34487   1.35661   1.37331   1.37758   1.38661
 Alpha virt. eigenvalues --    1.40589   1.41242   1.42514   1.44377   1.45547
 Alpha virt. eigenvalues --    1.46894   1.48196   1.48861   1.49992   1.51775
 Alpha virt. eigenvalues --    1.52591   1.53733   1.55923   1.56317   1.58488
 Alpha virt. eigenvalues --    1.60605   1.62573   1.63427   1.64839   1.66667
 Alpha virt. eigenvalues --    1.68319   1.70780   1.71705   1.73978   1.74607
 Alpha virt. eigenvalues --    1.76216   1.77811   1.79849   1.81093   1.82786
 Alpha virt. eigenvalues --    1.84000   1.84857   1.85995   1.87880   1.90529
 Alpha virt. eigenvalues --    1.92900   1.96078   1.96817   1.97706   1.98371
 Alpha virt. eigenvalues --    2.00370   2.03119   2.04199   2.07282   2.10091
 Alpha virt. eigenvalues --    2.12706   2.15161   2.18010   2.19153   2.21326
 Alpha virt. eigenvalues --    2.25774   2.26463   2.28851   2.31378   2.32378
 Alpha virt. eigenvalues --    2.32926   2.35898   2.38854   2.39104   2.40959
 Alpha virt. eigenvalues --    2.42875   2.43394   2.45537   2.46890   2.48279
 Alpha virt. eigenvalues --    2.50442   2.53429   2.54920   2.56838   2.62291
 Alpha virt. eigenvalues --    2.63918   2.65809   2.66387   2.69981   2.71371
 Alpha virt. eigenvalues --    2.73025   2.74783   2.74952   2.79534   2.80574
 Alpha virt. eigenvalues --    2.81291   2.82800   2.84263   2.85690   2.87051
 Alpha virt. eigenvalues --    2.88670   2.89244   2.90787   2.91117   2.93013
 Alpha virt. eigenvalues --    2.94028   2.94133   2.96458   2.96543   2.98896
 Alpha virt. eigenvalues --    2.99569   3.00756   3.01023   3.04551   3.05168
 Alpha virt. eigenvalues --    3.07374   3.08317   3.08703   3.11732   3.12144
 Alpha virt. eigenvalues --    3.14654   3.16787   3.18732   3.19833   3.20856
 Alpha virt. eigenvalues --    3.21477   3.22040   3.23752   3.25342   3.26976
 Alpha virt. eigenvalues --    3.28142   3.28875   3.31801   3.32601   3.35239
 Alpha virt. eigenvalues --    3.36494   3.37589   3.39168   3.40536   3.41268
 Alpha virt. eigenvalues --    3.41932   3.44184   3.47326   3.48319   3.48402
 Alpha virt. eigenvalues --    3.50317   3.51056   3.53089   3.54373   3.56173
 Alpha virt. eigenvalues --    3.58279   3.59250   3.61488   3.61920   3.63102
 Alpha virt. eigenvalues --    3.65061   3.66378   3.68443   3.68926   3.70833
 Alpha virt. eigenvalues --    3.76071   3.77273   3.78509   3.80469   3.82106
 Alpha virt. eigenvalues --    3.84719   3.86923   3.88630   3.90464   3.91582
 Alpha virt. eigenvalues --    3.93595   3.94061   3.96037   3.99799   4.00441
 Alpha virt. eigenvalues --    4.04092   4.06998   4.08802   4.12428   4.16344
 Alpha virt. eigenvalues --    4.17734   4.20362   4.21581   4.26534   4.28720
 Alpha virt. eigenvalues --    4.31336   4.32577   4.33605   4.35791   4.36263
 Alpha virt. eigenvalues --    4.37598   4.40120   4.41024   4.42613   4.43482
 Alpha virt. eigenvalues --    4.45412   4.46715   4.47016   4.49221   4.50450
 Alpha virt. eigenvalues --    4.51673   4.53356   4.54635   4.55115   4.56969
 Alpha virt. eigenvalues --    4.57465   4.58292   4.59920   4.60648   4.62345
 Alpha virt. eigenvalues --    4.65144   4.65952   4.67264   4.68388   4.69752
 Alpha virt. eigenvalues --    4.71837   4.72840   4.73264   4.75647   4.76996
 Alpha virt. eigenvalues --    4.77534   4.77947   4.78980   4.81085   4.81753
 Alpha virt. eigenvalues --    4.82742   4.83729   4.85338   4.88683   4.91067
 Alpha virt. eigenvalues --    4.92026   4.92983   4.93477   4.95179   4.96953
 Alpha virt. eigenvalues --    4.97503   5.02410   5.03991   5.07316   5.09131
 Alpha virt. eigenvalues --    5.12557   5.14077   5.18773   5.20693   5.24975
 Alpha virt. eigenvalues --    5.26171   5.28763   5.30776   5.32482   5.34934
 Alpha virt. eigenvalues --    5.38642   5.41476   5.41631   5.46550   5.50539
 Alpha virt. eigenvalues --    5.51306   5.53438   5.59786   5.65888   5.70349
 Alpha virt. eigenvalues --    5.71706   5.74892   5.83148   5.85437   5.87225
 Alpha virt. eigenvalues --    5.92560   6.02210   6.04328   6.04966   6.25593
 Alpha virt. eigenvalues --    6.37579   6.49102   6.86286   7.05705  10.21460
 Alpha virt. eigenvalues --   10.44062  10.87619  11.26889  11.35614  11.52312
 Alpha virt. eigenvalues --   11.77542  11.90296  12.12544  12.20929  12.51940
 Alpha virt. eigenvalues --   12.61864  13.54513
          Condensed to atoms (all electrons):
               1          2          3          4          5          6
     1  C    4.867996   0.361845  -0.086037  -0.001217  -0.006670  -0.000353
     2  O    0.361845   7.689866   0.374631  -0.039056  -0.013521   0.002361
     3  C   -0.086037   0.374631   4.597076   0.536320   0.004356  -0.008228
     4  C   -0.001217  -0.039056   0.536320   4.820541   0.331675   0.401379
     5  C   -0.006670  -0.013521   0.004356   0.331675   5.140692  -0.082818
     6  C   -0.000353   0.002361  -0.008228   0.401379  -0.082818   4.980290
     7  C    0.000005  -0.000066  -0.006406  -0.028869   0.005317   0.363115
     8  C   -0.000016  -0.000012  -0.009675   0.014086  -0.001122  -0.047819
     9  C   -0.000001  -0.000005   0.003340  -0.001477  -0.000070   0.001096
    10  C    0.000000  -0.000000   0.000106  -0.000274  -0.000000   0.000423
    11  C    0.000001  -0.000022   0.005850   0.000334   0.000006   0.000009
    12  C    0.000017   0.001653  -0.013954  -0.018418   0.001377   0.000602
    13  C    0.003638  -0.031034   0.366908  -0.015707   0.005282  -0.022258
    14  H    0.379575  -0.017687   0.003548   0.000455   0.000103   0.000004
    15  H    0.372455  -0.030937   0.007177   0.001526   0.001132   0.000000
    16  H    0.367938  -0.026269  -0.009719   0.001632  -0.000877  -0.000347
    17  H   -0.005083   0.007879  -0.002483  -0.023352   0.369005   0.004288
    18  H   -0.003038   0.000590  -0.004280  -0.021386   0.353159   0.004029
    19  H    0.000686   0.000246  -0.002198  -0.027245   0.372024  -0.006387
    20  H    0.000005  -0.000042   0.001439  -0.033142  -0.007856   0.365262
    21  H    0.000130   0.000026  -0.005387  -0.029439   0.000672   0.337567
    22  H   -0.000000   0.000001  -0.000101   0.004028  -0.000157  -0.013118
    23  H   -0.000005  -0.000014   0.004104  -0.006275  -0.000059  -0.028667
    24  H    0.000000   0.000000  -0.000174  -0.000029  -0.000002  -0.000130
    25  H    0.000000  -0.000000  -0.000001  -0.000007  -0.000000   0.000011
    26  H   -0.000000   0.000000  -0.000138   0.000004  -0.000000  -0.000006
    27  H    0.000037   0.004050  -0.048207   0.006927  -0.000227  -0.000016
               7          8          9         10         11         12
     1  C    0.000005  -0.000016  -0.000001   0.000000   0.000001   0.000017
     2  O   -0.000066  -0.000012  -0.000005  -0.000000  -0.000022   0.001653
     3  C   -0.006406  -0.009675   0.003340   0.000106   0.005850  -0.013954
     4  C   -0.028869   0.014086  -0.001477  -0.000274   0.000334  -0.018418
     5  C    0.005317  -0.001122  -0.000070  -0.000000   0.000006   0.001377
     6  C    0.363115  -0.047819   0.001096   0.000423   0.000009   0.000602
     7  C    4.975426   0.362612  -0.049306   0.021142   0.000198  -0.033311
     8  C    0.362612   4.963023   0.443717  -0.198101  -0.009204   0.435996
     9  C   -0.049306   0.443717   5.528817   0.387004  -0.115452  -0.118801
    10  C    0.021142  -0.198101   0.387004   5.306912   0.473975  -0.049683
    11  C    0.000198  -0.009204  -0.115452   0.473975   5.060459   0.481297
    12  C   -0.033311   0.435996  -0.118801  -0.049683   0.481297   4.479792
    13  C   -0.005170  -0.046370  -0.004762   0.009979  -0.049887   0.527157
    14  H    0.000000  -0.000000   0.000000   0.000000  -0.000000   0.000001
    15  H    0.000006  -0.000001   0.000000   0.000000   0.000000  -0.000069
    16  H   -0.000014   0.000007   0.000000  -0.000000   0.000000   0.000041
    17  H   -0.000154  -0.000012   0.000003   0.000000   0.000000  -0.000029
    18  H   -0.000094   0.000142   0.000001  -0.000000   0.000000  -0.000029
    19  H    0.000319   0.000122   0.000009   0.000001  -0.000001  -0.000033
    20  H   -0.028756  -0.003775   0.000400   0.000029  -0.000029  -0.000529
    21  H   -0.031187   0.006440  -0.000043   0.000013   0.000066  -0.000282
    22  H    0.347177  -0.016238  -0.002247  -0.003775   0.000185   0.003358
    23  H    0.370888  -0.036778   0.007372   0.003402   0.001675  -0.015368
    24  H    0.003712  -0.003399   0.319992  -0.030641  -0.007115   0.008583
    25  H   -0.000635   0.001177  -0.042941   0.335473  -0.002793   0.002675
    26  H   -0.000249   0.007249   0.007166  -0.043799   0.354264  -0.035898
    27  H   -0.000367   0.007919  -0.000475  -0.000308  -0.010453  -0.033397
              13         14         15         16         17         18
     1  C    0.003638   0.379575   0.372455   0.367938  -0.005083  -0.003038
     2  O   -0.031034  -0.017687  -0.030937  -0.026269   0.007879   0.000590
     3  C    0.366908   0.003548   0.007177  -0.009719  -0.002483  -0.004280
     4  C   -0.015707   0.000455   0.001526   0.001632  -0.023352  -0.021386
     5  C    0.005282   0.000103   0.001132  -0.000877   0.369005   0.353159
     6  C   -0.022258   0.000004   0.000000  -0.000347   0.004288   0.004029
     7  C   -0.005170   0.000000   0.000006  -0.000014  -0.000154  -0.000094
     8  C   -0.046370  -0.000000  -0.000001   0.000007  -0.000012   0.000142
     9  C   -0.004762   0.000000   0.000000   0.000000   0.000003   0.000001
    10  C    0.009979   0.000000   0.000000  -0.000000   0.000000  -0.000000
    11  C   -0.049887  -0.000000   0.000000   0.000000   0.000000   0.000000
    12  C    0.527157   0.000001  -0.000069   0.000041  -0.000029  -0.000029
    13  C    5.306741  -0.000086   0.001206  -0.000064   0.000095  -0.000185
    14  H   -0.000086   0.578642  -0.032815  -0.040205   0.000587  -0.000135
    15  H    0.001206  -0.032815   0.613965  -0.050377   0.000690  -0.000214
    16  H   -0.000064  -0.040205  -0.050377   0.627534  -0.005828   0.006901
    17  H    0.000095   0.000587   0.000690  -0.005828   0.581761  -0.033187
    18  H   -0.000185  -0.000135  -0.000214   0.006901  -0.033187   0.612622
    19  H    0.000029  -0.000004   0.000001  -0.000309  -0.029336  -0.034887
    20  H    0.000575   0.000000   0.000006   0.000005   0.000364  -0.000929
    21  H   -0.000334  -0.000003  -0.000105   0.000128  -0.000238   0.002332
    22  H    0.000359  -0.000000  -0.000000   0.000000   0.000002   0.000008
    23  H    0.002468   0.000000   0.000003   0.000000   0.000005   0.000006
    24  H    0.001357   0.000000   0.000000  -0.000000   0.000000  -0.000000
    25  H   -0.000271   0.000000   0.000000  -0.000000   0.000000  -0.000000
    26  H   -0.005654   0.000000  -0.000000   0.000000  -0.000000   0.000000
    27  H    0.339593  -0.000035  -0.000136   0.000064  -0.000013   0.000006
              19         20         21         22         23         24
     1  C    0.000686   0.000005   0.000130  -0.000000  -0.000005   0.000000
     2  O    0.000246  -0.000042   0.000026   0.000001  -0.000014   0.000000
     3  C   -0.002198   0.001439  -0.005387  -0.000101   0.004104  -0.000174
     4  C   -0.027245  -0.033142  -0.029439   0.004028  -0.006275  -0.000029
     5  C    0.372024  -0.007856   0.000672  -0.000157  -0.000059  -0.000002
     6  C   -0.006387   0.365262   0.337567  -0.013118  -0.028667  -0.000130
     7  C    0.000319  -0.028756  -0.031187   0.347177   0.370888   0.003712
     8  C    0.000122  -0.003775   0.006440  -0.016238  -0.036778  -0.003399
     9  C    0.000009   0.000400  -0.000043  -0.002247   0.007372   0.319992
    10  C    0.000001   0.000029   0.000013  -0.003775   0.003402  -0.030641
    11  C   -0.000001  -0.000029   0.000066   0.000185   0.001675  -0.007115
    12  C   -0.000033  -0.000529  -0.000282   0.003358  -0.015368   0.008583
    13  C    0.000029   0.000575  -0.000334   0.000359   0.002468   0.001357
    14  H   -0.000004   0.000000  -0.000003  -0.000000   0.000000   0.000000
    15  H    0.000001   0.000006  -0.000105  -0.000000   0.000003   0.000000
    16  H   -0.000309   0.000005   0.000128   0.000000   0.000000  -0.000000
    17  H   -0.029336   0.000364  -0.000238   0.000002   0.000005   0.000000
    18  H   -0.034887  -0.000929   0.002332   0.000008   0.000006  -0.000000
    19  H    0.594350   0.007014   0.000102  -0.000046  -0.000002   0.000006
    20  H    0.007014   0.640456  -0.040872  -0.013195   0.006197   0.000018
    21  H    0.000102  -0.040872   0.668176   0.000410  -0.004162   0.000003
    22  H   -0.000046  -0.013195   0.000410   0.636442  -0.051779   0.000133
    23  H   -0.000002   0.006197  -0.004162  -0.051779   0.622785  -0.000048
    24  H    0.000006   0.000018   0.000003   0.000133  -0.000048   0.549771
    25  H    0.000000   0.000008  -0.000003   0.000744   0.000495   0.002672
    26  H   -0.000000  -0.000000  -0.000000   0.000026  -0.000153  -0.000953
    27  H    0.000000  -0.000000   0.000004   0.000014  -0.000454   0.000031
              25         26         27
     1  C    0.000000  -0.000000   0.000037
     2  O   -0.000000   0.000000   0.004050
     3  C   -0.000001  -0.000138  -0.048207
     4  C   -0.000007   0.000004   0.006927
     5  C   -0.000000  -0.000000  -0.000227
     6  C    0.000011  -0.000006  -0.000016
     7  C   -0.000635  -0.000249  -0.000367
     8  C    0.001177   0.007249   0.007919
     9  C   -0.042941   0.007166  -0.000475
    10  C    0.335473  -0.043799  -0.000308
    11  C   -0.002793   0.354264  -0.010453
    12  C    0.002675  -0.035898  -0.033397
    13  C   -0.000271  -0.005654   0.339593
    14  H    0.000000   0.000000  -0.000035
    15  H    0.000000  -0.000000  -0.000136
    16  H   -0.000000   0.000000   0.000064
    17  H    0.000000  -0.000000  -0.000013
    18  H   -0.000000   0.000000   0.000006
    19  H    0.000000  -0.000000   0.000000
    20  H    0.000008  -0.000000  -0.000000
    21  H   -0.000003  -0.000000   0.000004
    22  H    0.000744   0.000026   0.000014
    23  H    0.000495  -0.000153  -0.000454
    24  H    0.002672  -0.000953   0.000031
    25  H    0.523120   0.000172   0.000002
    26  H    0.000172   0.602178   0.002521
    27  H    0.000002   0.002521   0.632204
 Mulliken charges:
               1
     1  C   -0.251906
     2  O   -0.284483
     3  C    0.292135
     4  C    0.126986
     5  C   -0.471420
     6  C   -0.250291
     7  C   -0.265335
     8  C    0.130034
     9  C   -0.363339
    10  C   -0.211879
    11  C   -0.183362
    12  C    0.377253
    13  C   -0.383604
    14  H    0.128055
    15  H    0.116487
    16  H    0.129757
    17  H    0.135036
    18  H    0.118567
    19  H    0.125538
    20  H    0.107348
    21  H    0.095988
    22  H    0.107770
    23  H    0.124362
    24  H    0.156212
    25  H    0.180103
    26  H    0.113270
    27  H    0.100718
 Sum of Mulliken charges =  -0.00000
 Mulliken charges with hydrogens summed into heavy atoms:
               1
     1  C    0.122393
     2  O   -0.284483
     3  C    0.292135
     4  C    0.126986
     5  C   -0.092279
     6  C   -0.046955
     7  C   -0.033203
     8  C    0.130034
     9  C   -0.207127
    10  C   -0.031776
    11  C   -0.070092
    12  C    0.377253
    13  C   -0.282886
 Electronic spatial extent (au):  <R**2>=           2480.2759
 Charge=             -0.0000 electrons
 Dipole moment (field-independent basis, Debye):
    X=             -1.2324    Y=              0.9343    Z=             -1.3285  Tot=              2.0388
 Quadrupole moment (field-independent basis, Debye-Ang):
   XX=            -75.7631   YY=            -76.8233   ZZ=            -77.3241
   XY=             -1.3565   XZ=             -0.2934   YZ=             -0.2841
 Traceless Quadrupole moment (field-independent basis, Debye-Ang):
   XX=              0.8737   YY=             -0.1865   ZZ=             -0.6872
   XY=             -1.3565   XZ=             -0.2934   YZ=             -0.2841
 Octapole moment (field-independent basis, Debye-Ang**2):
  XXX=            -64.8387  YYY=             -7.2672  ZZZ=              1.5849  XYY=             -2.1484
  XXY=              0.2048  XXZ=            -10.6153  XZZ=             -6.3705  YZZ=             -0.4616
  YYZ=             -5.1354  XYZ=             -7.1546
 Hexadecapole moment (field-independent basis, Debye-Ang**3):
 XXXX=          -2355.5992 YYYY=           -741.1529 ZZZZ=           -252.6573 XXXY=             67.1941
 XXXZ=            -28.7990 YYYX=             -4.9287 YYYZ=              2.1088 ZZZX=              1.5491
 ZZZY=             -6.7923 XXYY=           -525.2128 XXZZ=           -441.9223 YYZZ=           -174.2022
 XXYZ=            -10.7095 YYXZ=             -7.8833 ZZXY=              2.5528
 N-N= 7.785322864465D+02 E-N=-2.812492793961D+03  KE= 5.367457035705D+02
 PrsmSu:  requested number of processors reduced to:  13 ShMem   1 Linda.
 Calling FoFJK, ICntrl=      2127 FMM=F ISym2X=0 I1Cent= 0 IOpClX= 0 NMat=1 NMatS=1 NMatT=0.
 ***** Axes restored to original set *****
 -------------------------------------------------------------------
 Center     Atomic                   Forces (Hartrees/Bohr)
 Number     Number              X              Y              Z
 -------------------------------------------------------------------
      1        6           0.001992587    0.003438217   -0.000572494
      2        8          -0.005926439   -0.012792659   -0.000760129
      3        6           0.010672677    0.017287118    0.022584714
      4        6           0.005248274   -0.025618891   -0.016008226
      5        6          -0.001941226    0.011207850    0.000968967
      6        6          -0.014478856    0.000833625    0.000024691
      7        6          -0.020875639   -0.014807842   -0.025873555
      8        6          -0.059244836    0.008678610    0.044748031
      9        6           0.064476390   -0.026632748   -0.041902160
     10        6          -0.032275840    0.003810515   -0.004280761
     11        6           0.015046693    0.025524258   -0.004350482
     12        6           0.002206686    0.030933984    0.012235898
     13        6          -0.006827592   -0.003751267   -0.004085668
     14        1           0.007708104    0.004359055    0.003202703
     15        1           0.001466815    0.002347088    0.002700956
     16        1           0.005987792   -0.001639518    0.001233786
     17        1          -0.002848531   -0.000392753    0.003505376
     18        1          -0.004777102   -0.003534558   -0.006522239
     19        1          -0.000530284   -0.004679562    0.004217723
     20        1          -0.004304031    0.001452282   -0.003640243
     21        1          -0.005916123   -0.003453414   -0.000903663
     22        1          -0.000131840   -0.001553478   -0.005521808
     23        1           0.011014165    0.003465666   -0.007817957
     24        1           0.003178401   -0.041875020   -0.014209252
     25        1           0.037898394    0.018872846    0.021214569
     26        1          -0.009233085    0.003813797    0.022451404
     27        1           0.002414448    0.004706800   -0.002640179
 -------------------------------------------------------------------
 Cartesian Forces:  Max     0.064476390 RMS     0.017409996

 GradGradGradGradGradGradGradGradGradGradGradGradGradGradGradGradGradGrad
 Berny optimization.
 FormGI is forming the generalized inverse of G from B-inverse, IUseBI=4.
 Internal  Forces:  Max     0.088021883 RMS     0.014160968
 Search for a local minimum.
 Step number   1 out of a maximum of  151
 All quantities printed in internal units (Hartrees-Bohrs-Radians)
 Mixed Optimization -- RFO/linear search
 Second derivative matrix not updated -- first step.
 ITU=  0
     Eigenvalues ---    0.00571   0.00647   0.01071   0.01145   0.01527
     Eigenvalues ---    0.01627   0.01643   0.01680   0.01773   0.02044
     Eigenvalues ---    0.02161   0.02169   0.02665   0.03440   0.03857
     Eigenvalues ---    0.04842   0.05168   0.05551   0.06060   0.06488
     Eigenvalues ---    0.06949   0.07238   0.07324   0.07991   0.08430
     Eigenvalues ---    0.09496   0.10099   0.10201   0.10335   0.12214
     Eigenvalues ---    0.13950   0.14633   0.15950   0.16000   0.16000
     Eigenvalues ---    0.16000   0.16000   0.16000   0.16000   0.17389
     Eigenvalues ---    0.20238   0.22132   0.23171   0.24006   0.24895
     Eigenvalues ---    0.24995   0.25000   0.29003   0.29810   0.30746
     Eigenvalues ---    0.30878   0.30951   0.32191   0.32299   0.33017
     Eigenvalues ---    0.34014   0.34083   0.34205   0.34291   0.34317
     Eigenvalues ---    0.34327   0.34444   0.34463   0.34536   0.34619
     Eigenvalues ---    0.34698   0.34977   0.35901   0.36327   0.38646
     Eigenvalues ---    0.45013   0.46328   0.48899   0.51164   0.54627
 RFO step:  Lambda=-9.81125241D-02 EMin= 5.70901482D-03
 Linear search not attempted -- first point.
 Maximum step size (   0.300) exceeded in Quadratic search.
    -- Step size scaled by   0.790
 Iteration  1 RMS(Cart)=  0.12736766 RMS(Int)=  0.00558065
 Iteration  2 RMS(Cart)=  0.00886325 RMS(Int)=  0.00082706
 Iteration  3 RMS(Cart)=  0.00002999 RMS(Int)=  0.00082678
 Iteration  4 RMS(Cart)=  0.00000003 RMS(Int)=  0.00082678
 Variable       Old X    -DE/DX   Delta X   Delta X   Delta X     New X
                                 (Linear)    (Quad)   (Total)
    R1        2.73435  -0.01688   0.00000  -0.02751  -0.02751   2.70684
    R2        2.06798  -0.00074   0.00000  -0.00132  -0.00132   2.06666
    R3        2.06587   0.00226   0.00000   0.00403   0.00403   2.06990
    R4        2.06434  -0.00194   0.00000  -0.00346  -0.00346   2.06088
    R5        2.65260  -0.01024   0.00000  -0.01476  -0.01476   2.63785
    R6        2.53815   0.02604   0.00000   0.02772   0.02787   2.56602
    R7        2.82707  -0.01788   0.00000  -0.03718  -0.03724   2.78983
    R8        2.86245   0.00224   0.00000   0.00435   0.00435   2.86680
    R9        2.87997  -0.00098   0.00000  -0.00486  -0.00462   2.87535
   R10        2.06985  -0.00270   0.00000  -0.00485  -0.00485   2.06500
   R11        2.06297   0.00427   0.00000   0.00759   0.00759   2.07057
   R12        2.06782   0.00138   0.00000   0.00247   0.00247   2.07029
   R13        2.85609   0.02011   0.00000   0.04187   0.04199   2.89808
   R14        2.06556   0.00097   0.00000   0.00174   0.00174   2.06730
   R15        2.07307   0.00454   0.00000   0.00818   0.00818   2.08124
   R16        2.84967   0.00908   0.00000   0.02197   0.02188   2.87155
   R17        2.06841   0.00007   0.00000   0.00012   0.00012   2.06853
   R18        2.09022  -0.00699   0.00000  -0.01289  -0.01289   2.07732
   R19        2.56542   0.08802   0.00000   0.11659   0.11738   2.68280
   R20        2.73554   0.03813   0.00000   0.07167   0.07198   2.80752
   R21        2.83052   0.05520   0.00000   0.10246   0.10282   2.93334
   R22        2.07191  -0.00047   0.00000  -0.00085  -0.00085   2.07105
   R23        2.59797   0.01242   0.00000   0.00915   0.00826   2.60624
   R24        2.10496  -0.01189   0.00000  -0.02236  -0.02236   2.08260
   R25        2.77414  -0.00697   0.00000  -0.01737  -0.01818   2.75596
   R26        2.03573   0.00639   0.00000   0.01095   0.01095   2.04667
   R27        2.59228  -0.01519   0.00000  -0.01997  -0.02018   2.57210
   R28        2.04236   0.00388   0.00000   0.00671   0.00671   2.04907
    A1        1.90208  -0.00975   0.00000  -0.03058  -0.03075   1.87133
    A2        1.93186  -0.00118   0.00000  -0.00437  -0.00450   1.92736
    A3        2.01975  -0.00433   0.00000  -0.01170  -0.01177   2.00797
    A4        1.91571   0.00141   0.00000   0.00121   0.00098   1.91668
    A5        1.82109   0.00985   0.00000   0.03172   0.03161   1.85270
    A6        1.86898   0.00494   0.00000   0.01648   0.01644   1.88542
    A7        1.99343   0.02148   0.00000   0.04874   0.04874   2.04217
    A8        2.11845   0.01332   0.00000   0.02927   0.02935   2.14781
    A9        1.98122  -0.03211   0.00000  -0.07376  -0.07356   1.90766
   A10        2.18328   0.01870   0.00000   0.04395   0.04336   2.22665
   A11        2.12361   0.00069   0.00000   0.00062   0.00038   2.12399
   A12        2.22893  -0.00404   0.00000  -0.00653  -0.00603   2.22289
   A13        1.92688   0.00339   0.00000   0.00637   0.00607   1.93295
   A14        1.96839  -0.00129   0.00000  -0.00258  -0.00263   1.96576
   A15        1.91761   0.01080   0.00000   0.03246   0.03250   1.95011
   A16        1.92030  -0.00606   0.00000  -0.01930  -0.01922   1.90108
   A17        1.92448  -0.00438   0.00000  -0.01202  -0.01209   1.91239
   A18        1.82722   0.00481   0.00000   0.01593   0.01592   1.84314
   A19        1.90327  -0.00459   0.00000  -0.01676  -0.01659   1.88667
   A20        2.06738  -0.01351   0.00000  -0.01646  -0.01699   2.05039
   A21        1.90173  -0.00046   0.00000  -0.01008  -0.01019   1.89154
   A22        1.86377   0.00430   0.00000   0.00304   0.00367   1.86743
   A23        1.84900   0.01030   0.00000   0.02667   0.02680   1.87580
   A24        1.90394   0.00375   0.00000   0.00775   0.00784   1.91178
   A25        1.86985  -0.00401   0.00000  -0.01139  -0.01163   1.85822
   A26        1.85039   0.02072   0.00000   0.07124   0.07021   1.92060
   A27        1.93853  -0.00217   0.00000  -0.00706  -0.00701   1.93152
   A28        1.91089  -0.00598   0.00000  -0.01244  -0.01091   1.89998
   A29        1.96416  -0.00541   0.00000  -0.01604  -0.01605   1.94812
   A30        1.97057  -0.01422   0.00000  -0.05564  -0.05576   1.91481
   A31        1.83074   0.00613   0.00000   0.01705   0.01623   1.84697
   A32        2.20221   0.01875   0.00000   0.05126   0.05106   2.25327
   A33        1.84177   0.00838   0.00000   0.04047   0.03750   1.87928
   A34        1.82582  -0.01190   0.00000  -0.01084  -0.01210   1.81372
   A35        1.85647  -0.02892   0.00000  -0.04612  -0.04436   1.81210
   A36        2.06972   0.01658   0.00000   0.05993   0.05938   2.12910
   A37        1.74139   0.01152   0.00000   0.03888   0.03971   1.78110
   A38        1.79725   0.01979   0.00000   0.05122   0.05055   1.84780
   A39        1.49133   0.00937   0.00000   0.06109   0.05986   1.55119
   A40        2.35012  -0.00107   0.00000   0.00335  -0.00115   2.34897
   A41        1.91271  -0.00031   0.00000  -0.01416  -0.01546   1.89726
   A42        2.15106   0.00546   0.00000   0.02928   0.03006   2.18112
   A43        2.14503  -0.00361   0.00000  -0.00632  -0.00601   2.13902
   A44        1.80991   0.02295   0.00000   0.04999   0.05068   1.86059
   A45        2.10376  -0.00352   0.00000   0.00754   0.00646   2.11022
   A46        2.36714  -0.01938   0.00000  -0.05648  -0.05619   2.31095
   A47        2.14877   0.00738   0.00000   0.02715   0.02640   2.17517
   A48        2.03145  -0.00428   0.00000  -0.01586  -0.01557   2.01588
   A49        2.10070  -0.00322   0.00000  -0.01233  -0.01193   2.08877
    D1       -2.98890  -0.00381   0.00000  -0.01873  -0.01862  -3.00753
    D2        1.18587   0.00146   0.00000   0.00223   0.00207   1.18794
    D3       -0.94411  -0.00097   0.00000  -0.00756  -0.00751  -0.95161
    D4        0.76868   0.01243   0.00000   0.08546   0.08510   0.85379
    D5       -2.39454   0.00866   0.00000   0.06000   0.06036  -2.33418
    D6        0.46625  -0.00461   0.00000  -0.03294  -0.03382   0.43244
    D7       -2.77781  -0.00378   0.00000  -0.02631  -0.02765  -2.80546
    D8       -2.65109   0.00028   0.00000  -0.00288  -0.00283  -2.65392
    D9        0.38803   0.00111   0.00000   0.00375   0.00334   0.39137
   D10       -2.72679   0.00095   0.00000   0.00408   0.00273  -2.72406
   D11        0.34269  -0.00102   0.00000  -0.01312  -0.01391   0.32878
   D12        0.39223  -0.00311   0.00000  -0.02278  -0.02374   0.36849
   D13       -2.82148  -0.00507   0.00000  -0.03998  -0.04038  -2.86186
   D14        0.07892   0.00035   0.00000   0.00381   0.00368   0.08260
   D15       -2.07570  -0.00107   0.00000  -0.00287  -0.00312  -2.07882
   D16        2.11183   0.00161   0.00000   0.00953   0.00944   2.12127
   D17       -2.97622   0.00003   0.00000  -0.00114  -0.00096  -2.97718
   D18        1.15235  -0.00139   0.00000  -0.00781  -0.00775   1.14459
   D19       -0.94331   0.00128   0.00000   0.00458   0.00481  -0.93851
   D20       -0.47907   0.00373   0.00000   0.01577   0.01585  -0.46322
   D21       -2.59256   0.00004   0.00000   0.00020   0.00059  -2.59197
   D22        1.67642   0.00270   0.00000   0.01693   0.01726   1.69368
   D23        2.56950   0.00441   0.00000   0.02160   0.02127   2.59077
   D24        0.45601   0.00072   0.00000   0.00603   0.00601   0.46202
   D25       -1.55819   0.00338   0.00000   0.02276   0.02267  -1.53551
   D26       -0.63831   0.00444   0.00000   0.01587   0.01697  -0.62133
   D27       -2.77713  -0.00094   0.00000  -0.00601  -0.00549  -2.78263
   D28        1.49242  -0.00359   0.00000  -0.01529  -0.01474   1.47769
   D29        1.50186   0.00308   0.00000   0.01323   0.01365   1.51551
   D30       -0.63696  -0.00230   0.00000  -0.00865  -0.00882  -0.64578
   D31       -2.65059  -0.00495   0.00000  -0.01793  -0.01806  -2.66866
   D32       -2.77372   0.00552   0.00000   0.01744   0.01808  -2.75563
   D33        1.37064   0.00014   0.00000  -0.00444  -0.00438   1.36626
   D34       -0.64299  -0.00251   0.00000  -0.01372  -0.01363  -0.65661
   D35       -2.47519  -0.00743   0.00000  -0.01512  -0.01424  -2.48943
   D36        1.68152  -0.01331   0.00000  -0.08109  -0.08260   1.59893
   D37       -0.35273   0.00045   0.00000   0.01397   0.01492  -0.33781
   D38       -2.47920  -0.00544   0.00000  -0.05201  -0.05344  -2.53264
   D39        1.71582  -0.00544   0.00000  -0.01437  -0.01210   1.70372
   D40       -0.41065  -0.01133   0.00000  -0.08035  -0.08046  -0.49111
   D41       -1.49331  -0.02903   0.00000  -0.15300  -0.15082  -1.64414
   D42        2.84916  -0.03201   0.00000  -0.20112  -0.20028   2.64888
   D43        0.64003  -0.01462   0.00000  -0.06571  -0.06423   0.57579
   D44       -1.30069  -0.01760   0.00000  -0.11383  -0.11369  -1.41438
   D45        1.84464   0.01987   0.00000   0.10313   0.10440   1.94904
   D46       -1.23407   0.01994   0.00000   0.09153   0.09205  -1.14202
   D47       -0.50935  -0.00069   0.00000   0.02149   0.02281  -0.48653
   D48        2.69513  -0.00062   0.00000   0.00989   0.01046   2.70559
   D49       -0.52140   0.00284   0.00000   0.03646   0.03580  -0.48560
   D50        1.83203   0.00635   0.00000   0.06092   0.06328   1.89532
   D51        1.63972   0.01508   0.00000   0.10305   0.10202   1.74174
   D52       -2.29003   0.01859   0.00000   0.12751   0.12950  -2.16054
   D53        0.18588   0.00667   0.00000  -0.00640  -0.00695   0.17894
   D54       -2.56000   0.00381   0.00000  -0.02577  -0.02659  -2.58659
   D55       -1.49827  -0.02671   0.00000  -0.14824  -0.14794  -1.64621
   D56        2.03902  -0.02958   0.00000  -0.16760  -0.16758   1.87144
   D57        0.18022   0.00157   0.00000  -0.00343  -0.00373   0.17649
   D58       -3.03885   0.00286   0.00000   0.01570   0.01502  -3.02383
   D59        2.92774   0.00687   0.00000   0.02553   0.02521   2.95296
   D60       -0.29132   0.00817   0.00000   0.04466   0.04396  -0.24737
   D61       -0.05216  -0.00012   0.00000  -0.00463  -0.00486  -0.05702
   D62       -3.11888   0.00193   0.00000   0.01328   0.01249  -3.10639
   D63       -3.10634  -0.00226   0.00000  -0.02690  -0.02667  -3.13301
   D64        0.11013  -0.00020   0.00000  -0.00900  -0.00932   0.10080
         Item               Value     Threshold  Converged?
 Maximum Force            0.088022     0.000450     NO 
 RMS     Force            0.014161     0.000300     NO 
 Maximum Displacement     0.471089     0.001800     NO 
 RMS     Displacement     0.129179     0.001200     NO 
 Predicted change in Energy=-6.208340D-02
 GradGradGradGradGradGradGradGradGradGradGradGradGradGradGradGradGradGrad

                          Input orientation:                          
 ---------------------------------------------------------------------
 Center     Atomic      Atomic             Coordinates (Angstroms)
 Number     Number       Type             X           Y           Z
 ---------------------------------------------------------------------
      1          6           0        1.224365    0.264749    0.140760
      2          8           0        2.638309    0.036282    0.122581
      3          6           0        3.097890   -1.140850    0.715583
      4          6           0        2.563161   -2.360847    0.451939
      5          6           0        1.840522   -2.649853   -0.850249
      6          6           0        2.681086   -3.622341    1.294493
      7          6           0        3.914702   -3.758879    2.195307
      8          6           0        5.127780   -3.148858    1.513118
      9          6           0        6.476700   -3.591372    1.521584
     10          6           0        7.123918   -2.786359    2.680276
     11          6           0        6.403880   -1.613746    2.773059
     12          6           0        5.215400   -1.727176    1.935467
     13          6           0        4.252839   -0.832204    1.581797
     14          1           0        1.030785    1.145710   -0.477674
     15          1           0        0.879580    0.446577    1.164399
     16          1           0        0.621128   -0.540195   -0.280567
     17          1           0        1.881598   -1.810795   -1.549101
     18          1           0        0.796367   -2.935091   -0.680158
     19          1           0        2.342016   -3.481083   -1.357985
     20          1           0        2.666101   -4.487133    0.624660
     21          1           0        1.768422   -3.686463    1.907598
     22          1           0        4.085594   -4.807140    2.460141
     23          1           0        3.721588   -3.237748    3.143741
     24          1           0        7.160460   -3.385579    0.690177
     25          1           0        7.169076   -3.715310    3.271512
     26          1           0        6.810354   -0.658501    3.081749
     27          1           0        4.353306    0.207425    1.873045
 ---------------------------------------------------------------------
                    Distance matrix (angstroms):
                    1          2          3          4          5
     1  C    0.000000
     2  O    1.432399   0.000000
     3  C    2.411685   1.395889   0.000000
     4  C    2.963606   2.420817   1.357879   0.000000
     5  C    3.139531   2.966173   2.511950   1.517044   0.000000
     6  C    4.308434   3.841970   2.581988   1.521568   2.500439
     7  C    5.258200   4.508728   3.116223   2.611607   3.848061
     8  C    5.364022   4.275064   2.964560   2.885192   4.079286
     9  C    6.660583   5.463545   4.251007   4.239590   5.292088
    10  C    7.110776   5.884708   4.772486   5.093825   6.355903
    11  C    6.106154   4.891538   3.922551   4.549383   5.918286
    12  C    4.808025   3.610781   2.513115   3.104315   4.472286
    13  C    3.528676   2.343136   1.476312   2.543294   3.877882
    14  H    1.093630   2.043348   3.305320   3.938058   3.898819
    15  H    1.095343   2.084912   2.764463   3.350175   3.817080
    16  H    1.090571   2.136322   2.736320   2.760947   2.502423
    17  H    2.755987   2.603617   2.656498   2.184318   1.092749
    18  H    3.331076   3.586949   3.234872   2.175536   1.095697
    19  H    4.186482   3.827757   3.216787   2.140013   1.095552
    20  H    4.989303   4.551279   3.375250   2.135771   2.496504
    21  H    4.362315   4.219221   3.109426   2.123161   2.947114
    22  H    6.268191   5.569341   4.178603   3.512126   4.544548
    23  H    5.246094   4.584777   3.268323   3.058874   4.453761
    24  H    6.990278   5.699223   4.641544   4.716142   5.587123
    25  H    7.809102   6.672186   5.452997   5.567676   6.820381
    26  H    6.380054   5.161914   4.428747   5.277550   6.642689
    27  H    3.576922   2.456548   2.175691   3.438049   4.679150
                    6          7          8          9         10
     6  C    0.000000
     7  C    1.533596   0.000000
     8  C    2.501659   1.519561   0.000000
     9  C    3.802528   2.654392   1.419675   0.000000
    10  C    4.728427   3.388223   2.340561   1.552257   0.000000
    11  C    4.481050   3.336375   2.360603   2.341473   1.379161
    12  C    3.228815   2.426345   1.485676   2.288537   2.306306
    13  C    3.215248   3.009345   2.477321   3.544318   3.642591
    14  H    5.347746   6.286240   6.260347   7.489658   7.909494
    15  H    4.451791   5.287778   5.576375   6.910887   7.193157
    16  H    4.027886   5.228529   5.507480   6.844352   7.489868
    17  H    3.465098   4.684990   4.658894   5.806421   6.805973
    18  H    2.814911   4.320988   4.859763   6.127361   7.166068
    19  H    2.677790   3.895689   4.014235   5.039811   6.297362
    20  H    1.093968   2.134546   2.939422   4.015909   5.195221
    21  H    1.101347   2.166689   3.424898   4.725033   5.485303
    22  H    2.176035   1.094620   2.175524   2.841896   3.655602
    23  H    2.156450   1.099272   2.155042   3.216688   3.463293
    24  H    4.526152   3.597181   2.205687   1.095954   2.078676
    25  H    4.905029   3.427983   2.753126   1.885999   1.102066
    26  H    5.387902   4.333928   3.390212   3.338738   2.187986
    27  H    4.218785   4.003473   3.463234   4.366141   4.158204
                   11         12         13         14         15
    11  C    0.000000
    12  C    1.458393   0.000000
    13  C    2.580095   1.361096   0.000000
    14  H    6.859447   5.620297   4.305253   0.000000
    15  H    6.111514   4.911118   3.631581   1.791105   0.000000
    16  H    6.627017   5.237086   4.091820   1.746123   1.768740
    17  H    6.258668   4.823219   4.047585   3.257723   3.669175
    18  H    6.716759   5.275264   4.635275   4.092541   3.852920
    19  H    6.086970   4.709495   4.394328   4.888915   4.891590
    20  H    5.181019   3.979259   4.097847   5.968109   5.274890
    21  H    5.150985   3.965002   3.798061   5.439074   4.292365
    22  H    3.958552   3.322337   4.074258   7.307465   6.289596
    23  H    3.157448   2.444019   2.916940   6.290452   5.056585
    24  H    2.837288   2.843291   3.971016   7.711639   7.372907
    25  H    2.291408   3.091042   4.435299   8.681275   7.830644
    26  H    1.083053   2.236047   2.970002   7.023396   6.330206
    27  H    2.886442   2.118912   1.084319   4.176769   3.553328
                   16         17         18         19         20
    16  H    0.000000
    17  H    2.193715   0.000000
    18  H    2.434320   1.787968   0.000000
    19  H    3.573669   1.743093   1.773862   0.000000
    20  H    4.536482   3.536024   2.758131   2.246786   0.000000
    21  H    4.000419   3.934426   2.864600   3.321931   1.758645
    22  H    6.141728   5.468976   4.917830   4.401883   2.342297
    23  H    5.349349   5.238752   4.823974   4.714654   3.003462
    24  H    7.197320   5.946486   6.525522   5.236553   4.627848
    25  H    8.097792   7.404249   7.538956   6.692354   5.279992
    26  H    7.044550   6.860407   7.450023   6.902481   6.153905
    27  H    4.373342   4.679063   5.389440   5.299993   5.142372
                   21         22         23         24         25
    21  H    0.000000
    22  H    2.632586   0.000000
    23  H    2.354624   1.750086   0.000000
    24  H    5.535948   3.822095   4.227016   0.000000
    25  H    5.570293   3.370205   3.482752   2.602323   0.000000
    26  H    5.997355   5.002192   4.024529   3.644056   3.083630
    27  H    4.673883   5.055909   3.725984   4.710517   5.027139
                   26         27
    26  H    0.000000
    27  H    2.871913   0.000000
 Stoichiometry    C12H14O
 Framework group  C1[X(C12H14O)]
 Deg. of freedom    75
 Full point group                 C1      NOp   1
 Largest Abelian subgroup         C1      NOp   1
 Largest concise Abelian subgroup C1      NOp   1
                         Standard orientation:                         
 ---------------------------------------------------------------------
 Center     Atomic      Atomic             Coordinates (Angstroms)
 Number     Number       Type             X           Y           Z
 ---------------------------------------------------------------------
      1          6           0       -3.474033   -1.167864   -0.326419
      2          8           0       -2.230381   -1.389155    0.348953
      3          6           0       -1.177781   -0.526827    0.037618
      4          6           0       -1.307815    0.824700    0.020208
      5          6           0       -2.373483    1.533472    0.834713
      6          6           0       -0.399746    1.830871   -0.671313
      7          6           0        1.063374    1.428237   -0.892861
      8          6           0        1.556590    0.593230    0.276997
      9          6           0        2.833102    0.588149    0.898259
     10          6           0        3.592603   -0.556848    0.176013
     11          6           0        2.625135   -1.447013   -0.240757
     12          6           0        1.314710   -0.834690   -0.054325
     13          6           0        0.048864   -1.316271   -0.189579
     14          1           0       -4.213442   -1.831109    0.131193
     15          1           0       -3.376680   -1.399633   -1.392525
     16          1           0       -3.875277   -0.157838   -0.235897
     17          1           0       -2.938883    0.849966    1.472869
     18          1           0       -3.064224    2.096215    0.196945
     19          1           0       -1.887972    2.239937    1.516930
     20          1           0       -0.401104    2.755496   -0.086650
     21          1           0       -0.865765    2.072938   -1.639402
     22          1           0        1.688346    2.313334   -1.048442
     23          1           0        1.134508    0.844098   -1.821365
     24          1           0        2.964486    0.320266    1.952817
     25          1           0        4.214014    0.201808   -0.326817
     26          1           0        2.761467   -2.518278   -0.323276
     27          1           0       -0.105547   -2.368845   -0.399319
 ---------------------------------------------------------------------
 Rotational constants (GHZ):           1.5775118           0.5675139           0.4604420
 Standard basis: 6-31G(2df,p) (6D, 7F)
 There are   473 symmetry adapted cartesian basis functions of A   symmetry.
 There are   434 symmetry adapted basis functions of A   symmetry.
   434 basis functions,   670 primitive gaussians,   473 cartesian basis functions
    47 alpha electrons       47 beta electrons
       nuclear repulsion energy       770.3411235544 Hartrees.
 NAtoms=   27 NActive=   27 NUniq=   27 SFac= 1.00D+00 NAtFMM=   60 NAOKFM=F Big=F
 Integral buffers will be    131072 words long.
 Raffenetti 2 integral format.
 Two-electron integral symmetry is turned on.
 One-electron integrals computed using PRISM.
 PrsmSu:  requested number of processors reduced to:  12 ShMem   1 Linda.
 NBasis=   434 RedAO= T EigKep=  2.95D-04  NBF=   434
 NBsUse=   434 1.00D-06 EigRej= -1.00D+00 NBFU=   434
 Initial guess from the checkpoint file:  "COC1dCqCrCCC2dCCdCC2dC1.chk"
 B after Tr=     0.000000   -0.000000   -0.000000
         Rot=    0.999984   -0.000009   -0.002695   -0.004942 Ang=  -0.65 deg.
 ExpMin= 1.61D-01 ExpMax= 5.48D+03 ExpMxC= 8.25D+02 IAcc=2 IRadAn=         4 AccDes= 0.00D+00
 Harris functional with IExCor=  402 and IRadAn=       4 diagonalized for initial guess.
 HarFok:  IExCor=  402 AccDes= 0.00D+00 IRadAn=         4 IDoV= 1 UseB2=F ITyADJ=14
 ICtDFT=  3500011 ScaDFX=  1.000000  1.000000  1.000000  1.000000
 FoFCou: FMM=F IPFlag=           0 FMFlag=      100000 FMFlg1=           0
         NFxFlg=           0 DoJE=T BraDBF=F KetDBF=T FulRan=T
[...]
 491,-0.00099965,0.00088772,-0.00011253,0.00243300,0.00005967,0.0009295
 6,-0.00000487,-0.00002588,0.00003402,0.00002792,-0.00004075,-0.0000332
 7,0.00006527,0.00005611,-0.00017140,0.00026510,0.00011517,0.00040655,-
 0.00010389,0.00016900,-0.00024300,0.00004380,0.00019739,0.00017411,-0.
 01480170,0.04990487,0.00009464,-0.00012727,-0.00008494,-0.00006065,0.0
 0019210,-0.00046401,0.00054452,0.00030490,0.00155203,-0.00575443,-0.00
 028089,0.00435924,-0.00003001,0.00021568,-0.00070021,0.11483279,-0.007
 37456,-0.12235750,0.02560860,-0.00238977,-0.02337546,0.00160993,0.0004
 1922,0.00290271,-0.00021257,-0.00006620,0.00002296,-0.00011874,-0.0004
 7356,-0.00027287,-0.00033432,0.00002354,-0.00032986,0.00007149,0.00016
 136,0.00004708,-0.00066844,-0.00017215,-0.00003863,-0.00000619,-0.0000
 0219,-0.00000642,-0.00000314,-0.00000948,-0.00000924,-0.00003345,-0.00
 001460,0.00002356,0.00003910,0.00006141,-0.00040838,0.00028912,0.00019
 625,0.00000791,-0.00005925,-0.00008473,-0.00027361,-0.12726440,0.00715
 298,0.14026032,0.00011385,0.00004950,-0.00022541,0.00004330,0.00128691
 ,0.00018770,-0.00190149,0.00148412,-0.00114440,0.00783199,0.01627716,0
 .00352779,0.00034986,0.00203513,-0.00024337,-0.13558688,-0.12063930,-0
 .03420324,-0.00555827,-0.00538798,-0.00206419,0.00008436,0.00082370,-0
 .00291499,0.00055958,-0.00008940,0.00006152,-0.00013589,-0.00027225,0.
 00031861,-0.00031037,-0.00012178,-0.00017780,0.00035087,-0.00014028,0.
 00029483,-0.00021622,0.00007801,-0.00022766,-0.00001960,0.00003410,0.0
 0005611,0.00000078,0.00004807,0.00005572,-0.00001073,-0.00002355,0.000
 02470,0.00000466,0.00007324,0.00001676,0.00006855,0.00020382,0.0002595
 2,0.00031885,-0.00001734,0.00012386,-0.01530973,-0.02069824,-0.0062392
 9,0.14912226,-0.00025924,-0.00006584,0.00062497,0.00042339,-0.00193952
 ,-0.00061856,0.00346581,-0.00164492,0.00176927,-0.01575243,-0.02647994
 ,-0.00584512,-0.00200583,0.00115637,-0.00110149,-0.11644730,-0.2013666
 6,-0.04672841,0.00286210,0.00263791,0.00209447,0.00004601,0.00046486,0
 .00096781,0.00013060,-0.00016784,-0.00019245,-0.00004584,0.00019551,-0
 .00015588,0.00026168,0.00010693,0.00006041,-0.00013323,0.00037425,-0.0
 0002084,0.00059269,0.00027633,0.00040015,0.00009063,-0.00011934,-0.000
 11265,0.00000681,-0.00002664,-0.00007491,0.00003776,0.00004196,-0.0000
 9761,-0.00019199,0.00044758,-0.00018936,0.00108580,0.00009989,-0.00012
 867,0.00034061,0.00005521,0.00084895,0.00073541,0.00138982,0.00078066,
 0.12461955,0.22353585,-0.00005749,0.00011357,-0.00013084,-0.00029811,0
 .00043260,0.00054833,-0.00000504,0.00143636,0.00045230,0.00375801,0.00
 442896,0.00016011,-0.00041276,0.00145456,0.00068769,-0.03407490,-0.048
 12239,-0.06123325,-0.02160869,-0.02408538,-0.00861020,-0.00041771,0.00
 277140,-0.00653095,-0.00027546,-0.00091608,0.00033202,-0.00041534,-0.0
 0023403,0.00029999,-0.00050049,-0.00030419,-0.00029959,0.00040914,-0.0
 0030034,0.00013637,-0.00095621,0.00007827,-0.00051801,-0.00003719,0.00
 004748,0.00004276,0.00001770,0.00000703,0.00001690,-0.00001274,0.00000
 315,0.00001489,-0.00004246,-0.00001366,-0.00015569,0.00024974,0.000034
 20,0.00004921,0.00022355,0.00013932,-0.00025913,0.01091796,0.01515970,
 0.00446816,0.04291967,0.04811839,0.06841097,-0.00005235,-0.00011288,-0
 .00011345,-0.00016460,0.00048757,0.00006885,0.00051995,0.00019939,-0.0
 0006207,0.00057556,-0.00025826,-0.00205131,0.00005530,0.00034535,0.000
 03272,-0.00345812,0.00823018,-0.00240452,-0.05796911,0.05516877,-0.010
 24489,0.00350857,-0.02858237,0.00556589,0.00161370,0.00018164,0.001559
 08,0.00014334,-0.00044093,0.00027815,-0.00033893,-0.00131309,0.0002414
 0,-0.00320462,-0.00195695,-0.00226250,-0.00095939,0.00002619,-0.000768
 18,-0.00001645,0.00003813,0.00000479,0.00000437,0.00000633,0.00002097,
 0.00000664,0.00000664,0.00003094,-0.00011214,0.00000050,-0.00000026,0.
 00000557,-0.00000736,0.00005996,0.00005286,-0.00001398,0.00001555,0.00
 008157,-0.00030981,0.00007356,0.00004810,0.00028525,-0.00006072,0.0656
 5669,-0.00006385,0.00010610,0.00006891,0.00018015,-0.00019437,0.000086
 51,-0.00023579,0.00063983,-0.00002606,0.00015042,0.00081714,0.00027664
 ,-0.00020228,-0.00015716,0.00011146,0.00008339,-0.00115160,-0.00084304
 ,0.05347478,-0.28291127,0.04605625,0.00240402,-0.01990047,0.00418647,0
 .00132301,0.00202509,0.00097014,-0.00037891,-0.00001704,0.00032909,0.0
 0026768,-0.00081654,0.00034470,-0.00264700,0.00012369,-0.00200098,-0.0
 0002128,0.00022967,-0.00009681,0.00001362,-0.00001781,0.00000977,0.000
 00358,0.00001249,-0.00000032,0.00000984,0.00000247,-0.00001865,0.00003
 956,0.00001438,0.00000780,0.00004920,0.00001938,-0.00001761,0.00004887
 ,0.00001125,0.00005059,-0.00015514,-0.00007660,0.00035073,0.00026670,0
 .00126626,0.00010079,-0.05621763,0.30828216,0.00003638,-0.00011291,-0.
 00028303,-0.00033449,0.00072304,0.00026739,0.00030920,0.00030466,0.000
 15901,-0.00034666,-0.00196354,-0.00529694,-0.00025574,0.00124394,-0.00
 004378,-0.00966180,0.03066521,-0.00748716,-0.00973937,0.04473288,-0.05
 588803,0.00276951,-0.00556284,0.00109694,0.00046288,-0.00020349,0.0006
 1209,0.00023809,-0.00063724,-0.00007368,-0.00078807,-0.00028082,-0.000
 03592,-0.00035297,-0.00058047,0.00077697,-0.00090884,-0.00001342,-0.00
 077532,-0.00004041,0.00004939,0.00003923,0.00001711,0.00002645,0.00003
 765,-0.00004575,-0.00000389,0.00004376,-0.00039215,-0.00004731,-0.0001
 2027,-0.00003427,-0.00005314,0.00001731,0.00009753,-0.00002239,0.00004
 378,0.00072634,-0.00009145,0.00079614,-0.00024538,0.00002210,0.0014372
 9,0.01463088,-0.04997545,0.06088042,-0.00016187,0.00008390,0.00016035,
 0.00019270,-0.00023048,0.00004343,0.00044593,0.00060869,0.00037547,0.0
 0083867,-0.00075437,-0.00012144,0.00010394,-0.00015197,-0.00008833,0.0
 0710721,-0.00160889,-0.00528792,-0.19012382,0.05009848,0.11219194,-0.0
 2609183,0.00352281,0.00924057,0.00221282,-0.00110781,0.00165666,-0.000
 18150,-0.00300301,-0.00039793,-0.00233648,-0.00008723,-0.00132155,0.00
 092211,0.00103273,-0.00003318,-0.00066024,-0.00008545,-0.00041124,0.00
 002182,-0.00000084,-0.00002258,-0.00001558,-0.00001078,-0.00000266,0.0
 0007760,0.00000162,-0.00001969,0.00004055,0.00000479,0.00003560,0.0001
 1653,0.00003079,0.00004313,0.00003807,-0.00001275,0.00002291,0.0003440
 9,0.00049314,-0.00235280,0.00018852,-0.00005310,0.00080389,-0.00550435
 ,0.00238208,0.00399122,0.21276796,-0.00003892,-0.00014470,-0.00004361,
 0.00000650,0.00043974,-0.00019680,0.00012082,-0.00012317,-0.00020797,-
 0.00026159,0.00054706,0.00038380,0.00004243,0.00023510,0.00005149,-0.0
 0205495,0.00071681,0.00330834,0.04680213,-0.06357318,-0.03590047,-0.01
 664039,0.00669404,0.01004202,0.00065501,0.00037450,0.00035032,0.000261
 59,-0.00094411,-0.00008829,-0.00072614,-0.00021476,-0.00044356,0.00015
 581,-0.00119682,0.00061722,-0.00075673,0.00011957,-0.00025333,-0.00000
 326,0.00002517,-0.00001132,-0.00000616,0.00000167,0.00002332,0.0000160
 9,0.00002911,0.00002503,-0.00005908,-0.00000787,0.00000254,-0.00004635
 ,-0.00001325,0.00000683,-0.00000378,-0.00003803,0.00000059,-0.00022282
 ,0.00056878,0.00111586,0.00017246,-0.00021420,-0.00020115,0.02373713,-
 0.00832675,-0.01854830,-0.05117431,0.06510893,0.00010431,0.00003555,-0
 .00013186,0.00003686,0.00016610,0.00002189,-0.00082482,0.00019515,0.00
 037634,0.00130918,-0.00131425,0.00190597,-0.00000348,0.00008788,-0.000
 27776,0.02397222,-0.00684415,-0.02322319,0.10828741,-0.03636217,-0.125
 01089,-0.00684627,0.00361049,0.00573827,-0.00127512,-0.00055033,-0.000
 82382,0.00090394,0.00053832,-0.00057772,0.00032928,-0.00048076,0.00031
 224,-0.00028258,-0.00036952,0.00020305,0.00058627,0.00014282,0.0003688
 4,-0.00000865,-0.00000369,0.00002051,-0.00000269,0.00000898,0.00001973
 ,-0.00002321,-0.00003268,0.00002094,-0.00004416,0.00001551,-0.00001017
 ,-0.00010678,-0.00003508,-0.00011151,0.00003467,-0.00001767,0.00011208
 ,-0.00241575,0.00025547,-0.00617407,-0.00016463,-0.00039812,0.00065157
 ,-0.00448111,0.00121135,0.00350203,-0.11890677,0.04009087,0.14287407,0
 .00003760,-0.00000340,-0.00002096,-0.00010011,-0.00001378,0.00001235,0
 .00009066,-0.00026802,-0.00020792,0.00001707,0.00030015,0.00005088,0.0
 0001176,-0.00008447,0.00002549,0.00036342,-0.00016212,0.00013420,0.000
 11615,0.00149069,0.00256154,0.00327820,0.02135821,-0.00953335,-0.05997
 834,0.03561678,-0.03080698,0.00740306,-0.01433380,0.01049172,-0.002788
 52,-0.00347807,-0.00087887,-0.00227875,-0.00078857,-0.00657186,0.00120
 997,0.00108567,-0.00003152,-0.00000568,0.00000050,-0.00000020,-0.00000
 006,-0.00000931,-0.00000882,-0.00001056,-0.00000524,-0.00000214,0.0000
 2364,0.00000125,0.00000182,-0.00002849,-0.00000808,-0.00000604,-0.0000
 1103,0.00000064,-0.00001664,-0.00000586,0.00000129,0.00003204,0.000001
 86,-0.00004492,0.00006105,-0.00004425,-0.00049553,-0.00006613,-0.00038
 863,-0.00012389,-0.00019835,0.05265554,-0.00007050,0.00001644,0.000038
 84,0.00014698,-0.00002541,0.00000743,-0.00011536,0.00021509,0.00011544
 ,0.00005252,-0.00024898,-0.00001971,-0.00000686,0.00008415,-0.00002026
 ,-0.00010775,0.00011177,-0.00012607,0.00091565,0.00020399,-0.00128636,
 -0.00373744,-0.00111905,0.00029040,0.03724681,-0.27304805,0.11926169,0
 .00897280,-0.00963967,0.00932482,-0.00266816,-0.00268280,0.00004706,-0
 .00138131,0.00036972,0.00291848,-0.00007947,-0.00012037,0.00015929,0.0
 0001150,-0.00000598,0.00000300,0.00000039,0.00001288,0.00000795,0.0000
 1579,0.00000833,-0.00000279,-0.00001445,-0.00000825,-0.00000027,0.0000
 3803,0.00000456,0.00001443,0.00001757,0.00000358,0.00002846,-0.0000422
 0,-0.00001196,0.00000955,-0.00000213,0.00002866,-0.00001286,0.00050416
 ,0.00007504,0.00029904,0.00034510,0.00010263,0.00009673,-0.04060776,0.
 28592516,0.00003655,-0.00001886,-0.00001058,-0.00006184,-0.00006817,-0
 .00003132,0.00001278,0.00016485,0.00039598,-0.00006185,-0.00010309,0.0
 0018557,-0.00000063,-0.00004370,-0.00004517,-0.00028616,-0.00011103,-0
 .00024911,0.00305582,-0.00046546,-0.00252133,0.00029230,0.01549908,-0.
 00144441,-0.03162532,0.11805902,-0.09931164,0.00099076,-0.00470943,0.0
 0217499,-0.00133304,-0.00052203,0.00064277,-0.00655384,0.00303774,0.00
 422797,0.00029300,0.00110264,0.00032324,-0.00000196,0.00000193,-0.0000
 0347,0.00000946,-0.00000232,-0.00000075,-0.00000055,0.00000244,0.00000
 558,-0.00000248,0.00000116,0.00000885,-0.00001722,0.00001354,-0.000011
 27,-0.00002669,0.00000066,-0.00002160,0.00004165,0.00000587,0.00001189
 ,-0.00004931,0.00002504,-0.00012564,-0.00027451,-0.00104923,0.00023620
 ,0.00061233,0.00011576,0.00025312,0.03435572,-0.13109167,0.09603983,0.
 00004397,-0.00010094,-0.00013866,-0.00024403,0.00018657,-0.00004173,-0
 .00024976,0.00024373,0.00073520,0.00013234,0.00005377,-0.00010466,0.00
 003359,0.00003995,-0.00004042,-0.00023524,-0.00029665,0.00018193,0.000
 00902,0.00034607,-0.00073419,-0.00110829,-0.00232514,-0.00033598,-0.00
 740875,0.00576592,-0.00653720,-0.26803854,-0.00654913,-0.13428038,-0.0
 0375966,-0.00470330,-0.00217069,0.00162636,-0.00068843,-0.00451121,-0.
 00015917,-0.00015523,-0.00031099,-0.00000947,0.00001828,0.00000344,0.0
 0003000,-0.00001420,0.00001581,-0.00000935,-0.00000174,0.00001962,-0.0
 0001026,0.00000968,-0.00000407,0.00001183,-0.00001020,0.00001128,-0.00
 000829,-0.00001380,-0.00000447,-0.00004299,0.00001855,-0.00001502,-0.0
 0006290,-0.00000427,-0.00013188,0.00004155,-0.00000583,0.00001845,-0.0
 0004009,-0.00001168,-0.00006495,0.00007424,-0.00024383,0.00045369,0.27
 989353,-0.00004206,0.00004431,0.00007533,0.00023255,-0.00001937,0.0000
 8319,0.00039695,-0.00026550,-0.00034293,0.00003302,-0.00033135,0.00004
 530,-0.00003730,0.00007501,0.00003330,-0.00029291,-0.00017029,-0.00009
 956,-0.00060391,0.00109800,-0.00037975,-0.00318990,-0.00440733,0.00034
 190,-0.01769765,0.00611967,-0.01271407,-0.00813917,-0.05560311,0.00437
 649,0.02067437,0.00789305,0.01030018,-0.00035025,-0.00330407,0.0052956
 1,0.00091595,0.00114005,0.00021602,0.00000400,-0.00000516,-0.00000391,
 -0.00001868,0.00001285,-0.00001061,0.00000905,-0.00000176,-0.00000850,
 -0.00002150,0.00000027,-0.00000522,0.00002349,0.00000041,0.00000595,0.
 00002630,0.00000696,0.00003116,0.00004072,0.00002202,0.00002670,-0.000
 04287,0.00002593,-0.00013526,0.00005938,0.00004155,-0.00002500,-0.0002
 6037,-0.00013303,-0.00002696,0.00096285,0.00026524,0.00025835,0.007423
 18,0.04733626,0.00004422,0.00001543,0.00005191,-0.00003830,0.00003238,
 -0.00002998,0.00078645,-0.00024121,-0.00114471,-0.00015323,-0.00013808
 ,0.00012825,-0.00007241,-0.00006069,0.00009354,0.00005878,0.00028135,-
 0.00030297,0.00001640,0.00036291,0.00089691,-0.00028892,0.00100530,0.0
 0061876,0.00315589,0.00072539,0.00137592,-0.13323389,0.00531060,-0.112
 28050,-0.01286643,-0.00450881,-0.00218415,-0.00458525,0.00502693,0.005
 23837,-0.00100366,-0.00042702,-0.00006334,-0.00001568,0.00000164,-0.00
 000637,-0.00003801,0.00001104,-0.00000900,-0.00000533,0.00000201,-0.00
 000370,-0.00000650,0.00000526,0.00000251,-0.00004539,-0.00000012,-0.00
 001938,0.00000093,0.00001413,-0.00000263,0.00008822,-0.00001790,0.0000
 7396,0.00001638,0.00000980,0.00004654,-0.00004580,-0.00004654,-0.00002
 425,-0.00016622,-0.00009808,-0.00000308,-0.00006486,-0.00045900,-0.000
 38078,0.14656887,-0.00570512,0.11007753,-0.00003301,-0.00009344,-0.000
 12414,-0.00013957,0.00019999,0.00000486,0.00012197,0.00026866,-0.00016
 860,0.00010504,0.00008547,0.00007768,-0.00000675,0.00002585,0.00004134
 ,0.00008203,-0.00000723,0.00021552,0.00096839,-0.00168118,-0.00017407,
 -0.00423111,-0.00070763,-0.00206566,0.00017264,0.00079172,-0.00425327,
 0.00910066,0.01292981,-0.00129187,-0.09263097,-0.10718472,0.00514129,-
 0.00343040,-0.02016480,0.00739300,0.00111079,-0.00086931,0.00179011,-0
 .00000276,0.00001358,0.00001072,-0.00000389,0.00001112,0.00002699,0.00
 001229,0.00001220,0.00001711,-0.00001340,-0.00000067,-0.00001276,-0.00
 000722,0.00000189,-0.00001204,0.00001025,-0.00000205,-0.00000201,0.000
 02551,0.00001608,-0.00004539,0.00000996,0.00000727,-0.00001616,-0.0005
 2876,-0.00036088,-0.00015245,0.00011736,0.00019696,0.00006608,0.000968
 82,0.00046484,-0.00023381,-0.00067154,0.00004266,0.00216800,0.08890108
 ,0.00002571,-0.00005073,-0.00006038,-0.00010378,0.00014176,-0.00001125
 ,-0.00012790,-0.00017683,-0.00016435,0.00005763,0.00011374,0.00001883,
 -0.00003133,-0.00002990,0.00003323,0.00000939,0.00012083,0.00001332,-0
 .00010245,0.00009044,0.00054850,-0.00028663,0.00003980,-0.00013839,0.0
 0090995,-0.00148489,0.00409541,-0.01230035,-0.01113157,-0.00160742,-0.
 10592457,-0.29347566,0.05000677,0.00285349,-0.00277835,0.00218367,0.00
 048599,0.00038571,-0.00043266,-0.00001154,0.00001255,0.00000014,-0.000
 00267,-0.00000076,0.00001055,0.00000059,0.00000027,0.00000704,-0.00001
 385,0.00000665,-0.00000477,-0.00003085,0.00000184,-0.00001318,-0.00001
 100,0.00000187,-0.00001512,0.00002800,-0.00000805,0.00000680,-0.000011
 97,-0.00002118,-0.00001038,-0.00002638,0.00003501,0.00002048,-0.000075
 80,-0.00009320,-0.00000143,-0.00090303,-0.00040894,0.00004974,0.001069
 01,0.00007815,-0.00125443,0.11508121,0.30842191,-0.00002258,0.00004771
 ,0.00007209,0.00003608,-0.00002708,-0.00006538,0.00005978,0.00025223,0
 .00000085,0.00006618,-0.00016151,0.00006457,-0.00001030,0.00002529,-0.
 00001181,0.00009755,0.00014360,0.00003643,-0.00048817,0.00031431,0.001
 39140,-0.00269839,-0.00050695,-0.00127182,-0.00389363,0.00399805,0.002
 93414,0.00912537,0.01255981,0.00206810,0.00478549,0.04981107,-0.043055
 40,-0.00227364,-0.01144826,0.00170231,0.00121212,-0.00113143,-0.000379
 38,-0.00000462,-0.00000563,-0.00000469,-0.00001133,-0.00000932,-0.0000
 0310,0.00000471,0.00000286,-0.00000769,-0.00000523,-0.00000091,0.00000
 134,0.00000907,0.00000793,0.00000209,0.00000151,-0.00000048,0.00000439
 ,0.00001855,0.00001270,0.00000499,-0.00000543,-0.00002149,0.00001463,0
 .00004731,-0.00007614,0.00006003,-0.00013910,-0.00023443,0.00001764,0.
 00025024,0.00083611,0.00096158,0.00171656,-0.00183069,-0.00262514,-0.0
 0785818,-0.05305137,0.03789103,-0.00149439,-0.00027786,-0.00006380,0.0
 0204087,0.00071859,0.00104820,-0.00368516,-0.02682777,0.00345784,-0.00
 486283,-0.00020089,-0.00318505,0.00049287,-0.00097035,-0.00038081,-0.0
 0022018,0.00051163,0.00027034,-0.00023124,0.00028211,-0.00007798,0.000
 15897,-0.00075842,-0.00609152,0.00058461,0.00126846,0.00045398,0.00034
 181,-0.00093016,-0.00011894,-0.00129359,0.00264658,0.00252727,0.009682
 54,0.01869776,-0.00511175,-0.07486424,-0.07297574,0.00619521,0.0001125
 1,0.00012165,0.00013948,-0.00072397,0.00044647,0.00050041,0.00019196,0
 .00001174,0.00000651,-0.00002754,-0.00000802,-0.00002753,-0.00011712,-
 0.00007128,-0.00007448,-0.00035563,-0.00017480,-0.00021284,0.00010949,
 0.00003982,0.00000229,0.00001473,-0.00005322,-0.00003734,0.00003928,0.
 00008722,0.00006689,-0.00003151,-0.00003690,0.00001909,-0.00061170,0.0
 0034511,0.00037516,0.00016193,-0.00014791,-0.00027426,-0.00000742,-0.0
 0055685,-0.00001994,0.07459498,0.00046505,0.00005343,-0.00022422,0.002
 06759,0.00143103,-0.00059243,-0.00300484,-0.01066235,0.00260950,-0.001
 77743,0.00152193,0.00036503,0.00041749,-0.00033193,-0.00044657,0.00003
 045,0.00028683,0.00024806,0.00009587,-0.00018281,-0.00020179,0.0014838
 5,0.00207377,0.00343855,-0.00098780,-0.00139557,-0.00024372,0.00000303
 ,0.00082898,0.00012104,0.00022768,0.00103095,-0.00253878,-0.00670425,-
 0.01725356,0.00442279,-0.07260082,-0.29424034,0.04498106,0.00002570,0.
 00007772,0.00013502,0.00035741,0.00015969,0.00025620,0.00009654,0.0000
 4116,0.00007079,-0.00007163,0.00003344,-0.00003036,-0.00002936,-0.0000
 0268,0.00001844,-0.00023813,0.00001362,-0.00009360,-0.00002440,-0.0000
 5932,-0.00002232,-0.00000536,-0.00005723,0.00000995,-0.00003696,-0.000
 13192,0.00003445,0.00001302,0.00005995,-0.00001841,0.00051196,-0.00010
 778,-0.00015286,-0.00005035,0.00008125,0.00015284,0.00092262,0.0002095
 3,0.00049404,0.07881305,0.31652221,-0.00010396,0.00057253,0.00086133,0
 .00201777,-0.00056602,-0.00094114,-0.00952126,-0.01402937,0.00428169,-
 0.00197168,0.00173077,0.00086869,0.00031299,-0.00057904,-0.00109760,-0
 .00010798,-0.00000264,0.00008243,-0.00004422,-0.00051398,-0.00014791,-
 0.00661476,0.00288960,0.00685353,0.00023983,0.00057761,-0.00108348,-0.
 00058040,0.00073252,0.00086399,0.00464846,-0.00171957,-0.00456404,0.00
 149276,0.02027495,0.00015540,0.00991875,0.04442260,-0.04916744,-0.0001
 2288,-0.00005313,-0.00009678,0.00035961,-0.00036329,-0.00013621,0.0000
 3298,-0.00007097,-0.00012529,0.00000006,-0.00001739,0.00003737,0.00001
 159,0.00001133,0.00010461,-0.00030741,-0.00003787,-0.00008637,-0.00014
 581,-0.00004148,-0.00003571,0.00004194,-0.00003647,0.00009356,0.000139
 26,-0.00001038,0.00002213,0.00009387,0.00009332,-0.00005420,0.00043761
 ,-0.00043974,-0.00131052,-0.00029834,0.00019812,0.00047582,-0.00054229
 ,-0.00022934,0.00019679,0.00061354,-0.05279269,0.04394933\\-0.00000330
 ,0.00000216,0.00000366,0.00000111,0.00000667,-0.00000929,0.00000570,-0
 .00000979,0.00000232,-0.00000255,0.00000104,-0.00001010,-0.00000442,0.
 00000642,0.00001789,-0.00000369,0.00000394,-0.00000036,0.00000317,0.00
 000771,0.00001578,-0.00002385,-0.00000309,0.00000486,0.00001330,-0.000
 00453,-0.00000562,-0.00000776,-0.00000577,0.00000886,-0.00000341,0.000
 00564,0.00000330,0.00001871,0.00000228,-0.00000841,0.00000892,-0.00001
 102,-0.00000200,-0.00000253,0.00000125,0.00000288,0.00000079,0.0000016
 3,0.00000215,0.00000110,-0.00000393,0.00000064,0.00000079,-0.00000174,
 -0.00000136,0.00000209,-0.00000179,-0.00000571,0.00000062,0.00000166,-
 0.00000786,-0.00000201,0.00000063,-0.00000439,0.00000024,0.00000052,-0
 .00000433,0.00000145,-0.00000103,-0.00000053,-0.00000001,-0.00000198,-
 0.00000232,-0.00000133,-0.00000283,-0.00000304,0.00000176,0.00000280,-
 0.00000302,-0.00000052,-0.00000071,0.00000304,-0.00000436,0.00000386,0
 .00000294\\\@


 THERE IS MORE TO LIFE THAN INCREASING ITS SPEED.

                                       -- GANDHI
 Job cpu time:       0 days  5 hours 28 minutes 43.7 seconds.
 Elapsed time:       0 days  1 hours 22 minutes 11.7 seconds.
 File lengths (MBytes):  RWF=    367 Int=      0 D2E=      0 Chk=     16 Scr=      1
 Normal termination of Gaussian 16 at Fri May 19 09:24:28 2023.
### All Done ###
