### Starting Gaussian ###
 Entering Gaussian System, Link 0=g16
 Initial command:
 /cluster/software/gaussian/gaussian-16-A.03/avx2/g16/l1.exe "/local/scratch/yxie/Gau-8712.inp" -scrdir="/local/scratch/yxie/"
 Entering Link 1 = /cluster/software/gaussian/gaussian-16-A.03/avx2/g16/l1.exe PID=      8713.
  
 Copyright (c) 1988,1990,1992,1993,1995,1998,2003,2009,2016,
            Gaussian, Inc.  All Rights Reserved.
  
 This is part of the Gaussian(R) 16 program.  It is based on
 the Gaussian(R) 09 system (copyright 2009, Gaussian, Inc.),
 the Gaussian(R) 03 system (copyright 2003, Gaussian, Inc.),
 the Gaussian(R) 98 system (copyright 1998, Gaussian, Inc.),
 the Gaussian(R) 94 system (copyright 1995, Gaussian, Inc.),
 the Gaussian 92(TM) system (copyright 1992, Gaussian, Inc.),
 the Gaussian 90(TM) system (copyright 1990, Gaussian, Inc.),
 the Gaussian 88(TM) system (copyright 1988, Gaussian, Inc.),
 the Gaussian 86(TM) system (copyright 1986, Carnegie Mellon
 University), and the Gaussian 82(TM) system (copyright 1983,
 Carnegie Mellon University). Gaussian is a federally registered
 trademark of Gaussian, Inc.
  
 This software contains proprietary and confidential information,
 including trade secrets, belonging to Gaussian, Inc.
  
 This software is provided under written license and may be
 used, copied, transmitted, or stored only in accord with that
 written license.
  
 The following legend is applicable only to US Government
 contracts under FAR:
  
                    RESTRICTED RIGHTS LEGEND
  
 Use, reproduction and disclosure by the US Government is
 subject to restrictions as set forth in subparagraphs (a)
 and (c) of the Commercial Computer Software - Restricted
 Rights clause in FAR 52.227-19.
  
 Gaussian, Inc.
 340 Quinnipiac St., Bldg. 40, Wallingford CT 06492
  
  
 ---------------------------------------------------------------
 Warning -- This program may not be used in any manner that
 competes with the business of Gaussian, Inc. or will provide
 assistance to any competitor of Gaussian, Inc.  The licensee
 of this program is prohibited from giving any competitor of
 Gaussian, Inc. access to this program.  By using this program,
 the user acknowledges that Gaussian, Inc. is engaged in the
 business of creating and licensing software in the field of
 computational chemistry and represents and warrants to the
 licensee that it is not a competitor of Gaussian, Inc. and that
 it will not use this program in any manner prohibited above.
 ---------------------------------------------------------------
  

 Cite this work as:
 Gaussian 16, Revision A.03,
 M. J. Frisch, G. W. Trucks, H. B. Schlegel, G. E. Scuseria, 
 M. A. Robb, J. R. Cheeseman, G. Scalmani, V. Barone, 
 G. A. Petersson, H. Nakatsuji, X. Li, M. Caricato, A. V. Marenich, 
 J. Bloino, B. G. Janesko, R. Gomperts, B. Mennucci, H. P. Hratchian, 
 J. V. Ortiz, A. F. Izmaylov, J. L. Sonnenberg, D. Williams-Young, 
 F. Ding, F. Lipparini, F. Egidi, J. Goings, B. Peng, A. Petrone, 
 T. Henderson, D. Ranasinghe, V. G. Zakrzewski, J. Gao, N. Rega, 
 G. Zheng, W. Liang, M. Hada, M. Ehara, K. Toyota, R. Fukuda, 
 J. Hasegawa, M. Ishida, T. Nakajima, Y. Honda, O. Kitao, H. Nakai, 
 T. Vreven, K. Throssell, J. A. Montgomery, Jr., J. E. Peralta, 
 F. Ogliaro, M. J. Bearpark, J. J. Heyd, E. N. Brothers, K. N. Kudin, 
 V. N. Staroverov, T. A. Keith, R. Kobayashi, J. Normand, 
 K. Raghavachari, A. P. Rendell, J. C. Burant, S. S. Iyengar, 
 J. Tomasi, M. Cossi, J. M. Millam, M. Klene, C. Adamo, R. Cammi, 
 J. W. Ochterski, R. L. Martin, K. Morokuma, O. Farkas, 
 J. B. Foresman, and D. J. Fox, Gaussian, Inc., Wallingford CT, 2016.
 
 ******************************************
 Gaussian 16:  ES64L-G16RevA.03 25-Dec-2016
                20-May-2023 
 ******************************************
 %chk=COC1dCCdC2CdCdCC2dC2NdC12.chk
 %NProcShared=20
 Will use up to   20 processors via shared memory.
 -----------------------------
 # opt freq b3lyp/6-31g(2df,p)
 -----------------------------
 1/18=20,19=15,26=3,38=1/1,3;
 2/9=110,12=2,17=6,18=5,40=1/2;
 3/5=1,6=6,7=104,11=2,25=1,30=1,71=1,74=-5/1,2,3;
 4//1;
 5/5=2,38=5/2;
 6/7=2,8=2,9=2,10=2,28=1/1;
 7//1,2,3,16;
 1/18=20,19=15,26=3/3(2);
 2/9=110/2;
 99//99;
 2/9=110/2;
 3/5=1,6=6,7=104,11=2,25=1,30=1,71=1,74=-5/1,2,3;
 4/5=5,16=3,69=1/1;
 5/5=2,38=5/2;
 7//1,2,3,16;
 1/18=20,19=15,26=3/3(-5);
 2/9=110/2;
 6/7=2,8=2,9=2,10=2,19=2,28=1/1;
 99/9=1/99;
 -------------------
 Title Card Required
 -------------------
 Symbolic Z-matrix:
 Charge =  0 Multiplicity = 1
 C                     0.93259   0.02145  -0.08423 
 O                     2.35153  -0.01294  -0.17663 
 C                     2.91459   1.14959  -0.6597 
 C                     2.75204   2.37134  -0.11012 
 C                     3.50093   3.56582  -0.51556 
 C                     3.59506   3.89677  -1.8189 
 C                     3.54281   5.27897  -2.34144 
 C                     2.36804   5.23647  -2.9301 
 C                     1.83417   4.09173  -3.27222 
 C                     2.79797   3.10493  -2.77031 
 C                     3.00297   1.80375  -3.03001 
 N                     4.19111   1.20165  -2.9892 
 C                     3.84565   0.99726  -1.80025 
 H                     0.59992  -0.90813   0.38809 
 H                     0.49924   0.07537  -1.08718 
 H                     0.57385   0.84917   0.53334 
 H                     1.98212   2.53505   0.63899 
 H                     3.73225   4.2834    0.26328 
 H                     4.36985   5.54102  -3.01285 
 H                     0.84619   3.95197  -3.66912 
 

 GradGradGradGradGradGradGradGradGradGradGradGradGradGradGradGradGradGrad
 Berny optimization.
 Initialization pass.
                           ----------------------------
                           !    Initial Parameters    !
                           ! (Angstroms and Degrees)  !
 --------------------------                            --------------------------
 ! Name  Definition              Value          Derivative Info.                !
 --------------------------------------------------------------------------------
 ! R1    R(1,2)                  1.4224         estimate D2E/DX2                !
 ! R2    R(1,14)                 1.0945         estimate D2E/DX2                !
 ! R3    R(1,15)                 1.0939         estimate D2E/DX2                !
 ! R4    R(1,16)                 1.0933         estimate D2E/DX2                !
 ! R5    R(2,3)                  1.3791         estimate D2E/DX2                !
 ! R6    R(3,4)                  1.3495         estimate D2E/DX2                !
 ! R7    R(3,13)                 1.4802         estimate D2E/DX2                !
 ! R8    R(4,5)                  1.467          estimate D2E/DX2                !
 ! R9    R(4,17)                 1.0866         estimate D2E/DX2                !
 ! R10   R(5,6)                  1.348          estimate D2E/DX2                !
 ! R11   R(5,18)                 1.084          estimate D2E/DX2                !
 ! R12   R(6,7)                  1.4786         estimate D2E/DX2                !
 ! R13   R(6,10)                 1.4723         estimate D2E/DX2                !
 ! R14   R(7,8)                  1.3147         estimate D2E/DX2                !
 ! R15   R(7,19)                 1.097          estimate D2E/DX2                !
 ! R16   R(8,9)                  1.3086         estimate D2E/DX2                !
 ! R17   R(9,10)                 1.4679         estimate D2E/DX2                !
 ! R18   R(9,20)                 1.0739         estimate D2E/DX2                !
 ! R19   R(10,11)                1.3426         estimate D2E/DX2                !
 ! R20   R(11,12)                1.3326         estimate D2E/DX2                !
 ! R21   R(11,13)                1.6949         estimate D2E/DX2                !
 ! R22   R(12,13)                1.2549         estimate D2E/DX2                !
 ! A1    A(2,1,14)             108.1028         estimate D2E/DX2                !
 ! A2    A(2,1,15)             109.6839         estimate D2E/DX2                !
 ! A3    A(2,1,16)             112.4795         estimate D2E/DX2                !
 ! A4    A(14,1,15)            108.4891         estimate D2E/DX2                !
 ! A5    A(14,1,16)            107.4294         estimate D2E/DX2                !
 ! A6    A(15,1,16)            110.5248         estimate D2E/DX2                !
 ! A7    A(1,2,3)              114.1846         estimate D2E/DX2                !
 ! A8    A(2,3,4)              124.8441         estimate D2E/DX2                !
 ! A9    A(2,3,13)             116.1024         estimate D2E/DX2                !
 ! A10   A(4,3,13)             118.8647         estimate D2E/DX2                !
 ! A11   A(3,4,5)              124.2723         estimate D2E/DX2                !
 ! A12   A(3,4,17)             120.1655         estimate D2E/DX2                !
 ! A13   A(5,4,17)             115.4405         estimate D2E/DX2                !
 ! A14   A(4,5,6)              120.1842         estimate D2E/DX2                !
 ! A15   A(4,5,18)             116.7041         estimate D2E/DX2                !
 ! A16   A(6,5,18)             121.1493         estimate D2E/DX2                !
 ! A17   A(5,6,7)              124.662          estimate D2E/DX2                !
 ! A18   A(5,6,10)             117.0627         estimate D2E/DX2                !
 ! A19   A(7,6,10)             104.7894         estimate D2E/DX2                !
 ! A20   A(6,7,8)               99.1834         estimate D2E/DX2                !
 ! A21   A(6,7,19)             114.3904         estimate D2E/DX2                !
 ! A22   A(8,7,19)             114.038          estimate D2E/DX2                !
 ! A23   A(7,8,9)              120.656          estimate D2E/DX2                !
 ! A24   A(8,9,10)             103.3453         estimate D2E/DX2                !
 ! A25   A(8,9,20)             125.8606         estimate D2E/DX2                !
 ! A26   A(10,9,20)            130.0144         estimate D2E/DX2                !
 ! A27   A(6,10,9)             102.4085         estimate D2E/DX2                !
 ! A28   A(6,10,11)            124.3042         estimate D2E/DX2                !
 ! A29   A(9,10,11)            133.2872         estimate D2E/DX2                !
 ! A30   A(10,11,12)           124.6176         estimate D2E/DX2                !
 ! A31   A(10,11,13)           113.373          estimate D2E/DX2                !
 ! A32   A(3,13,11)            101.3831         estimate D2E/DX2                !
 ! A33   A(3,13,12)            152.4327         estimate D2E/DX2                !
 ! D1    D(14,1,2,3)          -175.1251         estimate D2E/DX2                !
 ! D2    D(15,1,2,3)            66.7568         estimate D2E/DX2                !
 ! D3    D(16,1,2,3)           -56.6803         estimate D2E/DX2                !
 ! D4    D(1,2,3,4)             57.4717         estimate D2E/DX2                !
 ! D5    D(1,2,3,13)          -127.5979         estimate D2E/DX2                !
 ! D6    D(2,3,4,5)            171.0174         estimate D2E/DX2                !
 ! D7    D(2,3,4,17)           -13.1817         estimate D2E/DX2                !
 ! D8    D(13,3,4,5)            -3.7838         estimate D2E/DX2                !
 ! D9    D(13,3,4,17)          172.017          estimate D2E/DX2                !
 ! D10   D(2,3,13,11)          114.5251         estimate D2E/DX2                !
 ! D11   D(2,3,13,12)          117.4466         estimate D2E/DX2                !
 ! D12   D(4,3,13,11)          -70.225          estimate D2E/DX2                !
 ! D13   D(4,3,13,12)          -67.3036         estimate D2E/DX2                !
 ! D14   D(3,4,5,6)             49.5939         estimate D2E/DX2                !
 ! D15   D(3,4,5,18)          -146.1591         estimate D2E/DX2                !
 ! D16   D(17,4,5,6)          -126.386          estimate D2E/DX2                !
 ! D17   D(17,4,5,18)           37.8609         estimate D2E/DX2                !
 ! D18   D(4,5,6,7)            141.2952         estimate D2E/DX2                !
 ! D19   D(4,5,6,10)             6.726          estimate D2E/DX2                !
 ! D20   D(18,5,6,7)           -22.2419         estimate D2E/DX2                !
 ! D21   D(18,5,6,10)         -156.8112         estimate D2E/DX2                !
 ! D22   D(5,6,7,8)           -109.5582         estimate D2E/DX2                !
 ! D23   D(5,6,7,19)           128.6813         estimate D2E/DX2                !
 ! D24   D(10,6,7,8)            29.4357         estimate D2E/DX2                !
 ! D25   D(10,6,7,19)          -92.3247         estimate D2E/DX2                !
 ! D26   D(5,6,10,9)           113.8778         estimate D2E/DX2                !
 ! D27   D(5,6,10,11)          -66.2158         estimate D2E/DX2                !
 ! D28   D(7,6,10,9)           -28.8182         estimate D2E/DX2                !
 ! D29   D(7,6,10,11)          151.0882         estimate D2E/DX2                !
 ! D30   D(6,7,8,9)            -21.0961         estimate D2E/DX2                !
 ! D31   D(19,7,8,9)           100.9191         estimate D2E/DX2                !
 ! D32   D(7,8,9,10)             3.1083         estimate D2E/DX2                !
 ! D33   D(7,8,9,20)           173.8094         estimate D2E/DX2                !
 ! D34   D(8,9,10,6)            16.7596         estimate D2E/DX2                !
 ! D35   D(8,9,10,11)         -163.1342         estimate D2E/DX2                !
 ! D36   D(20,9,10,6)         -153.3951         estimate D2E/DX2                !
 ! D37   D(20,9,10,11)          26.7111         estimate D2E/DX2                !
 ! D38   D(6,10,11,12)         -31.4954         estimate D2E/DX2                !
 ! D39   D(6,10,11,13)          21.4598         estimate D2E/DX2                !
 ! D40   D(9,10,11,12)         148.379          estimate D2E/DX2                !
 ! D41   D(9,10,11,13)        -158.6658         estimate D2E/DX2                !
 ! D42   D(10,11,13,3)          61.9522         estimate D2E/DX2                !
 --------------------------------------------------------------------------------
 Trust Radius=3.00D-01 FncErr=1.00D-07 GrdErr=1.00D-06 EigMax=2.50D+02 EigMin=1.00D-04
 Number of steps in this run=    107 maximum allowed number of steps=    120.
 GradGradGradGradGradGradGradGradGradGradGradGradGradGradGradGradGradGrad

                          Input orientation:                          
 ---------------------------------------------------------------------
 Center     Atomic      Atomic             Coordinates (Angstroms)
 Number     Number       Type             X           Y           Z
 ---------------------------------------------------------------------
      1          6           0        0.932590    0.021450   -0.084230
      2          8           0        2.351530   -0.012940   -0.176630
      3          6           0        2.914590    1.149590   -0.659700
      4          6           0        2.752040    2.371340   -0.110120
      5          6           0        3.500930    3.565820   -0.515560
      6          6           0        3.595060    3.896770   -1.818900
      7          6           0        3.542810    5.278970   -2.341440
      8          6           0        2.368040    5.236470   -2.930100
      9          6           0        1.834170    4.091730   -3.272220
     10          6           0        2.797970    3.104930   -2.770310
     11          6           0        3.002970    1.803750   -3.030010
     12          7           0        4.191110    1.201650   -2.989200
     13          6           0        3.845650    0.997260   -1.800250
     14          1           0        0.599920   -0.908130    0.388090
     15          1           0        0.499240    0.075370   -1.087180
     16          1           0        0.573850    0.849170    0.533340
     17          1           0        1.982120    2.535050    0.638990
     18          1           0        3.732250    4.283400    0.263280
     19          1           0        4.369850    5.541020   -3.012850
     20          1           0        0.846190    3.951970   -3.669120
 ---------------------------------------------------------------------
                    Distance matrix (angstroms):
                    1          2          3          4          5
     1  C    0.000000
     2  O    1.422361   0.000000
     3  C    2.352061   1.379083   0.000000
     4  C    2.972045   2.418599   1.349494   0.000000
     5  C    4.398292   3.774058   2.490530   1.466970   0.000000
     6  C    5.011580   4.419191   3.058395   2.440809   1.347992
     7  C    6.288860   5.840365   4.502742   3.749456   2.504092
     8  C    6.111949   5.927746   4.707018   4.038405   3.147144
     9  C    5.248172   5.167074   4.080289   3.714984   3.264023
    10  C    4.494721   4.080147   2.879519   2.759869   2.406340
    11  C    4.017547   3.444781   2.460509   2.985110   3.110517
    12  N    4.522132   3.573490   2.656837   3.424646   3.490636
    13  C    3.518927   2.426735   1.480180   2.437338   2.892535
    14  H    1.094475   2.046561   3.269522   3.954081   5.408204
    15  H    1.093896   2.065884   2.677798   3.361731   4.638980
    16  H    1.093255   2.099390   2.644364   2.734146   4.128944
    17  H    2.818288   2.700732   2.115560   1.086620   2.168469
    18  H    5.111074   4.534142   3.367674   2.180874   1.083984
    19  H    7.131425   6.554711   5.190352   4.592387   3.300439
    20  H    5.320516   5.494001   4.603066   4.335566   4.140253
                    6          7          8          9         10
     6  C    0.000000
     7  C    1.478599   0.000000
     8  C    2.129587   1.314691   0.000000
     9  C    2.291480   2.279329   1.308623   0.000000
    10  C    1.472258   2.337769   2.180329   1.467855   0.000000
    11  C    2.489596   3.583673   3.492375   2.580622   1.342586
    12  N    2.998091   4.179046   4.427962   3.740031   2.368803
    13  C    2.910378   4.326389   4.629341   3.973474   2.545766
    14  H    6.076902   7.375035   7.203662   6.318215   5.559817
    15  H    4.972184   6.157430   5.790140   4.763149   4.158764
    16  H    4.893732   6.058235   5.870514   5.156054   4.577037
    17  H    3.239920   4.341407   4.492773   4.212209   3.551577
    18  H    2.122210   2.794926   3.600984   4.017363   3.385903
    19  H    2.174712   1.097022   2.026534   2.932130   2.909324
    20  H    3.314008   3.285639   2.124175   1.073856   2.309715
                   11         12         13         14         15
    11  C    0.000000
    12  N    1.332616   0.000000
    13  C    1.694947   1.254878   0.000000
    14  H    4.981200   5.362267   4.353631   0.000000
    15  H    3.609785   4.303033   3.543559   1.775903   0.000000
    16  H    4.416934   5.061334   4.021473   1.763485   1.797336
    17  H    3.877950   4.452118   3.433283   3.718725   3.350914
    18  H    4.186439   4.504038   3.881975   6.064574   5.475729
    19  H    3.979427   4.343114   4.731907   8.207941   6.968727
    20  H    3.110468   4.383496   4.606490   6.335785   4.670633
                   16         17         18         19         20
    16  H    0.000000
    17  H    2.199222   0.000000
    18  H    4.673581   2.502167   0.000000
    19  H    6.999895   5.298400   3.566675   0.000000
    20  H    5.230890   4.675234   4.889065   3.920708   0.000000
 Stoichiometry    C11H7NO
 Framework group  C1[X(C11H7NO)]
 Deg. of freedom    54
 Full point group                 C1      NOp   1
 Largest Abelian subgroup         C1      NOp   1
 Largest concise Abelian subgroup C1      NOp   1
                         Standard orientation:                         
 ---------------------------------------------------------------------
 Center     Atomic      Atomic             Coordinates (Angstroms)
 Number     Number       Type             X           Y           Z
 ---------------------------------------------------------------------
      1          6           0       -3.157996   -0.784564    1.072767
      2          8           0       -2.878787   -0.086112   -0.134427
      3          6           0       -1.542556   -0.057168   -0.474307
      4          6           0       -0.770144   -1.148226   -0.658985
      5          6           0        0.592593   -1.113504   -1.200964
      6          6           0        1.501359   -0.255764   -0.695483
      7          6           0        2.930693   -0.571534   -0.486798
      8          6           0        2.946621   -0.613574    0.827124
      9          6           0        2.014039   -0.017288    1.525141
     10          6           0        1.107586    0.510566    0.498344
     11          6           0        0.139899    1.441074    0.514995
     12          7           0       -0.177509    2.221775   -0.517295
     13          6           0       -0.970772    1.278941   -0.755031
     14          1           0       -4.244336   -0.821827    1.200643
     15          1           0       -2.727359   -0.242832    1.919931
     16          1           0       -2.795080   -1.815629    1.052670
     17          1           0       -1.120280   -2.125706   -0.338544
     18          1           0        0.896007   -1.956898   -1.810593
     19          1           0        3.624136    0.160501   -0.918907
     20          1           0        1.891840   -0.074889    2.590465
 ---------------------------------------------------------------------
 Rotational constants (GHZ):           1.7187424           0.6542666           0.6081964
 Standard basis: 6-31G(2df,p) (6D, 7F)
 There are   438 symmetry adapted cartesian basis functions of A   symmetry.
 There are   399 symmetry adapted basis functions of A   symmetry.
   399 basis functions,   621 primitive gaussians,   438 cartesian basis functions
    44 alpha electrons       44 beta electrons
       nuclear repulsion energy       712.9006592105 Hartrees.
 NAtoms=   20 NActive=   20 NUniq=   20 SFac= 1.00D+00 NAtFMM=   60 NAOKFM=F Big=F
 Integral buffers will be    131072 words long.
 Raffenetti 2 integral format.
 Two-electron integral symmetry is turned on.
 One-electron integrals computed using PRISM.
 PrsmSu:  requested number of processors reduced to:  13 ShMem   1 Linda.
 NBasis=   399 RedAO= T EigKep=  2.32D-04  NBF=   399
 NBsUse=   399 1.00D-06 EigRej= -1.00D+00 NBFU=   399
 ExpMin= 1.61D-01 ExpMax= 5.48D+03 ExpMxC= 8.25D+02 IAcc=3 IRadAn=         5 AccDes= 0.00D+00
 Harris functional with IExCor=  402 and IRadAn=       5 diagonalized for initial guess.
 HarFok:  IExCor=  402 AccDes= 0.00D+00 IRadAn=         5 IDoV= 1 UseB2=F ITyADJ=14
 ICtDFT=  3500011 ScaDFX=  1.000000  1.000000  1.000000  1.000000
 FoFCou: FMM=F IPFlag=           0 FMFlag=      100000 FMFlg1=           0
         NFxFlg=           0 DoJE=T BraDBF=F KetDBF=T FulRan=T
         wScrn=  0.000000 ICntrl=       500 IOpCl=  0 I1Cent=   200000004 NGrid=           0
         NMat0=    1 NMatS0=      1 NMatT0=    0 NMatD0=    1 NMtDS0=    0 NMtDT0=    0
 Petite list used in FoFCou.
 Requested convergence on RMS density matrix=1.00D-08 within 128 cycles.
 Requested convergence on MAX density matrix=1.00D-06.
 Requested convergence on             energy=1.00D-06.
 No special actions if energy rises.
 Integral accuracy reduced to 1.0D-05 until final iterations.
 EnCoef did     8 forward-backward iterations
 EnCoef did     9 forward-backward iterations
 Initial convergence to 1.0D-05 achieved.  Increase integral accuracy.
 SCF Done:  E(RB3LYP) =  -552.910523785     A.U. after   22 cycles
            NFock= 22  Conv=0.53D-08     -V/T= 2.0062

 **********************************************************************

            Population analysis using the SCF density.

 **********************************************************************

 Orbital symmetries:
       Occupied  (A) (A) (A) (A) (A) (A) (A) (A) (A) (A) (A) (A)
                 (A) (A) (A) (A) (A) (A) (A) (A) (A) (A) (A) (A)
                 (A) (A) (A) (A) (A) (A) (A) (A) (A) (A) (A) (A)
                 (A) (A) (A) (A) (A) (A) (A) (A)
       Virtual   (A) (A) (A) (A) (A) (A) (A) (A) (A) (A) (A) (A)
                 (A) (A) (A) (A) (A) (A) (A) (A) (A) (A) (A) (A)
                 (A) (A) (A) (A) (A) (A) (A) (A) (A) (A) (A) (A)
                 (A) (A) (A) (A) (A) (A) (A) (A) (A) (A) (A) (A)
                 (A) (A) (A) (A) (A) (A) (A) (A) (A) (A) (A) (A)
                 (A) (A) (A) (A) (A) (A) (A) (A) (A) (A) (A) (A)
                 (A) (A) (A) (A) (A) (A) (A) (A) (A) (A) (A) (A)
                 (A) (A) (A) (A) (A) (A) (A) (A) (A) (A) (A) (A)
                 (A) (A) (A) (A) (A) (A) (A) (A) (A) (A) (A) (A)
                 (A) (A) (A) (A) (A) (A) (A) (A) (A) (A) (A) (A)
                 (A) (A) (A) (A) (A) (A) (A) (A) (A) (A) (A) (A)
                 (A) (A) (A) (A) (A) (A) (A) (A) (A) (A) (A) (A)
                 (A) (A) (A) (A) (A) (A) (A) (A) (A) (A) (A) (A)
                 (A) (A) (A) (A) (A) (A) (A) (A) (A) (A) (A) (A)
                 (A) (A) (A) (A) (A) (A) (A) (A) (A) (A) (A) (A)
                 (A) (A) (A) (A) (A) (A) (A) (A) (A) (A) (A) (A)
                 (A) (A) (A) (A) (A) (A) (A) (A) (A) (A) (A) (A)
                 (A) (A) (A) (A) (A) (A) (A) (A) (A) (A) (A) (A)
                 (A) (A) (A) (A) (A) (A) (A) (A) (A) (A) (A) (A)
                 (A) (A) (A) (A) (A) (A) (A) (A) (A) (A) (A) (A)
                 (A) (A) (A) (A) (A) (A) (A) (A) (A) (A) (A) (A)
                 (A) (A) (A) (A) (A) (A) (A) (A) (A) (A) (A) (A)
                 (A) (A) (A) (A) (A) (A) (A) (A) (A) (A) (A) (A)
                 (A) (A) (A) (A) (A) (A) (A) (A) (A) (A) (A) (A)
                 (A) (A) (A) (A) (A) (A) (A) (A) (A) (A) (A) (A)
                 (A) (A) (A) (A) (A) (A) (A) (A) (A) (A) (A) (A)
                 (A) (A) (A) (A) (A) (A) (A) (A) (A) (A) (A) (A)
                 (A) (A) (A) (A) (A) (A) (A) (A) (A) (A) (A) (A)
                 (A) (A) (A) (A) (A) (A) (A) (A) (A) (A) (A) (A)
                 (A) (A) (A) (A) (A) (A) (A)
 The electronic state is 1-A.
 Alpha  occ. eigenvalues --  -19.18690 -14.40195 -10.29188 -10.26921 -10.25011
 Alpha  occ. eigenvalues --  -10.22186 -10.22089 -10.21595 -10.20946 -10.20523
 Alpha  occ. eigenvalues --  -10.20086 -10.20011 -10.18736  -1.07911  -1.04540
 Alpha  occ. eigenvalues --   -0.90862  -0.83031  -0.76600  -0.74921  -0.71481
 Alpha  occ. eigenvalues --   -0.67931  -0.65103  -0.59473  -0.56076  -0.54016
 Alpha  occ. eigenvalues --   -0.52463  -0.50282  -0.48966  -0.47796  -0.47169
 Alpha  occ. eigenvalues --   -0.45709  -0.45178  -0.43006  -0.41788  -0.39020
 Alpha  occ. eigenvalues --   -0.38283  -0.36783  -0.35088  -0.32981  -0.29584
 Alpha  occ. eigenvalues --   -0.26221  -0.24213  -0.20522  -0.18038
 Alpha virt. eigenvalues --   -0.10519  -0.08392  -0.05129  -0.01911   0.03269
 Alpha virt. eigenvalues --    0.04800   0.07535   0.08952   0.10897   0.13781
 Alpha virt. eigenvalues --    0.14200   0.14757   0.15362   0.15731   0.17933
 Alpha virt. eigenvalues --    0.20111   0.22431   0.24476   0.26683   0.27267
 Alpha virt. eigenvalues --    0.30823   0.32208   0.33727   0.34800   0.37696
 Alpha virt. eigenvalues --    0.38926   0.40491   0.40692   0.41577   0.42248
 Alpha virt. eigenvalues --    0.44491   0.45163   0.45393   0.46827   0.47926
 Alpha virt. eigenvalues --    0.48797   0.50554   0.50974   0.51406   0.52003
 Alpha virt. eigenvalues --    0.52735   0.52928   0.53736   0.54783   0.56196
 Alpha virt. eigenvalues --    0.56557   0.57855   0.58488   0.60634   0.61392
 Alpha virt. eigenvalues --    0.63075   0.64887   0.65676   0.66792   0.67652
 Alpha virt. eigenvalues --    0.68792   0.69711   0.70323   0.71086   0.71392
 Alpha virt. eigenvalues --    0.73745   0.74370   0.74794   0.75190   0.76500
 Alpha virt. eigenvalues --    0.76538   0.79791   0.80002   0.81123   0.82965
 Alpha virt. eigenvalues --    0.83734   0.84192   0.85846   0.86844   0.88631
 Alpha virt. eigenvalues --    0.90175   0.90282   0.92173   0.93172   0.93736
 Alpha virt. eigenvalues --    0.96383   0.97422   0.99961   1.01874   1.03448
 Alpha virt. eigenvalues --    1.04110   1.06793   1.09352   1.10595   1.11954
 Alpha virt. eigenvalues --    1.14175   1.16409   1.19068   1.21769   1.23296
 Alpha virt. eigenvalues --    1.24678   1.26544   1.28041   1.29579   1.30595
 Alpha virt. eigenvalues --    1.31249   1.32434   1.34643   1.36259   1.37493
 Alpha virt. eigenvalues --    1.39747   1.39978   1.41953   1.44082   1.44918
 Alpha virt. eigenvalues --    1.45363   1.46552   1.47528   1.50869   1.51352
 Alpha virt. eigenvalues --    1.52317   1.53162   1.54144   1.57325   1.58669
 Alpha virt. eigenvalues --    1.59824   1.61632   1.62868   1.65136   1.67699
 Alpha virt. eigenvalues --    1.69449   1.70880   1.72362   1.74405   1.74825
 Alpha virt. eigenvalues --    1.77866   1.78132   1.80897   1.82821   1.84455
 Alpha virt. eigenvalues --    1.85871   1.87785   1.89823   1.90263   1.92370
 Alpha virt. eigenvalues --    1.93058   1.96182   1.97397   1.98920   2.02815
 Alpha virt. eigenvalues --    2.04180   2.07944   2.09576   2.11203   2.16050
 Alpha virt. eigenvalues --    2.22418   2.24639   2.26655   2.29192   2.32102
 Alpha virt. eigenvalues --    2.34342   2.35606   2.37306   2.40248   2.42736
 Alpha virt. eigenvalues --    2.43810   2.45038   2.49162   2.56501   2.60209
 Alpha virt. eigenvalues --    2.61638   2.64925   2.68700   2.69560   2.70787
 Alpha virt. eigenvalues --    2.72836   2.74290   2.75647   2.76558   2.78536
 Alpha virt. eigenvalues --    2.82171   2.84324   2.85135   2.88485   2.88735
 Alpha virt. eigenvalues --    2.89526   2.91909   2.93738   2.95242   2.95405
 Alpha virt. eigenvalues --    2.97203   2.98708   2.99169   3.02356   3.02550
 Alpha virt. eigenvalues --    3.03457   3.05886   3.06771   3.07842   3.09064
 Alpha virt. eigenvalues --    3.11159   3.12257   3.12650   3.13374   3.15102
 Alpha virt. eigenvalues --    3.16356   3.19905   3.21064   3.22514   3.22904
 Alpha virt. eigenvalues --    3.28116   3.28951   3.31051   3.31873   3.32569
 Alpha virt. eigenvalues --    3.33522   3.37536   3.38412   3.38778   3.40501
 Alpha virt. eigenvalues --    3.41409   3.45362   3.46049   3.46935   3.47679
 Alpha virt. eigenvalues --    3.50937   3.51314   3.53592   3.55173   3.58310
 Alpha virt. eigenvalues --    3.60865   3.61844   3.63005   3.66138   3.67743
 Alpha virt. eigenvalues --    3.69306   3.72060   3.75131   3.75260   3.78695
 Alpha virt. eigenvalues --    3.82811   3.83457   3.86439   3.87357   3.90087
 Alpha virt. eigenvalues --    3.90891   3.93529   3.95110   3.98004   3.99860
 Alpha virt. eigenvalues --    4.02408   4.04026   4.09238   4.11187   4.11623
 Alpha virt. eigenvalues --    4.15281   4.17693   4.21204   4.22411   4.23190
 Alpha virt. eigenvalues --    4.23674   4.26446   4.28011   4.29277   4.30873
 Alpha virt. eigenvalues --    4.32947   4.34452   4.36377   4.37778   4.38321
 Alpha virt. eigenvalues --    4.40474   4.41364   4.41838   4.44128   4.44401
 Alpha virt. eigenvalues --    4.48609   4.49380   4.50947   4.52708   4.52897
 Alpha virt. eigenvalues --    4.54816   4.55575   4.56307   4.58401   4.62103
 Alpha virt. eigenvalues --    4.63469   4.64194   4.64828   4.66045   4.67820
 Alpha virt. eigenvalues --    4.70815   4.71829   4.72921   4.75017   4.76332
 Alpha virt. eigenvalues --    4.78032   4.78493   4.81317   4.82963   4.84619
 Alpha virt. eigenvalues --    4.85814   4.89173   4.91219   4.93841   4.96078
 Alpha virt. eigenvalues --    4.98897   5.01178   5.01624   5.04578   5.08120
 Alpha virt. eigenvalues --    5.08800   5.11642   5.14845   5.17935   5.20506
 Alpha virt. eigenvalues --    5.21617   5.24239   5.26219   5.28354   5.31200
 Alpha virt. eigenvalues --    5.34306   5.36432   5.38780   5.39891   5.44891
 Alpha virt. eigenvalues --    5.46661   5.47984   5.50786   5.54004   5.57559
 Alpha virt. eigenvalues --    5.61344   5.69960   5.71848   5.75751   5.78459
 Alpha virt. eigenvalues --    5.84638   5.87836   5.93771   6.00810   6.04683
 Alpha virt. eigenvalues --    6.08482   6.25967   6.31965   6.41798   6.86860
 Alpha virt. eigenvalues --    7.09409   9.86094  10.29041  10.69232  10.98881
 Alpha virt. eigenvalues --   11.12684  11.23263  11.28684  11.35672  11.77284
 Alpha virt. eigenvalues --   12.11518  12.25772  12.59267  13.56107  16.93099
          Condensed to atoms (all electrons):
               1          2          3          4          5          6
     1  C    4.858644   0.359578  -0.093799   0.005137   0.000195   0.000014
     2  O    0.359578   7.644877   0.412578  -0.029249   0.001816   0.000198
     3  C   -0.093799   0.412578   4.468737   0.531516   0.012764  -0.018713
     4  C    0.005137  -0.029249   0.531516   5.070989   0.410524  -0.015686
     5  C    0.000195   0.001816   0.012764   0.410524   4.882454   0.573243
     6  C    0.000014   0.000198  -0.018713  -0.015686   0.573243   4.837192
     7  C   -0.000000  -0.000000   0.000728   0.003536  -0.023006   0.356262
     8  C    0.000001   0.000000  -0.000104   0.001019  -0.007525  -0.145984
     9  C    0.000003  -0.000023   0.000172   0.004540  -0.002726  -0.026919
    10  C   -0.000161  -0.000382   0.001737  -0.042443  -0.016148   0.472233
    11  C   -0.000655  -0.000020  -0.004725  -0.009258  -0.021609  -0.064697
    12  N    0.000016  -0.000251  -0.011540  -0.005716   0.002589  -0.005959
    13  C    0.004685  -0.030037   0.396103  -0.044308  -0.004836   0.005925
    14  H    0.379419  -0.017653   0.003298   0.000090   0.000001  -0.000000
    15  H    0.373818  -0.030617   0.006303  -0.000582   0.000066  -0.000058
    16  H    0.372683  -0.030020  -0.007244   0.003694  -0.000451   0.000046
    17  H   -0.000299  -0.008150  -0.034115   0.363833  -0.044626   0.002974
    18  H    0.000001  -0.000028   0.002668  -0.044634   0.372609  -0.036283
    19  H    0.000000   0.000000  -0.000012  -0.000021   0.002688  -0.039865
    20  H    0.000001  -0.000000   0.000019   0.000041  -0.000021   0.003215
               7          8          9         10         11         12
     1  C   -0.000000   0.000001   0.000003  -0.000161  -0.000655   0.000016
     2  O   -0.000000   0.000000  -0.000023  -0.000382  -0.000020  -0.000251
     3  C    0.000728  -0.000104   0.000172   0.001737  -0.004725  -0.011540
     4  C    0.003536   0.001019   0.004540  -0.042443  -0.009258  -0.005716
     5  C   -0.023006  -0.007525  -0.002726  -0.016148  -0.021609   0.002589
     6  C    0.356262  -0.145984  -0.026919   0.472233  -0.064697  -0.005959
     7  C    5.174527   0.614763  -0.081346  -0.099337  -0.003834   0.000872
     8  C    0.614763   4.996693   0.604984  -0.030918   0.016416  -0.000360
     9  C   -0.081346   0.604984   4.946283   0.449770  -0.063204   0.002928
    10  C   -0.099337  -0.030918   0.449770   4.510902   0.525316  -0.031310
    11  C   -0.003834   0.016416  -0.063204   0.525316   5.601209   0.334887
    12  N    0.000872  -0.000360   0.002928  -0.031310   0.334887   6.263664
    13  C   -0.000617  -0.000741   0.002484  -0.012552  -0.102852   0.605247
    14  H    0.000000  -0.000000   0.000000   0.000001   0.000010  -0.000002
    15  H    0.000000  -0.000000   0.000044   0.000239   0.001410  -0.000059
    16  H    0.000000  -0.000001   0.000001   0.000034   0.000016   0.000007
    17  H   -0.000225   0.000042   0.000070   0.000496   0.001136  -0.000130
    18  H   -0.009471  -0.001946   0.000614   0.004672  -0.000812   0.000033
    19  H    0.346627  -0.017518  -0.003471   0.000345   0.000958  -0.000051
    20  H    0.010980  -0.047365   0.375986  -0.049462  -0.002650   0.000088
              13         14         15         16         17         18
     1  C    0.004685   0.379419   0.373818   0.372683  -0.000299   0.000001
     2  O   -0.030037  -0.017653  -0.030617  -0.030020  -0.008150  -0.000028
     3  C    0.396103   0.003298   0.006303  -0.007244  -0.034115   0.002668
     4  C   -0.044308   0.000090  -0.000582   0.003694   0.363833  -0.044634
     5  C   -0.004836   0.000001   0.000066  -0.000451  -0.044626   0.372609
     6  C    0.005925  -0.000000  -0.000058   0.000046   0.002974  -0.036283
     7  C   -0.000617   0.000000   0.000000   0.000000  -0.000225  -0.009471
     8  C   -0.000741  -0.000000  -0.000000  -0.000001   0.000042  -0.001946
     9  C    0.002484   0.000000   0.000044   0.000001   0.000070   0.000614
    10  C   -0.012552   0.000001   0.000239   0.000034   0.000496   0.004672
    11  C   -0.102852   0.000010   0.001410   0.000016   0.001136  -0.000812
    12  N    0.605247  -0.000002  -0.000059   0.000007  -0.000130   0.000033
    13  C    5.126863  -0.000345   0.000252  -0.000082   0.005423   0.000158
    14  H   -0.000345   0.558020  -0.031671  -0.034518  -0.000180   0.000000
    15  H    0.000252  -0.031671   0.583684  -0.042728   0.000223   0.000001
    16  H   -0.000082  -0.034518  -0.042728   0.606512   0.004775   0.000004
    17  H    0.005423  -0.000180   0.000223   0.004775   0.596456  -0.003675
    18  H    0.000158   0.000000   0.000001   0.000004  -0.003675   0.593631
    19  H   -0.000136  -0.000000  -0.000000   0.000000  -0.000000   0.000234
    20  H   -0.000154   0.000000   0.000002   0.000000  -0.000015   0.000018
              19         20
     1  C    0.000000   0.000001
     2  O    0.000000  -0.000000
     3  C   -0.000012   0.000019
     4  C   -0.000021   0.000041
     5  C    0.002688  -0.000021
     6  C   -0.039865   0.003215
     7  C    0.346627   0.010980
     8  C   -0.017518  -0.047365
     9  C   -0.003471   0.375986
    10  C    0.000345  -0.049462
    11  C    0.000958  -0.002650
    12  N   -0.000051   0.000088
    13  C   -0.000136  -0.000154
    14  H   -0.000000   0.000000
    15  H   -0.000000   0.000002
    16  H    0.000000   0.000000
    17  H   -0.000000  -0.000015
    18  H    0.000234   0.000018
    19  H    0.564215  -0.000209
    20  H   -0.000209   0.590369
 Mulliken charges:
               1
     1  C   -0.259281
     2  O   -0.272616
     3  C    0.333630
     4  C   -0.203020
     5  C   -0.138003
     6  C    0.102863
     7  C   -0.290460
     8  C    0.018545
     9  C   -0.210189
    10  C    0.316967
    11  C   -0.207042
    12  N   -0.154954
    13  C    0.049519
    14  H    0.143531
    15  H    0.139671
    16  H    0.127271
    17  H    0.115989
    18  H    0.122206
    19  H    0.146215
    20  H    0.119155
 Sum of Mulliken charges =  -0.00000
 Mulliken charges with hydrogens summed into heavy atoms:
               1
     1  C    0.151193
     2  O   -0.272616
     3  C    0.333630
     4  C   -0.087030
     5  C   -0.015797
     6  C    0.102863
     7  C   -0.144244
     8  C    0.018545
     9  C   -0.091033
    10  C    0.316967
    11  C   -0.207042
    12  N   -0.154954
    13  C    0.049519
 Electronic spatial extent (au):  <R**2>=           2003.1449
 Charge=              0.0000 electrons
 Dipole moment (field-independent basis, Debye):
    X=             -1.4247    Y=             -2.6998    Z=              0.6710  Tot=              3.1256
 Quadrupole moment (field-independent basis, Debye-Ang):
   XX=            -72.2410   YY=            -76.1411   ZZ=            -71.7804
   XY=              5.0395   XZ=             -5.9663   YZ=              0.0419
 Traceless Quadrupole moment (field-independent basis, Debye-Ang):
   XX=              1.1464   YY=             -2.7536   ZZ=              1.6071
   XY=              5.0395   XZ=             -5.9663   YZ=              0.0419
 Octapole moment (field-independent basis, Debye-Ang**2):
  XXX=            -43.0160  YYY=            -21.2091  ZZZ=              7.2850  XYY=            -14.0592
  XXY=              3.2378  XXZ=              6.6672  XZZ=             -6.9766  YZZ=             -4.7838
  YYZ=             -1.9314  XYZ=              4.6200
 Hexadecapole moment (field-independent basis, Debye-Ang**3):
 XXXX=          -1751.6988 YYYY=           -562.9380 ZZZZ=           -390.3190 XXXY=             80.7302
 XXXZ=            -95.8033 YYYX=             17.8073 YYYZ=              9.5176 ZZZX=             -1.3666
 ZZZY=             -1.9427 XXYY=           -387.9130 XXZZ=           -352.5428 YYZZ=           -160.6628
 XXYZ=            -12.9920 YYXZ=             -8.6096 ZZXY=              2.9498
 N-N= 7.129006592105D+02 E-N=-2.711068401369D+03  KE= 5.494981466944D+02
 PrsmSu:  requested number of processors reduced to:  13 ShMem   1 Linda.
 Calling FoFJK, ICntrl=      2127 FMM=F ISym2X=0 I1Cent= 0 IOpClX= 0 NMat=1 NMatS=1 NMatT=0.
 ***** Axes restored to original set *****
 -------------------------------------------------------------------
 Center     Atomic                   Forces (Hartrees/Bohr)
 Number     Number              X              Y              Z
 -------------------------------------------------------------------
      1        6          -0.005997522   -0.005439852   -0.000244516
      2        8           0.004593158    0.009203347   -0.008977341
      3        6           0.018883481   -0.020612394   -0.011486962
      4        6           0.016685744    0.014357022    0.016637615
      5        6          -0.014436459   -0.018723258    0.013707459
      6        6          -0.002991321   -0.004161918    0.039894533
      7        6           0.029243762   -0.005500566   -0.014419917
      8        6          -0.013068011    0.062113643   -0.014477864
      9        6          -0.024663411   -0.019072344   -0.014802754
     10        6           0.008096897   -0.015696107   -0.036546839
     11        6          -0.073108642    0.058376735   -0.041006359
     12        7           0.053556185   -0.066187021    0.000127549
     13        6          -0.004567431    0.008498291    0.053193778
     14        1           0.004651301   -0.000209758   -0.000585605
     15        1          -0.002445589    0.002434428   -0.000077795
     16        1          -0.000037853    0.002078880   -0.000654034
     17        1           0.008827653   -0.005425051    0.008849443
     18        1          -0.000805948    0.002131190   -0.000690960
     19        1           0.001489357    0.013489825    0.011981374
     20        1          -0.003905352   -0.011655095   -0.000420806
 -------------------------------------------------------------------
 Cartesian Forces:  Max     0.073108642 RMS     0.023726587

 GradGradGradGradGradGradGradGradGradGradGradGradGradGradGradGradGradGrad
 Berny optimization.
 FormGI is forming the generalized inverse of G from B-inverse, IUseBI=4.
 Internal  Forces:  Max     0.063080032 RMS     0.015585335
 Search for a local minimum.
 Step number   1 out of a maximum of  107
 All quantities printed in internal units (Hartrees-Bohrs-Radians)
 Mixed Optimization -- RFO/linear search
 Second derivative matrix not updated -- first step.
 ITU=  0
     Eigenvalues ---    0.01363   0.01396   0.01703   0.01781   0.01862
     Eigenvalues ---    0.01968   0.02080   0.02116   0.02236   0.02610
     Eigenvalues ---    0.02717   0.03138   0.03678   0.05904   0.09996
     Eigenvalues ---    0.10512   0.10716   0.11462   0.14932   0.15733
     Eigenvalues ---    0.15897   0.15967   0.16000   0.16000   0.16000
     Eigenvalues ---    0.17941   0.20347   0.21197   0.22589   0.22799
     Eigenvalues ---    0.23980   0.24926   0.25000   0.31854   0.32758
     Eigenvalues ---    0.33210   0.34014   0.34301   0.34366   0.34439
     Eigenvalues ---    0.35024   0.35206   0.35314   0.35517   0.36747
     Eigenvalues ---    0.42107   0.49270   0.50991   0.53495   0.55132
     Eigenvalues ---    0.55957   0.57850   0.62345   0.68250
 RFO step:  Lambda=-7.86674791D-02 EMin= 1.36271763D-02
 Linear search not attempted -- first point.
 Maximum step size (   0.300) exceeded in Quadratic search.
    -- Step size scaled by   0.730
 Iteration  1 RMS(Cart)=  0.11950804 RMS(Int)=  0.00455498
 Iteration  2 RMS(Cart)=  0.00591764 RMS(Int)=  0.00175346
 Iteration  3 RMS(Cart)=  0.00003559 RMS(Int)=  0.00175338
 Iteration  4 RMS(Cart)=  0.00000019 RMS(Int)=  0.00175338
 Variable       Old X    -DE/DX   Delta X   Delta X   Delta X     New X
                                 (Linear)    (Quad)   (Total)
    R1        2.68787   0.00369   0.00000   0.00539   0.00539   2.69326
    R2        2.06826  -0.00149   0.00000  -0.00258  -0.00258   2.06568
    R3        2.06716   0.00116   0.00000   0.00200   0.00200   2.06917
    R4        2.06595   0.00122   0.00000   0.00210   0.00210   2.06805
    R5        2.60609  -0.01080   0.00000  -0.01380  -0.01380   2.59229
    R6        2.55017   0.00921   0.00000   0.00829   0.00877   2.55894
    R7        2.79713  -0.01783   0.00000  -0.03559  -0.03494   2.76219
    R8        2.77217  -0.01530   0.00000  -0.02439  -0.02454   2.74763
    R9        2.05341  -0.00097   0.00000  -0.00165  -0.00165   2.05177
   R10        2.54734   0.02240   0.00000   0.02817   0.02835   2.57568
   R11        2.04843   0.00074   0.00000   0.00125   0.00125   2.04968
   R12        2.79415   0.03205   0.00000   0.05096   0.05170   2.84585
   R13        2.78216   0.03483   0.00000   0.05776   0.05818   2.84035
   R14        2.48441   0.03315   0.00000   0.03527   0.03548   2.51988
   R15        2.07307  -0.00299   0.00000  -0.00521  -0.00521   2.06786
   R16        2.47294   0.04689   0.00000   0.04955   0.04919   2.52213
   R17        2.77384   0.02202   0.00000   0.03778   0.03725   2.81109
   R18        2.02929   0.00527   0.00000   0.00861   0.00861   2.03791
   R19        2.53712   0.00704   0.00000   0.00988   0.00932   2.54644
   R20        2.51828   0.06308   0.00000   0.07094   0.07291   2.59119
   R21        3.20299   0.05168   0.00000   0.15724   0.15218   3.35517
   R22        2.37138   0.00509   0.00000  -0.00288   0.00082   2.37220
    A1        1.88675  -0.00657   0.00000  -0.02004  -0.02004   1.86671
    A2        1.91434   0.00433   0.00000   0.01352   0.01355   1.92789
    A3        1.96314  -0.00071   0.00000  -0.00251  -0.00252   1.96062
    A4        1.89349   0.00213   0.00000   0.00724   0.00729   1.90078
    A5        1.87500   0.00302   0.00000   0.00867   0.00864   1.88363
    A6        1.92902  -0.00225   0.00000  -0.00701  -0.00701   1.92201
    A7        1.99290   0.00917   0.00000   0.02036   0.02036   2.01326
    A8        2.17894  -0.00011   0.00000  -0.00312  -0.00246   2.17648
    A9        2.02637  -0.01662   0.00000  -0.03994  -0.03939   1.98698
   A10        2.07458   0.01684   0.00000   0.04237   0.04122   2.11581
   A11        2.16896  -0.00522   0.00000   0.00059  -0.00130   2.16766
   A12        2.09728  -0.00047   0.00000  -0.00904  -0.00817   2.08912
   A13        2.01482   0.00556   0.00000   0.00815   0.00911   2.02393
   A14        2.09761   0.01658   0.00000   0.05950   0.05722   2.15483
   A15        2.03687  -0.00602   0.00000  -0.01805  -0.01834   2.01853
   A16        2.11445  -0.00668   0.00000  -0.02188  -0.02211   2.09234
   A17        2.17576   0.01155   0.00000   0.02366   0.02424   2.20000
   A18        2.04313   0.01171   0.00000   0.06061   0.05899   2.10212
   A19        1.82892  -0.01352   0.00000  -0.03516  -0.03626   1.79266
   A20        1.73108   0.01840   0.00000   0.04277   0.04339   1.77447
   A21        1.99649   0.00692   0.00000   0.03854   0.03721   2.03370
   A22        1.99034  -0.00451   0.00000   0.00857   0.00567   1.99600
   A23        2.10584  -0.02253   0.00000  -0.04293  -0.04271   2.06314
   A24        1.80372   0.00532   0.00000   0.01843   0.01780   1.82152
   A25        2.19668   0.00809   0.00000   0.02349   0.02373   2.22041
   A26        2.26918  -0.01389   0.00000  -0.04383  -0.04357   2.22561
   A27        1.78737   0.01033   0.00000   0.01040   0.01146   1.79883
   A28        2.16952  -0.00172   0.00000   0.01830   0.01465   2.18417
   A29        2.32630  -0.00859   0.00000  -0.02863  -0.02688   2.29942
   A30        2.17499   0.02325   0.00000   0.08557   0.07766   2.25265
   A31        1.97873  -0.00281   0.00000  -0.01008  -0.00927   1.96946
   A32        1.76947   0.02454   0.00000   0.08796   0.08574   1.85521
   A33        2.66045   0.03693   0.00000   0.07679   0.07069   2.73115
    D1       -3.05651   0.00009   0.00000  -0.00202  -0.00209  -3.05860
    D2        1.16513  -0.00108   0.00000  -0.00668  -0.00665   1.15848
    D3       -0.98926  -0.00085   0.00000  -0.00578  -0.00574  -0.99500
    D4        1.00307  -0.00146   0.00000   0.00152   0.00083   1.00390
    D5       -2.22700   0.00088   0.00000  -0.00579  -0.00509  -2.23210
    D6        2.98482   0.00412   0.00000   0.02985   0.03048   3.01530
    D7       -0.23006   0.00217   0.00000   0.02500   0.02498  -0.20509
    D8       -0.06604   0.00330   0.00000   0.04125   0.04074  -0.02530
    D9        3.00226   0.00135   0.00000   0.03640   0.03524   3.03750
   D10        1.99884   0.01131   0.00000   0.05462   0.05777   2.05661
   D11        2.04983  -0.01394   0.00000  -0.07633  -0.07803   1.97180
   D12       -1.22566   0.01273   0.00000   0.04565   0.04993  -1.17573
   D13       -1.17467  -0.01252   0.00000  -0.08530  -0.08587  -1.26054
   D14        0.86558  -0.01955   0.00000  -0.10368  -0.10573   0.75985
   D15       -2.55096  -0.00551   0.00000  -0.03091  -0.03138  -2.58234
   D16       -2.20585  -0.01748   0.00000  -0.09840  -0.09977  -2.30562
   D17        0.66080  -0.00344   0.00000  -0.02563  -0.02542   0.63538
   D18        2.46607   0.01558   0.00000   0.08756   0.09018   2.55625
   D19        0.11739   0.00722   0.00000   0.03031   0.02983   0.14722
   D20       -0.38820   0.00058   0.00000   0.01011   0.01152  -0.37668
   D21       -2.73687  -0.00778   0.00000  -0.04714  -0.04884  -2.78571
   D22       -1.91215  -0.01118   0.00000  -0.07217  -0.07158  -1.98373
   D23        2.24591  -0.02071   0.00000  -0.12764  -0.12844   2.11748
   D24        0.51375   0.00428   0.00000   0.01186   0.01173   0.52548
   D25       -1.61137  -0.00524   0.00000  -0.04361  -0.04513  -1.65650
   D26        1.98754   0.01466   0.00000   0.06071   0.06244   2.04999
   D27       -1.15568   0.02090   0.00000   0.09935   0.10200  -1.05368
   D28       -0.50297  -0.00042   0.00000  -0.00179  -0.00112  -0.50410
   D29        2.63699   0.00582   0.00000   0.03685   0.03843   2.67542
   D30       -0.36820  -0.00469   0.00000  -0.00966  -0.01031  -0.37850
   D31        1.76137   0.01297   0.00000   0.06709   0.06704   1.82841
   D32        0.05425   0.00145   0.00000  -0.00197  -0.00145   0.05280
   D33        3.03355  -0.00297   0.00000  -0.01813  -0.01823   3.01532
   D34        0.29251   0.00118   0.00000   0.00877   0.00834   0.30085
   D35       -2.84723  -0.00592   0.00000  -0.03515  -0.03508  -2.88231
   D36       -2.67725   0.00283   0.00000   0.01657   0.01630  -2.66095
   D37        0.46620  -0.00428   0.00000  -0.02735  -0.02712   0.43907
   D38       -0.54970   0.00638   0.00000  -0.01419  -0.01050  -0.56020
   D39        0.37454  -0.01240   0.00000  -0.07237  -0.07188   0.30266
   D40        2.58970   0.01478   0.00000   0.03772   0.04122   2.63092
   D41       -2.76924  -0.00400   0.00000  -0.02046  -0.02017  -2.78941
   D42        1.08127  -0.01627   0.00000  -0.04215  -0.04460   1.03667
         Item               Value     Threshold  Converged?
 Maximum Force            0.063080     0.000450     NO 
 RMS     Force            0.015585     0.000300     NO 
 Maximum Displacement     0.499164     0.001800     NO 
 RMS     Displacement     0.122589     0.001200     NO 
 Predicted change in Energy=-4.460384D-02
 GradGradGradGradGradGradGradGradGradGradGradGradGradGradGradGradGradGrad

                          Input orientation:                          
 ---------------------------------------------------------------------
 Center     Atomic      Atomic             Coordinates (Angstroms)
 Number     Number       Type             X           Y           Z
 ---------------------------------------------------------------------
      1          6           0        0.953016   -0.047329    0.009817
      2          8           0        2.367010   -0.035146   -0.168235
      3          6           0        2.888212    1.138656   -0.650231
      4          6           0        2.740383    2.347983   -0.059167
      5          6           0        3.419363    3.558205   -0.493240
      6          6           0        3.544190    3.922111   -1.800810
      7          6           0        3.552414    5.331390   -2.331633
      8          6           0        2.422212    5.359873   -3.038712
      9          6           0        1.906966    4.199992   -3.451621
     10          6           0        2.810230    3.168579   -2.874423
     11          6           0        2.963457    1.857393   -3.144829
     12          7           0        4.083711    1.075674   -3.025965
     13          6           0        3.745027    0.967609   -1.822046
     14          1           0        0.698434   -1.003578    0.474218
     15          1           0        0.444821    0.023793   -0.957451
     16          1           0        0.610664    0.751693    0.674645
     17          1           0        2.024534    2.468145    0.748282
     18          1           0        3.661332    4.267751    0.290628
     19          1           0        4.442097    5.638021   -2.890079
     20          1           0        0.954807    4.043825   -3.933266
 ---------------------------------------------------------------------
                    Distance matrix (angstroms):
                    1          2          3          4          5
     1  C    0.000000
     2  O    1.425213   0.000000
     3  C    2.363728   1.371781   0.000000
     4  C    2.989475   2.414665   1.354135   0.000000
     5  C    4.397250   3.758356   2.482133   1.453984   0.000000
     6  C    5.074348   4.439699   3.082492   2.481392   1.362993
     7  C    6.416376   5.906368   4.565883   3.837215   2.557651
     8  C    6.378864   6.111376   4.872440   4.248577   3.274103
     9  C    5.561593   5.378537   4.264083   3.953893   3.383970
    10  C    4.702143   4.217078   3.012258   2.933245   2.488551
    11  C    4.197813   3.577369   2.597165   3.132372   3.183008
    12  N    4.503150   3.513916   2.660319   3.496455   3.608188
    13  C    3.490150   2.374771   1.461690   2.454075   2.929671
    14  H    1.093112   2.033410   3.263232   3.960684   5.399009
    15  H    1.094956   2.078737   2.703232   3.387976   4.642786
    16  H    1.094366   2.101027   2.663130   2.760855   4.138750
    17  H    2.832153   2.687705   2.114077   1.085749   2.162210
    18  H    5.102328   4.516719   3.357703   2.157780   1.084645
    19  H    7.273671   6.625650   5.260775   4.662000   3.334136
    20  H    5.682029   5.727808   4.791282   4.590513   4.259536
                    6          7          8          9         10
     6  C    0.000000
     7  C    1.505958   0.000000
     8  C    2.204177   1.333465   0.000000
     9  C    2.341558   2.289527   1.334652   0.000000
    10  C    1.503048   2.350151   2.231439   1.487567   0.000000
    11  C    2.531145   3.616187   3.545641   2.588062   1.347518
    12  N    3.145519   4.344594   4.595118   3.831549   2.454582
    13  C    2.961396   4.397654   4.745746   4.059838   2.612587
    14  H    6.126703   7.493319   7.470315   6.629473   5.751520
    15  H    5.051161   6.302071   6.059329   5.079310   4.377170
    16  H    4.978454   6.218137   6.189188   5.531477   4.824450
    17  H    3.304730   4.474200   4.781376   4.544480   3.772521
    18  H    2.123042   2.831863   3.716538   4.133621   3.456893
    19  H    2.221957   1.094267   2.044356   2.968189   2.959962
    20  H    3.356648   3.312192   2.164598   1.078414   2.308635
                   11         12         13         14         15
    11  C    0.000000
    12  N    1.371197   0.000000
    13  C    1.775478   1.255312   0.000000
    14  H    5.139358   5.294778   4.294198   0.000000
    15  H    3.806605   4.315869   3.539727   1.780306   0.000000
    16  H    4.620238   5.085424   4.013018   1.768856   1.794737
    17  H    4.051038   4.519306   3.437774   3.726462   3.373407
    18  H    4.254318   4.622505   3.919354   6.049743   5.469445
    19  H    4.067483   4.578418   4.841420   8.333328   7.157711
    20  H    3.071936   4.407171   4.658936   6.705813   5.027546
                   16         17         18         19         20
    16  H    0.000000
    17  H    2.225007   0.000000
    18  H    4.670836   2.475306   0.000000
    19  H    7.159842   5.397258   3.550230   0.000000
    20  H    5.673572   5.054105   5.021624   3.973775   0.000000
 Stoichiometry    C11H7NO
 Framework group  C1[X(C11H7NO)]
 Deg. of freedom    54
 Full point group                 C1      NOp   1
 Largest Abelian subgroup         C1      NOp   1
 Largest concise Abelian subgroup C1      NOp   1
                         Standard orientation:                         
 ---------------------------------------------------------------------
 Center     Atomic      Atomic             Coordinates (Angstroms)
 Number     Number       Type             X           Y           Z
 ---------------------------------------------------------------------
      1          6           0       -3.258939   -0.589303    1.173310
      2          8           0       -2.914049   -0.074662   -0.110211
      3          6           0       -1.581902   -0.140572   -0.430870
      4          6           0       -0.850932   -1.280146   -0.458006
      5          6           0        0.517390   -1.361980   -0.942845
      6          6           0        1.478495   -0.444509   -0.639079
      7          6           0        2.946152   -0.726653   -0.453913
      8          6           0        3.110094   -0.462471    0.842798
      9          6           0        2.219501    0.330184    1.442664
     10          6           0        1.215220    0.623520    0.385202
     11          6           0        0.244049    1.554089    0.303494
     12          7           0       -0.287778    2.152699   -0.809614
     13          6           0       -1.016901    1.132832   -0.873311
     14          1           0       -4.348580   -0.549199    1.250557
     15          1           0       -2.824133    0.031069    1.963887
     16          1           0       -2.950440   -1.631606    1.300079
     17          1           0       -1.260377   -2.192054   -0.034178
     18          1           0        0.794894   -2.301028   -1.409360
     19          1           0        3.634045   -0.190019   -1.114404
     20          1           0        2.148059    0.551306    2.495745
 ---------------------------------------------------------------------
 Rotational constants (GHZ):           1.7044328           0.6242180           0.5708324
 Standard basis: 6-31G(2df,p) (6D, 7F)
 There are   438 symmetry adapted cartesian basis functions of A   symmetry.
 There are   399 symmetry adapted basis functions of A   symmetry.
   399 basis functions,   621 primitive gaussians,   438 cartesian basis functions
    44 alpha electrons       44 beta electrons
       nuclear repulsion energy       701.3860055965 Hartrees.
 NAtoms=   20 NActive=   20 NUniq=   20 SFac= 1.00D+00 NAtFMM=   60 NAOKFM=F Big=F
 Integral buffers will be    131072 words long.
 Raffenetti 2 integral format.
 Two-electron integral symmetry is turned on.
 One-electron integrals computed using PRISM.
 PrsmSu:  requested number of processors reduced to:  13 ShMem   1 Linda.
 NBasis=   399 RedAO= T EigKep=  2.40D-04  NBF=   399
 NBsUse=   399 1.00D-06 EigRej= -1.00D+00 NBFU=   399
 Initial guess from the checkpoint file:  "COC1dCCdC2CdCdCC2dC2NdC12.chk"
 B after Tr=     0.000000    0.000000   -0.000000
         Rot=    0.996290    0.085354   -0.010568    0.003211 Ang=   9.87 deg.
 ExpMin= 1.61D-01 ExpMax= 5.48D+03 ExpMxC= 8.25D+02 IAcc=2 IRadAn=         4 AccDes= 0.00D+00
 Harris functional with IExCor=  402 and IRadAn=       4 diagonalized for initial guess.
 HarFok:  IExCor=  402 AccDes= 0.00D+00 IRadAn=         4 IDoV= 1 UseB2=F ITyADJ=14
 ICtDFT=  3500011 ScaDFX=  1.000000  1.000000  1.000000  1.000000
 FoFCou: FMM=F IPFlag=           0 FMFlag=      100000 FMFlg1=           0
         NFxFlg=           0 DoJE=T BraDBF=F KetDBF=T FulRan=T
         wScrn=  0.000000 ICntrl=       500 IOpCl=  0 I1Cent=   200000004 NGrid=           0
         NMat0=    1 NMatS0=      1 NMatT0=    0 NMatD0=    1 NMtDS0=    0 NMtDT0=    0
 Petite list used in FoFCou.
 Requested convergence on RMS density matrix=1.00D-08 within 128 cycles.
 Requested convergence on MAX density matrix=1.00D-06.
 Requested convergence on             energy=1.00D-06.
 No special actions if energy rises.
 Integral accuracy reduced to 1.0D-05 until final iterations.
 Initial convergence to 1.0D-05 achieved.  Increase integral accuracy.
 SCF Done:  E(RB3LYP) =  -552.954709251     A.U. after   16 cycles
            NFock= 16  Conv=0.62D-08     -V/T= 2.0072
 PrsmSu:  requested number of processors reduced to:  13 ShMem   1 Linda.
 Calling FoFJK, ICntrl=      2127 FMM=F ISym2X=0 I1Cent= 0 IOpClX= 0 NMat=1 NMatS=1 NMatT=0.
 ***** Axes restored to original set *****
 -------------------------------------------------------------------
 Center     Atomic                   Forces (Hartrees/Bohr)
 Number     Number              X              Y              Z
 -------------------------------------------------------------------
      1        6          -0.003312085   -0.004111743    0.001205522
      2        8          -0.001079379    0.004124863   -0.005869320
      3        6           0.015127704   -0.017012218   -0.016292204
      4        6           0.012727894    0.010503578    0.004424254
      5        6          -0.006913880   -0.008342565   -0.001448871
      6        6          -0.012951759    0.004625600    0.027626783
      7        6           0.013600530   -0.019887693   -0.012987259
      8        6          -0.006440792    0.028161482   -0.010879948
      9        6          -0.007370101   -0.002943298   -0.002329913
     10        6           0.011235636   -0.019239908   -0.019715027
     11        6          -0.037977327    0.046426163   -0.026134899
     12        7           0.020082267   -0.041793263    0.010189901
     13        6          -0.006031441    0.014381331    0.033620587
     14        1           0.002400044   -0.000004091   -0.000728572
     15        1          -0.000851511    0.001704516    0.000068711
     16        1           0.000079447    0.001280321   -0.000650478
     17        1           0.008441796   -0.004612638    0.007320986
     18        1          -0.001877345    0.003327448   -0.001344253
     19        1           0.002131339    0.011028832    0.013549346
     20        1          -0.001021037   -0.007616718    0.000374652
 -------------------------------------------------------------------
 Cartesian Forces:  Max     0.046426163 RMS     0.014908935

 GradGradGradGradGradGradGradGradGradGradGradGradGradGradGradGradGradGrad
 Berny optimization.
 Using GEDIIS/GDIIS optimizer.
 FormGI is forming the generalized inverse of G from B-inverse, IUseBI=4.
 Internal  Forces:  Max     0.031870901 RMS     0.008314580
 Search for a local minimum.
 Step number   2 out of a maximum of  107
 All quantities printed in internal units (Hartrees-Bohrs-Radians)
 Mixed Optimization -- RFO/linear search
 Update second derivatives using D2CorX and points    1    2
 DE= -4.42D-02 DEPred=-4.46D-02 R= 9.91D-01
 TightC=F SS=  1.41D+00  RLast= 4.46D-01 DXNew= 5.0454D-01 1.3369D+00
 Trust test= 9.91D-01 RLast= 4.46D-01 DXMaxT set to 5.05D-01
 ITU=  1  0
 Use linear search instead of GDIIS.
     Eigenvalues ---    0.01333   0.01396   0.01697   0.01811   0.01845
     Eigenvalues ---    0.01968   0.02089   0.02119   0.02197   0.02595
     Eigenvalues ---    0.02652   0.03001   0.03380   0.05321   0.09804
     Eigenvalues ---    0.10032   0.10582   0.11483   0.15069   0.15503
     Eigenvalues ---    0.15858   0.15960   0.16000   0.16000   0.16033
     Eigenvalues ---    0.18163   0.20254   0.21664   0.22625   0.22913
     Eigenvalues ---    0.23497   0.24863   0.24980   0.31328   0.32931
     Eigenvalues ---    0.33500   0.34010   0.34300   0.34367   0.34439
     Eigenvalues ---    0.35175   0.35209   0.35516   0.35933   0.36776
     Eigenvalues ---    0.42102   0.49207   0.50613   0.53007   0.54126
     Eigenvalues ---    0.56657   0.59328   0.62848   0.68995
 RFO step:  Lambda=-3.41710355D-02 EMin= 1.33317333D-02
 Quartic linear search produced a step of  1.70716.
 Iteration  1 RMS(Cart)=  0.18407715 RMS(Int)=  0.03665963
 Iteration  2 RMS(Cart)=  0.05399217 RMS(Int)=  0.01042845
 Iteration  3 RMS(Cart)=  0.00262701 RMS(Int)=  0.01008119
 Iteration  4 RMS(Cart)=  0.00002330 RMS(Int)=  0.01008117
 Iteration  5 RMS(Cart)=  0.00000048 RMS(Int)=  0.01008117
 Variable       Old X    -DE/DX   Delta X   Delta X   Delta X     New X
                                 (Linear)    (Quad)   (Total)
    R1        2.69326   0.00167   0.00920  -0.00283   0.00637   2.69963
    R2        2.06568  -0.00086  -0.00440   0.00002  -0.00438   2.06130
    R3        2.06917   0.00045   0.00342  -0.00154   0.00188   2.07104
    R4        2.06805   0.00051   0.00358  -0.00131   0.00228   2.07033
    R5        2.59229  -0.00361  -0.02356   0.01349  -0.01007   2.58222
    R6        2.55894   0.00596   0.01497   0.00144   0.01896   2.57791
    R7        2.76219  -0.02162  -0.05965  -0.07949  -0.13686   2.62533
    R8        2.74763  -0.00974  -0.04189  -0.00174  -0.04231   2.70532
    R9        2.05177  -0.00063  -0.00281  -0.00043  -0.00324   2.04853
   R10        2.57568   0.00014   0.04839  -0.05603  -0.00624   2.56945
   R11        2.04968   0.00079   0.00213   0.00229   0.00443   2.05411
   R12        2.84585   0.00657   0.08826  -0.08527   0.00815   2.85400
   R13        2.84035   0.01547   0.09933  -0.02958   0.06974   2.91009
   R14        2.51988   0.01495   0.06057  -0.02048   0.04433   2.56421
   R15        2.06786  -0.00209  -0.00889  -0.00237  -0.01126   2.05661
   R16        2.52213   0.01604   0.08397  -0.04551   0.03652   2.55864
   R17        2.81109   0.00751   0.06359  -0.03145   0.02633   2.83742
   R18        2.03791   0.00184   0.01470  -0.00785   0.00685   2.04476
   R19        2.54644  -0.00942   0.01591  -0.05703  -0.04419   2.50225
   R20        2.59119   0.03187   0.12446  -0.02763   0.10703   2.69821
   R21        3.35517   0.02635   0.25980   0.01196   0.24741   3.60258
   R22        2.37220  -0.00241   0.00140  -0.02592  -0.00592   2.36627
    A1        1.86671  -0.00304  -0.03420   0.00917  -0.02502   1.84169
    A2        1.92789   0.00146   0.02313  -0.01335   0.00984   1.93773
    A3        1.96062  -0.00058  -0.00430  -0.00300  -0.00734   1.95327
    A4        1.90078   0.00146   0.01245   0.00453   0.01711   1.91789
    A5        1.88363   0.00201   0.01474   0.00689   0.02153   1.90516
    A6        1.92201  -0.00125  -0.01197  -0.00310  -0.01506   1.90696
    A7        2.01326   0.00553   0.03476   0.00265   0.03741   2.05067
    A8        2.17648   0.00140  -0.00419   0.00792   0.00976   2.18624
    A9        1.98698  -0.00788  -0.06725   0.01017  -0.05181   1.93517
   A10        2.11581   0.00660   0.07038  -0.02059   0.03824   2.15405
   A11        2.16766  -0.00152  -0.00222   0.03476   0.01800   2.18566
   A12        2.08912  -0.00173  -0.01394  -0.02576  -0.03279   2.05633
   A13        2.02393   0.00319   0.01556  -0.00663   0.01610   2.04003
   A14        2.15483   0.00755   0.09769   0.00382   0.08320   2.23803
   A15        2.01853  -0.00109  -0.03131   0.02394  -0.00631   2.01222
   A16        2.09234  -0.00488  -0.03775  -0.02334  -0.06013   2.03221
   A17        2.20000   0.00601   0.04137  -0.01234   0.02630   2.22630
   A18        2.10212   0.00704   0.10070   0.03609   0.11871   2.22083
   A19        1.79266  -0.00734  -0.06191   0.01644  -0.04729   1.74537
   A20        1.77447   0.01154   0.07408   0.01358   0.08292   1.85739
   A21        2.03370   0.00453   0.06353   0.04556   0.08380   2.11751
   A22        1.99600  -0.00072   0.00967   0.10843   0.08917   2.08518
   A23        2.06314  -0.01343  -0.07291  -0.01411  -0.08027   1.98287
   A24        1.82152   0.00435   0.03040   0.01515   0.04049   1.86201
   A25        2.22041   0.00499   0.04051   0.01059   0.05376   2.27417
   A26        2.22561  -0.00964  -0.07438  -0.02339  -0.09591   2.12970
   A27        1.79883   0.00362   0.01957  -0.02165   0.00270   1.80153
   A28        2.18417   0.00167   0.02501   0.04291   0.04461   2.22877
   A29        2.29942  -0.00544  -0.04589  -0.02260  -0.05704   2.24238
   A30        2.25265   0.00777   0.13258  -0.00803   0.08204   2.33469
   A31        1.96946  -0.00207  -0.01582  -0.01368  -0.02819   1.94128
   A32        1.85521   0.01314   0.14637   0.01836   0.14928   2.00449
   A33        2.73115   0.01819   0.12068   0.00129   0.08975   2.82089
    D1       -3.05860  -0.00036  -0.00356  -0.01768  -0.02144  -3.08004
    D2        1.15848  -0.00112  -0.01135  -0.02121  -0.03245   1.12603
    D3       -0.99500  -0.00016  -0.00981  -0.00518  -0.01490  -1.00990
    D4        1.00390  -0.00140   0.00141  -0.00270  -0.00417   0.99973
    D5       -2.23210   0.00036  -0.00869  -0.03391  -0.03973  -2.27183
    D6        3.01530   0.00428   0.05203   0.07214   0.12692  -3.14097
    D7       -0.20509   0.00338   0.04264   0.10935   0.15197  -0.05312
    D8       -0.02530   0.00315   0.06955   0.10382   0.17152   0.14622
    D9        3.03750   0.00226   0.06016   0.14103   0.19657  -3.04912
   D10        2.05661   0.00752   0.09862  -0.01277   0.09685   2.15346
   D11        1.97180  -0.00907  -0.13320  -0.07754  -0.21501   1.75679
   D12       -1.17573   0.00894   0.08523  -0.04113   0.06048  -1.11526
   D13       -1.26054  -0.00766  -0.14659  -0.10590  -0.25139  -1.51193
   D14        0.75985  -0.01323  -0.18049  -0.10729  -0.29638   0.46347
   D15       -2.58234  -0.00490  -0.05357  -0.08478  -0.13829  -2.72062
   D16       -2.30562  -0.01218  -0.17033  -0.14236  -0.31921  -2.62483
   D17        0.63538  -0.00385  -0.04340  -0.11986  -0.16111   0.47426
   D18        2.55625   0.01099   0.15396   0.08558   0.25198   2.80823
   D19        0.14722   0.00395   0.05093   0.00914   0.05533   0.20255
   D20       -0.37668   0.00183   0.01966   0.05687   0.08623  -0.29045
   D21       -2.78571  -0.00521  -0.08337  -0.01957  -0.11042  -2.89613
   D22       -1.98373  -0.00703  -0.12219  -0.09159  -0.20437  -2.18810
   D23        2.11748  -0.01754  -0.21926  -0.26689  -0.48753   1.62995
   D24        0.52548   0.00294   0.02003  -0.01650   0.00252   0.52800
   D25       -1.65650  -0.00757  -0.07704  -0.19180  -0.28063  -1.93713
   D26        2.04999   0.00902   0.10660   0.04815   0.16350   2.21348
   D27       -1.05368   0.01302   0.17413   0.08211   0.27151  -0.78217
   D28       -0.50410  -0.00020  -0.00192   0.00001  -0.00042  -0.50451
   D29        2.67542   0.00380   0.06561   0.03397   0.10760   2.78302
   D30       -0.37850  -0.00299  -0.01759   0.04203   0.01936  -0.35914
   D31        1.82841   0.01048   0.11445   0.17265   0.29257   2.12098
   D32        0.05280   0.00023  -0.00248  -0.04612  -0.04293   0.00987
   D33        3.01532  -0.00260  -0.03112  -0.03543  -0.06406   2.95126
   D34        0.30085   0.00052   0.01423   0.01823   0.03047   0.33131
   D35       -2.88231  -0.00361  -0.05989  -0.01690  -0.07548  -2.95779
   D36       -2.66095   0.00133   0.02782   0.00277   0.03053  -2.63042
   D37        0.43907  -0.00281  -0.04630  -0.03237  -0.07542   0.36366
   D38       -0.56020   0.00635  -0.01792  -0.03855  -0.04301  -0.60320
   D39        0.30266  -0.00727  -0.12271  -0.06273  -0.18031   0.12236
   D40        2.63092   0.01129   0.07037   0.00506   0.08931   2.72023
   D41       -2.78941  -0.00233  -0.03443  -0.01911  -0.04799  -2.83740
   D42        1.03667  -0.00779  -0.07614   0.03080  -0.05564   0.98103
         Item               Value     Threshold  Converged?
 Maximum Force            0.031871     0.000450     NO 
 RMS     Force            0.008315     0.000300     NO 
 Maximum Displacement     0.841906     0.001800     NO 
 RMS     Displacement     0.230810     0.001200     NO 
 Predicted change in Energy=-3.533940D-02
 GradGradGradGradGradGradGradGradGradGradGradGradGradGradGradGradGradGrad

                          Input orientation:                          
 ---------------------------------------------------------------------
 Center     Atomic      Atomic             Coordinates (Angstroms)
 Number     Number       Type             X           Y           Z
 ---------------------------------------------------------------------
      1          6           0        0.985417   -0.146699    0.170980
      2          8           0        2.364989   -0.072779   -0.192572
      3          6           0        2.829340    1.121763   -0.666538
      4          6           0        2.764069    2.311557   -0.002393
      5          6           0        3.250149    3.562805   -0.499957
      6          6           0        3.394952    3.954700   -1.793871
      7          6           0        3.522234    5.364636   -2.319992
      8          6           0        2.551946    5.513535   -3.256800
      9          6           0        2.092986    4.340487   -3.753355
     10          6           0        2.846237    3.249681   -3.048190
     11          6           0        2.878852    1.956195   -3.329550
     12          7           0        3.818037    0.912416   -3.070387
     13          6           0        3.532279    0.944611   -1.851677
     14          1           0        0.843806   -1.149255    0.576765
     15          1           0        0.340216   -0.003819   -0.703322
     16          1           0        0.724381    0.591506    0.937263
     17          1           0        2.263628    2.327445    0.959087
     18          1           0        3.498459    4.299695    0.259565
     19          1           0        4.496232    5.822910   -2.480392
     20          1           0        1.234671    4.133249   -4.378784
 ---------------------------------------------------------------------
                    Distance matrix (angstroms):
                    1          2          3          4          5
     1  C    0.000000
     2  O    1.428584   0.000000
     3  C    2.389662   1.366454   0.000000
     4  C    3.039191   2.424973   1.364169   0.000000
     5  C    4.397680   3.754393   2.482642   1.431595   0.000000
     6  C    5.146647   4.454836   3.101020   2.511438   1.359692
     7  C    6.558597   5.952362   4.606081   3.907348   2.575490
     8  C    6.800142   6.374272   5.106277   4.570428   3.448625
     9  C    6.063164   5.677155   4.520049   4.317016   3.539550
    10  C    5.035981   4.407368   3.193836   3.188057   2.598977
    11  C    4.501218   3.771130   2.791122   3.348048   3.275004
    12  N    4.433049   3.371020   2.607650   3.532850   3.735527
    13  C    3.430540   2.269423   1.389267   2.424570   2.960014
    14  H    1.090795   2.016104   3.262770   4.000007   5.399382
    15  H    1.095949   2.089337   2.732037   3.424519   4.607589
    16  H    1.095572   2.099857   2.698926   2.828755   4.156167
    17  H    2.894189   2.664145   2.101512   1.084037   2.151312
    18  H    5.108194   4.539572   3.377075   2.135566   1.086987
    19  H    7.415648   6.673490   5.307484   4.633624   3.253140
    20  H    6.251435   6.040916   5.039126   4.981005   4.408271
                    6          7          8          9         10
     6  C    0.000000
     7  C    1.510273   0.000000
     8  C    2.297996   1.356922   0.000000
     9  C    2.384015   2.268515   1.353977   0.000000
    10  C    1.539953   2.336724   2.292413   1.501500   0.000000
    11  C    2.572682   3.612564   3.573070   2.545987   1.324135
    12  N    3.326256   4.524693   4.775775   3.897938   2.531343
    13  C    3.013774   4.444777   4.879599   4.149689   2.686195
    14  H    6.178884   7.615507   7.874435   7.102652   6.041578
    15  H    5.117673   6.446640   6.469404   5.589983   4.729039
    16  H    5.089412   6.420316   6.719860   6.158721   5.239466
    17  H    3.392142   4.643379   5.292258   5.127238   4.153097
    18  H    2.084787   2.790838   3.838504   4.252123   3.531171
    19  H    2.274718   1.088309   2.116311   3.097355   3.109082
    20  H    3.373496   3.314798   2.213426   1.082042   2.268990
                   11         12         13         14         15
    11  C    0.000000
    12  N    1.427833   0.000000
    13  C    1.906404   1.252177   0.000000
    14  H    5.389297   5.137923   4.184434   0.000000
    15  H    4.145286   4.305546   3.522429   1.790042   0.000000
    16  H    4.970896   5.072963   3.973306   1.781705   1.787040
    17  H    4.348417   4.544794   3.379660   3.774853   3.449335
    18  H    4.331011   4.760711   3.964225   6.069502   5.424194
    19  H    4.276503   4.992093   5.012214   8.443785   7.374363
    20  H    2.922976   4.331218   4.672546   7.253626   5.605747
                   16         17         18         19         20
    16  H    0.000000
    17  H    2.320182   0.000000
    18  H    4.680326   2.429795   0.000000
    19  H    7.298960   5.388210   3.289848   0.000000
    20  H    6.408174   5.728223   5.163983   4.134808   0.000000
 Stoichiometry    C11H7NO
 Framework group  C1[X(C11H7NO)]
 Deg. of freedom    54
 Full point group                 C1      NOp   1
 Largest Abelian subgroup         C1      NOp   1
 Largest concise Abelian subgroup C1      NOp   1
                         Standard orientation:                         
 ---------------------------------------------------------------------
 Center     Atomic      Atomic             Coordinates (Angstroms)
 Number     Number       Type             X           Y           Z
 ---------------------------------------------------------------------
      1          6           0       -3.437740   -0.396958    1.179760
      2          8           0       -2.958532    0.002467   -0.105414
      3          6           0       -1.629833   -0.179141   -0.367661
      4          6           0       -0.970015   -1.371354   -0.302661
      5          6           0        0.422261   -1.560682   -0.576865
      6          6           0        1.432529   -0.657755   -0.463541
      7          6           0        2.912950   -0.940126   -0.365848
      8          6           0        3.348858   -0.317445    0.758203
      9          6           0        2.529991    0.674560    1.180856
     10          6           0        1.377657    0.721399    0.219379
     11          6           0        0.431044    1.641036    0.112027
     12          7           0       -0.424601    2.058173   -0.952198
     13          6           0       -1.061822    0.983079   -0.874289
     14          1           0       -4.515058   -0.227816    1.155091
     15          1           0       -2.983663    0.206767    1.973759
     16          1           0       -3.244685   -1.457246    1.376731
     17          1           0       -1.527199   -2.240575    0.027700
     18          1           0        0.703587   -2.566343   -0.878597
     19          1           0        3.546176   -0.952593   -1.250882
     20          1           0        2.526031    1.231191    2.108735
 ---------------------------------------------------------------------
 Rotational constants (GHZ):           1.7447275           0.5905415           0.5206983
 Standard basis: 6-31G(2df,p) (6D, 7F)
 There are   438 symmetry adapted cartesian basis functions of A   symmetry.
 There are   399 symmetry adapted basis functions of A   symmetry.
   399 basis functions,   621 primitive gaussians,   438 cartesian basis functions
    44 alpha electrons       44 beta electrons
       nuclear repulsion energy       690.6121541357 Hartrees.
 NAtoms=   20 NActive=   20 NUniq=   20 SFac= 1.00D+00 NAtFMM=   60 NAOKFM=F Big=F
 Integral buffers will be    131072 words long.
[...]
      5        6           0.001942328   -0.004088020    0.004968136
      6        6          -0.004359131   -0.000944150   -0.013984197
      7        6           0.001433157   -0.002264601    0.007402071
      8        6          -0.001508610    0.000530756   -0.002489453
      9        6          -0.002125540    0.000732156   -0.006745817
     10        6           0.002797364    0.000231053    0.012931949
     11        6           0.005074067   -0.002495187    0.002546703
     12        7           0.002435360    0.007865316   -0.003933749
     13        6          -0.013599160   -0.005278172    0.003225841
     14        1           0.000100361   -0.000103308   -0.000033010
     15        1          -0.000026736   -0.000036205    0.000091821
     16        1           0.000011684   -0.000351755    0.000167446
     17        1          -0.000786785    0.000234667   -0.000113899
     18        1           0.001371265   -0.000059151   -0.000058373
     19        1           0.000424842    0.001565947   -0.001463639
     20        1           0.000561265    0.000916734   -0.000354344
 -------------------------------------------------------------------
 Cartesian Forces:  Max     0.013984197 RMS     0.004068779

 GradGradGradGradGradGradGradGradGradGradGradGradGradGradGradGradGradGrad
 Berny optimization.
 Using GEDIIS/GDIIS optimizer.
 FormGI is forming the generalized inverse of G from B-inverse, IUseBI=4.
 Internal  Forces:  Max     0.007896757 RMS     0.001749399
 Search for a local minimum.
 Step number   6 out of a maximum of  107
 All quantities printed in internal units (Hartrees-Bohrs-Radians)
 Mixed Optimization -- RFO/linear search
 Update second derivatives using D2CorX and points    5    6
 DE= -2.81D-03 DEPred=-2.08D-03 R= 1.35D+00
 TightC=F SS=  1.41D+00  RLast= 2.82D-01 DXNew= 4.0363D+00 8.4544D-01
 Trust test= 1.35D+00 RLast= 2.82D-01 DXMaxT set to 2.40D+00
 ITU=  1  1  1  1  1  0
 Use linear search instead of GDIIS.
     Eigenvalues ---    0.00733   0.01054   0.01392   0.01552   0.01759
     Eigenvalues ---    0.01937   0.01969   0.01987   0.02128   0.02158
     Eigenvalues ---    0.02229   0.02454   0.02798   0.02965   0.04095
     Eigenvalues ---    0.10046   0.10661   0.13414   0.15826   0.15890
     Eigenvalues ---    0.15969   0.16001   0.16007   0.16085   0.16572
     Eigenvalues ---    0.19105   0.21839   0.22382   0.23099   0.23989
     Eigenvalues ---    0.24178   0.24983   0.25423   0.29574   0.32674
     Eigenvalues ---    0.34010   0.34300   0.34366   0.34438   0.35083
     Eigenvalues ---    0.35242   0.35501   0.35892   0.36604   0.36879
     Eigenvalues ---    0.42105   0.46866   0.49513   0.51915   0.54425
     Eigenvalues ---    0.57370   0.59123   0.63067   0.73330
 RFO step:  Lambda=-1.47019862D-03 EMin= 7.32592018D-03
 Quartic linear search produced a step of  0.87605.
 Iteration  1 RMS(Cart)=  0.04317574 RMS(Int)=  0.01107105
 Iteration  2 RMS(Cart)=  0.01939258 RMS(Int)=  0.00116522
 Iteration  3 RMS(Cart)=  0.00047583 RMS(Int)=  0.00072920
 Iteration  4 RMS(Cart)=  0.00000469 RMS(Int)=  0.00072919
 Iteration  5 RMS(Cart)=  0.00000001 RMS(Int)=  0.00072919
 Variable       Old X    -DE/DX   Delta X   Delta X   Delta X     New X
                                 (Linear)    (Quad)   (Total)
    R1        2.70375  -0.00004   0.00044  -0.00032   0.00012   2.70387
    R2        2.06115   0.00005   0.00104  -0.00042   0.00062   2.06177
    R3        2.07111  -0.00005  -0.00052   0.00001  -0.00052   2.07060
    R4        2.06787  -0.00006  -0.00034  -0.00024  -0.00057   2.06730
    R5        2.59255  -0.00224  -0.00077  -0.00642  -0.00720   2.58535
    R6        2.64002   0.00286   0.01563   0.00448   0.02015   2.66018
    R7        2.58243  -0.00422   0.00338  -0.02255  -0.01952   2.56291
    R8        2.64904  -0.00140  -0.00515  -0.00645  -0.01128   2.63777
    R9        2.05201  -0.00009   0.00102  -0.00075   0.00027   2.05228
   R10        2.62028   0.00561   0.00963   0.01286   0.02284   2.64311
   R11        2.05604  -0.00003   0.00124  -0.00082   0.00042   2.05646
   R12        2.71005  -0.00026  -0.02065   0.00227  -0.01817   2.69188
   R13        2.85905  -0.00790  -0.03882  -0.02358  -0.06230   2.79675
   R14        2.62666   0.00426   0.00897   0.01032   0.01946   2.64611
   R15        2.05349   0.00023   0.00378  -0.00139   0.00239   2.05587
   R16        2.55808   0.00030  -0.00560   0.00511  -0.00057   2.55751
   R17        2.86556   0.00479   0.01160   0.01805   0.02945   2.89501
   R18        2.04344  -0.00018  -0.00167  -0.00005  -0.00172   2.04172
   R19        2.48993  -0.00157  -0.00367  -0.00459  -0.00834   2.48159
   R20        2.80838  -0.00405  -0.00703  -0.00471  -0.01058   2.79780
   R21        3.73981  -0.00193   0.00530  -0.00878  -0.00544   3.73437
   R22        2.32528   0.00306  -0.00450   0.00804   0.00477   2.33005
    A1        1.84513  -0.00036   0.00531  -0.00754  -0.00223   1.84289
    A2        1.93261   0.00026  -0.00216   0.00423   0.00206   1.93467
    A3        1.95574   0.00009  -0.00152   0.00215   0.00063   1.95637
    A4        1.91491   0.00001  -0.00183   0.00086  -0.00097   1.91394
    A5        1.90786  -0.00016  -0.00283  -0.00117  -0.00401   1.90386
    A6        1.90656   0.00014   0.00295   0.00118   0.00412   1.91068
    A7        2.02446   0.00137  -0.00013   0.00845   0.00832   2.03278
    A8        2.16537   0.00154  -0.00666   0.01051   0.00454   2.16991
    A9        2.00863   0.00094   0.01506  -0.00089   0.01490   2.02354
   A10        2.10617  -0.00243  -0.00525  -0.00958  -0.01741   2.08876
   A11        2.20585  -0.00024   0.00835   0.00222   0.00940   2.21525
   A12        2.03241   0.00018  -0.00096  -0.00208  -0.00249   2.02992
   A13        2.03566   0.00007  -0.00746   0.00127  -0.00560   2.03006
   A14        2.30675   0.00053   0.00506   0.00331   0.00747   2.31423
   A15        1.98894  -0.00027  -0.00238  -0.00033  -0.00241   1.98654
   A16        1.97900  -0.00021   0.00067  -0.00517  -0.00423   1.97477
   A17        2.16737  -0.00069  -0.00622   0.00077  -0.00630   2.16107
   A18        2.30226  -0.00062   0.00045  -0.00390  -0.00580   2.29645
   A19        1.80972   0.00138   0.01180   0.00505   0.01584   1.82556
   A20        1.97089  -0.00101   0.00157  -0.00532  -0.00426   1.96663
   A21        2.08042   0.00257   0.00798   0.01861   0.02594   2.10636
   A22        2.22473  -0.00163  -0.01447  -0.00726  -0.02234   2.20239
   A23        1.88798   0.00012  -0.00382   0.00609   0.00203   1.89001
   A24        1.92341  -0.00289  -0.00827  -0.01154  -0.02048   1.90293
   A25        2.26182   0.00057  -0.00711   0.00395  -0.00323   2.25859
   A26        2.08283   0.00228   0.02163   0.00303   0.02478   2.10762
   A27        1.79914   0.00252   0.00555   0.01211   0.01775   1.81689
   A28        2.34702   0.00044   0.01452   0.00163   0.01477   2.36179
   A29        2.12931  -0.00291  -0.01825  -0.01155  -0.02914   2.10016
   A30        2.35938   0.00082   0.01688   0.00869   0.02598   2.38536
   A31        1.89135   0.00041   0.00109   0.00274   0.00216   1.89351
   A32        2.20808   0.00328   0.02873   0.02316   0.05128   2.25937
   A33        3.04212   0.00262   0.02739   0.03157   0.05781   3.09994
    D1        3.12060  -0.00012  -0.01184  -0.01992  -0.03176   3.08884
    D2        1.04774  -0.00007  -0.01164  -0.01875  -0.03038   1.01736
    D3       -1.08574  -0.00049  -0.01281  -0.02482  -0.03763  -1.12338
    D4        0.85698  -0.00036  -0.03559  -0.00050  -0.03639   0.82059
    D5       -2.36769   0.00021  -0.00097  -0.00046  -0.00114  -2.36883
    D6       -2.67785  -0.00043   0.01154  -0.00735   0.00350  -2.67434
    D7        0.31219  -0.00038   0.01017   0.00415   0.01400   0.32618
    D8        0.55124  -0.00120  -0.02626  -0.00785  -0.03448   0.51676
    D9       -2.74191  -0.00115  -0.02763   0.00365  -0.02399  -2.76590
   D10        2.17721   0.00083   0.03264   0.02161   0.05357   2.23079
   D11        1.66296   0.00028   0.02462   0.07122   0.09575   1.75871
   D12       -1.04439   0.00158   0.06581   0.02267   0.08812  -0.95627
   D13       -1.55864   0.00103   0.05779   0.07228   0.13030  -1.42835
   D14        0.02471  -0.00012   0.00929   0.01544   0.02483   0.04955
   D15        3.01463   0.00022   0.03616  -0.00449   0.03197   3.04660
   D16       -2.96507  -0.00018   0.01016   0.00418   0.01410  -2.95097
   D17        0.02485   0.00016   0.03703  -0.01575   0.02124   0.04609
   D18        2.99258  -0.00027   0.01294  -0.01531  -0.00236   2.99022
   D19       -0.03897  -0.00131  -0.05259  -0.04305  -0.09486  -0.13384
   D20        0.00199  -0.00060  -0.01356   0.00422  -0.00957  -0.00758
   D21       -3.02956  -0.00165  -0.07909  -0.02353  -0.10208  -3.13163
   D22       -2.86672  -0.00070  -0.09020  -0.01030  -0.10071  -2.96743
   D23        0.39355   0.00003  -0.03404  -0.05950  -0.09353   0.30002
   D24        0.19065   0.00002  -0.04057   0.01050  -0.03005   0.16060
   D25       -2.83226   0.00076   0.01558  -0.03870  -0.02287  -2.85513
   D26        2.81568   0.00086   0.07667   0.03980   0.11725   2.93293
   D27       -0.18867   0.00057   0.06354   0.02123   0.08481  -0.10386
   D28       -0.23227   0.00005   0.02215   0.01628   0.03866  -0.19361
   D29        3.04656  -0.00024   0.00903  -0.00229   0.00622   3.05279
   D30       -0.05631  -0.00007   0.04458  -0.03689   0.00699  -0.04932
   D31        2.95468  -0.00052  -0.01627   0.01939   0.00343   2.95812
   D32       -0.10812   0.00093  -0.02477   0.05015   0.02509  -0.08303
   D33        2.84260   0.00079   0.01325   0.02172   0.03427   2.87687
   D34        0.21755  -0.00055   0.00037  -0.04165  -0.04090   0.17666
   D35       -3.03941  -0.00005   0.01474  -0.02505  -0.01085  -3.05026
   D36       -2.75554  -0.00029  -0.02939  -0.01689  -0.04620  -2.80174
   D37        0.27068   0.00021  -0.01502  -0.00028  -0.01615   0.25453
   D38       -0.60613  -0.00034   0.01167   0.01940   0.03232  -0.57381
   D39       -0.02842   0.00194  -0.00676   0.02315   0.01432  -0.01410
   D40        2.69324  -0.00105  -0.00577  -0.00360  -0.00764   2.68560
   D41       -3.01223   0.00122  -0.02419   0.00016  -0.02564  -3.03788
   D42        0.73387  -0.00094  -0.04962  -0.03365  -0.08402   0.64984
         Item               Value     Threshold  Converged?
 Maximum Force            0.007897     0.000450     NO 
 RMS     Force            0.001749     0.000300     NO 
 Maximum Displacement     0.297642     0.001800     NO 
 RMS     Displacement     0.062857     0.001200     NO 
 Predicted change in Energy=-1.541298D-03
 GradGradGradGradGradGradGradGradGradGradGradGradGradGradGradGradGradGrad

                          Input orientation:                          
 ---------------------------------------------------------------------
 Center     Atomic      Atomic             Coordinates (Angstroms)
 Number     Number       Type             X           Y           Z
 ---------------------------------------------------------------------
      1          6           0        0.994272    0.041509    0.450684
      2          8           0        2.202646   -0.180590   -0.282645
      3          6           0        2.819843    0.929264   -0.791577
      4          6           0        3.058104    2.109637   -0.062478
      5          6           0        3.183558    3.401538   -0.575936
      6          6           0        3.070116    3.921244   -1.869507
      7          6           0        3.061505    5.314441   -2.166291
      8          6           0        2.716280    5.580892   -3.496914
      9          6           0        2.548837    4.400180   -4.136847
     10          6           0        2.919029    3.258865   -3.184327
     11          6           0        2.935320    2.017280   -3.611762
     12          7           0        3.627792    0.761061   -3.245183
     13          6           0        3.264773    0.827506   -2.068702
     14          1           0        0.629753   -0.950259    0.722516
     15          1           0        0.249058    0.550670   -0.170604
     16          1           0        1.166813    0.621373    1.362138
     17          1           0        3.018908    2.023272    1.019391
     18          1           0        3.272896    4.171358    0.188030
     19          1           0        3.417074    6.039578   -1.437374
     20          1           0        2.076304    4.195819   -5.086731
 ---------------------------------------------------------------------
                    Distance matrix (angstroms):
                    1          2          3          4          5
     1  C    0.000000
     2  O    1.430828   0.000000
     3  C    2.379922   1.368107   0.000000
     4  C    2.966462   2.454673   1.407706   0.000000
     5  C    4.139652   3.725566   2.508172   1.395846   0.000000
     6  C    4.974410   4.482819   3.190065   2.558792   1.398674
     7  C    6.239057   5.872063   4.601958   3.833642   2.490648
     8  C    7.016666   6.617402   5.382120   4.895079   3.674241
     9  C    6.516143   5.996513   4.828202   4.701747   3.752365
    10  C    5.222009   4.556623   3.340978   3.329566   2.625650
    11  C    4.916788   4.055916   3.024989   3.552608   3.345748
    12  N    4.594847   3.419704   2.588679   3.503258   3.780786
    13  C    3.481418   2.309625   1.356232   2.389876   2.976673
    14  H    1.091041   2.019092   3.259076   3.984479   5.210185
    15  H    1.095713   2.088971   2.671680   3.214469   4.111329
    16  H    1.093966   2.102714   2.732360   2.796684   3.943692
    17  H    2.889631   2.686743   2.125109   1.086018   2.114662
    18  H    4.724062   4.506264   3.417025   2.087961   1.088231
    19  H    6.738810   6.441950   5.185465   4.178951   2.784935
    20  H    7.006572   6.499858   5.447163   5.528038   4.712130
                    6          7          8          9         10
     6  C    0.000000
     7  C    1.424484   0.000000
     8  C    2.351188   1.400262   0.000000
     9  C    2.375278   2.231993   1.353378   0.000000
    10  C    1.479974   2.298280   2.351728   1.531971   0.000000
    11  C    2.584318   3.602302   3.572184   2.470485   1.313202
    12  N    3.491452   4.713593   4.911719   3.899024   2.597128
    13  C    3.106249   4.492597   4.993527   4.189724   2.697344
    14  H    6.033696   7.314718   8.050659   7.478201   6.182308
    15  H    4.712261   5.880999   6.515724   5.986551   4.852380
    16  H    4.995522   6.169648   7.113934   6.813825   5.540485
    17  H    3.456971   4.580631   5.757191   5.697144   4.382683
    18  H    2.082579   2.625672   3.984397   4.391034   3.511503
    19  H    2.189626   1.087922   2.223334   3.275458   3.321485
    20  H    3.378400   3.278858   2.203523   1.080431   2.281931
                   11         12         13         14         15
    11  C    0.000000
    12  N    1.480535   0.000000
    13  C    1.976142   1.233007   0.000000
    14  H    5.736540   5.259229   4.230210   0.000000
    15  H    4.605270   4.573089   3.574066   1.787562   0.000000
    16  H    5.460389   5.225260   4.026734   1.779769   1.787895
    17  H    4.631911   4.488932   3.320636   3.825975   3.355102
    18  H    4.380916   4.852115   4.034135   5.788163   4.730919
    19  H    4.597710   5.583486   5.252377   7.828927   6.462905
    20  H    2.767576   4.194755   4.676162   7.894427   6.387038
                   16         17         18         19         20
    16  H    0.000000
    17  H    2.347989   0.000000
    18  H    4.291445   2.317313   0.000000
    19  H    6.500606   4.724928   2.480519   0.000000
    20  H    7.429115   6.549290   5.408839   4.302897   0.000000
 Stoichiometry    C11H7NO
 Framework group  C1[X(C11H7NO)]
 Deg. of freedom    54
 Full point group                 C1      NOp   1
 Largest Abelian subgroup         C1      NOp   1
 Largest concise Abelian subgroup C1      NOp   1
                         Standard orientation:                         
 ---------------------------------------------------------------------
 Center     Atomic      Atomic             Coordinates (Angstroms)
 Number     Number       Type             X           Y           Z
 ---------------------------------------------------------------------
      1          6           0       -3.446575   -0.658577    1.135671
      2          8           0       -3.027859    0.207493    0.076489
      3          6           0       -1.742232    0.053223   -0.365190
      4          6           0       -1.149467   -1.187855   -0.665177
      5          6           0        0.209437   -1.502570   -0.613033
      6          6           0        1.336539   -0.770369   -0.225976
      7          6           0        2.635979   -1.334723   -0.077260
      8          6           0        3.540806   -0.454457    0.528671
      9          6           0        2.909206    0.723271    0.742375
     10          6           0        1.506320    0.655947    0.130564
     11          6           0        0.735582    1.719131    0.120350
     12          7           0       -0.383263    2.230372   -0.703544
     13          6           0       -1.042605    1.197573   -0.566065
     14          1           0       -4.463863   -0.350366    1.381640
     15          1           0       -2.802730   -0.539631    2.014251
     16          1           0       -3.455222   -1.708746    0.829348
     17          1           0       -1.829460   -2.017141   -0.836437
     18          1           0        0.424713   -2.553056   -0.798456
     19          1           0        2.876400   -2.299099   -0.519697
     20          1           0        3.197936    1.551933    1.372679
 ---------------------------------------------------------------------
 Rotational constants (GHZ):           1.7146366           0.5817564           0.4831492
 Standard basis: 6-31G(2df,p) (6D, 7F)
 There are   438 symmetry adapted cartesian basis functions of A   symmetry.
 There are   399 symmetry adapted basis functions of A   symmetry.
   399 basis functions,   621 primitive gaussians,   438 cartesian basis functions
    44 alpha electrons       44 beta electrons
       nuclear repulsion energy       684.0864471120 Hartrees.
 NAtoms=   20 NActive=   20 NUniq=   20 SFac= 1.00D+00 NAtFMM=   60 NAOKFM=F Big=F
 Integral buffers will be    131072 words long.
 Raffenetti 2 integral format.
 Two-electron integral symmetry is turned on.
 One-electron integrals computed using PRISM.
 PrsmSu:  requested number of processors reduced to:  13 ShMem   1 Linda.
 NBasis=   399 RedAO= T EigKep=  1.33D-04  NBF=   399
 NBsUse=   399 1.00D-06 EigRej= -1.00D+00 NBFU=   399
 Initial guess from the checkpoint file:  "COC1dCCdC2CdCdCC2dC2NdC12.chk"
 B after Tr=     0.000000    0.000000   -0.000000
         Rot=    0.999987   -0.002945   -0.000063    0.004195 Ang=  -0.59 deg.
 ExpMin= 1.61D-01 ExpMax= 5.48D+03 ExpMxC= 8.25D+02 IAcc=2 IRadAn=         4 AccDes= 0.00D+00
 Harris functional with IExCor=  402 and IRadAn=       4 diagonalized for initial guess.
 HarFok:  IExCor=  402 AccDes= 0.00D+00 IRadAn=         4 IDoV= 1 UseB2=F ITyADJ=14
 ICtDFT=  3500011 ScaDFX=  1.000000  1.000000  1.000000  1.000000
 FoFCou: FMM=F IPFlag=           0 FMFlag=      100000 FMFlg1=           0
         NFxFlg=           0 DoJE=T BraDBF=F KetDBF=T FulRan=T
         wScrn=  0.000000 ICntrl=       500 IOpCl=  0 I1Cent=   200000004 NGrid=           0
         NMat0=    1 NMatS0=      1 NMatT0=    0 NMatD0=    1 NMtDS0=    0 NMtDT0=    0
 Petite list used in FoFCou.
 Requested convergence on RMS density matrix=1.00D-08 within 128 cycles.
 Requested convergence on MAX density matrix=1.00D-06.
 Requested convergence on             energy=1.00D-06.
 No special actions if energy rises.
 Integral accuracy reduced to 1.0D-05 until final iterations.
 Initial convergence to 1.0D-05 achieved.  Increase integral accuracy.
slurmstepd: error: *** JOB 27449687 ON lewis4-r630-hpc4-node226 CANCELLED AT 2023-05-20T20:33:56 ***
