### Starting Gaussian ###
 Entering Gaussian System, Link 0=g16
 Initial command:
 /cluster/software/gaussian/gaussian-16-A.03/avx2/g16/l1.exe "/local/scratch/cz9n3/Gau-30439.inp" -scrdir="/local/scratch/cz9n3/"
 Entering Link 1 = /cluster/software/gaussian/gaussian-16-A.03/avx2/g16/l1.exe PID=     30448.
  
 Copyright (c) 1988,1990,1992,1993,1995,1998,2003,2009,2016,
            Gaussian, Inc.  All Rights Reserved.
  
 This is part of the Gaussian(R) 16 program.  It is based on
 the Gaussian(R) 09 system (copyright 2009, Gaussian, Inc.),
 the Gaussian(R) 03 system (copyright 2003, Gaussian, Inc.),
 the Gaussian(R) 98 system (copyright 1998, Gaussian, Inc.),
 the Gaussian(R) 94 system (copyright 1995, Gaussian, Inc.),
 the Gaussian 92(TM) system (copyright 1992, Gaussian, Inc.),
 the Gaussian 90(TM) system (copyright 1990, Gaussian, Inc.),
 the Gaussian 88(TM) system (copyright 1988, Gaussian, Inc.),
 the Gaussian 86(TM) system (copyright 1986, Carnegie Mellon
 University), and the Gaussian 82(TM) system (copyright 1983,
 Carnegie Mellon University). Gaussian is a federally registered
 trademark of Gaussian, Inc.
  
 This software contains proprietary and confidential information,
 including trade secrets, belonging to Gaussian, Inc.
  
 This software is provided under written license and may be
 used, copied, transmitted, or stored only in accord with that
 written license.
  
 The following legend is applicable only to US Government
 contracts under FAR:
  
                    RESTRICTED RIGHTS LEGEND
  
 Use, reproduction and disclosure by the US Government is
 subject to restrictions as set forth in subparagraphs (a)
 and (c) of the Commercial Computer Software - Restricted
 Rights clause in FAR 52.227-19.
  
 Gaussian, Inc.
 340 Quinnipiac St., Bldg. 40, Wallingford CT 06492
  
  
 ---------------------------------------------------------------
 Warning -- This program may not be used in any manner that
 competes with the business of Gaussian, Inc. or will provide
 assistance to any competitor of Gaussian, Inc.  The licensee
 of this program is prohibited from giving any competitor of
 Gaussian, Inc. access to this program.  By using this program,
 the user acknowledges that Gaussian, Inc. is engaged in the
 business of creating and licensing software in the field of
 computational chemistry and represents and warrants to the
 licensee that it is not a competitor of Gaussian, Inc. and that
 it will not use this program in any manner prohibited above.
 ---------------------------------------------------------------
  

 Cite this work as:
 Gaussian 16, Revision A.03,
 M. J. Frisch, G. W. Trucks, H. B. Schlegel, G. E. Scuseria, 
 M. A. Robb, J. R. Cheeseman, G. Scalmani, V. Barone, 
 G. A. Petersson, H. Nakatsuji, X. Li, M. Caricato, A. V. Marenich, 
 J. Bloino, B. G. Janesko, R. Gomperts, B. Mennucci, H. P. Hratchian, 
 J. V. Ortiz, A. F. Izmaylov, J. L. Sonnenberg, D. Williams-Young, 
 F. Ding, F. Lipparini, F. Egidi, J. Goings, B. Peng, A. Petrone, 
 T. Henderson, D. Ranasinghe, V. G. Zakrzewski, J. Gao, N. Rega, 
 G. Zheng, W. Liang, M. Hada, M. Ehara, K. Toyota, R. Fukuda, 
 J. Hasegawa, M. Ishida, T. Nakajima, Y. Honda, O. Kitao, H. Nakai, 
 T. Vreven, K. Throssell, J. A. Montgomery, Jr., J. E. Peralta, 
 F. Ogliaro, M. J. Bearpark, J. J. Heyd, E. N. Brothers, K. N. Kudin, 
 V. N. Staroverov, T. A. Keith, R. Kobayashi, J. Normand, 
 K. Raghavachari, A. P. Rendell, J. C. Burant, S. S. Iyengar, 
 J. Tomasi, M. Cossi, J. M. Millam, M. Klene, C. Adamo, R. Cammi, 
 J. W. Ochterski, R. L. Martin, K. Morokuma, O. Farkas, 
 J. B. Foresman, and D. J. Fox, Gaussian, Inc., Wallingford CT, 2016.
 
 ******************************************
 Gaussian 16:  ES64L-G16RevA.03 25-Dec-2016
                18-May-2023 
 ******************************************
 %chk=COc1cnc2cqc1rdCCdCd[SH]CdCNd2.chk
 %NProcShared=20
 Will use up to   20 processors via shared memory.
 -----------------------------
 # opt freq b3lyp/6-31g(2df,p)
 -----------------------------
 1/18=20,19=15,26=3,38=1/1,3;
 2/9=110,12=2,17=6,18=5,40=1/2;
 3/5=1,6=6,7=104,11=2,25=1,30=1,71=1,74=-5/1,2,3;
 4//1;
 5/5=2,38=5/2;
 6/7=2,8=2,9=2,10=2,28=1/1;
 7//1,2,3,16;
 1/18=20,19=15,26=3/3(2);
 2/9=110/2;
 99//99;
 2/9=110/2;
 3/5=1,6=6,7=104,11=2,25=1,30=1,71=1,74=-5/1,2,3;
 4/5=5,16=3,69=1/1;
 5/5=2,38=5/2;
 7//1,2,3,16;
 1/18=20,19=15,26=3/3(-5);
 2/9=110/2;
 6/7=2,8=2,9=2,10=2,19=2,28=1/1;
 99/9=1/99;
 -------------------
 Title Card Required
 -------------------
 Symbolic Z-matrix:
 Charge =  0 Multiplicity = 1
 C                     1.17538  -0.01109  -0.09591 
 O                     2.63531   0.05878  -0.20267 
 C                     3.13629   1.28514  -0.65758 
 C                     4.55027   1.64433  -1.16268 
 N                     5.08224   2.934    -1.1182 
 C                     4.14187   4.17132  -0.77666 
 C                     2.98353   3.5397   -1.34145 
 C                     2.46653   2.42746  -0.63911 
 C                     2.41309   4.40279  -2.15501 
 C                     1.23756   4.84183  -1.46448 
 C                     1.0303    6.13678  -1.70104 
 S                     1.42758   7.62537  -1.57929 
 C                     1.73198   7.06641   0.15524 
 C                     3.06198   6.65511   0.28305 
 N                     4.15594   5.52142  -0.28836 
 H                     0.84275  -0.85301   0.53014 
 H                     0.73443  -0.15163  -1.09057 
 H                     0.72853   0.87538   0.36986 
 H                     5.04209   0.6808   -1.57174 
 H                     1.57248   2.55032  -0.08792 
 H                     3.08748   5.14048  -2.63873 
 H                     1.24661   4.5692   -0.38054 
 H                     0.2802    8.19624  -1.89395 
 H                     1.08805   7.58016   0.9236 
 H                     3.45121   7.73739   0.26627 
 

 GradGradGradGradGradGradGradGradGradGradGradGradGradGradGradGradGradGrad
 Berny optimization.
 Initialization pass.
                           ----------------------------
                           !    Initial Parameters    !
                           ! (Angstroms and Degrees)  !
 --------------------------                            --------------------------
 ! Name  Definition              Value          Derivative Info.                !
 --------------------------------------------------------------------------------
 ! R1    R(1,2)                  1.4655         estimate D2E/DX2                !
 ! R2    R(1,16)                 1.1006         estimate D2E/DX2                !
 ! R3    R(1,17)                 1.0971         estimate D2E/DX2                !
 ! R4    R(1,18)                 1.0966         estimate D2E/DX2                !
 ! R5    R(2,3)                  1.4007         estimate D2E/DX2                !
 ! R6    R(3,4)                  1.5439         estimate D2E/DX2                !
 ! R7    R(3,8)                  1.3243         estimate D2E/DX2                !
 ! R8    R(4,5)                  1.3958         estimate D2E/DX2                !
 ! R9    R(4,19)                 1.1565         estimate D2E/DX2                !
 ! R10   R(5,6)                  1.5912         estimate D2E/DX2                !
 ! R11   R(6,7)                  1.4352         estimate D2E/DX2                !
 ! R12   R(6,15)                 1.4358         estimate D2E/DX2                !
 ! R13   R(7,8)                  1.4134         estimate D2E/DX2                !
 ! R14   R(7,9)                  1.3161         estimate D2E/DX2                !
 ! R15   R(8,20)                 1.0575         estimate D2E/DX2                !
 ! R16   R(9,10)                 1.4323         estimate D2E/DX2                !
 ! R17   R(9,21)                 1.1104         estimate D2E/DX2                !
 ! R18   R(10,11)                1.3326         estimate D2E/DX2                !
 ! R19   R(10,22)                1.1177         estimate D2E/DX2                !
 ! R20   R(11,12)                1.5455         estimate D2E/DX2                !
 ! R21   R(12,13)                1.8476         estimate D2E/DX2                !
 ! R22   R(12,23)                1.3196         estimate D2E/DX2                !
 ! R23   R(13,14)                1.398          estimate D2E/DX2                !
 ! R24   R(13,24)                1.1265         estimate D2E/DX2                !
 ! R25   R(14,15)                1.6759         estimate D2E/DX2                !
 ! R26   R(14,25)                1.1503         estimate D2E/DX2                !
 ! A1    A(2,1,16)             112.2701         estimate D2E/DX2                !
 ! A2    A(2,1,17)             109.9055         estimate D2E/DX2                !
 ! A3    A(2,1,18)             113.4754         estimate D2E/DX2                !
 ! A4    A(16,1,17)            107.2324         estimate D2E/DX2                !
 ! A5    A(16,1,18)            104.6922         estimate D2E/DX2                !
 ! A6    A(17,1,18)            108.9584         estimate D2E/DX2                !
 ! A7    A(1,2,3)              114.943          estimate D2E/DX2                !
 ! A8    A(2,3,4)              129.609          estimate D2E/DX2                !
 ! A9    A(2,3,8)              124.7369         estimate D2E/DX2                !
 ! A10   A(4,3,8)              105.4902         estimate D2E/DX2                !
 ! A11   A(3,4,5)              123.6149         estimate D2E/DX2                !
 ! A12   A(3,4,19)             108.1413         estimate D2E/DX2                !
 ! A13   A(5,4,19)             128.2408         estimate D2E/DX2                !
 ! A14   A(4,5,6)              120.0057         estimate D2E/DX2                !
 ! A15   A(5,6,7)               92.8829         estimate D2E/DX2                !
 ! A16   A(5,6,15)             142.9794         estimate D2E/DX2                !
 ! A17   A(7,6,15)             123.7519         estimate D2E/DX2                !
 ! A18   A(6,7,8)              116.488          estimate D2E/DX2                !
 ! A19   A(6,7,9)              107.7265         estimate D2E/DX2                !
 ! A20   A(8,7,9)              131.658          estimate D2E/DX2                !
 ! A21   A(3,8,7)              119.1347         estimate D2E/DX2                !
 ! A22   A(3,8,20)             122.3488         estimate D2E/DX2                !
 ! A23   A(7,8,20)             118.4797         estimate D2E/DX2                !
 ! A24   A(7,9,10)             104.9942         estimate D2E/DX2                !
 ! A25   A(7,9,21)             116.2132         estimate D2E/DX2                !
 ! A26   A(10,9,21)            120.3213         estimate D2E/DX2                !
 ! A27   A(9,10,11)            109.8729         estimate D2E/DX2                !
 ! A28   A(9,10,22)            112.7137         estimate D2E/DX2                !
 ! A29   A(11,10,22)           114.232          estimate D2E/DX2                !
 ! A30   A(10,11,12)           151.8852         estimate D2E/DX2                !
 ! A31   A(11,12,13)            79.9164         estimate D2E/DX2                !
 ! A32   A(11,12,23)           100.0429         estimate D2E/DX2                !
 ! A33   A(13,12,23)           119.8663         estimate D2E/DX2                !
 ! A34   A(12,13,14)           109.3643         estimate D2E/DX2                !
 ! A35   A(12,13,24)           114.0911         estimate D2E/DX2                !
 ! A36   A(14,13,24)           127.9987         estimate D2E/DX2                !
 ! A37   A(13,14,15)           142.0806         estimate D2E/DX2                !
 ! A38   A(13,14,25)            92.5088         estimate D2E/DX2                !
 ! A39   A(15,14,25)           114.2449         estimate D2E/DX2                !
 ! A40   A(6,15,14)            138.2181         estimate D2E/DX2                !
 ! D1    D(16,1,2,3)          -163.0755         estimate D2E/DX2                !
 ! D2    D(17,1,2,3)            77.6655         estimate D2E/DX2                !
 ! D3    D(18,1,2,3)           -44.6083         estimate D2E/DX2                !
 ! D4    D(1,2,3,4)           -166.2247         estimate D2E/DX2                !
 ! D5    D(1,2,3,8)             19.1235         estimate D2E/DX2                !
 ! D6    D(2,3,4,5)           -155.1128         estimate D2E/DX2                !
 ! D7    D(2,3,4,19)            25.4698         estimate D2E/DX2                !
 ! D8    D(8,3,4,5)             20.3284         estimate D2E/DX2                !
 ! D9    D(8,3,4,19)          -159.0891         estimate D2E/DX2                !
 ! D10   D(2,3,8,7)           -168.6656         estimate D2E/DX2                !
 ! D11   D(2,3,8,20)            13.5742         estimate D2E/DX2                !
 ! D12   D(4,3,8,7)             15.6077         estimate D2E/DX2                !
 ! D13   D(4,3,8,20)          -162.1525         estimate D2E/DX2                !
 ! D14   D(3,4,5,6)            -11.2005         estimate D2E/DX2                !
 ! D15   D(19,4,5,6)           168.0947         estimate D2E/DX2                !
 ! D16   D(4,5,6,7)            -29.6078         estimate D2E/DX2                !
 ! D17   D(4,5,6,15)           158.2074         estimate D2E/DX2                !
 ! D18   D(5,6,7,8)             69.6046         estimate D2E/DX2                !
 ! D19   D(5,6,7,9)           -130.5202         estimate D2E/DX2                !
 ! D20   D(15,6,7,8)          -116.0464         estimate D2E/DX2                !
 ! D21   D(15,6,7,9)            43.8287         estimate D2E/DX2                !
 ! D22   D(5,6,15,14)         -166.2184         estimate D2E/DX2                !
 ! D23   D(7,6,15,14)           23.1822         estimate D2E/DX2                !
 ! D24   D(6,7,8,3)            -72.1047         estimate D2E/DX2                !
 ! D25   D(6,7,8,20)           105.7427         estimate D2E/DX2                !
 ! D26   D(9,7,8,3)            133.9135         estimate D2E/DX2                !
 ! D27   D(9,7,8,20)           -48.2392         estimate D2E/DX2                !
 ! D28   D(6,7,9,10)          -106.3505         estimate D2E/DX2                !
 ! D29   D(6,7,9,21)            29.2456         estimate D2E/DX2                !
 ! D30   D(8,7,9,10)            49.3077         estimate D2E/DX2                !
 ! D31   D(8,7,9,21)          -175.0962         estimate D2E/DX2                !
 ! D32   D(7,9,10,11)          143.0988         estimate D2E/DX2                !
 ! D33   D(7,9,10,22)           14.4594         estimate D2E/DX2                !
 ! D34   D(21,9,10,11)           9.7535         estimate D2E/DX2                !
 ! D35   D(21,9,10,22)        -118.8859         estimate D2E/DX2                !
 ! D36   D(9,10,11,12)         -66.3786         estimate D2E/DX2                !
 ! D37   D(22,10,11,12)         61.4236         estimate D2E/DX2                !
 ! D38   D(10,11,12,13)        -44.3386         estimate D2E/DX2                !
 ! D39   D(10,11,12,23)       -163.1657         estimate D2E/DX2                !
 ! D40   D(11,12,13,14)         91.6309         estimate D2E/DX2                !
 ! D41   D(11,12,13,24)       -117.6809         estimate D2E/DX2                !
 ! D42   D(23,12,13,14)       -172.5074         estimate D2E/DX2                !
 ! D43   D(23,12,13,24)        -21.8192         estimate D2E/DX2                !
 ! D44   D(12,13,14,15)        -62.3052         estimate D2E/DX2                !
 ! D45   D(12,13,14,25)         74.1698         estimate D2E/DX2                !
 ! D46   D(24,13,14,15)        152.2458         estimate D2E/DX2                !
 ! D47   D(24,13,14,25)        -71.2792         estimate D2E/DX2                !
 ! D48   D(13,14,15,6)         -30.719          estimate D2E/DX2                !
 ! D49   D(25,14,15,6)        -161.7317         estimate D2E/DX2                !
 --------------------------------------------------------------------------------
 Trust Radius=3.00D-01 FncErr=1.00D-07 GrdErr=1.00D-06 EigMax=2.50D+02 EigMin=1.00D-04
 Number of steps in this run=    125 maximum allowed number of steps=    150.
 GradGradGradGradGradGradGradGradGradGradGradGradGradGradGradGradGradGrad

                          Input orientation:                          
 ---------------------------------------------------------------------
 Center     Atomic      Atomic             Coordinates (Angstroms)
 Number     Number       Type             X           Y           Z
 ---------------------------------------------------------------------
      1          6           0        1.175380   -0.011090   -0.095910
      2          8           0        2.635310    0.058780   -0.202670
      3          6           0        3.136290    1.285140   -0.657580
      4          6           0        4.550270    1.644330   -1.162680
      5          7           0        5.082240    2.934000   -1.118200
      6          6           0        4.141870    4.171320   -0.776660
      7          6           0        2.983530    3.539700   -1.341450
      8          6           0        2.466530    2.427460   -0.639110
      9          6           0        2.413090    4.402790   -2.155010
     10          6           0        1.237560    4.841830   -1.464480
     11          6           0        1.030300    6.136780   -1.701040
     12         16           0        1.427580    7.625370   -1.579290
     13          6           0        1.731980    7.066410    0.155240
     14          6           0        3.061980    6.655110    0.283050
     15          7           0        4.155940    5.521420   -0.288360
     16          1           0        0.842750   -0.853010    0.530140
     17          1           0        0.734430   -0.151630   -1.090570
     18          1           0        0.728530    0.875380    0.369860
     19          1           0        5.042090    0.680800   -1.571740
     20          1           0        1.572480    2.550320   -0.087920
     21          1           0        3.087480    5.140480   -2.638730
     22          1           0        1.246610    4.569200   -0.380540
     23          1           0        0.280200    8.196240   -1.893950
     24          1           0        1.088050    7.580160    0.923600
     25          1           0        3.451210    7.737390    0.266270
 ---------------------------------------------------------------------
                    Distance matrix (angstroms):
                    1          2          3          4          5
     1  C    0.000000
     2  O    1.465495   0.000000
     3  C    2.416786   1.400672   0.000000
     4  C    3.907467   2.665082   1.543853   0.000000
     5  N    4.998218   3.884913   2.591839   1.395786   0.000000
     6  C    5.172624   4.417259   3.058661   2.588722   1.591196
     7  C    4.174792   3.678978   2.360944   2.465575   2.195745
     8  C    2.812234   2.414459   1.324317   2.286786   2.707037
     9  C    5.025351   4.767750   3.533420   3.627859   3.218180
    10  C    5.042587   5.140373   4.111728   4.614015   4.305960
    11  C    6.355611   6.462450   5.390957   5.732550   5.197665
    12  S    7.783286   7.785048   6.630819   6.760000   5.964738
    13  C    7.103794   7.074672   6.004652   6.251290   5.470165
    14  C    6.938378   6.627936   5.452237   5.423381   4.460001
    15  N    6.287244   5.670987   4.372880   3.993965   2.870785
    16  H    1.100641   2.140477   3.353012   4.779964   5.918762
    17  H    1.097058   2.108550   2.832088   4.217974   5.331541
    18  H    1.096561   2.151845   2.649688   4.188754   5.040539
    19  H    4.196216   2.837931   2.198406   1.156550   2.298743
    20  H    2.592021   2.711189   2.090621   3.292895   3.677921
    21  H    6.054811   5.653541   4.334857   4.067130   3.340604
    22  H    4.589678   4.722713   3.799038   4.481158   4.234392
    23  H    8.449530   8.638589   7.579523   7.854666   7.166069
    24  H    7.659902   7.761034   6.806078   7.181477   6.458274
    25  H    8.083905   7.736062   6.525657   6.354149   5.258286
                    6          7          8          9         10
     6  C    0.000000
     7  C    1.435160   0.000000
     8  C    2.422134   1.413382   0.000000
     9  C    2.223085   1.316133   2.490530   0.000000
    10  C    3.059035   2.181534   2.832099   1.432291   0.000000
    11  C    3.794651   3.269440   4.116978   2.263828   1.332596
    12  S    4.465652   4.378384   5.383458   3.418729   2.792380
    13  C    3.880406   4.030402   4.763445   3.591105   2.795836
    14  C    2.908326   3.514390   4.367833   3.382032   3.109719
    15  N    1.435759   2.531947   3.542558   2.788053   3.219013
    16  H    6.151082   5.232752   3.842563   6.107326   6.046949
    17  H    5.513355   4.329816   3.139378   4.969273   5.032653
    18  H    4.881457   3.887442   2.539216   4.653529   4.399618
    19  H    3.691379   3.530441   3.248712   4.594024   5.639160
    20  H    3.115087   2.131026   1.057464   2.900195   2.694087
    21  H    2.349109   2.063065   3.427030   1.110393   2.211393
    22  H    2.949195   2.236092   2.478329   2.130050   1.117737
    23  H    5.688657   5.412635   6.295513   4.359775   3.514690
    24  H    4.882304   5.004859   5.558110   4.618360   3.636445
    25  H    3.779096   4.519302   5.475825   4.249688   4.034849
                   11         12         13         14         15
    11  C    0.000000
    12  S    1.545495   0.000000
    13  C    2.191425   1.847617   0.000000
    14  C    2.886694   2.661011   1.398000   0.000000
    15  N    3.484818   3.679274   2.908497   1.675861   0.000000
    16  H    7.339653   8.756406   7.978001   7.833128   7.230528
    17  H    6.324896   7.823109   7.392378   7.323662   6.673363
    18  H    5.662334   7.060469   6.275494   6.233603   5.810859
    19  H    6.773396   7.828907   7.396979   6.561514   5.085659
    20  H    3.969737   5.291627   4.525443   4.382411   3.942319
    21  H    2.470600   3.170546   3.654156   3.291132   2.609782
    22  H    2.061023   3.287845   2.599750   2.843755   3.062584
    23  H    2.200282   1.319615   2.753790   3.853921   4.975333
    24  H    2.995900   2.526219   1.126482   2.272096   3.888342
    25  H    3.506147   2.741116   1.848863   1.150266   2.390561
                   16         17         18         19         20
    16  H    0.000000
    17  H    1.769285   0.000000
    18  H    1.739560   1.785396   0.000000
    19  H    4.940135   4.413660   4.734392   0.000000
    20  H    3.535132   3.001361   1.930606   4.211297   0.000000
    21  H    7.141602   5.995004   5.727769   4.984748   3.938373
    22  H    5.512967   4.801323   3.804709   5.562758   2.065840
    23  H    9.385180   8.398731   7.675990   8.902879   6.066972
    24  H    8.445907   7.997656   6.737207   8.334406   5.153362
    25  H    8.981574   8.453316   7.383150   7.463554   5.528180
                   21         22         23         24         25
    21  H    0.000000
    22  H    2.968937   0.000000
    23  H    4.215826   4.047194   0.000000
    24  H    4.758146   3.285088   2.995123   0.000000
    25  H    3.913472   3.913573   3.864246   2.457912   0.000000
 Stoichiometry    C11H10N2OS
 Framework group  C1[X(C11H10N2OS)]
 Deg. of freedom    69
 Full point group                 C1      NOp   1
 Largest Abelian subgroup         C1      NOp   1
 Largest concise Abelian subgroup C1      NOp   1
                         Standard orientation:                         
 ---------------------------------------------------------------------
 Center     Atomic      Atomic             Coordinates (Angstroms)
 Number     Number       Type             X           Y           Z
 ---------------------------------------------------------------------
      1          6           0        3.897176   -2.076587    0.488994
      2          8           0        4.063658   -0.625944    0.364115
      3          6           0        2.906824    0.071699   -0.005902
      4          6           0        2.750793    1.524097   -0.505580
      5          7           0        1.575048    2.264624   -0.373439
      6          6           0        0.228071    1.545867    0.074834
      7          6           0        0.612767    0.296179   -0.516751
      8          6           0        1.673652   -0.397294    0.108762
      9          6           0       -0.392932   -0.124531   -1.254163
     10          6           0       -0.967688   -1.207563   -0.513789
     11          6           0       -2.293306   -1.195919   -0.649492
     12         16           0       -3.681143   -0.554609   -0.423255
     13          6           0       -2.948384   -0.342071    1.259475
     14          6           0       -2.312621    0.900733    1.334614
     15          7           0       -1.059484    1.787464    0.662403
     16          1           0        4.717223   -2.543302    1.055660
     17          1           0        3.885836   -2.538290   -0.506114
     18          1           0        2.986849   -2.367100    1.026908
     19          1           0        3.748702    1.846241   -0.993440
     20          1           0        1.445983   -1.256239    0.682007
     21          1           0       -1.042680    0.662162   -1.692246
     22          1           0       -0.615344   -1.240525    0.546448
     23          1           0       -4.457612   -1.591305   -0.675727
     24          1           0       -3.502035   -0.888232    2.074424
     25          1           0       -3.312963    1.465603    1.392484
 ---------------------------------------------------------------------
 Rotational constants (GHZ):           1.1831729           0.3119312           0.2754785
 Standard basis: 6-31G(2df,p) (6D, 7F)
 There are   519 symmetry adapted cartesian basis functions of A   symmetry.
 There are   474 symmetry adapted basis functions of A   symmetry.
   474 basis functions,   754 primitive gaussians,   519 cartesian basis functions
    57 alpha electrons       57 beta electrons
       nuclear repulsion energy      1024.0662097067 Hartrees.
 NAtoms=   25 NActive=   25 NUniq=   25 SFac= 1.00D+00 NAtFMM=   60 NAOKFM=F Big=F
 Integral buffers will be    131072 words long.
 Raffenetti 2 integral format.
 Two-electron integral symmetry is turned on.
 One-electron integrals computed using PRISM.
 PrsmSu:  requested number of processors reduced to:  12 ShMem   1 Linda.
 NBasis=   474 RedAO= T EigKep=  2.44D-04  NBF=   474
 NBsUse=   474 1.00D-06 EigRej= -1.00D+00 NBFU=   474
 ExpMin= 1.17D-01 ExpMax= 2.19D+04 ExpMxC= 3.30D+03 IAcc=3 IRadAn=         5 AccDes= 0.00D+00
 Harris functional with IExCor=  402 and IRadAn=       5 diagonalized for initial guess.
 HarFok:  IExCor=  402 AccDes= 0.00D+00 IRadAn=         5 IDoV= 1 UseB2=F ITyADJ=14
 ICtDFT=  3500011 ScaDFX=  1.000000  1.000000  1.000000  1.000000
 FoFCou: FMM=F IPFlag=           0 FMFlag=      100000 FMFlg1=           0
         NFxFlg=           0 DoJE=T BraDBF=F KetDBF=T FulRan=T
         wScrn=  0.000000 ICntrl=       500 IOpCl=  0 I1Cent=   200000004 NGrid=           0
         NMat0=    1 NMatS0=      1 NMatT0=    0 NMatD0=    1 NMtDS0=    0 NMtDT0=    0
 Petite list used in FoFCou.
 Requested convergence on RMS density matrix=1.00D-08 within 128 cycles.
 Requested convergence on MAX density matrix=1.00D-06.
 Requested convergence on             energy=1.00D-06.
 No special actions if energy rises.
 Integral accuracy reduced to 1.0D-05 until final iterations.
 EnCoef did     7 forward-backward iterations
 EnCoef did     5 forward-backward iterations
 Initial convergence to 1.0D-05 achieved.  Increase integral accuracy.
 SCF Done:  E(RB3LYP) =  -1007.42975636     A.U. after   22 cycles
            NFock= 22  Conv=0.88D-08     -V/T= 2.0062

 **********************************************************************

            Population analysis using the SCF density.

 **********************************************************************

 Orbital symmetries:
       Occupied  (A) (A) (A) (A) (A) (A) (A) (A) (A) (A) (A) (A)
                 (A) (A) (A) (A) (A) (A) (A) (A) (A) (A) (A) (A)
                 (A) (A) (A) (A) (A) (A) (A) (A) (A) (A) (A) (A)
                 (A) (A) (A) (A) (A) (A) (A) (A) (A) (A) (A) (A)
                 (A) (A) (A) (A) (A) (A) (A) (A) (A)
       Virtual   (A) (A) (A) (A) (A) (A) (A) (A) (A) (A) (A) (A)
                 (A) (A) (A) (A) (A) (A) (A) (A) (A) (A) (A) (A)
                 (A) (A) (A) (A) (A) (A) (A) (A) (A) (A) (A) (A)
                 (A) (A) (A) (A) (A) (A) (A) (A) (A) (A) (A) (A)
                 (A) (A) (A) (A) (A) (A) (A) (A) (A) (A) (A) (A)
                 (A) (A) (A) (A) (A) (A) (A) (A) (A) (A) (A) (A)
                 (A) (A) (A) (A) (A) (A) (A) (A) (A) (A) (A) (A)
                 (A) (A) (A) (A) (A) (A) (A) (A) (A) (A) (A) (A)
                 (A) (A) (A) (A) (A) (A) (A) (A) (A) (A) (A) (A)
                 (A) (A) (A) (A) (A) (A) (A) (A) (A) (A) (A) (A)
                 (A) (A) (A) (A) (A) (A) (A) (A) (A) (A) (A) (A)
                 (A) (A) (A) (A) (A) (A) (A) (A) (A) (A) (A) (A)
                 (A) (A) (A) (A) (A) (A) (A) (A) (A) (A) (A) (A)
                 (A) (A) (A) (A) (A) (A) (A) (A) (A) (A) (A) (A)
                 (A) (A) (A) (A) (A) (A) (A) (A) (A) (A) (A) (A)
                 (A) (A) (A) (A) (A) (A) (A) (A) (A) (A) (A) (A)
                 (A) (A) (A) (A) (A) (A) (A) (A) (A) (A) (A) (A)
                 (A) (A) (A) (A) (A) (A) (A) (A) (A) (A) (A) (A)
                 (A) (A) (A) (A) (A) (A) (A) (A) (A) (A) (A) (A)
                 (A) (A) (A) (A) (A) (A) (A) (A) (A) (A) (A) (A)
                 (A) (A) (A) (A) (A) (A) (A) (A) (A) (A) (A) (A)
                 (A) (A) (A) (A) (A) (A) (A) (A) (A) (A) (A) (A)
                 (A) (A) (A) (A) (A) (A) (A) (A) (A) (A) (A) (A)
                 (A) (A) (A) (A) (A) (A) (A) (A) (A) (A) (A) (A)
                 (A) (A) (A) (A) (A) (A) (A) (A) (A) (A) (A) (A)
                 (A) (A) (A) (A) (A) (A) (A) (A) (A) (A) (A) (A)
                 (A) (A) (A) (A) (A) (A) (A) (A) (A) (A) (A) (A)
                 (A) (A) (A) (A) (A) (A) (A) (A) (A) (A) (A) (A)
                 (A) (A) (A) (A) (A) (A) (A) (A) (A) (A) (A) (A)
                 (A) (A) (A) (A) (A) (A) (A) (A) (A) (A) (A) (A)
                 (A) (A) (A) (A) (A) (A) (A) (A) (A) (A) (A) (A)
                 (A) (A) (A) (A) (A) (A) (A) (A) (A) (A) (A) (A)
                 (A) (A) (A) (A) (A) (A) (A) (A) (A) (A) (A) (A)
                 (A) (A) (A) (A) (A) (A) (A) (A) (A) (A) (A) (A)
                 (A) (A) (A) (A) (A) (A) (A) (A) (A)
 The electronic state is 1-A.
 Alpha  occ. eigenvalues --  -88.97246 -19.18399 -14.35822 -14.35594 -10.26505
 Alpha  occ. eigenvalues --  -10.25465 -10.25046 -10.24986 -10.24356 -10.23705
 Alpha  occ. eigenvalues --  -10.23001 -10.22582 -10.20301 -10.20091 -10.18210
 Alpha  occ. eigenvalues --   -8.03142  -5.99512  -5.99234  -5.98924  -1.05012
 Alpha  occ. eigenvalues --   -0.92435  -0.90968  -0.84909  -0.81914  -0.78440
 Alpha  occ. eigenvalues --   -0.75030  -0.73794  -0.71012  -0.65413  -0.60298
 Alpha  occ. eigenvalues --   -0.58071  -0.57673  -0.55513  -0.53164  -0.49877
 Alpha  occ. eigenvalues --   -0.49105  -0.48574  -0.47084  -0.46664  -0.44569
 Alpha  occ. eigenvalues --   -0.44325  -0.43737  -0.41315  -0.40093  -0.39339
 Alpha  occ. eigenvalues --   -0.38249  -0.35965  -0.34669  -0.33776  -0.31922
 Alpha  occ. eigenvalues --   -0.29044  -0.26976  -0.24511  -0.22012  -0.20675
 Alpha  occ. eigenvalues --   -0.19072  -0.17649
 Alpha virt. eigenvalues --   -0.09385  -0.07976  -0.05995  -0.02929  -0.00874
 Alpha virt. eigenvalues --    0.00563   0.03355   0.04157   0.06501   0.08076
 Alpha virt. eigenvalues --    0.08581   0.09671   0.11145   0.12120   0.13246
 Alpha virt. eigenvalues --    0.13517   0.14655   0.15394   0.16455   0.18089
 Alpha virt. eigenvalues --    0.19758   0.19854   0.24027   0.24337   0.26815
 Alpha virt. eigenvalues --    0.27584   0.28389   0.29944   0.30204   0.32808
 Alpha virt. eigenvalues --    0.33913   0.34874   0.35984   0.37793   0.37973
 Alpha virt. eigenvalues --    0.40452   0.40929   0.41495   0.43790   0.44382
 Alpha virt. eigenvalues --    0.45155   0.46452   0.46757   0.47339   0.48327
 Alpha virt. eigenvalues --    0.50043   0.50383   0.51119   0.51397   0.53107
 Alpha virt. eigenvalues --    0.53695   0.55160   0.55871   0.56395   0.57921
 Alpha virt. eigenvalues --    0.58556   0.58697   0.58966   0.61372   0.62221
 Alpha virt. eigenvalues --    0.63384   0.64741   0.65069   0.66528   0.67357
 Alpha virt. eigenvalues --    0.67587   0.68843   0.68895   0.70014   0.70358
 Alpha virt. eigenvalues --    0.70978   0.71454   0.72496   0.72731   0.74616
 Alpha virt. eigenvalues --    0.75394   0.76327   0.76999   0.77773   0.78016
 Alpha virt. eigenvalues --    0.79119   0.80172   0.81382   0.82297   0.82876
 Alpha virt. eigenvalues --    0.83366   0.84238   0.85976   0.86824   0.87407
 Alpha virt. eigenvalues --    0.88353   0.89562   0.90656   0.91138   0.92549
 Alpha virt. eigenvalues --    0.92910   0.93468   0.94866   0.96553   0.97307
 Alpha virt. eigenvalues --    0.98168   1.01117   1.02023   1.03564   1.05371
 Alpha virt. eigenvalues --    1.05380   1.08170   1.09296   1.10203   1.11606
 Alpha virt. eigenvalues --    1.14130   1.15100   1.16909   1.19861   1.20650
 Alpha virt. eigenvalues --    1.21256   1.23283   1.24383   1.25782   1.27094
 Alpha virt. eigenvalues --    1.28043   1.29257   1.30122   1.31626   1.32179
 Alpha virt. eigenvalues --    1.33687   1.35069   1.36427   1.37379   1.38309
 Alpha virt. eigenvalues --    1.39654   1.41019   1.43128   1.44122   1.44913
 Alpha virt. eigenvalues --    1.46126   1.46912   1.47272   1.49250   1.50534
 Alpha virt. eigenvalues --    1.51654   1.52591   1.55616   1.55953   1.57464
 Alpha virt. eigenvalues --    1.58273   1.59403   1.60505   1.61662   1.62840
 Alpha virt. eigenvalues --    1.64904   1.65614   1.67629   1.69044   1.70487
 Alpha virt. eigenvalues --    1.70793   1.71961   1.73496   1.75471   1.76775
 Alpha virt. eigenvalues --    1.77750   1.78918   1.80988   1.83214   1.84167
 Alpha virt. eigenvalues --    1.86740   1.87851   1.89766   1.91589   1.92190
 Alpha virt. eigenvalues --    1.92883   1.95162   1.96857   1.99917   2.01712
 Alpha virt. eigenvalues --    2.02368   2.04492   2.05330   2.07232   2.09200
 Alpha virt. eigenvalues --    2.15013   2.16356   2.17407   2.19962   2.21042
 Alpha virt. eigenvalues --    2.22608   2.25971   2.26959   2.28748   2.30852
 Alpha virt. eigenvalues --    2.31129   2.33137   2.33990   2.35949   2.37753
 Alpha virt. eigenvalues --    2.38458   2.40094   2.44010   2.44346   2.46691
 Alpha virt. eigenvalues --    2.47235   2.50816   2.53851   2.59516   2.60247
 Alpha virt. eigenvalues --    2.61581   2.62099   2.65847   2.66874   2.68687
 Alpha virt. eigenvalues --    2.71398   2.74258   2.75124   2.78010   2.79440
 Alpha virt. eigenvalues --    2.79600   2.80543   2.81169   2.82170   2.82740
 Alpha virt. eigenvalues --    2.83826   2.87016   2.88186   2.90000   2.90990
 Alpha virt. eigenvalues --    2.91488   2.92162   2.94182   2.96607   2.97317
 Alpha virt. eigenvalues --    2.98394   3.00026   3.01053   3.02963   3.04039
 Alpha virt. eigenvalues --    3.04878   3.06958   3.07886   3.09241   3.11283
 Alpha virt. eigenvalues --    3.13045   3.14213   3.14344   3.15491   3.17092
 Alpha virt. eigenvalues --    3.18740   3.20571   3.21259   3.22685   3.23684
 Alpha virt. eigenvalues --    3.24791   3.25870   3.27794   3.28979   3.31383
 Alpha virt. eigenvalues --    3.32390   3.33618   3.35377   3.36474   3.36941
 Alpha virt. eigenvalues --    3.40157   3.40933   3.41725   3.43071   3.43860
 Alpha virt. eigenvalues --    3.44560   3.46357   3.48365   3.49464   3.50897
 Alpha virt. eigenvalues --    3.53581   3.54914   3.56812   3.59513   3.59788
 Alpha virt. eigenvalues --    3.63594   3.65018   3.66131   3.68364   3.68740
 Alpha virt. eigenvalues --    3.70439   3.71663   3.73978   3.76297   3.77409
 Alpha virt. eigenvalues --    3.78550   3.79732   3.82186   3.83281   3.85180
 Alpha virt. eigenvalues --    3.87797   3.88549   3.89057   3.89620   3.94657
 Alpha virt. eigenvalues --    3.96123   3.96912   4.00845   4.02075   4.04034
 Alpha virt. eigenvalues --    4.04995   4.07314   4.09677   4.11920   4.15982
 Alpha virt. eigenvalues --    4.18393   4.20862   4.21302   4.23307   4.24249
 Alpha virt. eigenvalues --    4.26242   4.27067   4.28945   4.30297   4.32549
 Alpha virt. eigenvalues --    4.33749   4.34413   4.35802   4.36274   4.38087
 Alpha virt. eigenvalues --    4.38689   4.40321   4.41314   4.42347   4.43216
 Alpha virt. eigenvalues --    4.43757   4.44331   4.47353   4.48253   4.50519
 Alpha virt. eigenvalues --    4.50923   4.52426   4.54792   4.55562   4.55968
 Alpha virt. eigenvalues --    4.56794   4.57902   4.58210   4.60123   4.61690
 Alpha virt. eigenvalues --    4.63135   4.63786   4.65451   4.66412   4.68373
 Alpha virt. eigenvalues --    4.69801   4.71715   4.73016   4.73856   4.74667
 Alpha virt. eigenvalues --    4.77239   4.78023   4.78434   4.79977   4.80601
 Alpha virt. eigenvalues --    4.83448   4.84794   4.85230   4.91308   4.91968
 Alpha virt. eigenvalues --    4.93648   4.94519   4.95572   5.00007   5.00958
 Alpha virt. eigenvalues --    5.01811   5.04831   5.06955   5.10466   5.12287
 Alpha virt. eigenvalues --    5.13947   5.16504   5.18804   5.22371   5.26114
 Alpha virt. eigenvalues --    5.30025   5.30751   5.31903   5.34111   5.36405
 Alpha virt. eigenvalues --    5.37741   5.43567   5.44988   5.48724   5.50937
 Alpha virt. eigenvalues --    5.54248   5.58154   5.62529   5.66997   5.71497
 Alpha virt. eigenvalues --    5.74484   5.77340   5.80019   5.85508   5.89030
 Alpha virt. eigenvalues --    5.92778   6.01538   6.15126   6.33270   6.59747
 Alpha virt. eigenvalues --    7.05084   9.84566  10.41456  10.64729  10.82406
 Alpha virt. eigenvalues --   10.94329  11.27057  11.33592  11.37335  11.40364
 Alpha virt. eigenvalues --   11.62362  11.82499  12.00461  12.30838  12.63783
 Alpha virt. eigenvalues --   13.51165  15.95045
          Condensed to atoms (all electrons):
               1          2          3          4          5          6
     1  C    4.852873   0.349848  -0.084125   0.001884  -0.000037  -0.000006
     2  O    0.349848   7.662206   0.412733  -0.018847   0.000537  -0.000036
     3  C   -0.084125   0.412733   4.623194   0.388445  -0.004693  -0.015413
     4  C    0.001884  -0.018847   0.388445   4.893718   0.557426  -0.059164
     5  N   -0.000037   0.000537  -0.004693   0.557426   6.599462   0.319979
     6  C   -0.000006  -0.000036  -0.015413  -0.059164   0.319979   4.810846
     7  C    0.000642   0.003013   0.013403  -0.019456  -0.054314   0.303811
     8  C   -0.000067  -0.047084   0.489179  -0.022823  -0.061675  -0.021345
     9  C    0.000021  -0.000005   0.003331  -0.003222   0.006399  -0.062510
    10  C    0.000027  -0.000011  -0.000573   0.000007   0.000445  -0.002816
    11  C    0.000000  -0.000000  -0.000087  -0.000008  -0.000071   0.002578
    12  S    0.000000  -0.000000   0.000003   0.000001   0.000005  -0.000370
    13  C    0.000000   0.000000  -0.000005   0.000001  -0.000022  -0.000445
    14  C   -0.000000  -0.000000   0.000001  -0.000013   0.000483  -0.032629
    15  N   -0.000000  -0.000000   0.000106   0.000785  -0.013443   0.531193
    16  H    0.380920  -0.015296   0.002815  -0.000026   0.000001   0.000000
    17  H    0.377143  -0.027747   0.002439   0.000128   0.000000   0.000001
    18  H    0.370968  -0.023056  -0.011620  -0.000072  -0.000008   0.000006
    19  H   -0.000332   0.002947  -0.061395   0.346005  -0.025899   0.002850
    20  H   -0.000225  -0.009826  -0.041196   0.006326  -0.000142   0.003642
    21  H    0.000000   0.000000   0.000122  -0.000055   0.000302  -0.012328
    22  H   -0.000012  -0.000000  -0.000220   0.000077  -0.000109   0.000367
    23  H   -0.000000  -0.000000  -0.000000   0.000000  -0.000000  -0.000003
    24  H   -0.000000  -0.000000  -0.000000   0.000000   0.000000   0.000017
    25  H   -0.000000   0.000000  -0.000000   0.000000  -0.000004   0.001630
               7          8          9         10         11         12
     1  C    0.000642  -0.000067   0.000021   0.000027   0.000000   0.000000
     2  O    0.003013  -0.047084  -0.000005  -0.000011  -0.000000  -0.000000
     3  C    0.013403   0.489179   0.003331  -0.000573  -0.000087   0.000003
     4  C   -0.019456  -0.022823  -0.003222   0.000007  -0.000008   0.000001
     5  N   -0.054314  -0.061675   0.006399   0.000445  -0.000071   0.000005
     6  C    0.303811  -0.021345  -0.062510  -0.002816   0.002578  -0.000370
     7  C    4.678698   0.425487   0.496381  -0.026278  -0.010248   0.000479
     8  C    0.425487   5.149169  -0.046560  -0.012563   0.001236   0.000108
     9  C    0.496381  -0.046560   5.309600   0.360600  -0.075450   0.006145
    10  C   -0.026278  -0.012563   0.360600   5.047912   0.609617  -0.076436
    11  C   -0.010248   0.001236  -0.075450   0.609617   4.954020   0.462753
    12  S    0.000479   0.000108   0.006145  -0.076436   0.462753  15.546320
    13  C    0.002522  -0.000169   0.001001  -0.018551   0.068582   0.016918
    14  C   -0.002793  -0.000020  -0.002876   0.000539  -0.013991  -0.069837
    15  N   -0.066133  -0.001056  -0.015842   0.003051  -0.002661   0.004593
    16  H   -0.000017  -0.000135  -0.000000   0.000000   0.000000   0.000000
    17  H   -0.000003   0.003698   0.000002   0.000010   0.000000   0.000000
    18  H   -0.000328   0.003298   0.000018  -0.000027  -0.000001  -0.000000
    19  H   -0.000338   0.004500  -0.000007  -0.000002  -0.000000   0.000000
    20  H   -0.054117   0.347368  -0.010915   0.010276   0.001119   0.000005
    21  H   -0.020466   0.005316   0.371362  -0.048521  -0.020610   0.006949
    22  H   -0.015250   0.002663  -0.066460   0.385999  -0.020269   0.002514
    23  H    0.000011  -0.000001  -0.000469   0.002352  -0.051829   0.126004
    24  H   -0.000023  -0.000001  -0.000110   0.000607  -0.004969  -0.055906
    25  H   -0.000050  -0.000003  -0.000116  -0.000082   0.003041  -0.009169
              13         14         15         16         17         18
     1  C    0.000000  -0.000000  -0.000000   0.380920   0.377143   0.370968
     2  O    0.000000  -0.000000  -0.000000  -0.015296  -0.027747  -0.023056
     3  C   -0.000005   0.000001   0.000106   0.002815   0.002439  -0.011620
     4  C    0.000001  -0.000013   0.000785  -0.000026   0.000128  -0.000072
     5  N   -0.000022   0.000483  -0.013443   0.000001   0.000000  -0.000008
     6  C   -0.000445  -0.032629   0.531193   0.000000   0.000001   0.000006
     7  C    0.002522  -0.002793  -0.066133  -0.000017  -0.000003  -0.000328
     8  C   -0.000169  -0.000020  -0.001056  -0.000135   0.003698   0.003298
     9  C    0.001001  -0.002876  -0.015842  -0.000000   0.000002   0.000018
    10  C   -0.018551   0.000539   0.003051   0.000000   0.000010  -0.000027
    11  C    0.068582  -0.013991  -0.002661   0.000000   0.000000  -0.000001
    12  S    0.016918  -0.069837   0.004593   0.000000   0.000000  -0.000000
    13  C    5.469282   0.422558  -0.014576   0.000000   0.000000  -0.000000
    14  C    0.422558   5.105638   0.360296  -0.000000  -0.000000   0.000000
    15  N   -0.014576   0.360296   6.618205  -0.000000  -0.000000   0.000000
    16  H    0.000000  -0.000000  -0.000000   0.558715  -0.036718  -0.035790
    17  H    0.000000  -0.000000  -0.000000  -0.036718   0.587008  -0.043228
    18  H   -0.000000   0.000000   0.000000  -0.035790  -0.043228   0.597415
    19  H   -0.000000   0.000000  -0.000003  -0.000000  -0.000038   0.000029
    20  H   -0.000084  -0.000139  -0.000020  -0.000004   0.000610   0.003856
    21  H   -0.000591   0.000408   0.005707  -0.000000   0.000000  -0.000001
    22  H   -0.015828  -0.000897   0.003693   0.000000  -0.000008   0.000005
    23  H    0.025865   0.004401   0.000002   0.000000   0.000000   0.000000
    24  H    0.368120  -0.022789   0.000652  -0.000000  -0.000000   0.000000
    25  H   -0.126528   0.398896  -0.022899  -0.000000   0.000000   0.000000
              19         20         21         22         23         24
     1  C   -0.000332  -0.000225   0.000000  -0.000012  -0.000000  -0.000000
     2  O    0.002947  -0.009826   0.000000  -0.000000  -0.000000  -0.000000
     3  C   -0.061395  -0.041196   0.000122  -0.000220  -0.000000  -0.000000
     4  C    0.346005   0.006326  -0.000055   0.000077   0.000000   0.000000
     5  N   -0.025899  -0.000142   0.000302  -0.000109  -0.000000   0.000000
     6  C    0.002850   0.003642  -0.012328   0.000367  -0.000003   0.000017
     7  C   -0.000338  -0.054117  -0.020466  -0.015250   0.000011  -0.000023
     8  C    0.004500   0.347368   0.005316   0.002663  -0.000001  -0.000001
     9  C   -0.000007  -0.010915   0.371362  -0.066460  -0.000469  -0.000110
    10  C   -0.000002   0.010276  -0.048521   0.385999   0.002352   0.000607
    11  C   -0.000000   0.001119  -0.020610  -0.020269  -0.051829  -0.004969
    12  S    0.000000   0.000005   0.006949   0.002514   0.126004  -0.055906
    13  C   -0.000000  -0.000084  -0.000591  -0.015828   0.025865   0.368120
    14  C    0.000000  -0.000139   0.000408  -0.000897   0.004401  -0.022789
    15  N   -0.000003  -0.000020   0.005707   0.003693   0.000002   0.000652
    16  H   -0.000000  -0.000004  -0.000000   0.000000   0.000000  -0.000000
    17  H   -0.000038   0.000610   0.000000  -0.000008   0.000000  -0.000000
    18  H    0.000029   0.003856  -0.000001   0.000005   0.000000   0.000000
    19  H    0.597629  -0.000350   0.000006   0.000000  -0.000000   0.000000
    20  H   -0.000350   0.638021  -0.000249   0.009123   0.000001   0.000001
    21  H    0.000006  -0.000249   0.560305   0.003454  -0.000228  -0.000007
    22  H    0.000000   0.009123   0.003454   0.525502   0.000085   0.000889
    23  H   -0.000000   0.000001  -0.000228   0.000085   0.773651   0.002781
    24  H    0.000000   0.000001  -0.000007   0.000889   0.002781   0.541399
    25  H   -0.000000  -0.000001  -0.000019  -0.000147   0.000253   0.006748
              25
     1  C   -0.000000
     2  O    0.000000
     3  C   -0.000000
     4  C    0.000000
     5  N   -0.000004
     6  C    0.001630
     7  C   -0.000050
     8  C   -0.000003
     9  C   -0.000116
    10  C   -0.000082
    11  C    0.003041
    12  S   -0.009169
    13  C   -0.126528
    14  C    0.398896
    15  N   -0.022899
    16  H   -0.000000
    17  H    0.000000
    18  H    0.000000
    19  H   -0.000000
    20  H   -0.000001
    21  H   -0.000019
    22  H   -0.000147
    23  H    0.000253
    24  H    0.006748
    25  H    0.613467
 Mulliken charges:
               1
     1  C   -0.249522
     2  O   -0.289376
     3  C    0.283552
     4  C   -0.071119
     5  N   -0.324624
     6  C    0.230144
     7  C    0.345369
     8  C   -0.218520
     9  C   -0.270316
    10  C   -0.235582
    11  C    0.097247
    12  S    0.038922
    13  C   -0.198049
    14  C   -0.147235
    15  N   -0.391650
    16  H    0.145535
    17  H    0.136702
    18  H    0.138536
    19  H    0.134398
    20  H    0.096921
    21  H    0.149142
    22  H    0.184831
    23  H    0.117124
    24  H    0.162591
    25  H    0.134982
 Sum of Mulliken charges =  -0.00000
 Mulliken charges with hydrogens summed into heavy atoms:
               1
     1  C    0.171250
     2  O   -0.289376
     3  C    0.283552
     4  C    0.063279
     5  N   -0.324624
     6  C    0.230144
     7  C    0.345369
     8  C   -0.121600
     9  C   -0.121175
    10  C   -0.050751
    11  C    0.097247
    12  S    0.156046
    13  C   -0.035458
    14  C   -0.012253
    15  N   -0.391650
 Electronic spatial extent (au):  <R**2>=           3935.7547
 Charge=              0.0000 electrons
 Dipole moment (field-independent basis, Debye):
    X=             -2.2121    Y=             -6.1832    Z=             -0.4998  Tot=              6.5860
 Quadrupole moment (field-independent basis, Debye-Ang):
   XX=            -74.2481   YY=           -100.1952   ZZ=            -94.4470
   XY=             -0.4271   XZ=             -0.1110   YZ=             -5.0792
 Traceless Quadrupole moment (field-independent basis, Debye-Ang):
   XX=             15.3820   YY=            -10.5651   ZZ=             -4.8169
   XY=             -0.4271   XZ=             -0.1110   YZ=             -5.0792
 Octapole moment (field-independent basis, Debye-Ang**2):
  XXX=            -58.6621  YYY=            -49.1669  ZZZ=             -0.5887  XYY=             18.4905
  XXY=            -47.1862  XXZ=              2.9704  XZZ=              0.5507  YZZ=             -9.0657
  YYZ=              2.9039  XYZ=             -2.3495
 Hexadecapole moment (field-independent basis, Debye-Ang**3):
 XXXX=          -3536.3204 YYYY=          -1042.0959 ZZZZ=           -405.2478 XXXY=             19.7256
 XXXZ=            -38.4590 YYYX=            -71.3069 YYYZ=            -16.7267 ZZZX=             11.1758
 ZZZY=            -20.3632 XXYY=           -711.1968 XXZZ=           -681.0788 YYZZ=           -229.6295
 XXYZ=            -31.6765 YYXZ=             24.6427 ZZXY=              2.7208
 N-N= 1.024066209707D+03 E-N=-4.410308083008D+03  KE= 1.001247623306D+03
 PrsmSu:  requested number of processors reduced to:  13 ShMem   1 Linda.
 Calling FoFJK, ICntrl=      2127 FMM=F ISym2X=0 I1Cent= 0 IOpClX= 0 NMat=1 NMatS=1 NMatT=0.
 ***** Axes restored to original set *****
 -------------------------------------------------------------------
 Center     Atomic                   Forces (Hartrees/Bohr)
 Number     Number              X              Y              Z
 -------------------------------------------------------------------
      1        6           0.005147898    0.002054650   -0.001731306
      2        8           0.005031166    0.016171732   -0.003601839
      3        6           0.022754989    0.006742408    0.001784461
      4        6           0.006060033    0.010481594    0.016787748
      5        7          -0.007067144   -0.036909458    0.008527000
      6        6          -0.009055400    0.001940358    0.013811644
      7        6           0.033522510    0.026911592    0.038874692
      8        6          -0.027981363   -0.005764901    0.003974500
      9        6          -0.039381955    0.015747186   -0.037370547
     10        6           0.024866359    0.015574215    0.003145003
     11        6          -0.056731821   -0.061620682    0.051962947
     12       16           0.056909949    0.104485797   -0.025044948
     13        6          -0.035527458   -0.031951504    0.017823819
     14        6           0.058412307   -0.017703076   -0.034649255
     15        7          -0.006590484   -0.033554687    0.007386635
     16        1           0.016097140   -0.000678941   -0.002497125
     17        1           0.002391530    0.003064074   -0.000404439
     18        1           0.004859881   -0.001050238   -0.001764891
     19        1           0.008315626    0.044197140    0.010091755
     20        1          -0.025830222    0.001165030   -0.001940632
     21        1          -0.018672627   -0.010199545   -0.002253868
     22        1          -0.024976582   -0.008939569   -0.027932889
     23        1          -0.031810948    0.017901181   -0.013343937
     24        1           0.005604826   -0.019401260   -0.023152294
     25        1           0.033651790   -0.038663094    0.001517765
 -------------------------------------------------------------------
 Cartesian Forces:  Max     0.104485797 RMS     0.027013162

 GradGradGradGradGradGradGradGradGradGradGradGradGradGradGradGradGradGrad
 Berny optimization.
 FormGI is forming the generalized inverse of G from B-inverse, IUseBI=4.
 Internal  Forces:  Max     0.106281564 RMS     0.028734062
 Search for a local minimum.
 Step number   1 out of a maximum of  125
 All quantities printed in internal units (Hartrees-Bohrs-Radians)
 Mixed Optimization -- RFO/linear search
 Second derivative matrix not updated -- first step.
 ITU=  0
     Eigenvalues ---    0.00792   0.00824   0.00825   0.01021   0.01235
     Eigenvalues ---    0.01529   0.01683   0.01689   0.01933   0.02107
     Eigenvalues ---    0.02203   0.02557   0.02662   0.03129   0.03507
     Eigenvalues ---    0.03916   0.04141   0.05058   0.06235   0.08228
     Eigenvalues ---    0.09557   0.09832   0.10681   0.10977   0.13113
     Eigenvalues ---    0.13502   0.14210   0.14974   0.15986   0.15999
     Eigenvalues ---    0.16000   0.16000   0.16000   0.17678   0.18838
     Eigenvalues ---    0.19189   0.20272   0.21273   0.22665   0.23223
     Eigenvalues ---    0.23429   0.23905   0.24488   0.24583   0.24899
     Eigenvalues ---    0.25000   0.27582   0.28123   0.28130   0.28683
     Eigenvalues ---    0.30915   0.31794   0.32558   0.33611   0.34010
     Eigenvalues ---    0.34065   0.36285   0.36910   0.38860   0.39338
     Eigenvalues ---    0.40140   0.41085   0.45146   0.45192   0.45509
     Eigenvalues ---    0.57349   0.58773   0.61683   0.62689
 RFO step:  Lambda=-2.05066499D-01 EMin= 7.91504934D-03
 Linear search not attempted -- first point.
 Maximum step size (   0.300) exceeded in Quadratic search.
    -- Step size scaled by   0.502
 Iteration  1 RMS(Cart)=  0.11670621 RMS(Int)=  0.00291313
 Iteration  2 RMS(Cart)=  0.00545720 RMS(Int)=  0.00053726
 Iteration  3 RMS(Cart)=  0.00000931 RMS(Int)=  0.00053723
 Iteration  4 RMS(Cart)=  0.00000000 RMS(Int)=  0.00053723
 Variable       Old X    -DE/DX   Delta X   Delta X   Delta X     New X
                                 (Linear)    (Quad)   (Total)
    R1        2.76938  -0.02902   0.00000  -0.02567  -0.02567   2.74371
    R2        2.07991  -0.00577   0.00000  -0.00535  -0.00535   2.07456
    R3        2.07314  -0.00099   0.00000  -0.00091  -0.00091   2.07223
    R4        2.07220  -0.00358   0.00000  -0.00330  -0.00330   2.06890
    R5        2.64689  -0.03237   0.00000  -0.02464  -0.02464   2.62225
    R6        2.91746  -0.01427   0.00000  -0.01763  -0.01812   2.89934
    R7        2.50260   0.03434   0.00000   0.02428   0.02435   2.52695
    R8        2.63765  -0.08809   0.00000  -0.07216  -0.07263   2.56503
    R9        2.18556  -0.03685   0.00000  -0.03807  -0.03807   2.14749
   R10        3.00693  -0.03929   0.00000  -0.04948  -0.04948   2.95745
   R11        2.71206   0.00206   0.00000   0.00913   0.00892   2.72098
   R12        2.71319  -0.10628   0.00000  -0.09065  -0.09089   2.62230
   R13        2.67090   0.01416   0.00000   0.01480   0.01528   2.68618
   R14        2.48713   0.07305   0.00000   0.04785   0.04758   2.53472
   R15        1.99832   0.02096   0.00000   0.01774   0.01774   2.01606
   R16        2.70664   0.01386   0.00000   0.01363   0.01329   2.71993
   R17        2.09834  -0.01714   0.00000  -0.01623  -0.01623   2.08211
   R18        2.51824   0.01415   0.00000   0.01243   0.01249   2.53074
   R19        2.11222  -0.02511   0.00000  -0.02412  -0.02412   2.08809
   R20        2.92056   0.08679   0.00000   0.05392   0.05428   2.97484
   R21        3.49149   0.02701   0.00000   0.02579   0.02598   3.51747
   R22        2.49371   0.03858   0.00000   0.03987   0.03987   2.53358
   R23        2.64184   0.05002   0.00000   0.03412   0.03464   2.67647
   R24        2.12874  -0.02784   0.00000  -0.02721  -0.02721   2.10153
   R25        3.16692  -0.08564   0.00000  -0.11372  -0.11351   3.05340
   R26        2.17369  -0.02501   0.00000  -0.02555  -0.02555   2.14814
    A1        1.95948  -0.02118   0.00000  -0.02952  -0.02957   1.92991
    A2        1.91821   0.00130   0.00000   0.00201   0.00198   1.92019
    A3        1.98052  -0.00078   0.00000  -0.00092  -0.00096   1.97956
    A4        1.87156   0.00877   0.00000   0.01176   0.01172   1.88327
    A5        1.82722   0.01049   0.00000   0.01407   0.01401   1.84123
    A6        1.90168   0.00265   0.00000   0.00431   0.00429   1.90598
    A7        2.00613   0.01226   0.00000   0.01354   0.01354   2.01967
    A8        2.26210  -0.05470   0.00000  -0.06357  -0.06348   2.19862
    A9        2.17707   0.02118   0.00000   0.01931   0.01927   2.19634
   A10        1.84115   0.03291   0.00000   0.04363   0.04355   1.88470
   A11        2.15749   0.00823   0.00000   0.00738   0.00697   2.16445
   A12        1.88742   0.02589   0.00000   0.03757   0.03777   1.92519
   A13        2.23822  -0.03404   0.00000  -0.04488  -0.04469   2.19354
   A14        2.09450  -0.01010   0.00000  -0.01981  -0.02017   2.07433
   A15        1.62111   0.04985   0.00000   0.06781   0.06855   1.68966
   A16        2.49546  -0.06302   0.00000  -0.07628  -0.07590   2.41957
   A17        2.15988   0.01348   0.00000   0.00951   0.00837   2.16825
   A18        2.03310  -0.03046   0.00000  -0.03123  -0.03104   2.00206
   A19        1.88018   0.03241   0.00000   0.03752   0.03673   1.91692
   A20        2.29787   0.00180   0.00000   0.00184   0.00204   2.29990
   A21        2.07929  -0.04008   0.00000  -0.03573  -0.03463   2.04467
   A22        2.13539   0.02208   0.00000   0.02111   0.02050   2.15589
   A23        2.06786   0.01772   0.00000   0.01413   0.01352   2.08138
   A24        1.83250   0.01473   0.00000   0.03489   0.03349   1.86599
   A25        2.02830  -0.00931   0.00000  -0.01691  -0.01630   2.01201
   A26        2.10000  -0.01548   0.00000  -0.02700  -0.02663   2.07338
   A27        1.91764  -0.00768   0.00000  -0.00204  -0.00122   1.91643
   A28        1.96722   0.00991   0.00000   0.01672   0.01630   1.98352
   A29        1.99372  -0.00271   0.00000  -0.00177  -0.00215   1.99157
   A30        2.65090  -0.01727   0.00000  -0.01031  -0.00875   2.64214
   A31        1.39480  -0.04766   0.00000  -0.06583  -0.06474   1.33006
   A32        1.74608   0.00396   0.00000  -0.00293  -0.00312   1.74296
   A33        2.09206   0.01421   0.00000   0.01783   0.01771   2.10977
   A34        1.90877   0.03862   0.00000   0.04217   0.04194   1.95070
   A35        1.99126  -0.02929   0.00000  -0.03356  -0.03314   1.95812
   A36        2.23400  -0.01148   0.00000  -0.01209  -0.01230   2.22170
   A37        2.47977   0.02130   0.00000   0.01845   0.01920   2.49898
   A38        1.61458   0.03744   0.00000   0.06301   0.06258   1.67716
   A39        1.99395  -0.04538   0.00000  -0.05989  -0.06088   1.93307
   A40        2.41236  -0.01612   0.00000  -0.02688  -0.02683   2.38553
    D1       -2.84620  -0.00257   0.00000  -0.00612  -0.00614  -2.85234
    D2        1.35552  -0.00083   0.00000  -0.00324  -0.00327   1.35225
    D3       -0.77856  -0.00469   0.00000  -0.00968  -0.00964  -0.78820
    D4       -2.90117  -0.00543   0.00000  -0.00681  -0.00683  -2.90800
    D5        0.33377   0.00286   0.00000   0.00098   0.00101   0.33478
    D6       -2.70723   0.00748   0.00000   0.00673   0.00607  -2.70116
    D7        0.44453   0.00073   0.00000   0.00027  -0.00011   0.44443
    D8        0.35480   0.00086   0.00000   0.00020  -0.00056   0.35423
    D9       -2.77663  -0.00589   0.00000  -0.00627  -0.00674  -2.78336
   D10       -2.94377  -0.00080   0.00000  -0.00917  -0.00994  -2.95371
   D11        0.23691   0.00740   0.00000   0.00522   0.00498   0.24189
   D12        0.27241   0.00988   0.00000   0.00188   0.00153   0.27394
   D13       -2.83010   0.01808   0.00000   0.01627   0.01645  -2.81364
   D14       -0.19549  -0.00628   0.00000   0.00179   0.00178  -0.19370
   D15        2.93381   0.00232   0.00000   0.01020   0.00947   2.94328
   D16       -0.51675  -0.00288   0.00000  -0.00485  -0.00456  -0.52131
   D17        2.76124  -0.01219   0.00000  -0.02245  -0.02107   2.74017
   D18        1.21483  -0.01056   0.00000  -0.02335  -0.02309   1.19173
   D19       -2.27801  -0.00051   0.00000  -0.00307  -0.00343  -2.28144
   D20       -2.02539  -0.01301   0.00000  -0.02130  -0.02022  -2.04561
   D21        0.76496  -0.00296   0.00000  -0.00101  -0.00056   0.76440
   D22       -2.90106  -0.01666   0.00000  -0.01644  -0.01712  -2.91818
   D23        0.40461  -0.02681   0.00000  -0.03719  -0.03705   0.36755
   D24       -1.25846   0.04259   0.00000   0.07036   0.07022  -1.18825
   D25        1.84556   0.03488   0.00000   0.05675   0.05618   1.90174
   D26        2.33723   0.02492   0.00000   0.03829   0.03926   2.37649
   D27       -0.84193   0.01721   0.00000   0.02468   0.02522  -0.81671
   D28       -1.85617   0.01559   0.00000   0.01797   0.01860  -1.83757
   D29        0.51043  -0.00029   0.00000  -0.00135  -0.00126   0.50917
   D30        0.86058   0.02042   0.00000   0.03522   0.03569   0.89627
   D31       -3.05601   0.00453   0.00000   0.01591   0.01583  -3.04018
   D32        2.49755  -0.02667   0.00000  -0.03875  -0.03913   2.45841
   D33        0.25236  -0.02460   0.00000  -0.04801  -0.04838   0.20398
   D34        0.17023  -0.01423   0.00000  -0.02576  -0.02556   0.14467
   D35       -2.07495  -0.01215   0.00000  -0.03503  -0.03481  -2.10976
   D36       -1.15853   0.01844   0.00000   0.02670   0.02706  -1.13147
   D37        1.07204   0.02322   0.00000   0.04630   0.04652   1.11856
   D38       -0.77385   0.01229   0.00000   0.01437   0.01581  -0.75804
   D39       -2.84778   0.00317   0.00000   0.00272   0.00256  -2.84522
   D40        1.59926   0.02599   0.00000   0.05085   0.05243   1.65169
   D41       -2.05392   0.01962   0.00000   0.04235   0.04340  -2.01052
   D42       -3.01082   0.00224   0.00000   0.00852   0.00888  -3.00194
   D43       -0.38082  -0.00413   0.00000   0.00002  -0.00015  -0.38097
   D44       -1.08743  -0.02039   0.00000  -0.03623  -0.03633  -1.12376
   D45        1.29451  -0.01659   0.00000  -0.01893  -0.01832   1.27618
   D46        2.65719  -0.00973   0.00000  -0.02198  -0.02193   2.63526
   D47       -1.24406  -0.00593   0.00000  -0.00468  -0.00392  -1.24798
   D48       -0.53615  -0.00824   0.00000  -0.00564  -0.00618  -0.54233
   D49       -2.82275  -0.03823   0.00000  -0.06078  -0.05980  -2.88255
         Item               Value     Threshold  Converged?
 Maximum Force            0.106282     0.000450     NO 
 RMS     Force            0.028734     0.000300     NO 
 Maximum Displacement     0.371095     0.001800     NO 
 RMS     Displacement     0.116327     0.001200     NO 
 Predicted change in Energy=-8.990934D-02
 GradGradGradGradGradGradGradGradGradGradGradGradGradGradGradGradGradGrad

                          Input orientation:                          
 ---------------------------------------------------------------------
 Center     Atomic      Atomic             Coordinates (Angstroms)
 Number     Number       Type             X           Y           Z
 ---------------------------------------------------------------------
      1          6           0        1.259242   -0.111103   -0.090258
      2          8           0        2.695268    0.076692   -0.193243
      3          6           0        3.109062    1.324507   -0.637388
      4          6           0        4.523282    1.690867   -1.106147
      5          7           0        5.034843    2.947487   -1.065894
      6          6           0        4.073456    4.144871   -0.763773
      7          6           0        2.888681    3.561586   -1.337659
      8          6           0        2.374491    2.441845   -0.628886
      9          6           0        2.304316    4.440086   -2.165836
     10          6           0        1.139579    4.944475   -1.487136
     11          6           0        1.004534    6.254485   -1.730266
     12         16           0        1.510024    7.740827   -1.614365
     13          6           0        1.784831    7.044465    0.089819
     14          6           0        3.105529    6.559343    0.252287
     15          7           0        4.146508    5.440900   -0.273291
     16          1           0        1.028166   -0.986733    0.530273
     17          1           0        0.830487   -0.280421   -1.085236
     18          1           0        0.743538    0.729110    0.385889
     19          1           0        5.063686    0.767163   -1.488436
     20          1           0        1.462344    2.543176   -0.084925
     21          1           0        2.987459    5.155695   -2.650809
     22          1           0        1.100932    4.677977   -0.415481
     23          1           0        0.378200    8.392615   -1.917115
     24          1           0        1.151874    7.544842    0.855144
     25          1           0        3.603348    7.579925    0.305001
 ---------------------------------------------------------------------
                    Distance matrix (angstroms):
                    1          2          3          4          5
     1  C    0.000000
     2  O    1.451910   0.000000
     3  C    2.404612   1.387636   0.000000
     4  C    3.864335   2.603957   1.534267   0.000000
     5  N    4.956007   3.804812   2.554665   1.357354   0.000000
     6  C    5.146526   4.333011   2.983367   2.518273   1.565014
     7  C    4.207104   3.673089   2.354457   2.495017   2.248774
     8  C    2.837507   2.426239   1.337203   2.325737   2.743013
     9  C    5.110139   4.804495   3.562387   3.688490   3.300531
    10  C    5.246375   5.271588   4.207743   4.709625   4.397555
    11  C    6.578390   6.586817   5.470659   5.796355   5.255570
    12  S    8.002412   7.884374   6.684352   6.777908   5.975055
    13  C    7.177105   7.032701   5.916108   6.131107   5.355696
    14  C    6.929716   6.510881   5.309900   5.249517   4.301785
    15  N    6.260554   5.557628   4.260698   3.859839   2.763053
    16  H    1.097808   2.105606   3.321956   4.697153   5.837748
    17  H    1.096577   2.097758   2.822812   4.186066   5.300601
    18  H    1.094817   2.137824   2.645241   4.175837   5.044222
    19  H    4.147294   2.786338   2.203513   1.136401   2.221078
    20  H    2.662044   2.759598   2.121804   3.337465   3.726730
    21  H    6.105925   5.649892   4.329740   4.092648   3.402928
    22  H    4.802720   4.874743   3.915046   4.594816   4.346641
    23  H    8.742246   8.803131   7.684625   7.921667   7.215145
    24  H    7.714843   7.697690   6.689603   7.034350   6.316921
    25  H    8.050029   7.574388   6.345287   6.125245   5.038651
                    6          7          8          9         10
     6  C    0.000000
     7  C    1.439881   0.000000
     8  C    2.409350   1.421467   0.000000
     9  C    2.276574   1.341314   2.521925   0.000000
    10  C    3.125741   2.234745   2.919718   1.439324   0.000000
    11  C    3.847449   3.309964   4.198338   2.274027   1.339208
    12  S    4.497287   4.409458   5.458725   3.439464   2.823651
    13  C    3.791316   3.922580   4.695567   3.484342   2.704274
    14  C    2.792658   3.400221   4.273718   3.313686   3.081940
    15  N    1.387660   2.499366   3.501545   2.824363   3.280469
    16  H    6.105874   5.257175   3.861527   6.192570   6.265906
    17  H    5.495761   4.365878   3.162742   5.061922   5.249438
    18  H    4.906883   3.949073   2.573566   4.766411   4.629727
    19  H    3.593689   3.544316   3.282553   4.643636   5.731365
    20  H    3.137541   2.154284   1.066853   2.938941   2.799394
    21  H    2.400429   2.067681   3.439314   1.101807   2.193948
    22  H    3.039968   2.300606   2.582204   2.137398   1.104971
    23  H    5.747038   5.475137   6.407525   4.403892   3.557281
    24  H    4.766165   4.867362   5.453229   4.482627   3.499762
    25  H    3.628068   4.399560   5.364894   4.201322   4.028339
                   11         12         13         14         15
    11  C    0.000000
    12  S    1.574219   0.000000
    13  C    2.132051   1.861366   0.000000
    14  C    2.904761   2.725056   1.416328   0.000000
    15  N    3.557625   3.746891   2.877636   1.615792   0.000000
    16  H    7.585897   9.000109   8.078780   7.831729   7.189175
    17  H    6.568969   8.067352   7.479672   7.331245   6.662489
    18  H    5.922500   7.331623   6.407469   6.291937   5.849418
    19  H    6.829780   7.827921   7.255777   6.357188   4.915445
    20  H    4.085408   5.418213   4.516208   4.352398   3.954367
    21  H    2.446779   3.152766   3.539041   3.226784   2.660324
    22  H    2.055075   3.314473   2.514620   2.829110   3.142897
    23  H    2.235801   1.340713   2.797124   3.937705   5.061119
    24  H    2.893281   2.503029   1.112084   2.269672   3.829852
    25  H    3.557097   2.844620   1.907885   1.136745   2.281419
                   16         17         18         19         20
    16  H    0.000000
    17  H    1.774210   0.000000
    18  H    1.745273   1.786315   0.000000
    19  H    4.841152   4.379495   4.709376   0.000000
    20  H    3.609326   3.061465   2.007283   4.253672   0.000000
    21  H    7.189404   6.054329   5.818193   4.992098   3.966736
    22  H    5.743577   5.010731   4.045179   5.670019   2.190265
    23  H    9.715160   8.724571   8.010406   8.960193   6.224807
    24  H    8.538654   8.068649   6.844059   8.168938   5.098703
    25  H    8.948181   8.450240   7.424198   7.194631   5.486782
                   21         22         23         24         25
    21  H    0.000000
    22  H    2.963763   0.000000
    23  H    4.221870   4.071337   0.000000
    24  H    4.622672   3.136239   3.000452   0.000000
    25  H    3.872082   3.899036   3.999981   2.512690   0.000000
 Stoichiometry    C11H10N2OS
 Framework group  C1[X(C11H10N2OS)]
 Deg. of freedom    69
 Full point group                 C1      NOp   1
 Largest Abelian subgroup         C1      NOp   1
 Largest concise Abelian subgroup C1      NOp   1
                         Standard orientation:                         
 ---------------------------------------------------------------------
 Center     Atomic      Atomic             Coordinates (Angstroms)
 Number     Number       Type             X           Y           Z
 ---------------------------------------------------------------------
      1          6           0        4.046060   -1.971517    0.502358
      2          8           0        4.083933   -0.529714    0.335586
      3          6           0        2.884112    0.066384   -0.025843
      4          6           0        2.709724    1.501186   -0.540534
      5          7           0        1.561088    2.215067   -0.424695
      6          6           0        0.256739    1.478620    0.028722
      7          6           0        0.586500    0.190926   -0.524777
      8          6           0        1.668327   -0.471955    0.116166
      9          6           0       -0.446436   -0.273511   -1.243431
     10          6           0       -1.068359   -1.309581   -0.461493
     11          6           0       -2.399601   -1.235664   -0.587224
     12         16           0       -3.768081   -0.486587   -0.376721
     13          6           0       -2.884420   -0.260835    1.245889
     14          6           0       -2.179751    0.966816    1.293836
     15          7           0       -0.960452    1.785541    0.620200
     16          1           0        4.925673   -2.318644    1.060002
     17          1           0        4.052748   -2.463092   -0.477841
     18          1           0        3.180462   -2.320810    1.074510
     19          1           0        3.669891    1.864859   -1.027597
     20          1           0        1.470999   -1.331474    0.716553
     21          1           0       -1.083503    0.498132   -1.704615
     22          1           0       -0.715243   -1.347577    0.584846
     23          1           0       -4.618804   -1.506317   -0.560930
     24          1           0       -3.408689   -0.770020    2.084104
     25          1           0       -3.097519    1.628570    1.403257
 ---------------------------------------------------------------------
 Rotational constants (GHZ):           1.2270364           0.3069846           0.2725738
 Standard basis: 6-31G(2df,p) (6D, 7F)
 There are   519 symmetry adapted cartesian basis functions of A   symmetry.
 There are   474 symmetry adapted basis functions of A   symmetry.
   474 basis functions,   754 primitive gaussians,   519 cartesian basis functions
    57 alpha electrons       57 beta electrons
       nuclear repulsion energy      1023.4111371676 Hartrees.
 NAtoms=   25 NActive=   25 NUniq=   25 SFac= 1.00D+00 NAtFMM=   60 NAOKFM=F Big=F
 Integral buffers will be    131072 words long.
 Raffenetti 2 integral format.
 Two-electron integral symmetry is turned on.
 One-electron integrals computed using PRISM.
 PrsmSu:  requested number of processors reduced to:  12 ShMem   1 Linda.
 NBasis=   474 RedAO= T EigKep=  2.28D-04  NBF=   474
 NBsUse=   474 1.00D-06 EigRej= -1.00D+00 NBFU=   474
 Initial guess from the checkpoint file:  "COc1cnc2cqc1rdCCdCd[SH]CdCNd2.chk"
 B after Tr=    -0.000000   -0.000000    0.000000
         Rot=    0.999822    0.017779   -0.006184    0.000989 Ang=   2.16 deg.
 ExpMin= 1.17D-01 ExpMax= 2.19D+04 ExpMxC= 3.30D+03 IAcc=2 IRadAn=         4 AccDes= 0.00D+00
 Harris functional with IExCor=  402 and IRadAn=       4 diagonalized for initial guess.
 HarFok:  IExCor=  402 AccDes= 0.00D+00 IRadAn=         4 IDoV= 1 UseB2=F ITyADJ=14
 ICtDFT=  3500011 ScaDFX=  1.000000  1.000000  1.000000  1.000000
 FoFCou: FMM=F IPFlag=           0 FMFlag=      100000 FMFlg1=           0
         NFxFlg=           0 DoJE=T BraDBF=F KetDBF=T FulRan=T
         wScrn=  0.000000 ICntrl=       500 IOpCl=  0 I1Cent=   200000004 NGrid=           0
         NMat0=    1 NMatS0=      1 NMatT0=    0 NMatD0=    1 NMtDS0=    0 NMtDT0=    0
 Petite list used in FoFCou.
 Requested convergence on RMS density matrix=1.00D-08 within 128 cycles.
 Requested convergence on MAX density matrix=1.00D-06.
 Requested convergence on             energy=1.00D-06.
 No special actions if energy rises.
 Integral accuracy reduced to 1.0D-05 until final iterations.
 Initial convergence to 1.0D-05 achieved.  Increase integral accuracy.
 SCF Done:  E(RB3LYP) =  -1007.52366555     A.U. after   16 cycles
            NFock= 16  Conv=0.80D-08     -V/T= 2.0063
 PrsmSu:  requested number of processors reduced to:  13 ShMem   1 Linda.
 Calling FoFJK, ICntrl=      2127 FMM=F ISym2X=0 I1Cent= 0 IOpClX= 0 NMat=1 NMatS=1 NMatT=0.
 ***** Axes restored to original set *****
 -------------------------------------------------------------------
 Center     Atomic                   Forces (Hartrees/Bohr)
 Number     Number              X              Y              Z
 -------------------------------------------------------------------
      1        6           0.004088720    0.000869039   -0.000665782
      2        8           0.005614086    0.013910495   -0.002866621
      3        6           0.019145805    0.011773604    0.002929118
      4        6           0.001293406    0.006163880    0.014054964
      5        7          -0.010071224   -0.016949520    0.012951206
      6        6          -0.001490609   -0.004245552    0.001869341
      7        6           0.016558353    0.032722266    0.025248584
      8        6          -0.020109992   -0.010231829    0.001084052
      9        6          -0.029875766    0.000829129   -0.011076878
     10        6           0.033171759    0.010630366   -0.007642975
     11        6          -0.048464137   -0.035119833    0.063923608
     12       16           0.048994825    0.081944462   -0.030043811
     13        6          -0.025120712   -0.037319449    0.010086043
     14        6           0.057074012   -0.018338203   -0.036285933
     15        7          -0.018054563   -0.018810468    0.010095704
     16        1           0.011908693    0.000268747   -0.002306285
     17        1           0.001230630    0.002812026   -0.000451010
     18        1           0.003681575    0.000464394   -0.001150801
     19        1           0.005520271    0.033053380    0.008573499
     20        1          -0.020094223   -0.001891523   -0.006070888
     21        1          -0.014879228   -0.007491734   -0.004948037
     22        1          -0.023538570   -0.012391420   -0.022715123
     23        1          -0.021961988    0.013694132   -0.010693435
     24        1           0.003380088   -0.012919850   -0.017963889
     25        1           0.021998788   -0.033426540    0.004065349
 -------------------------------------------------------------------
 Cartesian Forces:  Max     0.081944462 RMS     0.022541251

 GradGradGradGradGradGradGradGradGradGradGradGradGradGradGradGradGradGrad
 Berny optimization.
 Using GEDIIS/GDIIS optimizer.
 FormGI is forming the generalized inverse of G from B-inverse, IUseBI=4.
 Internal  Forces:  Max     0.086414970 RMS     0.023122056
 Search for a local minimum.
 Step number   2 out of a maximum of  125
 All quantities printed in internal units (Hartrees-Bohrs-Radians)
 Mixed Optimization -- RFO/linear search
 Update second derivatives using D2CorX and points    1    2
 DE= -9.39D-02 DEPred=-8.99D-02 R= 1.04D+00
 TightC=F SS=  1.41D+00  RLast= 3.53D-01 DXNew= 5.0454D-01 1.0593D+00
 Trust test= 1.04D+00 RLast= 3.53D-01 DXMaxT set to 5.05D-01
 ITU=  1  0
 Use linear search instead of GDIIS.
 Linear search step of   0.599 exceeds DXMaxT=   0.505 but not scaled.
 Quartic linear search produced a step of  2.00000.
 Iteration  1 RMS(Cart)=  0.21989421 RMS(Int)=  0.01140078
 Iteration  2 RMS(Cart)=  0.02110641 RMS(Int)=  0.00310654
 Iteration  3 RMS(Cart)=  0.00014467 RMS(Int)=  0.00310565
 Iteration  4 RMS(Cart)=  0.00000057 RMS(Int)=  0.00310565
 Variable       Old X    -DE/DX   Delta X   Delta X   Delta X     New X
                                 (Linear)    (Quad)   (Total)
    R1        2.74371  -0.02158  -0.05134   0.00000  -0.05134   2.69237
    R2        2.07456  -0.00402  -0.01071   0.00000  -0.01071   2.06385
    R3        2.07223  -0.00051  -0.00182   0.00000  -0.00182   2.07041
    R4        2.06890  -0.00188  -0.00659   0.00000  -0.00659   2.06231
    R5        2.62225  -0.02677  -0.04927   0.00000  -0.04927   2.57298
    R6        2.89934  -0.01490  -0.03623   0.00000  -0.03884   2.86051
    R7        2.52695   0.02119   0.04870   0.00000   0.04872   2.57566
    R8        2.56503  -0.06674  -0.14525   0.00000  -0.14776   2.41726
    R9        2.14749  -0.02713  -0.07615   0.00000  -0.07615   2.07134
   R10        2.95745  -0.04218  -0.09895   0.00000  -0.09879   2.85866
   R11        2.72098   0.00093   0.01785   0.00000   0.01656   2.73754
   R12        2.62230  -0.08641  -0.18179   0.00000  -0.18285   2.43945
   R13        2.68618   0.01002   0.03056   0.00000   0.03292   2.71910
   R14        2.53472   0.03746   0.09517   0.00000   0.09298   2.62769
   R15        2.01606   0.01391   0.03548   0.00000   0.03548   2.05154
   R16        2.71993   0.00304   0.02658   0.00000   0.02422   2.74415
   R17        2.08211  -0.01191  -0.03245   0.00000  -0.03245   2.04966
   R18        2.53074   0.01560   0.02499   0.00000   0.02498   2.55572
   R19        2.08809  -0.01822  -0.04825   0.00000  -0.04825   2.03984
   R20        2.97484   0.06323   0.10856   0.00000   0.11042   3.08526
   R21        3.51747   0.02155   0.05196   0.00000   0.05319   3.57066
   R22        2.53358   0.02761   0.07974   0.00000   0.07974   2.61332
   R23        2.67647   0.03199   0.06927   0.00000   0.07270   2.74917
   R24        2.10153  -0.02010  -0.05442   0.00000  -0.05442   2.04712
   R25        3.05340  -0.08491  -0.22703   0.00000  -0.22511   2.82829
   R26        2.14814  -0.02019  -0.05110   0.00000  -0.05110   2.09704
    A1        1.92991  -0.01561  -0.05914   0.00000  -0.05948   1.87043
    A2        1.92019   0.00119   0.00395   0.00000   0.00377   1.92396
    A3        1.97956  -0.00151  -0.00192   0.00000  -0.00216   1.97740
    A4        1.88327   0.00645   0.02343   0.00000   0.02316   1.90644
    A5        1.84123   0.00834   0.02801   0.00000   0.02763   1.86886
    A6        1.90598   0.00186   0.00859   0.00000   0.00849   1.91446
    A7        2.01967   0.00801   0.02707   0.00000   0.02707   2.04675
    A8        2.19862  -0.04341  -0.12697   0.00000  -0.12623   2.07239
    A9        2.19634   0.01591   0.03854   0.00000   0.03838   2.23472
[...]
 Trust test= 9.53D-01 RLast= 2.64D-01 DXMaxT set to 2.42D+00
 ITU=  1  1  1  1  1  1  0  1  1  1  1  1  1  1  1  1  1  1  1 -1
 ITU=  0  0  1  1  1  1  0  1  0
     Eigenvalues ---    0.00161   0.00828   0.00881   0.01002   0.01287
     Eigenvalues ---    0.01607   0.01688   0.01774   0.01820   0.02033
     Eigenvalues ---    0.02163   0.02340   0.02500   0.02712   0.02861
     Eigenvalues ---    0.03198   0.03805   0.04494   0.05569   0.08147
     Eigenvalues ---    0.09801   0.10385   0.10774   0.11468   0.14136
     Eigenvalues ---    0.15126   0.15597   0.15971   0.15980   0.16007
     Eigenvalues ---    0.16055   0.16085   0.16765   0.16808   0.19772
     Eigenvalues ---    0.22330   0.23294   0.23806   0.24104   0.24700
     Eigenvalues ---    0.25069   0.25342   0.25588   0.27458   0.28317
     Eigenvalues ---    0.28524   0.28680   0.29799   0.31678   0.32329
     Eigenvalues ---    0.32571   0.33612   0.34012   0.34066   0.36381
     Eigenvalues ---    0.36693   0.38599   0.38880   0.41629   0.43868
     Eigenvalues ---    0.44640   0.45379   0.46461   0.52707   0.53561
     Eigenvalues ---    0.60076   0.60785   0.65255   2.74865
 En-DIIS/RFO-DIIS/Sim-DIIS IScMMF=       -3 using points:    29   28
 RFO step:  Lambda=-5.88537911D-04.
 DidBck=F Rises=F RFO-DIIS coefs:    1.54205   -0.54205
 Iteration  1 RMS(Cart)=  0.02003521 RMS(Int)=  0.00060201
 Iteration  2 RMS(Cart)=  0.00079626 RMS(Int)=  0.00015804
 Iteration  3 RMS(Cart)=  0.00000136 RMS(Int)=  0.00015803
 Iteration  4 RMS(Cart)=  0.00000000 RMS(Int)=  0.00015803
 Variable       Old X    -DE/DX   Delta X   Delta X   Delta X     New X
                                 (Linear)    (Quad)   (Total)
    R1        2.67682  -0.00008   0.00008  -0.00021  -0.00013   2.67669
    R2        2.06119   0.00003  -0.00007  -0.00004  -0.00011   2.06108
    R3        2.07368   0.00012  -0.00005   0.00021   0.00016   2.07384
    R4        2.07440  -0.00008  -0.00008  -0.00016  -0.00024   2.07417
    R5        2.55949   0.00057  -0.00042   0.00053   0.00011   2.55960
    R6        2.66072  -0.00032   0.00086  -0.00202  -0.00114   2.65957
    R7        2.62644   0.00043  -0.00033   0.00039   0.00011   2.62655
    R8        2.48828   0.00107  -0.00103   0.00073  -0.00033   2.48795
    R9        2.05725  -0.00038   0.00008  -0.00077  -0.00069   2.05656
   R10        2.54824   0.00259  -0.00034   0.00338   0.00299   2.55124
   R11        2.68880  -0.00016   0.00039  -0.00199  -0.00159   2.68721
   R12        2.62382  -0.00030  -0.00213  -0.00363  -0.00574   2.61809
   R13        2.63410  -0.00005   0.00116  -0.00009   0.00110   2.63520
   R14        2.75661   0.00197  -0.00148   0.00202   0.00056   2.75717
   R15        2.04631   0.00012   0.00020   0.00016   0.00037   2.04667
   R16        2.53989  -0.00343   0.00366  -0.00240   0.00135   2.54124
   R17        2.05807  -0.00020   0.00024  -0.00049  -0.00026   2.05781
   R18        2.76803   0.00005  -0.00319  -0.00247  -0.00567   2.76235
   R19        2.05533   0.00027  -0.00019   0.00039   0.00021   2.05554
   R20        3.31682   0.00229   0.00513   0.00685   0.01202   3.32884
   R21        5.15866   0.00205  -0.00078   0.01132   0.01048   5.16914
   R22        2.53986   0.00057   0.00059   0.00155   0.00214   2.54200
   R23        2.79743   0.00009  -0.00262   0.00106  -0.00162   2.79581
   R24        2.05561   0.00062  -0.00047   0.00046  -0.00001   2.05560
   R25        2.43259  -0.00202   0.00236  -0.00061   0.00174   2.43432
   R26        2.07537  -0.00021  -0.00046  -0.00020  -0.00066   2.07471
    A1        1.85346   0.00002  -0.00028  -0.00047  -0.00075   1.85271
    A2        1.94613   0.00003  -0.00026   0.00014  -0.00012   1.94601
    A3        1.94725  -0.00018   0.00037  -0.00015   0.00023   1.94748
    A4        1.90698   0.00003  -0.00000   0.00021   0.00021   1.90718
    A5        1.90576   0.00010   0.00035   0.00036   0.00071   1.90648
    A6        1.90318   0.00001  -0.00017  -0.00009  -0.00025   1.90292
    A7        2.05889   0.00007  -0.00066  -0.00008  -0.00074   2.05815
    A8        2.02633   0.00056  -0.00066   0.00103   0.00041   2.02674
    A9        2.20144  -0.00054   0.00051  -0.00076  -0.00022   2.20122
   A10        2.05533  -0.00003   0.00012  -0.00018  -0.00015   2.05519
   A11        2.16537  -0.00018  -0.00030  -0.00046  -0.00092   2.16445
   A12        2.06063   0.00047   0.00029   0.00198   0.00235   2.06299
   A13        2.05697  -0.00029   0.00005  -0.00154  -0.00141   2.05556
   A14        2.08281   0.00026   0.00079   0.00024   0.00072   2.08353
   A15        2.09678  -0.00102   0.00031  -0.00008   0.00003   2.09681
   A16        1.97264   0.00082  -0.00014   0.00312   0.00305   1.97569
   A17        2.20639   0.00009   0.00022  -0.00590  -0.00579   2.20060
   A18        2.09135   0.00055  -0.00203   0.00089  -0.00120   2.09016
   A19        1.95850   0.00041   0.00300  -0.00125   0.00170   1.96019
   A20        2.23315  -0.00096  -0.00102   0.00041  -0.00051   2.23265
   A21        2.06783   0.00043   0.00092   0.00030   0.00115   2.06899
   A22        2.12929  -0.00036   0.00018  -0.00035  -0.00015   2.12915
   A23        2.08469  -0.00007  -0.00134   0.00033  -0.00099   2.08370
   A24        2.06351  -0.00179   0.00155  -0.00638  -0.00469   2.05882
   A25        2.07291   0.00095   0.00064   0.00422   0.00473   2.07764
   A26        2.08758   0.00066  -0.00065  -0.00114  -0.00182   2.08576
   A27        2.05848   0.00023   0.00290   0.00620   0.00892   2.06741
   A28        2.09643  -0.00029  -0.00141  -0.00010  -0.00147   2.09496
   A29        2.02876   0.00034  -0.00114   0.00212   0.00090   2.02966
   A30        2.16375   0.00373   0.00367   0.00139   0.00558   2.16933
   A31        0.43187   0.00203   0.00069  -0.00065   0.00010   0.43196
   A32        1.67686  -0.00013   0.00350   0.00020   0.00443   1.68129
   A33        2.10152   0.00186   0.00813   0.00114   0.00856   2.11008
   A34        2.82287   0.00089   0.00805  -0.00156   0.00575   2.82862
   A35        1.49913  -0.00026  -0.00664   0.00184  -0.00504   1.49409
   A36        1.95767  -0.00058   0.00115   0.00074   0.00165   1.95932
   A37        2.44641  -0.00034  -0.00413   0.00125  -0.00320   2.44321
   A38        1.88512   0.00064   0.00322  -0.00014   0.00321   1.88833
   A39        1.95134  -0.00031   0.00093  -0.00142  -0.00036   1.95098
   A40        2.46744   0.00041   0.00053   0.00006   0.00032   2.46776
    D1        3.12934   0.00003  -0.00272  -0.00229  -0.00500   3.12433
    D2        1.05371  -0.00003  -0.00240  -0.00233  -0.00473   1.04899
    D3       -1.07908   0.00006  -0.00226  -0.00222  -0.00448  -1.08355
    D4        3.12456   0.00020  -0.00240   0.01037   0.00797   3.13253
    D5       -0.00251   0.00013   0.00091   0.00268   0.00359   0.00108
    D6        3.08650  -0.00033   0.01720  -0.03114  -0.01397   3.07253
    D7       -0.03247  -0.00033   0.01522  -0.03012  -0.01490  -0.04737
    D8       -0.06835  -0.00027   0.01418  -0.02413  -0.00998  -0.07832
    D9        3.09587  -0.00027   0.01219  -0.02311  -0.01091   3.08496
   D10        3.13359  -0.00013  -0.00604   0.00357  -0.00250   3.13109
   D11        0.04859  -0.00021  -0.00063  -0.00227  -0.00290   0.04569
   D12        0.00673  -0.00021  -0.00267  -0.00424  -0.00694  -0.00021
   D13       -3.07827  -0.00029   0.00275  -0.01008  -0.00734  -3.08561
   D14        0.02953   0.00087  -0.02698   0.05183   0.02489   0.05441
   D15       -3.13464   0.00088  -0.02500   0.05085   0.02586  -3.10878
   D16        0.06839  -0.00100   0.02787  -0.05011  -0.02223   0.04617
   D17       -2.95118  -0.00019   0.02481  -0.02611  -0.00118  -2.95236
   D18       -0.12702   0.00051  -0.01716   0.02311   0.00595  -0.12108
   D19        3.03369   0.00047  -0.01380   0.02005   0.00628   3.03997
   D20        2.87491  -0.00038  -0.01368  -0.00360  -0.01728   2.85763
   D21       -0.24757  -0.00042  -0.01032  -0.00666  -0.01694  -0.26451
   D22       -2.82620  -0.00019  -0.00499  -0.01479  -0.01980  -2.84600
   D23        0.44658   0.00077  -0.00829   0.01046   0.00219   0.44877
   D24        0.08583   0.00018   0.00451   0.00412   0.00866   0.09449
   D25       -3.11087   0.00025  -0.00072   0.00979   0.00908  -3.10180
   D26       -3.07820   0.00024   0.00060   0.00769   0.00829  -3.06991
   D27        0.00828   0.00032  -0.00463   0.01336   0.00871   0.01698
   D28       -1.10747  -0.00096   0.01593  -0.00591   0.00991  -1.09756
   D29        1.67025  -0.00138   0.02031  -0.01589   0.00429   1.67454
   D30        2.05515  -0.00102   0.01963  -0.00927   0.01029   2.06544
   D31       -1.45031  -0.00144   0.02401  -0.01926   0.00467  -1.44564
   D32        2.26573   0.00008  -0.00545   0.00527  -0.00032   2.26541
   D33       -0.39425  -0.00064  -0.00595  -0.01393  -0.01999  -0.41424
   D34       -0.50886   0.00045  -0.01015   0.01421   0.00392  -0.50493
   D35        3.11434  -0.00027  -0.01065  -0.00499  -0.01574   3.09860
   D36        2.00973   0.00025   0.00188   0.02958   0.03121   2.04095
   D37       -1.59494   0.00076   0.00223   0.04737   0.04939  -1.54555
   D38       -3.13971   0.00104   0.00728  -0.02066  -0.01363   3.12985
   D39        0.17475   0.00101  -0.03258  -0.03966  -0.07206   0.10269
   D40        0.21219  -0.00138  -0.03495  -0.04378  -0.07879   0.13340
   D41       -3.07369  -0.00060   0.00416  -0.02237  -0.01822  -3.09191
   D42        0.41183  -0.00119  -0.07999  -0.06566  -0.14578   0.26605
   D43       -2.87405  -0.00042  -0.04089  -0.04425  -0.08521  -2.95926
   D44       -0.21902  -0.00015   0.03844  -0.00128   0.03711  -0.18192
   D45        2.95378   0.00041   0.03749   0.01366   0.05115   3.00492
   D46        3.07806  -0.00103  -0.00379  -0.02431  -0.02817   3.04989
   D47       -0.03233  -0.00047  -0.00473  -0.00937  -0.01413  -0.04645
   D48        0.13585   0.00090   0.01199   0.02245   0.03444   0.17029
   D49       -3.03771   0.00033   0.01298   0.00717   0.02012  -3.01759
         Item               Value     Threshold  Converged?
 Maximum Force            0.003728     0.000450     NO 
 RMS     Force            0.000895     0.000300     NO 
 Maximum Displacement     0.123670     0.001800     NO 
 RMS     Displacement     0.020148     0.001200     NO 
 Predicted change in Energy=-3.052034D-04
 GradGradGradGradGradGradGradGradGradGradGradGradGradGradGradGradGradGrad

                          Input orientation:                          
 ---------------------------------------------------------------------
 Center     Atomic      Atomic             Coordinates (Angstroms)
 Number     Number       Type             X           Y           Z
 ---------------------------------------------------------------------
      1          6           0        1.548825   -0.548408   -0.806065
      2          8           0        2.681702    0.005181   -0.160744
      3          6           0        2.878966    1.341453   -0.261144
      4          6           0        4.009246    1.852668    0.403579
      5          7           0        4.389870    3.111757    0.347353
      6          6           0        3.636317    4.001695   -0.332958
      7          6           0        2.414673    3.591041   -0.933845
      8          6           0        2.068007    2.240368   -0.943893
      9          6           0        1.674758    4.710979   -1.505722
     10          6           0        1.245026    5.674386   -0.671713
     11          6           0        1.535802    7.067013   -1.007606
     12         16           0        0.307699    8.283111   -1.348063
     13          6           0        2.859324    7.352762   -1.022460
     14          6           0        4.013033    6.448548   -0.821939
     15          7           0        4.264353    5.223317   -0.513594
     16          1           0        1.587300   -1.622143   -0.618486
     17          1           0        1.574622   -0.368607   -1.888357
     18          1           0        0.613773   -0.143389   -0.398183
     19          1           0        4.619248    1.163935    0.984878
     20          1           0        1.154394    1.929808   -1.435692
     21          1           0        1.783502    4.929571   -2.566945
     22          1           0        1.094984    5.454373    0.382927
     23          1           0       -0.752486    7.511002   -1.049161
     24          1           0        3.167463    8.380692   -1.200417
     25          1           0        4.933279    7.033565   -0.949480
 ---------------------------------------------------------------------
                    Distance matrix (angstroms):
                    1          2          3          4          5
     1  C    0.000000
     2  O    1.416443   0.000000
     3  C    2.374403   1.354480   0.000000
     4  C    3.644459   2.343937   1.407385   0.000000
     5  N    4.774801   3.581454   2.405634   1.316564   0.000000
     6  C    5.028408   4.112550   2.766879   2.302147   1.350057
     7  C    4.230965   3.677959   2.393479   2.711698   2.402620
     8  C    2.840038   2.446631   1.389910   2.394662   2.796013
     9  C    5.307215   4.996742   3.788508   4.155142   3.655575
    10  C    6.231654   5.870690   4.648939   4.837633   4.182775
    11  C    7.618099   7.204147   5.928181   5.941276   5.062180
    12  S    8.934757   8.693086   7.481940   7.623667   6.803048
    13  C    8.012036   7.400071   6.059358   5.797150   4.712227
    14  C    7.418219   6.612609   5.261465   4.756471   3.555759
    15  N    6.385330   5.464268   4.129394   3.502508   2.283784
    16  H    1.090675   2.013810   3.252537   4.357150   5.585432
    17  H    1.097429   2.085663   2.696932   4.014278   5.003694
    18  H    1.097602   2.086812   2.711944   4.019491   5.040904
    19  H    3.945515   2.531648   2.147711   1.088285   2.062296
    20  H    2.587192   2.768095   2.167919   3.396918   3.878732
    21  H    5.758822   5.553934   4.403561   4.821337   4.311698
    22  H    6.136209   5.701486   4.529187   4.633102   4.042944
    23  H    8.385059   8.301824   7.202204   7.536663   6.909952
    24  H    9.083190   8.453760   7.107485   6.774695   5.625970
    25  H    8.304301   7.422255   6.090496   5.433810   4.166250
                    6          7          8          9         10
     6  C    0.000000
     7  C    1.422010   0.000000
     8  C    2.436208   1.394489   0.000000
     9  C    2.392942   1.459033   2.564023   0.000000
    10  C    2.937843   2.403562   3.541731   1.344766   0.000000
    11  C    3.776703   3.586117   4.856316   2.412121   1.461775
    12  S    5.517305   5.160081   6.306884   3.828033   2.853328
    13  C    3.508388   3.788946   5.173870   2.935261   2.354979
    14  C    2.523511   3.276068   4.637541   2.992363   2.878152
    15  N    1.385431   2.502449   3.729220   2.820073   3.056927
    16  H    5.992290   5.287843   3.905887   6.395566   7.304746
    17  H    5.076355   4.158797   2.818188   5.094961   6.173055
    18  H    5.130472   4.180448   2.845153   5.090896   5.858311
    19  H    3.279592   3.799012   3.374566   5.239716   5.871442
    20  H    3.415944   2.144726   1.083052   2.830299   3.822792
    21  H    3.047060   2.203873   3.153896   1.088945   2.106326
    22  H    3.013493   2.635807   3.610687   2.110870   1.087743
    23  H    5.664783   5.040862   5.978783   3.733643   2.739650
    24  H    4.488644   4.855770   6.243252   3.973434   3.361456
    25  H    3.354765   4.265511   5.584313   4.040021   3.940524
                   11         12         13         14         15
    11  C    0.000000
    12  S    1.761546   0.000000
    13  C    1.354098   2.735390   0.000000
    14  C    2.560009   4.167965   1.479479   0.000000
    15  N    3.329903   5.070877   2.601459   1.288188   0.000000
    16  H    8.698017  10.014176   9.073597   8.429806   7.351050
    17  H    7.487701   8.760664   7.875263   7.318244   6.355646
    18  H    7.294617   8.485391   7.850128   7.428875   6.491656
    19  H    6.951544   8.643769   6.740053   5.617759   4.341653
    20  H    5.169101   6.410073   5.699647   5.382148   4.622695
    21  H    2.657358   3.861334   3.068336   3.212965   3.233753
    22  H    2.174514   3.408504   2.948201   3.309849   3.301824
    23  H    2.331333   1.345171   3.615373   4.887802   5.539766
    24  H    2.103627   2.865235   1.087777   2.142759   3.412317
    25  H    3.398138   4.807934   2.099644   1.097891   1.978498
                   16         17         18         19         20
    16  H    0.000000
    17  H    1.784401   0.000000
    18  H    1.784097   1.787336   0.000000
    19  H    4.418791   4.458016   4.434612   0.000000
    20  H    3.670366   2.379959   2.380513   4.295455   0.000000
    21  H    6.838125   5.345540   5.639745   5.902281   3.267123
    22  H    7.163957   6.268642   5.672446   5.584858   3.966543
    23  H    9.437925   8.258808   7.802573   8.560263   5.910611
    24  H   10.143582   8.919677   8.934477   7.678852   6.761783
    25  H    9.285818   8.182555   8.394685   6.188126   6.369043
                   21         22         23         24         25
    21  H    0.000000
    22  H    3.074284   0.000000
    23  H    3.924116   3.113478   0.000000
    24  H    3.961437   3.919884   4.018114   0.000000
    25  H    4.118747   4.359090   5.706646   2.235135   0.000000
 Stoichiometry    C11H10N2OS
 Framework group  C1[X(C11H10N2OS)]
 Deg. of freedom    69
 Full point group                 C1      NOp   1
 Largest Abelian subgroup         C1      NOp   1
 Largest concise Abelian subgroup C1      NOp   1
                         Standard orientation:                         
 ---------------------------------------------------------------------
 Center     Atomic      Atomic             Coordinates (Angstroms)
 Number     Number       Type             X           Y           Z
 ---------------------------------------------------------------------
      1          6           0        4.535082   -1.848639   -0.204762
      2          8           0        4.282627   -0.503585    0.160489
      3          6           0        3.004093   -0.060079    0.103319
      4          6           0        2.794789    1.278278    0.485058
      5          7           0        1.630897    1.889954    0.417614
      6          6           0        0.541856    1.199197    0.018241
      7          6           0        0.643671   -0.189263   -0.271461
      8          6           0        1.895327   -0.803937   -0.282895
      9          6           0       -0.654268   -0.792702   -0.554295
     10          6           0       -1.574708   -0.796981    0.426095
     11          6           0       -2.918804   -0.309653    0.121622
     12         16           0       -4.373844   -1.299868    0.194953
     13          6           0       -2.953038    1.001035   -0.216769
     14          6           0       -1.832661    1.952616   -0.384419
     15          7           0       -0.554253    2.007543   -0.235806
     16          1           0        5.611778   -1.992631   -0.106960
     17          1           0        4.235861   -2.046699   -1.241868
     18          1           0        4.014585   -2.551565    0.458343
     19          1           0        3.649114    1.851455    0.839967
     20          1           0        1.969791   -1.853231   -0.540651
     21          1           0       -0.973387   -0.898941   -1.589997
     22          1           0       -1.262671   -0.731760    1.466077
     23          1           0       -3.782494   -2.394866    0.705610
     24          1           0       -3.919430    1.466186   -0.398367
     25          1           0       -2.247199    2.916908   -0.706385
 ---------------------------------------------------------------------
 Rotational constants (GHZ):           1.2932840           0.2691771           0.2282758
slurmstepd: error: *** JOB 27447267 ON lewis4-r630-hpc4rc-node367 CANCELLED AT 2023-05-18T08:43:24 DUE TO TIME LIMIT ***
