### Starting Gaussian ###
 Entering Gaussian System, Link 0=g16
 Initial command:
 /cluster/software/gaussian/gaussian-16-A.03/avx2/g16/l1.exe "/local/scratch/linjian/Gau-26368.inp" -scrdir="/local/scratch/linjian/"
 Entering Link 1 = /cluster/software/gaussian/gaussian-16-A.03/avx2/g16/l1.exe PID=     26369.
  
 Copyright (c) 1988,1990,1992,1993,1995,1998,2003,2009,2016,
            Gaussian, Inc.  All Rights Reserved.
  
 This is part of the Gaussian(R) 16 program.  It is based on
 the Gaussian(R) 09 system (copyright 2009, Gaussian, Inc.),
 the Gaussian(R) 03 system (copyright 2003, Gaussian, Inc.),
 the Gaussian(R) 98 system (copyright 1998, Gaussian, Inc.),
 the Gaussian(R) 94 system (copyright 1995, Gaussian, Inc.),
 the Gaussian 92(TM) system (copyright 1992, Gaussian, Inc.),
 the Gaussian 90(TM) system (copyright 1990, Gaussian, Inc.),
 the Gaussian 88(TM) system (copyright 1988, Gaussian, Inc.),
 the Gaussian 86(TM) system (copyright 1986, Carnegie Mellon
 University), and the Gaussian 82(TM) system (copyright 1983,
 Carnegie Mellon University). Gaussian is a federally registered
 trademark of Gaussian, Inc.
  
 This software contains proprietary and confidential information,
 including trade secrets, belonging to Gaussian, Inc.
  
 This software is provided under written license and may be
 used, copied, transmitted, or stored only in accord with that
 written license.
  
 The following legend is applicable only to US Government
 contracts under FAR:
  
                    RESTRICTED RIGHTS LEGEND
  
 Use, reproduction and disclosure by the US Government is
 subject to restrictions as set forth in subparagraphs (a)
 and (c) of the Commercial Computer Software - Restricted
 Rights clause in FAR 52.227-19.
  
 Gaussian, Inc.
 340 Quinnipiac St., Bldg. 40, Wallingford CT 06492
  
  
 ---------------------------------------------------------------
 Warning -- This program may not be used in any manner that
 competes with the business of Gaussian, Inc. or will provide
 assistance to any competitor of Gaussian, Inc.  The licensee
 of this program is prohibited from giving any competitor of
 Gaussian, Inc. access to this program.  By using this program,
 the user acknowledges that Gaussian, Inc. is engaged in the
 business of creating and licensing software in the field of
 computational chemistry and represents and warrants to the
 licensee that it is not a competitor of Gaussian, Inc. and that
 it will not use this program in any manner prohibited above.
 ---------------------------------------------------------------
  

 Cite this work as:
 Gaussian 16, Revision A.03,
 M. J. Frisch, G. W. Trucks, H. B. Schlegel, G. E. Scuseria, 
 M. A. Robb, J. R. Cheeseman, G. Scalmani, V. Barone, 
 G. A. Petersson, H. Nakatsuji, X. Li, M. Caricato, A. V. Marenich, 
 J. Bloino, B. G. Janesko, R. Gomperts, B. Mennucci, H. P. Hratchian, 
 J. V. Ortiz, A. F. Izmaylov, J. L. Sonnenberg, D. Williams-Young, 
 F. Ding, F. Lipparini, F. Egidi, J. Goings, B. Peng, A. Petrone, 
 T. Henderson, D. Ranasinghe, V. G. Zakrzewski, J. Gao, N. Rega, 
 G. Zheng, W. Liang, M. Hada, M. Ehara, K. Toyota, R. Fukuda, 
 J. Hasegawa, M. Ishida, T. Nakajima, Y. Honda, O. Kitao, H. Nakai, 
 T. Vreven, K. Throssell, J. A. Montgomery, Jr., J. E. Peralta, 
 F. Ogliaro, M. J. Bearpark, J. J. Heyd, E. N. Brothers, K. N. Kudin, 
 V. N. Staroverov, T. A. Keith, R. Kobayashi, J. Normand, 
 K. Raghavachari, A. P. Rendell, J. C. Burant, S. S. Iyengar, 
 J. Tomasi, M. Cossi, J. M. Millam, M. Klene, C. Adamo, R. Cammi, 
 J. W. Ochterski, R. L. Martin, K. Morokuma, O. Farkas, 
 J. B. Foresman, and D. J. Fox, Gaussian, Inc., Wallingford CT, 2016.
 
 ******************************************
 Gaussian 16:  ES64L-G16RevA.03 25-Dec-2016
                16-May-2023 
 ******************************************
 %chk=COC1dNC2dCCdCC1dC1SCdCS[SH]2S1.chk
 %NProcShared=20
 Will use up to   20 processors via shared memory.
 -----------------------------
 # opt freq b3lyp/6-31g(2df,p)
 -----------------------------
 1/18=20,19=15,26=3,38=1/1,3;
 2/9=110,12=2,17=6,18=5,40=1/2;
 3/5=1,6=6,7=104,11=2,25=1,30=1,71=1,74=-5/1,2,3;
 4//1;
 5/5=2,38=5/2;
 6/7=2,8=2,9=2,10=2,28=1/1;
 7//1,2,3,16;
 1/18=20,19=15,26=3/3(2);
 2/9=110/2;
 99//99;
 2/9=110/2;
 3/5=1,6=6,7=104,11=2,25=1,30=1,71=1,74=-5/1,2,3;
 4/5=5,16=3,69=1/1;
 5/5=2,38=5/2;
 7//1,2,3,16;
 1/18=20,19=15,26=3/3(-5);
 2/9=110/2;
 6/7=2,8=2,9=2,10=2,19=2,28=1/1;
 99/9=1/99;
 -------------------
 Title Card Required
 -------------------
 Symbolic Z-matrix:
 Charge =  0 Multiplicity = 1
 C                     1.06692  -0.06766  -0.17862 
 O                     2.43785   0.10679  -0.65544 
 C                     2.80744  -0.0477   -1.98147 
 N                     3.97783   0.33387  -2.45949 
 C                     4.41992  -0.25552  -3.74212 
 C                     4.82914  -1.44969  -4.00439 
 C                     4.53107  -2.43915  -3.01654 
 C                     3.32097  -2.33032  -2.39422 
 C                     2.12948  -1.12796  -2.7187 
 C                     1.39281  -0.82485  -3.91238 
 S                     0.43076   0.67563  -4.92518 
 C                     1.51102   1.39906  -6.53475 
 C                     2.54165   2.24685  -6.30601 
 S                     3.13487   2.10275  -4.74854 
 S                     3.55961   0.09255  -5.1728 
 S                     2.03615  -1.58462  -5.28054 
 H                     0.9713    0.32876   0.84689 
 H                     0.72961  -1.11419  -0.13568 
 H                     0.41332   0.52484  -0.81707 
 H                     4.87187  -1.88864  -5.03023 
 H                     5.46343  -2.93699  -2.73859 
 H                     3.55891  -2.52177  -1.3245 
 H                     1.25676   1.29443  -7.60969 
 H                     3.21544   2.75857  -7.00724 
 H                     3.95582  -0.14543  -6.42317 
 

 GradGradGradGradGradGradGradGradGradGradGradGradGradGradGradGradGradGrad
 Berny optimization.
 Initialization pass.
                           ----------------------------
                           !    Initial Parameters    !
                           ! (Angstroms and Degrees)  !
 --------------------------                            --------------------------
 ! Name  Definition              Value          Derivative Info.                !
 --------------------------------------------------------------------------------
 ! R1    R(1,2)                  1.4619         estimate D2E/DX2                !
 ! R2    R(1,17)                 1.1036         estimate D2E/DX2                !
 ! R3    R(1,18)                 1.1004         estimate D2E/DX2                !
 ! R4    R(1,19)                 1.089          estimate D2E/DX2                !
 ! R5    R(2,3)                  1.3852         estimate D2E/DX2                !
 ! R6    R(3,4)                  1.3206         estimate D2E/DX2                !
 ! R7    R(3,9)                  1.4731         estimate D2E/DX2                !
 ! R8    R(4,5)                  1.4792         estimate D2E/DX2                !
 ! R9    R(5,6)                  1.2893         estimate D2E/DX2                !
 ! R10   R(5,15)                 1.7053         estimate D2E/DX2                !
 ! R11   R(6,7)                  1.4296         estimate D2E/DX2                !
 ! R12   R(6,20)                 1.1166         estimate D2E/DX2                !
 ! R13   R(7,8)                  1.3651         estimate D2E/DX2                !
 ! R14   R(7,21)                 1.0929         estimate D2E/DX2                !
 ! R15   R(8,9)                  1.7235         estimate D2E/DX2                !
 ! R16   R(8,22)                 1.1125         estimate D2E/DX2                !
 ! R17   R(9,10)                 1.4351         estimate D2E/DX2                !
 ! R18   R(10,11)                2.0501         estimate D2E/DX2                !
 ! R19   R(10,16)                1.692          estimate D2E/DX2                !
 ! R20   R(11,12)                2.0691         estimate D2E/DX2                !
 ! R21   R(12,13)                1.354          estimate D2E/DX2                !
 ! R22   R(12,23)                1.1095         estimate D2E/DX2                !
 ! R23   R(13,14)                1.6728         estimate D2E/DX2                !
 ! R24   R(13,24)                1.0989         estimate D2E/DX2                !
 ! R25   R(14,15)                2.0979         estimate D2E/DX2                !
 ! R26   R(15,16)                2.2684         estimate D2E/DX2                !
 ! R27   R(15,25)                1.3331         estimate D2E/DX2                !
 ! A1    A(2,1,17)             109.966          estimate D2E/DX2                !
 ! A2    A(2,1,18)             114.4358         estimate D2E/DX2                !
 ! A3    A(2,1,19)             107.8599         estimate D2E/DX2                !
 ! A4    A(17,1,18)            106.1887         estimate D2E/DX2                !
 ! A5    A(17,1,19)            107.2987         estimate D2E/DX2                !
 ! A6    A(18,1,19)            110.8766         estimate D2E/DX2                !
 ! A7    A(1,2,3)              123.3064         estimate D2E/DX2                !
 ! A8    A(2,3,4)              123.4189         estimate D2E/DX2                !
 ! A9    A(2,3,9)              115.9804         estimate D2E/DX2                !
 ! A10   A(4,3,9)              116.0153         estimate D2E/DX2                !
 ! A11   A(3,4,5)              117.6219         estimate D2E/DX2                !
 ! A12   A(4,5,6)              129.8151         estimate D2E/DX2                !
 ! A13   A(4,5,15)             119.6939         estimate D2E/DX2                !
 ! A14   A(6,5,15)             100.283          estimate D2E/DX2                !
 ! A15   A(5,6,7)              115.742          estimate D2E/DX2                !
 ! A16   A(5,6,20)             124.2724         estimate D2E/DX2                !
 ! A17   A(7,6,20)             111.7602         estimate D2E/DX2                !
 ! A18   A(6,7,8)              116.4019         estimate D2E/DX2                !
 ! A19   A(6,7,21)             108.2491         estimate D2E/DX2                !
 ! A20   A(8,7,21)             132.5809         estimate D2E/DX2                !
 ! A21   A(7,8,9)              125.6339         estimate D2E/DX2                !
 ! A22   A(7,8,22)             103.5943         estimate D2E/DX2                !
 ! A23   A(9,8,22)             116.6761         estimate D2E/DX2                !
 ! A24   A(3,9,8)               95.693          estimate D2E/DX2                !
 ! A25   A(3,9,10)             119.8434         estimate D2E/DX2                !
 ! A26   A(8,9,10)             131.2092         estimate D2E/DX2                !
 ! A27   A(9,10,11)            143.7479         estimate D2E/DX2                !
 ! A28   A(9,10,16)            112.4921         estimate D2E/DX2                !
 ! A29   A(11,10,16)            96.1775         estimate D2E/DX2                !
 ! A30   A(10,11,12)           113.2796         estimate D2E/DX2                !
 ! A31   A(11,12,13)           119.0072         estimate D2E/DX2                !
 ! A32   A(11,12,23)           126.9448         estimate D2E/DX2                !
 ! A33   A(13,12,23)           113.3999         estimate D2E/DX2                !
 ! A34   A(12,13,14)           111.9181         estimate D2E/DX2                !
 ! A35   A(12,13,24)           130.5788         estimate D2E/DX2                !
 ! A36   A(14,13,24)           114.6322         estimate D2E/DX2                !
 ! A37   A(13,14,15)            88.0546         estimate D2E/DX2                !
 ! A38   A(5,15,14)             97.3569         estimate D2E/DX2                !
 ! A39   A(5,15,16)            103.1649         estimate D2E/DX2                !
 ! A40   A(5,15,25)            126.9079         estimate D2E/DX2                !
 ! A41   A(14,15,16)           125.5977         estimate D2E/DX2                !
 ! A42   A(14,15,25)           114.8924         estimate D2E/DX2                !
 ! A43   A(16,15,25)            91.322          estimate D2E/DX2                !
 ! A44   A(10,16,15)            83.3937         estimate D2E/DX2                !
 ! D1    D(17,1,2,3)          -166.9423         estimate D2E/DX2                !
 ! D2    D(18,1,2,3)            73.6587         estimate D2E/DX2                !
 ! D3    D(19,1,2,3)           -50.2342         estimate D2E/DX2                !
 ! D4    D(1,2,3,4)            167.5708         estimate D2E/DX2                !
 ! D5    D(1,2,3,9)            -37.4547         estimate D2E/DX2                !
 ! D6    D(2,3,4,5)            160.9199         estimate D2E/DX2                !
 ! D7    D(9,3,4,5)              5.9534         estimate D2E/DX2                !
 ! D8    D(2,3,9,8)            -92.4716         estimate D2E/DX2                !
 ! D9    D(2,3,9,10)           122.3945         estimate D2E/DX2                !
 ! D10   D(4,3,9,8)             64.3939         estimate D2E/DX2                !
 ! D11   D(4,3,9,10)           -80.74           estimate D2E/DX2                !
 ! D12   D(3,4,5,6)            -72.0662         estimate D2E/DX2                !
 ! D13   D(3,4,5,15)            65.9129         estimate D2E/DX2                !
 ! D14   D(4,5,6,7)             16.3761         estimate D2E/DX2                !
 ! D15   D(4,5,6,20)           162.1289         estimate D2E/DX2                !
 ! D16   D(15,5,6,7)          -127.3965         estimate D2E/DX2                !
 ! D17   D(15,5,6,20)           18.3562         estimate D2E/DX2                !
 ! D18   D(4,5,15,14)           37.7621         estimate D2E/DX2                !
 ! D19   D(4,5,15,16)          -91.507          estimate D2E/DX2                !
 ! D20   D(4,5,15,25)          166.6459         estimate D2E/DX2                !
 ! D21   D(6,5,15,14)         -173.7427         estimate D2E/DX2                !
 ! D22   D(6,5,15,16)           56.9881         estimate D2E/DX2                !
 ! D23   D(6,5,15,25)          -44.8589         estimate D2E/DX2                !
 ! D24   D(5,6,7,8)             37.3853         estimate D2E/DX2                !
 ! D25   D(5,6,7,21)          -126.1766         estimate D2E/DX2                !
 ! D26   D(20,6,7,8)          -112.5663         estimate D2E/DX2                !
 ! D27   D(20,6,7,21)           83.8719         estimate D2E/DX2                !
 ! D28   D(6,7,8,9)              1.0891         estimate D2E/DX2                !
 ! D29   D(6,7,8,22)          -136.782          estimate D2E/DX2                !
 ! D30   D(21,7,8,9)           159.6824         estimate D2E/DX2                !
 ! D31   D(21,7,8,22)           21.8113         estimate D2E/DX2                !
 ! D32   D(7,8,9,3)            -77.202          estimate D2E/DX2                !
 ! D33   D(7,8,9,10)            61.5662         estimate D2E/DX2                !
 ! D34   D(22,8,9,3)            55.9388         estimate D2E/DX2                !
 ! D35   D(22,8,9,10)         -165.2929         estimate D2E/DX2                !
 ! D36   D(3,9,10,11)          -22.2247         estimate D2E/DX2                !
 ! D37   D(3,9,10,16)          117.3817         estimate D2E/DX2                !
 ! D38   D(8,9,10,11)         -153.1008         estimate D2E/DX2                !
 ! D39   D(8,9,10,16)          -13.4944         estimate D2E/DX2                !
 ! D40   D(9,10,11,12)         104.3026         estimate D2E/DX2                !
 ! D41   D(16,10,11,12)        -38.6671         estimate D2E/DX2                !
 ! D42   D(9,10,16,15)         -78.4293         estimate D2E/DX2                !
 ! D43   D(11,10,16,15)         78.8993         estimate D2E/DX2                !
 ! D44   D(10,11,12,13)        -77.4889         estimate D2E/DX2                !
 ! D45   D(10,11,12,23)        112.3863         estimate D2E/DX2                !
 ! D46   D(11,12,13,14)         22.3759         estimate D2E/DX2                !
 ! D47   D(11,12,13,24)       -178.213          estimate D2E/DX2                !
 ! D48   D(23,12,13,14)       -166.2135         estimate D2E/DX2                !
 ! D49   D(23,12,13,24)         -6.8023         estimate D2E/DX2                !
 ! D50   D(12,13,14,15)         59.7316         estimate D2E/DX2                !
 ! D51   D(24,13,14,15)       -103.1811         estimate D2E/DX2                !
 ! D52   D(13,14,15,5)         172.1549         estimate D2E/DX2                !
 ! D53   D(13,14,15,16)        -75.83           estimate D2E/DX2                !
 ! D54   D(13,14,15,25)         35.4827         estimate D2E/DX2                !
 ! D55   D(5,15,16,10)          67.5932         estimate D2E/DX2                !
 ! D56   D(14,15,16,10)        -41.6253         estimate D2E/DX2                !
 ! D57   D(25,15,16,10)       -163.9224         estimate D2E/DX2                !
 --------------------------------------------------------------------------------
 Trust Radius=3.00D-01 FncErr=1.00D-07 GrdErr=1.00D-06 EigMax=2.50D+02 EigMin=1.00D-04
 Number of steps in this run=    138 maximum allowed number of steps=    150.
 GradGradGradGradGradGradGradGradGradGradGradGradGradGradGradGradGradGrad

                          Input orientation:                          
 ---------------------------------------------------------------------
 Center     Atomic      Atomic             Coordinates (Angstroms)
 Number     Number       Type             X           Y           Z
 ---------------------------------------------------------------------
      1          6           0        1.066920   -0.067660   -0.178620
      2          8           0        2.437850    0.106790   -0.655440
      3          6           0        2.807440   -0.047700   -1.981470
      4          7           0        3.977830    0.333870   -2.459490
      5          6           0        4.419920   -0.255520   -3.742120
      6          6           0        4.829140   -1.449690   -4.004390
      7          6           0        4.531070   -2.439150   -3.016540
      8          6           0        3.320970   -2.330320   -2.394220
      9          6           0        2.129480   -1.127960   -2.718700
     10          6           0        1.392810   -0.824850   -3.912380
     11         16           0        0.430760    0.675630   -4.925180
     12          6           0        1.511020    1.399060   -6.534750
     13          6           0        2.541650    2.246850   -6.306010
     14         16           0        3.134870    2.102750   -4.748540
     15         16           0        3.559610    0.092550   -5.172800
     16         16           0        2.036150   -1.584620   -5.280540
     17          1           0        0.971300    0.328760    0.846890
     18          1           0        0.729610   -1.114190   -0.135680
     19          1           0        0.413320    0.524840   -0.817070
     20          1           0        4.871870   -1.888640   -5.030230
     21          1           0        5.463430   -2.936990   -2.738590
     22          1           0        3.558910   -2.521770   -1.324500
     23          1           0        1.256760    1.294430   -7.609690
     24          1           0        3.215440    2.758570   -7.007240
     25          1           0        3.955820   -0.145430   -6.423170
 ---------------------------------------------------------------------
                    Distance matrix (angstroms):
                    1          2          3          4          5
     1  C    0.000000
     2  O    1.461930   0.000000
     3  C    2.506008   1.385215   0.000000
     4  N    3.719811   2.382793   1.320572   0.000000
     5  C    4.896574   3.686118   2.396491   1.479177   0.000000
     6  C    5.540832   4.399587   3.185130   2.508492   1.289298
     7  C    5.067355   4.054402   3.124308   2.882017   2.303706
     8  C    3.887063   3.121340   2.375801   2.744747   2.707272
     9  C    2.950471   2.424199   1.473126   2.370767   2.656060
    10  C    3.823677   3.545098   2.516655   3.183685   3.084886
    11  S    4.846340   4.752123   3.851914   4.333374   4.263809
    12  C    6.538263   6.090588   4.950372   4.881345   4.358683
    13  C    6.713918   6.043143   4.902780   4.529660   4.045156
    14  S    5.465461   4.606860   3.519705   3.013182   2.868043
    15  S    5.583995   4.654577   3.281770   2.755938   1.705324
    16  S    5.410191   4.941030   3.720333   3.925436   3.132986
    17  H    1.103614   2.111169   3.393045   4.468937   5.770041
    18  H    1.100385   2.163106   2.976864   4.248282   5.230881
    19  H    1.088975   2.073551   2.723131   3.929344   5.021725
    20  H    6.428976   5.389340   4.116536   3.513910   2.128513
    21  H    5.840873   4.770560   3.996938   3.603253   3.047338
    22  H    3.680450   2.934918   2.667834   3.101351   3.423757
    23  H    7.557257   7.153115   5.990224   5.903512   5.231255
    24  H    7.696348   6.926900   5.770613   5.209841   4.603968
    25  H    6.880857   5.969469   4.588794   3.992615   2.723148
                    6          7          8          9         10
     6  C    0.000000
     7  C    1.429589   0.000000
     8  C    2.375444   1.365089   0.000000
     9  C    3.007436   2.752374   1.723544   0.000000
    10  C    3.493888   3.641040   2.879071   1.435072   0.000000
    11  S    4.970974   5.491567   4.877992   3.317701   2.050060
    12  C    5.052526   6.019166   5.859026   4.618502   3.440432
    13  C    4.918788   6.061106   6.071238   4.942471   4.060128
    14  S    4.005514   5.057475   5.022904   3.945700   3.507817
    15  S    2.314172   3.464491   3.694287   3.091524   2.669326
    16  S    3.073688   3.475708   3.246178   2.603896   1.692040
    17  H    6.448312   5.937961   4.805877   4.022045   4.915195
    18  H    5.646736   4.950351   3.646248   2.937996   3.845389
    19  H    5.792861   5.529807   4.369642   3.048467   3.515965
    20  H    1.116625   2.115219   3.090133   3.666403   3.805929
    21  H    2.053445   1.092884   2.253170   3.793179   4.733800
    22  H    3.153514   1.953182   1.112461   2.435112   3.777387
    23  H    5.769773   6.764448   6.678391   5.527332   4.263796
    24  H    5.415772   6.683776   6.869344   5.888633   5.073563
    25  H    2.883449   4.146950   4.627010   4.245466   3.651671
                   11         12         13         14         15
    11  S    0.000000
    12  C    2.069065   0.000000
    13  C    2.971747   1.353982   0.000000
    14  S    3.062692   2.514481   1.672838   0.000000
    15  S    3.192335   2.785426   2.638450   2.097929   0.000000
    16  S    2.795047   3.278895   3.998410   3.884187   2.268356
    17  H    5.807693   7.478332   7.570274   6.255950   6.556814
    18  H    5.121726   6.919185   7.256242   6.116572   5.902347
    19  H    4.110913   5.887365   6.133805   5.035185   5.390584
    20  H    5.129325   4.936382   4.915264   4.362077   2.380644
    21  H    6.569625   6.988112   6.937974   5.904326   4.327588
    22  H    5.742263   6.834725   6.970653   5.769753   4.652320
    23  H    2.876071   1.109546   2.063402   3.516654   3.561750
    24  H    4.053154   2.230821   1.098897   2.353363   3.254426
    25  H    3.917162   2.893950   2.781476   2.921071   1.333057
                   16         17         18         19         20
    16  S    0.000000
    17  H    6.506945   0.000000
    18  H    5.328971   1.762374   0.000000
    19  H    5.196726   1.765942   1.802984   0.000000
    20  H    2.862934   7.394041   6.458693   6.591985   0.000000
    21  H    4.476233   6.610599   5.701473   6.417174   2.588551
    22  H    4.341348   4.419975   3.376316   4.408407   3.982104
    23  H    3.784352   8.516323   7.870207   6.887913   5.463933
    24  H    4.820323   8.522177   8.270185   7.152596   5.314968
    25  H    2.657443   7.873118   7.132984   6.665353   2.412097
                   21         22         23         24         25
    21  H    0.000000
    22  H    2.408164   0.000000
    23  H    7.702506   7.704991   0.000000
    24  H    7.464197   7.764889   2.518547   0.000000
    25  H    4.862286   5.639234   3.281151   3.053280   0.000000
 Stoichiometry    C10H9NOS4
 Framework group  C1[X(C10H9NOS4)]
 Deg. of freedom    69
 Full point group                 C1      NOp   1
 Largest Abelian subgroup         C1      NOp   1
 Largest concise Abelian subgroup C1      NOp   1
                         Standard orientation:                         
 ---------------------------------------------------------------------
 Center     Atomic      Atomic             Coordinates (Angstroms)
 Number     Number       Type             X           Y           Z
 ---------------------------------------------------------------------
      1          6           0        3.121170    2.622205   -0.017095
      2          8           0        2.804609    1.489910   -0.885966
      3          6           0        1.750504    0.622397   -0.651224
      4          7           0        1.313424   -0.248926   -1.542106
      5          6           0        0.501964   -1.383795   -1.050612
      6          6           0        0.858997   -2.423033   -0.376222
      7          6           0        2.135427   -2.340493    0.262244
      8          6           0        2.475393   -1.126036    0.784724
      9          6           0        1.491335    0.288751    0.760020
     10          6           0        0.201746    0.553518    1.331238
     11         16           0       -1.493722    1.688412    1.130867
     12          6           0       -3.096417    0.634315    0.355448
     13          6           0       -3.135779    0.383784   -0.974572
     14         16           0       -1.614799    0.450340   -1.667811
     15         16           0       -1.033835   -1.091668   -0.369352
     16         16           0       -0.582233   -0.856584    1.841130
     17          1           0        3.837883    3.294164   -0.519843
     18          1           0        3.582314    2.344541    0.942642
     19          1           0        2.204186    3.187582    0.142145
     20          1           0        0.153955   -3.077275    0.190994
     21          1           0        2.728509   -3.205386   -0.045341
     22          1           0        3.538782   -1.000088    0.483212
     23          1           0       -4.034132    0.363042    0.882888
     24          1           0       -3.894812   -0.126532   -1.583686
     25          1           0       -1.980124   -1.994512   -0.111567
 ---------------------------------------------------------------------
 Rotational constants (GHZ):           0.5730097           0.3728881           0.3341836
 Standard basis: 6-31G(2df,p) (6D, 7F)
 There are   557 symmetry adapted cartesian basis functions of A   symmetry.
 There are   509 symmetry adapted basis functions of A   symmetry.
   509 basis functions,   863 primitive gaussians,   557 cartesian basis functions
    74 alpha electrons       74 beta electrons
       nuclear repulsion energy      1731.1119331133 Hartrees.
 NAtoms=   25 NActive=   25 NUniq=   25 SFac= 1.00D+00 NAtFMM=   60 NAOKFM=F Big=F
 Integral buffers will be    131072 words long.
 Raffenetti 2 integral format.
 Two-electron integral symmetry is turned on.
 One-electron integrals computed using PRISM.
 PrsmSu:  requested number of processors reduced to:  12 ShMem   1 Linda.
 NBasis=   509 RedAO= T EigKep=  2.10D-04  NBF=   509
 NBsUse=   509 1.00D-06 EigRej= -1.00D+00 NBFU=   509
 ExpMin= 1.17D-01 ExpMax= 2.19D+04 ExpMxC= 3.30D+03 IAcc=3 IRadAn=         5 AccDes= 0.00D+00
 Harris functional with IExCor=  402 and IRadAn=       5 diagonalized for initial guess.
 HarFok:  IExCor=  402 AccDes= 0.00D+00 IRadAn=         5 IDoV= 1 UseB2=F ITyADJ=14
 ICtDFT=  3500011 ScaDFX=  1.000000  1.000000  1.000000  1.000000
 FoFCou: FMM=F IPFlag=           0 FMFlag=      100000 FMFlg1=           0
         NFxFlg=           0 DoJE=T BraDBF=F KetDBF=T FulRan=T
         wScrn=  0.000000 ICntrl=       500 IOpCl=  0 I1Cent=   200000004 NGrid=           0
         NMat0=    1 NMatS0=      1 NMatT0=    0 NMatD0=    1 NMtDS0=    0 NMtDT0=    0
 Petite list used in FoFCou.
 Requested convergence on RMS density matrix=1.00D-08 within 128 cycles.
 Requested convergence on MAX density matrix=1.00D-06.
 Requested convergence on             energy=1.00D-06.
 No special actions if energy rises.
 Integral accuracy reduced to 1.0D-05 until final iterations.
 EnCoef did     6 forward-backward iterations
 EnCoef did     6 forward-backward iterations
 Initial convergence to 1.0D-05 achieved.  Increase integral accuracy.
 SCF Done:  E(RB3LYP) =  -2108.67988314     A.U. after   22 cycles
            NFock= 22  Conv=0.85D-08     -V/T= 2.0039

 **********************************************************************

            Population analysis using the SCF density.

 **********************************************************************

 Orbital symmetries:
       Occupied  (A) (A) (A) (A) (A) (A) (A) (A) (A) (A) (A) (A)
                 (A) (A) (A) (A) (A) (A) (A) (A) (A) (A) (A) (A)
                 (A) (A) (A) (A) (A) (A) (A) (A) (A) (A) (A) (A)
                 (A) (A) (A) (A) (A) (A) (A) (A) (A) (A) (A) (A)
                 (A) (A) (A) (A) (A) (A) (A) (A) (A) (A) (A) (A)
                 (A) (A) (A) (A) (A) (A) (A) (A) (A) (A) (A) (A)
                 (A) (A)
       Virtual   (A) (A) (A) (A) (A) (A) (A) (A) (A) (A) (A) (A)
                 (A) (A) (A) (A) (A) (A) (A) (A) (A) (A) (A) (A)
                 (A) (A) (A) (A) (A) (A) (A) (A) (A) (A) (A) (A)
                 (A) (A) (A) (A) (A) (A) (A) (A) (A) (A) (A) (A)
                 (A) (A) (A) (A) (A) (A) (A) (A) (A) (A) (A) (A)
                 (A) (A) (A) (A) (A) (A) (A) (A) (A) (A) (A) (A)
                 (A) (A) (A) (A) (A) (A) (A) (A) (A) (A) (A) (A)
                 (A) (A) (A) (A) (A) (A) (A) (A) (A) (A) (A) (A)
                 (A) (A) (A) (A) (A) (A) (A) (A) (A) (A) (A) (A)
                 (A) (A) (A) (A) (A) (A) (A) (A) (A) (A) (A) (A)
                 (A) (A) (A) (A) (A) (A) (A) (A) (A) (A) (A) (A)
                 (A) (A) (A) (A) (A) (A) (A) (A) (A) (A) (A) (A)
                 (A) (A) (A) (A) (A) (A) (A) (A) (A) (A) (A) (A)
                 (A) (A) (A) (A) (A) (A) (A) (A) (A) (A) (A) (A)
                 (A) (A) (A) (A) (A) (A) (A) (A) (A) (A) (A) (A)
                 (A) (A) (A) (A) (A) (A) (A) (A) (A) (A) (A) (A)
                 (A) (A) (A) (A) (A) (A) (A) (A) (A) (A) (A) (A)
                 (A) (A) (A) (A) (A) (A) (A) (A) (A) (A) (A) (A)
                 (A) (A) (A) (A) (A) (A) (A) (A) (A) (A) (A) (A)
                 (A) (A) (A) (A) (A) (A) (A) (A) (A) (A) (A) (A)
                 (A) (A) (A) (A) (A) (A) (A) (A) (A) (A) (A) (A)
                 (A) (A) (A) (A) (A) (A) (A) (A) (A) (A) (A) (A)
                 (A) (A) (A) (A) (A) (A) (A) (A) (A) (A) (A) (A)
                 (A) (A) (A) (A) (A) (A) (A) (A) (A) (A) (A) (A)
                 (A) (A) (A) (A) (A) (A) (A) (A) (A) (A) (A) (A)
                 (A) (A) (A) (A) (A) (A) (A) (A) (A) (A) (A) (A)
                 (A) (A) (A) (A) (A) (A) (A) (A) (A) (A) (A) (A)
                 (A) (A) (A) (A) (A) (A) (A) (A) (A) (A) (A) (A)
                 (A) (A) (A) (A) (A) (A) (A) (A) (A) (A) (A) (A)
                 (A) (A) (A) (A) (A) (A) (A) (A) (A) (A) (A) (A)
                 (A) (A) (A) (A) (A) (A) (A) (A) (A) (A) (A) (A)
                 (A) (A) (A) (A) (A) (A) (A) (A) (A) (A) (A) (A)
                 (A) (A) (A) (A) (A) (A) (A) (A) (A) (A) (A) (A)
                 (A) (A) (A) (A) (A) (A) (A) (A) (A) (A) (A) (A)
                 (A) (A) (A) (A) (A) (A) (A) (A) (A) (A) (A) (A)
                 (A) (A) (A) (A) (A) (A) (A) (A) (A) (A) (A) (A)
                 (A) (A) (A)
 The electronic state is 1-A.
 Alpha  occ. eigenvalues --  -88.98612 -88.90263 -88.86875 -88.83829 -19.19821
 Alpha  occ. eigenvalues --  -14.35099 -10.31973 -10.26448 -10.26049 -10.26000
 Alpha  occ. eigenvalues --  -10.24336 -10.24014 -10.23425 -10.22654 -10.21018
 Alpha  occ. eigenvalues --  -10.20674  -8.04402  -7.95977  -7.93617  -7.90571
 Alpha  occ. eigenvalues --   -6.00669  -6.00524  -6.00177  -5.92505  -5.92253
 Alpha  occ. eigenvalues --   -5.91392  -5.89998  -5.89765  -5.89113  -5.86866
 Alpha  occ. eigenvalues --   -5.86672  -5.86213  -1.07479  -0.95976  -0.89255
 Alpha  occ. eigenvalues --   -0.84895  -0.81926  -0.80994  -0.74725  -0.72874
 Alpha  occ. eigenvalues --   -0.70504  -0.68792  -0.67010  -0.64036  -0.59558
 Alpha  occ. eigenvalues --   -0.56441  -0.55218  -0.54106  -0.52656  -0.49507
 Alpha  occ. eigenvalues --   -0.48446  -0.48198  -0.47931  -0.45889  -0.45487
 Alpha  occ. eigenvalues --   -0.43332  -0.42891  -0.40742  -0.38633  -0.37512
 Alpha  occ. eigenvalues --   -0.36412  -0.35652  -0.35317  -0.33479  -0.31166
 Alpha  occ. eigenvalues --   -0.29591  -0.28953  -0.27682  -0.26416  -0.25855
 Alpha  occ. eigenvalues --   -0.23855  -0.22054  -0.19663  -0.15851
 Alpha virt. eigenvalues --   -0.09432  -0.08629  -0.06124  -0.05259  -0.03517
 Alpha virt. eigenvalues --   -0.01970  -0.00485   0.01347   0.02063   0.06103
 Alpha virt. eigenvalues --    0.07616   0.08659   0.09460   0.10213   0.11426
 Alpha virt. eigenvalues --    0.11682   0.12198   0.13798   0.14484   0.15756
 Alpha virt. eigenvalues --    0.16645   0.18398   0.19942   0.20955   0.22000
 Alpha virt. eigenvalues --    0.23565   0.24542   0.24735   0.26069   0.27143
 Alpha virt. eigenvalues --    0.28279   0.30006   0.30274   0.30766   0.31833
 Alpha virt. eigenvalues --    0.32655   0.32773   0.33046   0.35045   0.35374
 Alpha virt. eigenvalues --    0.35674   0.37498   0.38565   0.39089   0.39715
 Alpha virt. eigenvalues --    0.40142   0.41227   0.41514   0.42053   0.43503
 Alpha virt. eigenvalues --    0.44196   0.44569   0.45978   0.46747   0.47348
 Alpha virt. eigenvalues --    0.48125   0.49061   0.49888   0.51178   0.51282
 Alpha virt. eigenvalues --    0.52068   0.53045   0.53491   0.54330   0.54697
 Alpha virt. eigenvalues --    0.55137   0.56976   0.57413   0.58372   0.59561
 Alpha virt. eigenvalues --    0.60082   0.61066   0.61853   0.62451   0.63192
 Alpha virt. eigenvalues --    0.63703   0.64646   0.65228   0.67737   0.68075
 Alpha virt. eigenvalues --    0.68929   0.70018   0.70440   0.70853   0.71940
 Alpha virt. eigenvalues --    0.72406   0.72646   0.73492   0.74182   0.74880
 Alpha virt. eigenvalues --    0.75127   0.76140   0.76979   0.77279   0.78268
 Alpha virt. eigenvalues --    0.79475   0.80302   0.80549   0.81931   0.82326
 Alpha virt. eigenvalues --    0.83297   0.84495   0.85689   0.86362   0.87325
 Alpha virt. eigenvalues --    0.87871   0.89315   0.90373   0.91687   0.92396
 Alpha virt. eigenvalues --    0.94460   0.95252   0.96153   0.97131   0.97446
 Alpha virt. eigenvalues --    0.99431   0.99743   1.01664   1.02456   1.02810
 Alpha virt. eigenvalues --    1.05561   1.06008   1.07100   1.08957   1.09736
 Alpha virt. eigenvalues --    1.10758   1.12044   1.13727   1.15751   1.17456
 Alpha virt. eigenvalues --    1.18904   1.19946   1.21749   1.25070   1.27120
 Alpha virt. eigenvalues --    1.27983   1.28882   1.30736   1.31741   1.32616
 Alpha virt. eigenvalues --    1.34234   1.34541   1.35355   1.35892   1.37797
 Alpha virt. eigenvalues --    1.38828   1.40605   1.41420   1.42605   1.43975
 Alpha virt. eigenvalues --    1.44631   1.46276   1.47114   1.47803   1.48855
 Alpha virt. eigenvalues --    1.49497   1.50779   1.52187   1.53097   1.55575
 Alpha virt. eigenvalues --    1.56399   1.56757   1.57621   1.59450   1.59835
 Alpha virt. eigenvalues --    1.61050   1.61903   1.62447   1.64477   1.65585
 Alpha virt. eigenvalues --    1.66101   1.66567   1.67687   1.69055   1.69500
 Alpha virt. eigenvalues --    1.70901   1.72129   1.73465   1.74885   1.75419
 Alpha virt. eigenvalues --    1.76384   1.77338   1.78253   1.79652   1.80135
 Alpha virt. eigenvalues --    1.80774   1.81823   1.82819   1.84210   1.86693
 Alpha virt. eigenvalues --    1.86961   1.88019   1.89033   1.90175   1.90570
 Alpha virt. eigenvalues --    1.91665   1.93270   1.94245   1.95980   1.96529
 Alpha virt. eigenvalues --    1.98149   1.99269   2.00152   2.00437   2.01515
 Alpha virt. eigenvalues --    2.02820   2.03952   2.08257   2.09560   2.10571
 Alpha virt. eigenvalues --    2.11804   2.15499   2.16051   2.17552   2.19277
 Alpha virt. eigenvalues --    2.20647   2.21834   2.23254   2.25233   2.27732
 Alpha virt. eigenvalues --    2.29392   2.29944   2.31377   2.31588   2.33998
 Alpha virt. eigenvalues --    2.35034   2.35543   2.37558   2.37910   2.39322
 Alpha virt. eigenvalues --    2.41936   2.42720   2.43126   2.46286   2.47473
 Alpha virt. eigenvalues --    2.49034   2.49767   2.50384   2.52135   2.52704
 Alpha virt. eigenvalues --    2.55608   2.55867   2.58539   2.60469   2.63956
 Alpha virt. eigenvalues --    2.65929   2.66456   2.66785   2.68637   2.70920
 Alpha virt. eigenvalues --    2.70994   2.74440   2.74940   2.75888   2.76414
 Alpha virt. eigenvalues --    2.78632   2.79192   2.80359   2.83447   2.85164
 Alpha virt. eigenvalues --    2.86290   2.88247   2.89556   2.90225   2.91474
 Alpha virt. eigenvalues --    2.93393   2.94172   2.95460   2.98884   2.99649
 Alpha virt. eigenvalues --    3.00414   3.02673   3.04585   3.06727   3.07184
 Alpha virt. eigenvalues --    3.07656   3.08533   3.08954   3.11041   3.12473
 Alpha virt. eigenvalues --    3.14100   3.16054   3.17920   3.18577   3.19364
 Alpha virt. eigenvalues --    3.21313   3.22031   3.23885   3.25894   3.26216
 Alpha virt. eigenvalues --    3.26616   3.28148   3.30160   3.30625   3.32543
 Alpha virt. eigenvalues --    3.33524   3.35181   3.37577   3.39007   3.41365
 Alpha virt. eigenvalues --    3.42974   3.43326   3.46155   3.46449   3.48496
 Alpha virt. eigenvalues --    3.48833   3.50233   3.53516   3.55477   3.58091
 Alpha virt. eigenvalues --    3.58995   3.61075   3.63245   3.63557   3.64701
 Alpha virt. eigenvalues --    3.66060   3.69192   3.74074   3.74320   3.76401
 Alpha virt. eigenvalues --    3.80410   3.80621   3.84348   3.84848   3.85216
 Alpha virt. eigenvalues --    3.85562   3.87531   3.90393   3.93995   3.96742
 Alpha virt. eigenvalues --    4.01024   4.02809   4.06159   4.06927   4.09740
 Alpha virt. eigenvalues --    4.14707   4.17900   4.19965   4.22500   4.23603
 Alpha virt. eigenvalues --    4.23948   4.26506   4.28052   4.30974   4.31653
 Alpha virt. eigenvalues --    4.32722   4.33903   4.35113   4.37542   4.37648
 Alpha virt. eigenvalues --    4.41095   4.41311   4.42603   4.44029   4.44634
 Alpha virt. eigenvalues --    4.47242   4.47716   4.48703   4.50342   4.51588
 Alpha virt. eigenvalues --    4.53134   4.55036   4.55988   4.57450   4.58862
 Alpha virt. eigenvalues --    4.61944   4.63081   4.63813   4.65333   4.68577
 Alpha virt. eigenvalues --    4.68876   4.69944   4.70779   4.71703   4.72156
 Alpha virt. eigenvalues --    4.72846   4.74286   4.76353   4.79389   4.80395
 Alpha virt. eigenvalues --    4.82596   4.83612   4.86078   4.88865   4.89107
 Alpha virt. eigenvalues --    4.90537   4.93385   4.95520   4.97106   4.97739
 Alpha virt. eigenvalues --    5.02596   5.05192   5.05325   5.08191   5.09057
 Alpha virt. eigenvalues --    5.14801   5.16310   5.20299   5.23047   5.25347
 Alpha virt. eigenvalues --    5.27485   5.32265   5.34825   5.36437   5.38780
 Alpha virt. eigenvalues --    5.42038   5.43527   5.45836   5.52473   5.54106
 Alpha virt. eigenvalues --    5.55303   5.57511   5.65003   5.74064   5.84165
 Alpha virt. eigenvalues --    5.85812   5.94120   6.10571   6.22708   6.32292
 Alpha virt. eigenvalues --    6.72976   7.15406  10.47334  10.71157  11.10310
 Alpha virt. eigenvalues --   11.24389  11.29553  11.43973  11.63609  11.66710
 Alpha virt. eigenvalues --   11.83271  12.30855  12.70107  13.59315  19.16256
          Condensed to atoms (all electrons):
               1          2          3          4          5          6
     1  C    4.848578   0.329099  -0.068573   0.002234  -0.000185   0.000014
     2  O    0.329099   7.677400   0.401499  -0.014216   0.000033   0.000077
     3  C   -0.068573   0.401499   4.406045   0.618078  -0.070704  -0.006967
     4  N    0.002234  -0.014216   0.618078   6.492947   0.402491  -0.002266
     5  C   -0.000185   0.000033  -0.070704   0.402491   4.792405   0.570220
     6  C    0.000014   0.000077  -0.006967  -0.002266   0.570220   5.027925
     7  C    0.000028  -0.000133  -0.000804  -0.026845  -0.016589   0.391065
     8  C    0.000406  -0.002473  -0.028925  -0.015508  -0.027591  -0.043818
     9  C    0.006048  -0.062558   0.335527  -0.071563   0.020206  -0.019159
    10  C   -0.000457   0.000902  -0.036014  -0.007979   0.003503   0.002880
    11  S   -0.000084  -0.000088   0.001532  -0.000325  -0.000498  -0.000038
    12  C    0.000000  -0.000000   0.000021  -0.000023   0.000920  -0.000132
    13  C   -0.000000  -0.000000   0.000017   0.000241   0.001984   0.000124
    14  S    0.000072  -0.000217  -0.003469   0.025880  -0.041160   0.014079
    15  S   -0.000058  -0.000358   0.011447  -0.071225   0.285052  -0.140166
    16  S    0.000072  -0.000071   0.002639   0.007403  -0.062253  -0.008460
    17  H    0.382394  -0.016137   0.001924   0.000009  -0.000000   0.000000
    18  H    0.371500  -0.024520  -0.000114  -0.000049   0.000006   0.000001
    19  H    0.379348  -0.024100  -0.001938  -0.000063   0.000002   0.000001
    20  H   -0.000000   0.000001  -0.000166   0.003042  -0.055977   0.379851
    21  H   -0.000001  -0.000001  -0.000269  -0.000029   0.000606  -0.043760
    22  H    0.000032   0.002289   0.001585  -0.001034   0.002260   0.006576
    23  H    0.000000   0.000000  -0.000000   0.000000   0.000006   0.000001
    24  H    0.000000  -0.000000   0.000001  -0.000002   0.000002   0.000004
    25  H   -0.000000   0.000000  -0.000026   0.000697  -0.003126   0.003303
               7          8          9         10         11         12
     1  C    0.000028   0.000406   0.006048  -0.000457  -0.000084   0.000000
     2  O   -0.000133  -0.002473  -0.062558   0.000902  -0.000088  -0.000000
     3  C   -0.000804  -0.028925   0.335527  -0.036014   0.001532   0.000021
     4  N   -0.026845  -0.015508  -0.071563  -0.007979  -0.000325  -0.000023
     5  C   -0.016589  -0.027591   0.020206   0.003503  -0.000498   0.000920
     6  C    0.391065  -0.043818  -0.019159   0.002880  -0.000038  -0.000132
     7  C    4.832692   0.617920  -0.017518  -0.001594  -0.000047   0.000005
     8  C    0.617920   5.044971   0.340898  -0.012240   0.001497   0.000001
     9  C   -0.017518   0.340898   5.188263   0.525096  -0.028618   0.000066
    10  C   -0.001594  -0.012240   0.525096   5.009958   0.267241  -0.003838
    11  S   -0.000047   0.001497  -0.028618   0.267241  15.837884   0.248817
    12  C    0.000005   0.000001   0.000066  -0.003838   0.248817   5.152378
    13  C    0.000002   0.000000   0.000026  -0.000266  -0.032532   0.608208
    14  S   -0.000438   0.000178  -0.009094   0.005096  -0.035855  -0.123179
    15  S    0.003779   0.006554   0.016993  -0.110337  -0.020391   0.060306
    16  S    0.001092  -0.003268  -0.064663   0.327187  -0.140585  -0.040752
    17  H    0.000000  -0.000005   0.000168   0.000018   0.000000   0.000000
    18  H    0.000004   0.000357   0.006723  -0.000423  -0.000018   0.000000
    19  H    0.000001   0.000013   0.001017   0.000863   0.000846   0.000000
    20  H   -0.055889   0.005246   0.000557  -0.000154   0.000037  -0.000041
    21  H    0.354323  -0.038492   0.003078   0.000000   0.000003  -0.000000
    22  H   -0.041784   0.344496  -0.031968   0.001724  -0.000013  -0.000000
    23  H    0.000000   0.000000  -0.000007   0.000218  -0.021325   0.336117
    24  H    0.000000  -0.000000  -0.000003  -0.000031   0.003849  -0.042881
    25  H   -0.000014   0.000012   0.000368   0.003518   0.002089  -0.000949
              13         14         15         16         17         18
     1  C   -0.000000   0.000072  -0.000058   0.000072   0.382394   0.371500
     2  O   -0.000000  -0.000217  -0.000358  -0.000071  -0.016137  -0.024520
     3  C    0.000017  -0.003469   0.011447   0.002639   0.001924  -0.000114
     4  N    0.000241   0.025880  -0.071225   0.007403   0.000009  -0.000049
     5  C    0.001984  -0.041160   0.285052  -0.062253  -0.000000   0.000006
     6  C    0.000124   0.014079  -0.140166  -0.008460   0.000000   0.000001
     7  C    0.000002  -0.000438   0.003779   0.001092   0.000000   0.000004
     8  C    0.000000   0.000178   0.006554  -0.003268  -0.000005   0.000357
     9  C    0.000026  -0.009094   0.016993  -0.064663   0.000168   0.006723
    10  C   -0.000266   0.005096  -0.110337   0.327187   0.000018  -0.000423
    11  S   -0.032532  -0.035855  -0.020391  -0.140585   0.000000  -0.000018
    12  C    0.608208  -0.123179   0.060306  -0.040752   0.000000   0.000000
    13  C    4.851393   0.344700  -0.070124   0.005071  -0.000000  -0.000000
    14  S    0.344700  16.279536  -0.344890   0.072604   0.000001   0.000003
    15  S   -0.070124  -0.344890  16.416841  -0.296956  -0.000002  -0.000004
    16  S    0.005071   0.072604  -0.296956  16.479016   0.000000   0.000027
    17  H   -0.000000   0.000001  -0.000002   0.000000   0.543770  -0.038171
    18  H   -0.000000   0.000003  -0.000004   0.000027  -0.038171   0.570617
    19  H    0.000000  -0.000025   0.000019   0.000015  -0.030879  -0.034256
    20  H   -0.000031   0.001610  -0.003306  -0.002627   0.000000   0.000000
    21  H   -0.000000   0.000019  -0.000546  -0.000130  -0.000000  -0.000000
    22  H    0.000000   0.000013  -0.000012   0.000224  -0.000015  -0.000098
    23  H   -0.041830   0.013296  -0.006612   0.003545   0.000000   0.000000
    24  H    0.377058  -0.062491  -0.002573  -0.000141   0.000000   0.000000
    25  H    0.006788   0.003142   0.166755   0.007479  -0.000000  -0.000000
              19         20         21         22         23         24
     1  C    0.379348  -0.000000  -0.000001   0.000032   0.000000   0.000000
     2  O   -0.024100   0.000001  -0.000001   0.002289   0.000000  -0.000000
     3  C   -0.001938  -0.000166  -0.000269   0.001585  -0.000000   0.000001
     4  N   -0.000063   0.003042  -0.000029  -0.001034   0.000000  -0.000002
     5  C    0.000002  -0.055977   0.000606   0.002260   0.000006   0.000002
     6  C    0.000001   0.379851  -0.043760   0.006576   0.000001   0.000004
     7  C    0.000001  -0.055889   0.354323  -0.041784   0.000000   0.000000
     8  C    0.000013   0.005246  -0.038492   0.344496   0.000000  -0.000000
     9  C    0.001017   0.000557   0.003078  -0.031968  -0.000007  -0.000003
    10  C    0.000863  -0.000154   0.000000   0.001724   0.000218  -0.000031
    11  S    0.000846   0.000037   0.000003  -0.000013  -0.021325   0.003849
    12  C    0.000000  -0.000041  -0.000000  -0.000000   0.336117  -0.042881
    13  C    0.000000  -0.000031  -0.000000   0.000000  -0.041830   0.377058
    14  S   -0.000025   0.001610   0.000019   0.000013   0.013296  -0.062491
    15  S    0.000019  -0.003306  -0.000546  -0.000012  -0.006612  -0.002573
    16  S    0.000015  -0.002627  -0.000130   0.000224   0.003545  -0.000141
    17  H   -0.030879   0.000000  -0.000000  -0.000015   0.000000   0.000000
    18  H   -0.034256   0.000000  -0.000000  -0.000098   0.000000   0.000000
    19  H    0.551962  -0.000000  -0.000000   0.000031   0.000000  -0.000000
    20  H   -0.000000   0.583981   0.004186  -0.000224   0.000000   0.000002
    21  H   -0.000000   0.004186   0.602592  -0.005474  -0.000000  -0.000000
    22  H    0.000031  -0.000224  -0.005474   0.581844  -0.000000   0.000000
    23  H    0.000000   0.000000  -0.000000  -0.000000   0.586113  -0.002727
    24  H   -0.000000   0.000002  -0.000000   0.000000  -0.002727   0.581344
    25  H    0.000000   0.001536   0.000015   0.000003   0.001174   0.002260
              25
     1  C   -0.000000
     2  O    0.000000
     3  C   -0.000026
     4  N    0.000697
     5  C   -0.003126
     6  C    0.003303
     7  C   -0.000014
     8  C    0.000012
     9  C    0.000368
    10  C    0.003518
    11  S    0.002089
    12  C   -0.000949
    13  C    0.006788
    14  S    0.003142
    15  S    0.166755
    16  S    0.007479
    17  H   -0.000000
    18  H   -0.000000
    19  H    0.000000
    20  H    0.001536
    21  H    0.000015
    22  H    0.000003
    23  H    0.001174
    24  H    0.002260
    25  H    0.593944
 Mulliken charges:
               1
     1  C   -0.250466
     2  O   -0.266427
     3  C    0.437653
     4  N   -0.341897
     5  C    0.198387
     6  C   -0.131355
     7  C   -0.039257
     8  C   -0.190231
     9  C   -0.139883
    10  C    0.025126
    11  S   -0.083378
    12  C   -0.195045
    13  C   -0.050830
    14  S   -0.139410
    15  S    0.099816
    16  S   -0.286468
    17  H    0.156924
    18  H    0.148417
    19  H    0.157142
    20  H    0.138366
    21  H    0.123881
    22  H    0.139543
    23  H    0.132030
    24  H    0.146329
    25  H    0.211032
 Sum of Mulliken charges =  -0.00000
 Mulliken charges with hydrogens summed into heavy atoms:
               1
     1  C    0.212018
     2  O   -0.266427
     3  C    0.437653
     4  N   -0.341897
     5  C    0.198387
     6  C    0.007011
     7  C    0.084624
     8  C   -0.050688
     9  C   -0.139883
    10  C    0.025126
    11  S   -0.083378
    12  C   -0.063014
    13  C    0.095498
    14  S   -0.139410
    15  S    0.310848
    16  S   -0.286468
 Electronic spatial extent (au):  <R**2>=           3863.0266
 Charge=             -0.0000 electrons
 Dipole moment (field-independent basis, Debye):
    X=              0.2327    Y=             -1.6973    Z=             -0.4676  Tot=              1.7758
 Quadrupole moment (field-independent basis, Debye-Ang):
   XX=           -101.9847   YY=           -108.0287   ZZ=           -138.8442
   XY=             10.9540   XZ=              5.2552   YZ=              3.3099
 Traceless Quadrupole moment (field-independent basis, Debye-Ang):
   XX=             14.3012   YY=              8.2572   ZZ=            -22.5584
   XY=             10.9540   XZ=              5.2552   YZ=              3.3099
 Octapole moment (field-independent basis, Debye-Ang**2):
  XXX=             -7.4447  YYY=              0.3865  ZZZ=             -9.7307  XYY=             32.2720
  XXY=              5.3894  XXZ=             -0.6256  XZZ=             -2.0408  YZZ=              7.6204
  YYZ=             -6.2281  XYZ=              4.1012
 Hexadecapole moment (field-independent basis, Debye-Ang**3):
 XXXX=          -2400.7707 YYYY=          -1373.6844 ZZZZ=          -1152.9552 XXXY=            119.9766
 XXXZ=             26.7573 YYYX=            110.2749 YYYZ=            -10.9096 ZZZX=              3.7026
 ZZZY=              6.7937 XXYY=           -589.8829 XXZZ=           -654.4598 YYZZ=           -446.2097
 XXYZ=             18.3046 YYXZ=             -6.2962 ZZXY=             20.3275
 N-N= 1.731111933113D+03 E-N=-8.447293422028D+03  KE= 2.100383480009D+03
 PrsmSu:  requested number of processors reduced to:  13 ShMem   1 Linda.
 Calling FoFJK, ICntrl=      2127 FMM=F ISym2X=0 I1Cent= 0 IOpClX= 0 NMat=1 NMatS=1 NMatT=0.
 ***** Axes restored to original set *****
 -------------------------------------------------------------------
 Center     Atomic                   Forces (Hartrees/Bohr)
 Number     Number              X              Y              Z
 -------------------------------------------------------------------
      1        6           0.002032819    0.003225437   -0.010781554
      2        8           0.019358736    0.020222939   -0.014047516
      3        6           0.013996482   -0.019573399    0.025798713
      4        7          -0.013352574    0.008781461    0.001563261
      5        6          -0.028545464    0.062256737    0.022479327
      6        6           0.018398572   -0.101180556   -0.023159770
      7        6          -0.000942198    0.011938204    0.003766508
      8        6           0.001694184    0.016257142    0.009295505
      9        6           0.015058811    0.005538139   -0.040931925
     10        6           0.025719924   -0.009361871   -0.000260354
     11       16           0.006915458    0.005363133    0.001607210
     12        6          -0.007544662    0.004958788   -0.003876759
     13        6          -0.020208247   -0.011293790   -0.008617740
     14       16           0.048867075    0.076789995    0.042332853
     15       16          -0.035537833    0.035908992    0.016206634
     16       16          -0.023232487   -0.085456465   -0.033092130
     17        1           0.013038400    0.000622478   -0.007798680
     18        1           0.006985068    0.001931485   -0.007541371
     19        1          -0.004983940   -0.002375166   -0.001330913
     20        1           0.018826212    0.018623593    0.011877215
     21        1          -0.015894388   -0.016616075    0.018470754
     22        1          -0.035397359   -0.012998773   -0.005142524
     23        1          -0.017802484   -0.013555065    0.016892421
     24        1          -0.017289862   -0.003179022   -0.005064176
     25        1           0.029839756    0.003171659   -0.008644990
 -------------------------------------------------------------------
 Cartesian Forces:  Max     0.101180556 RMS     0.025912862

 GradGradGradGradGradGradGradGradGradGradGradGradGradGradGradGradGradGrad
 Berny optimization.
 FormGI is forming the generalized inverse of G from B-inverse, IUseBI=4.
 Internal  Forces:  Max     0.096191279 RMS     0.022193060
 Search for a local minimum.
 Step number   1 out of a maximum of  138
 All quantities printed in internal units (Hartrees-Bohrs-Radians)
 Mixed Optimization -- RFO/linear search
 Second derivative matrix not updated -- first step.
 ITU=  0
     Eigenvalues ---    0.00873   0.01147   0.01415   0.01590   0.01887
     Eigenvalues ---    0.01957   0.02153   0.02183   0.02408   0.02533
     Eigenvalues ---    0.02623   0.02901   0.03207   0.03450   0.03807
     Eigenvalues ---    0.05119   0.05483   0.05815   0.07562   0.08812
     Eigenvalues ---    0.09514   0.09553   0.10263   0.10263   0.12498
     Eigenvalues ---    0.12717   0.13419   0.13440   0.14043   0.14864
     Eigenvalues ---    0.15249   0.15471   0.15868   0.16000   0.16000
     Eigenvalues ---    0.16000   0.16414   0.17626   0.19371   0.20689
     Eigenvalues ---    0.20939   0.21870   0.22591   0.23288   0.23571
     Eigenvalues ---    0.24699   0.25000   0.26986   0.31773   0.31909
     Eigenvalues ---    0.32341   0.32648   0.33091   0.33286   0.33612
     Eigenvalues ---    0.33640   0.33804   0.34481   0.34931   0.35199
     Eigenvalues ---    0.36724   0.38440   0.38622   0.39116   0.47981
     Eigenvalues ---    0.48161   0.51914   0.57871   0.66702
 RFO step:  Lambda=-1.71788381D-01 EMin= 8.72565872D-03
 Linear search not attempted -- first point.
 Maximum step size (   0.300) exceeded in Quadratic search.
    -- Step size scaled by   0.546
 Iteration  1 RMS(Cart)=  0.10051061 RMS(Int)=  0.00240955
 Iteration  2 RMS(Cart)=  0.00383861 RMS(Int)=  0.00040449
 Iteration  3 RMS(Cart)=  0.00000453 RMS(Int)=  0.00040447
 Iteration  4 RMS(Cart)=  0.00000000 RMS(Int)=  0.00040447
 Variable       Old X    -DE/DX   Delta X   Delta X   Delta X     New X
                                 (Linear)    (Quad)   (Total)
    R1        2.76265  -0.02537   0.00000  -0.02568  -0.02568   2.73696
    R2        2.08553  -0.00815   0.00000  -0.00882  -0.00882   2.07671
    R3        2.07943  -0.00427   0.00000  -0.00459  -0.00459   2.07484
    R4        2.05787   0.00248   0.00000   0.00260   0.00260   2.06046
    R5        2.61768  -0.04681   0.00000  -0.03910  -0.03910   2.57857
    R6        2.49552  -0.03958   0.00000  -0.02772  -0.02759   2.46793
    R7        2.78380   0.01851   0.00000   0.02091   0.02119   2.80499
    R8        2.79524  -0.02616   0.00000  -0.02984  -0.03001   2.76522
    R9        2.43642   0.09619   0.00000   0.06423   0.06401   2.50043
   R10        3.22260   0.02577   0.00000   0.03230   0.03209   3.25468
   R11        2.70153   0.02368   0.00000   0.02861   0.02843   2.72997
   R12        2.11011  -0.01751   0.00000  -0.01947  -0.01947   2.09064
   R13        2.57964  -0.01155   0.00000  -0.01109  -0.01112   2.56853
   R14        2.06525  -0.00129   0.00000  -0.00137  -0.00137   2.06389
   R15        3.25703  -0.03758   0.00000  -0.07404  -0.07391   3.18311
   R16        2.10225  -0.01028   0.00000  -0.01133  -0.01133   2.09092
   R17        2.71189  -0.03472   0.00000  -0.03805  -0.03784   2.67405
   R18        3.87405  -0.01025   0.00000  -0.02903  -0.02897   3.84509
   R19        3.19749   0.01589   0.00000   0.02009   0.02051   3.21800
   R20        3.90997  -0.03810   0.00000  -0.07482  -0.07509   3.83487
   R21        2.55866   0.00825   0.00000   0.00718   0.00714   2.56579
   R22        2.09674  -0.01101   0.00000  -0.01206  -0.01206   2.08468
   R23        3.16121   0.04389   0.00000   0.04766   0.04782   3.20903
   R24        2.07661  -0.00885   0.00000  -0.00947  -0.00947   2.06714
   R25        3.96451   0.05737   0.00000   0.07708   0.07686   4.04137
   R26        4.28657   0.07046   0.00000   0.11275   0.11277   4.39934
   R27        2.51911   0.01641   0.00000   0.02028   0.02028   2.53939
    A1        1.91927  -0.01709   0.00000  -0.02816  -0.02824   1.89102
    A2        1.99728  -0.01103   0.00000  -0.01862  -0.01871   1.97857
    A3        1.88251   0.01080   0.00000   0.01826   0.01832   1.90083
    A4        1.85334   0.01212   0.00000   0.01900   0.01877   1.87211
    A5        1.87271   0.00625   0.00000   0.01132   0.01140   1.88411
    A6        1.93516  -0.00054   0.00000  -0.00087  -0.00083   1.93433
    A7        2.15210  -0.03380   0.00000  -0.04373  -0.04373   2.10837
    A8        2.15407  -0.03284   0.00000  -0.04104  -0.04147   2.11260
    A9        2.02424   0.02775   0.00000   0.04116   0.04111   2.06535
   A10        2.02485   0.00988   0.00000   0.01252   0.01256   2.03741
   A11        2.05289   0.00040   0.00000  -0.01059  -0.01108   2.04182
   A12        2.26570  -0.01255   0.00000  -0.01875  -0.01844   2.24726
   A13        2.08905  -0.03021   0.00000  -0.04378  -0.04396   2.04509
   A14        1.75027   0.04193   0.00000   0.06514   0.06511   1.81538
   A15        2.02008  -0.01691   0.00000  -0.00558  -0.00596   2.01412
   A16        2.16896   0.00110   0.00000  -0.00714  -0.00704   2.16193
   A17        1.95058   0.01392   0.00000   0.01644   0.01657   1.96716
   A18        2.03160  -0.00320   0.00000  -0.00000  -0.00036   2.03124
   A19        1.88930   0.03149   0.00000   0.05140   0.05174   1.94104
   A20        2.31397  -0.02762   0.00000  -0.04786  -0.04782   2.26616
   A21        2.19272   0.01548   0.00000   0.00347   0.00333   2.19605
   A22        1.80806   0.01425   0.00000   0.03921   0.03939   1.84745
   A23        2.03638  -0.01996   0.00000  -0.02450  -0.02484   2.01154
   A24        1.67016  -0.00554   0.00000   0.00051   0.00040   1.67055
   A25        2.09166  -0.00646   0.00000  -0.00275  -0.00361   2.08805
   A26        2.29003   0.02687   0.00000   0.03150   0.03144   2.32148
   A27        2.50887  -0.03381   0.00000  -0.05832  -0.05921   2.44967
   A28        1.96336   0.00977   0.00000   0.01416   0.01430   1.97766
   A29        1.67861   0.02619   0.00000   0.05272   0.05414   1.73275
   A30        1.97710   0.01275   0.00000   0.01234   0.01174   1.98884
   A31        2.07707   0.01162   0.00000   0.02324   0.02290   2.09997
   A32        2.21560  -0.03142   0.00000  -0.05514  -0.05497   2.16064
   A33        1.97920   0.02041   0.00000   0.03271   0.03292   2.01212
   A34        1.95334   0.01415   0.00000   0.03839   0.03808   1.99142
   A35        2.27903  -0.02302   0.00000  -0.04291  -0.04306   2.23597
   A36        2.00071   0.01159   0.00000   0.01009   0.01038   2.01109
   A37        1.53684  -0.00953   0.00000  -0.00630  -0.00721   1.52964
   A38        1.69920  -0.00432   0.00000   0.00700   0.00734   1.70654
   A39        1.80057  -0.00692   0.00000  -0.01335  -0.01436   1.78621
   A40        2.21496  -0.00833   0.00000  -0.02933  -0.02938   2.18558
   A41        2.19209   0.03203   0.00000   0.05340   0.05282   2.24492
   A42        2.00525   0.00036   0.00000  -0.00706  -0.00755   1.99770
   A43        1.59387  -0.00848   0.00000  -0.00618  -0.00619   1.58768
   A44        1.45549  -0.02722   0.00000  -0.04126  -0.04099   1.41451
    D1       -2.91369  -0.00363   0.00000  -0.00807  -0.00782  -2.92151
    D2        1.28559   0.00059   0.00000   0.00044   0.00022   1.28581
    D3       -0.87675   0.00069   0.00000   0.00053   0.00049  -0.87626
    D4        2.92466  -0.00716   0.00000  -0.01631  -0.01608   2.90858
    D5       -0.65371   0.00881   0.00000   0.02105   0.02082  -0.63289
    D6        2.80858   0.01932   0.00000   0.03869   0.03805   2.84663
    D7        0.10391  -0.00072   0.00000  -0.00519  -0.00511   0.09880
    D8       -1.61393   0.01292   0.00000   0.01040   0.00975  -1.60418
    D9        2.13619  -0.01526   0.00000  -0.03547  -0.03580   2.10039
   D10        1.12389   0.01622   0.00000   0.03041   0.03078   1.15467
   D11       -1.40918  -0.01196   0.00000  -0.01547  -0.01477  -1.42395
   D12       -1.25779  -0.00025   0.00000   0.00123   0.00093  -1.25686
   D13        1.15040   0.01306   0.00000   0.02916   0.02873   1.17913
   D14        0.28582   0.01199   0.00000   0.02661   0.02670   0.31252
   D15        2.82968   0.01244   0.00000   0.03909   0.03893   2.86861
   D16       -2.22349   0.01936   0.00000   0.03084   0.03119  -2.19230
   D17        0.32038   0.01981   0.00000   0.04333   0.04342   0.36379
   D18        0.65907   0.00265   0.00000   0.00102   0.00094   0.66001
   D19       -1.59710  -0.02794   0.00000  -0.05514  -0.05437  -1.65147
   D20        2.90852  -0.00786   0.00000  -0.02450  -0.02417   2.88435
   D21       -3.03238   0.00063   0.00000   0.00319   0.00254  -3.02984
   D22        0.99463  -0.02996   0.00000  -0.05296  -0.05277   0.94186
   D23       -0.78294  -0.00988   0.00000  -0.02233  -0.02256  -0.80550
   D24        0.65250  -0.00465   0.00000  -0.00262  -0.00249   0.65001
   D25       -2.20220  -0.00150   0.00000  -0.00383  -0.00431  -2.20651
   D26       -1.96465  -0.00225   0.00000  -0.00662  -0.00632  -1.97097
   D27        1.46384   0.00090   0.00000  -0.00783  -0.00815   1.45569
   D28        0.01901  -0.00455   0.00000  -0.01117  -0.01101   0.00800
   D29       -2.38730  -0.00778   0.00000  -0.02624  -0.02646  -2.41376
   D30        2.78698   0.00528   0.00000   0.01432   0.01415   2.80114
   D31        0.38068   0.00206   0.00000  -0.00075  -0.00130   0.37937
   D32       -1.34743   0.00219   0.00000   0.01208   0.01188  -1.33555
   D33        1.07453   0.01376   0.00000   0.04423   0.04429   1.11882
   D34        0.97632   0.02037   0.00000   0.05312   0.05265   1.02896
   D35       -2.88491   0.03194   0.00000   0.08527   0.08505  -2.79985
   D36       -0.38789  -0.01918   0.00000  -0.04578  -0.04560  -0.43349
   D37        2.04870   0.00388   0.00000   0.00822   0.00802   2.05672
   D38       -2.67211  -0.03808   0.00000  -0.09005  -0.09013  -2.76224
   D39       -0.23552  -0.01502   0.00000  -0.03604  -0.03650  -0.27202
   D40        1.82042   0.01789   0.00000   0.04888   0.04804   1.86847
   D41       -0.67487  -0.00347   0.00000   0.00088   0.00117  -0.67369
   D42       -1.36885  -0.00366   0.00000  -0.00304  -0.00437  -1.37322
   D43        1.37705  -0.01278   0.00000  -0.01213  -0.01143   1.36562
   D44       -1.35244  -0.00491   0.00000  -0.00337  -0.00299  -1.35543
   D45        1.96151  -0.01175   0.00000  -0.01326  -0.01301   1.94851
   D46        0.39053  -0.01435   0.00000  -0.01869  -0.01887   0.37166
   D47       -3.11040  -0.00104   0.00000   0.00601   0.00517  -3.10524
   D48       -2.90097  -0.01332   0.00000  -0.01852  -0.01806  -2.91904
   D49       -0.11872  -0.00001   0.00000   0.00618   0.00598  -0.11275
   D50        1.04251  -0.01153   0.00000  -0.01972  -0.02043   1.02209
   D51       -1.80085  -0.01473   0.00000  -0.02721  -0.02840  -1.82925
   D52        3.00467   0.03319   0.00000   0.07831   0.07828   3.08295
   D53       -1.32348   0.03435   0.00000   0.08960   0.08954  -1.23395
   D54        0.61929   0.04725   0.00000   0.11542   0.11513   0.73442
   D55        1.17972   0.00945   0.00000   0.02049   0.01977   1.19949
   D56       -0.72650   0.00507   0.00000  -0.00415  -0.00466  -0.73116
   D57       -2.86099  -0.00347   0.00000  -0.01513  -0.01563  -2.87662
         Item               Value     Threshold  Converged?
 Maximum Force            0.096191     0.000450     NO 
 RMS     Force            0.022193     0.000300     NO 
 Maximum Displacement     0.337142     0.001800     NO 
 RMS     Displacement     0.101581     0.001200     NO 
 Predicted change in Energy=-8.227146D-02
 GradGradGradGradGradGradGradGradGradGradGradGradGradGradGradGradGradGrad

                          Input orientation:                          
 ---------------------------------------------------------------------
 Center     Atomic      Atomic             Coordinates (Angstroms)
 Number     Number       Type             X           Y           Z
 ---------------------------------------------------------------------
      1          6           0        1.095922   -0.019036   -0.310165
      2          8           0        2.470352    0.147793   -0.735363
      3          6           0        2.832828   -0.076374   -2.031620
      4          7           0        3.994688    0.313316   -2.483047
      5          6           0        4.454746   -0.285130   -3.736617
      6          6           0        4.885297   -1.516616   -3.957645
      7          6           0        4.535574   -2.486338   -2.945566
      8          6           0        3.305377   -2.354974   -2.382715
      9          6           0        2.164786   -1.177417   -2.769651
     10          6           0        1.436904   -0.889022   -3.948367
     11         16           0        0.445001    0.647073   -4.840933
     12          6           0        1.423963    1.448578   -6.427563
     13          6           0        2.464338    2.298973   -6.232729
     14         16           0        3.192028    2.165624   -4.704207
     15         16           0        3.580859    0.114010   -5.166070
     16         16           0        2.070095   -1.649225   -5.334371
     17          1           0        0.986899    0.424019    0.689586
     18          1           0        0.787585   -1.070205   -0.236128
     19          1           0        0.445825    0.528514   -0.993120
     20          1           0        4.979957   -1.965271   -4.964469
     21          1           0        5.420197   -3.011703   -2.579166
     22          1           0        3.447079   -2.537373   -1.300625
     23          1           0        1.078352    1.358194   -7.471286
     24          1           0        3.057104    2.824544   -6.987039
     25          1           0        4.008196   -0.102341   -6.421596
 ---------------------------------------------------------------------
                    Distance matrix (angstroms):
                    1          2          3          4          5
     1  C    0.000000
     2  O    1.448338   0.000000
     3  C    2.446127   1.364523   0.000000
     4  N    3.637955   2.324951   1.305972   0.000000
     5  C    4.805526   3.623916   2.362459   1.463294   0.000000
     6  C    5.468658   4.357215   3.161724   2.513220   1.323172
     7  C    4.986394   4.011083   3.089104   2.888692   2.340430
     8  C    3.825410   3.110446   2.353420   2.757714   2.727335
     9  C    2.921196   2.447014   1.484339   2.377596   2.641045
    10  C    3.756283   3.530779   2.506575   3.183558   3.084947
    11  S    4.625501   4.605110   3.757304   4.274494   4.262227
    12  C    6.299529   5.931957   4.861553   4.843207   4.408241
    13  C    6.505573   5.903274   4.840183   4.510534   4.107297
    14  S    5.336104   4.510453   3.506894   3.001477   2.921795
    15  S    5.456412   4.567881   3.228092   2.722057   1.722304
    16  S    5.371143   4.953822   3.736814   3.960514   3.178071
    17  H    1.098947   2.075431   3.326080   4.373174   5.667462
    18  H    1.097957   2.136459   2.897328   4.153105   5.130091
    19  H    1.090350   2.076077   2.672481   3.854947   4.925469
    20  H    6.366797   5.352429   4.096303   3.510010   2.146239
    21  H    5.727459   4.699320   3.951005   3.618987   3.115444
    22  H    3.584826   2.912668   2.639730   3.134393   3.467282
    23  H    7.292374   6.983939   5.892889   5.871909   5.296066
    24  H    7.517501   6.825887   5.746460   5.241305   4.710491
    25  H    6.770367   5.895828   4.544673   3.960445   2.727991
                    6          7          8          9         10
     6  C    0.000000
     7  C    1.444636   0.000000
     8  C    2.383149   1.359207   0.000000
     9  C    2.987904   2.713827   1.684431   0.000000
    10  C    3.505050   3.627504   2.844552   1.415046   0.000000
    11  S    5.017766   5.490307   4.820464   3.252174   2.034732
    12  C    5.183985   6.106553   5.862382   4.563440   3.407485
    13  C    5.059226   6.163981   6.098293   4.916088   4.054286
    14  S    4.121092   5.151571   5.083107   3.996705   3.603140
    15  S    2.412632   3.550202   3.730797   3.068529   2.661845
    16  S    3.136610   3.533516   3.276626   2.609474   1.702893
    17  H    6.368699   5.854708   4.747333   3.989779   4.841197
    18  H    5.553397   4.836724   3.549329   2.885639   3.772951
    19  H    5.716631   5.443108   4.292145   3.003512   3.424198
    20  H    1.106321   2.131891   3.101861   3.655561   3.839792
    21  H    2.102763   1.092161   2.223140   3.741470   4.716685
    22  H    3.189070   1.973133   1.106466   2.377351   3.710580
    23  H    5.924781   6.871314   6.681378   5.451150   4.193983
    24  H    5.600463   6.835557   6.934612   5.882030   5.064499
    25  H    2.973303   4.247865   4.677700   4.229734   3.653392
                   11         12         13         14         15
    11  S    0.000000
    12  C    2.029328   0.000000
    13  C    2.956956   1.357760   0.000000
    14  S    3.141791   2.571024   1.698144   0.000000
    15  S    3.197417   2.832779   2.675526   2.138603   0.000000
    16  S    2.856115   3.347975   4.068260   4.026029   2.328031
    17  H    5.561479   7.203788   7.322344   6.081841   6.411977
    18  H    4.926524   6.714396   7.079695   6.017945   5.788703
    19  H    3.849640   5.597897   5.887480   4.898360   5.235816
    20  H    5.235019   5.141994   5.110831   4.508738   2.514265
    21  H    6.576839   7.118579   7.091467   6.023724   4.454810
    22  H    5.629117   6.801934   6.977225   5.810990   4.689286
    23  H    2.797424   1.103165   2.083278   3.574394   3.622782
    24  H    4.021223   2.207588   1.093883   2.379853   3.307149
    25  H    3.969443   3.013909   2.861027   2.959598   1.343789
                   16         17         18         19         20
    16  S    0.000000
    17  H    6.462175   0.000000
    18  H    5.288873   1.769005   0.000000
    19  H    5.121255   1.770643   1.801593   0.000000
    20  H    2.950255   7.322674   6.382345   6.522954   0.000000
    21  H    4.546503   6.491769   5.542593   6.308174   2.641686
    22  H    4.353849   4.333967   3.218485   4.301366   4.012576
    23  H    3.820278   8.214675   7.637354   6.561639   5.705442
    24  H    4.870329   8.305350   8.117548   6.929473   5.543508
    25  H    2.707609   7.744301   7.040534   6.523559   2.556960
                   21         22         23         24         25
    21  H    0.000000
    22  H    2.398510   0.000000
    23  H    7.866414   7.672247   0.000000
    24  H    7.686048   7.825442   2.510007   0.000000
    25  H    5.022191   5.698121   3.437877   3.129051   0.000000
 Stoichiometry    C10H9NOS4
 Framework group  C1[X(C10H9NOS4)]
 Deg. of freedom    69
 Full point group                 C1      NOp   1
 Largest Abelian subgroup         C1      NOp   1
 Largest concise Abelian subgroup C1      NOp   1
                         Standard orientation:                         
 ---------------------------------------------------------------------
 Center     Atomic      Atomic             Coordinates (Angstroms)
 Number     Number       Type             X           Y           Z
 ---------------------------------------------------------------------
      1          6           0        2.816430    2.763437    0.057111
      2          8           0        2.604075    1.671154   -0.869986
      3          6           0        1.665846    0.713014   -0.617766
      4          7           0        1.286062   -0.119486   -1.549576
      5          6           0        0.583863   -1.327439   -1.114838
      6          6           0        1.069697   -2.389488   -0.492904
      7          6           0        2.350499   -2.200309    0.147979
      8          6           0        2.559346   -0.992556    0.735480
      9          6           0        1.459210    0.281926    0.787484
     10          6           0        0.186130    0.434311    1.386151
     11         16           0       -1.496745    1.566277    1.222695
     12          6           0       -3.080292    0.577980    0.426569
     13          6           0       -3.152840    0.365488   -0.912497
     14         16           0       -1.656236    0.451399   -1.710300
     15         16           0       -0.982677   -1.122813   -0.428973
     16         16           0       -0.520972   -1.043312    1.851430
     17          1           0        3.436906    3.522683   -0.439116
     18          1           0        3.341335    2.461404    0.972950
     19          1           0        1.854108    3.218154    0.293816
     20          1           0        0.443471   -3.144498    0.018707
     21          1           0        3.070854   -2.953515   -0.178495
     22          1           0        3.598529   -0.709077    0.482492
     23          1           0       -3.987878    0.314008    0.995409
     24          1           0       -3.954735   -0.119571   -1.476644
     25          1           0       -1.878873   -2.105427   -0.236430
 ---------------------------------------------------------------------
 Rotational constants (GHZ):           0.5599950           0.3757108           0.3392891
 Standard basis: 6-31G(2df,p) (6D, 7F)
 There are   557 symmetry adapted cartesian basis functions of A   symmetry.
 There are   509 symmetry adapted basis functions of A   symmetry.
   509 basis functions,   863 primitive gaussians,   557 cartesian basis functions
    74 alpha electrons       74 beta electrons
       nuclear repulsion energy      1725.4610451386 Hartrees.
 NAtoms=   25 NActive=   25 NUniq=   25 SFac= 1.00D+00 NAtFMM=   60 NAOKFM=F Big=F
 Integral buffers will be    131072 words long.
 Raffenetti 2 integral format.
 Two-electron integral symmetry is turned on.
 One-electron integrals computed using PRISM.
 PrsmSu:  requested number of processors reduced to:  12 ShMem   1 Linda.
 NBasis=   509 RedAO= T EigKep=  1.99D-04  NBF=   509
 NBsUse=   509 1.00D-06 EigRej= -1.00D+00 NBFU=   509
 Initial guess from the checkpoint file:  "COC1dNC2dCCdCC1dC1SCdCS[SH]2S1.chk"
 B after Tr=     0.000000    0.000000   -0.000000
         Rot=    0.999324   -0.023777   -0.005549   -0.027491 Ang=  -4.21 deg.
 ExpMin= 1.17D-01 ExpMax= 2.19D+04 ExpMxC= 3.30D+03 IAcc=2 IRadAn=         4 AccDes= 0.00D+00
 Harris functional with IExCor=  402 and IRadAn=       4 diagonalized for initial guess.
 HarFok:  IExCor=  402 AccDes= 0.00D+00 IRadAn=         4 IDoV= 1 UseB2=F ITyADJ=14
 ICtDFT=  3500011 ScaDFX=  1.000000  1.000000  1.000000  1.000000
 FoFCou: FMM=F IPFlag=           0 FMFlag=      100000 FMFlg1=           0
         NFxFlg=           0 DoJE=T BraDBF=F KetDBF=T FulRan=T
         wScrn=  0.000000 ICntrl=       500 IOpCl=  0 I1Cent=   200000004 NGrid=           0
         NMat0=    1 NMatS0=      1 NMatT0=    0 NMatD0=    1 NMtDS0=    0 NMtDT0=    0
 Petite list used in FoFCou.
 Requested convergence on RMS density matrix=1.00D-08 within 128 cycles.
 Requested convergence on MAX density matrix=1.00D-06.
 Requested convergence on             energy=1.00D-06.
 No special actions if energy rises.
 Integral accuracy reduced to 1.0D-05 until final iterations.
 Initial convergence to 1.0D-05 achieved.  Increase integral accuracy.
 SCF Done:  E(RB3LYP) =  -2108.76428781     A.U. after   15 cycles
            NFock= 15  Conv=0.65D-08     -V/T= 2.0040
 PrsmSu:  requested number of processors reduced to:  13 ShMem   1 Linda.
 Calling FoFJK, ICntrl=      2127 FMM=F ISym2X=0 I1Cent= 0 IOpClX= 0 NMat=1 NMatS=1 NMatT=0.
 ***** Axes restored to original set *****
 -------------------------------------------------------------------
 Center     Atomic                   Forces (Hartrees/Bohr)
 Number     Number              X              Y              Z
 -------------------------------------------------------------------
      1        6           0.000790367    0.002352023   -0.005581548
      2        8           0.011745474    0.016238383   -0.012780133
      3        6           0.010657349   -0.014837184    0.026679437
      4        7          -0.004776058    0.007748605   -0.008845680
      5        6          -0.015672027    0.021971581    0.010967179
      6        6           0.000188679   -0.058937485   -0.010942105
      7        6           0.003624990    0.017110388   -0.000493282
      8        6          -0.006047069    0.018165524    0.009031660
      9        6           0.017865323    0.008190676   -0.029163464
     10        6           0.026289495   -0.007040326   -0.004909395
     11       16           0.007789149    0.007295225    0.000750814
     12        6          -0.005107041    0.004010282    0.007898995
     13        6          -0.019067708   -0.018456838   -0.000993836
     14       16           0.041334753    0.064362032    0.024285194
     15       16          -0.032086634    0.026523528    0.014927773
     16       16          -0.017123222   -0.073299611   -0.031136340
     17        1           0.008535123    0.000077274   -0.005004908
     18        1           0.004445643    0.000937183   -0.005464987
     19        1          -0.003566957   -0.002135216   -0.000810733
     20        1           0.015708754    0.017226052    0.007417528
     21        1          -0.015129064   -0.012643847    0.012942666
     22        1          -0.030491672   -0.014230509   -0.005901809
     23        1          -0.013235381   -0.012105451    0.015001887
     24        1          -0.013968504   -0.001326595   -0.003915796
     25        1           0.027296236    0.002804308   -0.003959117
 -------------------------------------------------------------------
 Cartesian Forces:  Max     0.073299611 RMS     0.019656734

 GradGradGradGradGradGradGradGradGradGradGradGradGradGradGradGradGradGrad
 Berny optimization.
 Using GEDIIS/GDIIS optimizer.
 FormGI is forming the generalized inverse of G from B-inverse, IUseBI=4.
 Internal  Forces:  Max     0.057116614 RMS     0.016986463
 Search for a local minimum.
 Step number   2 out of a maximum of  138
 All quantities printed in internal units (Hartrees-Bohrs-Radians)
 Mixed Optimization -- RFO/linear search
 Update second derivatives using D2CorX and points    1    2
 DE= -8.44D-02 DEPred=-8.23D-02 R= 1.03D+00
 TightC=F SS=  1.41D+00  RLast= 4.06D-01 DXNew= 5.0454D-01 1.2170D+00
 Trust test= 1.03D+00 RLast= 4.06D-01 DXMaxT set to 5.05D-01
 ITU=  1  0
 Use linear search instead of GDIIS.
 Linear search step of   0.601 exceeds DXMaxT=   0.505 but not scaled.
 Quartic linear search produced a step of  2.00000.
 Iteration  1 RMS(Cart)=  0.20370777 RMS(Int)=  0.01000195
 Iteration  2 RMS(Cart)=  0.01597234 RMS(Int)=  0.00237175
[...]
   R19        3.20444  -0.00465  -0.00183  -0.01107  -0.01245   3.19199
   R20        3.34461   0.00091  -0.00411   0.00552   0.00109   3.34570
   R21        2.54417   0.00030   0.00021   0.00051   0.00038   2.54455
   R22        2.05125  -0.00010  -0.00009   0.00088   0.00079   2.05204
   R23        3.30466   0.00405  -0.00663   0.00791   0.00123   3.30589
   R24        2.04973   0.00036   0.00087   0.00157   0.00243   2.05216
   R25        4.02689   0.00567   0.01820   0.04420   0.06245   4.08934
   R26        9.39663   0.00435   0.11042   0.11240   0.22183   9.61846
   R27        2.57303  -0.00041  -0.00214  -0.00279  -0.00493   2.56810
    A1        1.83328  -0.00004   0.00079   0.00185   0.00264   1.83592
    A2        1.93814   0.00030   0.00093   0.00174   0.00266   1.94080
    A3        1.93724   0.00041  -0.00104   0.00098  -0.00006   1.93718
    A4        1.92409  -0.00015   0.00111  -0.00114  -0.00004   1.92405
    A5        1.92080  -0.00036  -0.00144  -0.00224  -0.00368   1.91712
    A6        1.90937  -0.00017  -0.00030  -0.00115  -0.00145   1.90791
    A7        2.07310   0.00023  -0.00314  -0.00424  -0.00737   2.06572
    A8        2.02392  -0.00105  -0.00269  -0.00215  -0.00513   2.01880
    A9        2.15684   0.00045   0.00221  -0.00613  -0.00413   2.15270
   A10        2.10185   0.00057   0.00038   0.00792   0.00871   2.11055
   A11        2.05500   0.00004   0.00628  -0.00407   0.00337   2.05837
   A12        2.29726   0.00060  -0.00737  -0.00217  -0.01069   2.28657
   A13        2.03629   0.00068   0.00470   0.00692   0.01082   2.04711
   A14        1.94640  -0.00128   0.00446  -0.00302   0.00225   1.94866
   A15        2.12786   0.00196   0.00749   0.01984   0.02645   2.15431
   A16        2.04133   0.00309  -0.00376   0.01802   0.01427   2.05560
   A17        2.11400  -0.00504  -0.00320  -0.03785  -0.04101   2.07299
   A18        2.09553   0.00061   0.00207   0.01010   0.01265   2.10817
   A19        2.08994  -0.00218  -0.00047  -0.02242  -0.02318   2.06676
   A20        2.09105   0.00166  -0.00030   0.01188   0.01130   2.10235
   A21        2.09800  -0.00219  -0.00555  -0.01165  -0.01684   2.08116
   A22        2.09526  -0.00014   0.00126  -0.00403  -0.00295   2.09231
   A23        2.08942   0.00236   0.00433   0.01530   0.01940   2.10881
   A24        1.90696   0.00115  -0.00528   0.01863   0.01189   1.91885
   A25        2.13535   0.00012   0.00616   0.00569   0.01084   2.14618
   A26        2.14435  -0.00145  -0.00646  -0.02647  -0.03068   2.11367
   A27        1.95076   0.00308  -0.00301   0.00223  -0.00157   1.94919
   A28        2.26915  -0.00164   0.00520  -0.01651  -0.00862   2.26053
   A29        2.05772  -0.00146  -0.00232   0.01426   0.01007   2.06779
   A30        1.64615   0.00292  -0.00617   0.01276   0.00399   1.65014
   A31        2.19016  -0.00058   0.00443   0.00127   0.00573   2.19589
   A32        2.00760   0.00082  -0.00474   0.00641   0.00161   2.00922
   A33        2.08542  -0.00025   0.00035  -0.00768  -0.00737   2.07805
   A34        2.13850   0.00036   0.00595   0.01188   0.01809   2.15659
   A35        2.10267   0.00060  -0.00581  -0.00121  -0.00719   2.09548
   A36        2.04164  -0.00096  -0.00012  -0.01042  -0.01069   2.03095
   A37        1.75912   0.00059   0.01245   0.01340   0.02668   1.78580
   A38        1.88445  -0.00023  -0.00507   0.00232  -0.00664   1.87781
   A39        1.01403  -0.00115  -0.03079  -0.02494  -0.05353   0.96050
   A40        1.89928  -0.00314  -0.00024  -0.04824  -0.04286   1.85642
   A41        1.42672  -0.00056  -0.01725  -0.00445  -0.02331   1.40341
   A42        1.58546  -0.00044  -0.03030   0.00428  -0.03201   1.55345
   A43        2.81324  -0.00497  -0.06536  -0.07409  -0.13876   2.67448
   A44        0.93898   0.00030  -0.00673  -0.00923  -0.01683   0.92215
    D1        3.08938  -0.00012  -0.00739  -0.00708  -0.01446   3.07491
    D2        1.00962  -0.00008  -0.00965  -0.00773  -0.01738   0.99224
    D3       -1.11845  -0.00036  -0.00918  -0.00815  -0.01733  -1.13578
    D4        3.03104   0.00156  -0.00620   0.02887   0.02265   3.05369
    D5       -0.14698   0.00041  -0.00944   0.01769   0.00827  -0.13871
    D6        3.02757  -0.00153  -0.00396  -0.03297  -0.03818   2.98939
    D7       -0.07884  -0.00043  -0.00086  -0.02185  -0.02389  -0.10272
    D8       -1.84077   0.00109   0.00832   0.02128   0.02927  -1.81150
    D9        1.74800   0.00186   0.02280   0.03278   0.05476   1.80276
   D10        1.26285  -0.00014   0.00489   0.00939   0.01386   1.27671
   D11       -1.43156   0.00063   0.01937   0.02090   0.03935  -1.39221
   D12       -0.78695   0.00033   0.02278   0.01327   0.03633  -0.75061
   D13        2.25965   0.00018   0.04489   0.03845   0.08269   2.34235
   D14        0.15118   0.00136  -0.02735   0.03160   0.00414   0.15533
   D15       -2.98930   0.00069  -0.00148   0.03084   0.02912  -2.96017
   D16       -2.89917   0.00142  -0.04865   0.00699  -0.04060  -2.93977
   D17        0.24353   0.00075  -0.02279   0.00623  -0.01562   0.22792
   D18       -0.64233  -0.00122  -0.05970  -0.03780  -0.09759  -0.73992
   D19       -1.82366   0.00003  -0.02371  -0.01493  -0.03701  -1.86067
   D20        1.05565  -0.00296  -0.09593  -0.05000  -0.15057   0.90508
   D21        2.42297  -0.00126  -0.04289  -0.01765  -0.06078   2.36220
   D22        1.24164  -0.00001  -0.00690   0.00522  -0.00019   1.24145
   D23       -2.16223  -0.00300  -0.07912  -0.02985  -0.11375  -2.27599
   D24        0.65370  -0.00132   0.00215  -0.03109  -0.02957   0.62413
   D25       -2.61196  -0.00038   0.01323  -0.03432  -0.02156  -2.63352
   D26       -2.48905  -0.00062  -0.02478  -0.03025  -0.05475  -2.54380
   D27        0.52847   0.00033  -0.01370  -0.03348  -0.04674   0.48173
   D28       -0.02941   0.00050   0.02103   0.00024   0.02126  -0.00815
   D29        3.07778   0.00147   0.02227  -0.01248   0.01040   3.08818
   D30       -3.04685  -0.00017   0.00996   0.00592   0.01553  -3.03132
   D31        0.06034   0.00081   0.01120  -0.00681   0.00467   0.06501
   D32       -1.16791   0.00225  -0.01821   0.02552   0.00819  -1.15971
   D33        1.52373   0.00196  -0.02912   0.02393  -0.00425   1.51948
   D34        2.00797   0.00133  -0.01938   0.03857   0.01960   2.02758
   D35       -1.58357   0.00104  -0.03029   0.03699   0.00716  -1.57641
   D36       -0.30257   0.00073   0.00011   0.01322   0.01394  -0.28863
   D37        2.72162   0.00046  -0.00144   0.01428   0.01345   2.73507
   D38       -2.93667   0.00088   0.01565   0.01343   0.02984  -2.90683
   D39        0.08753   0.00061   0.01409   0.01449   0.02935   0.11688
   D40        2.27203  -0.00041  -0.00638   0.00031  -0.00596   2.26607
   D41       -0.76789  -0.00011  -0.00559   0.00158  -0.00424  -0.77213
   D42       -1.50858  -0.00044  -0.00245  -0.00287  -0.00494  -1.51351
   D43        1.50962  -0.00047  -0.00408  -0.00258  -0.00620   1.50342
   D44       -1.86585   0.00063  -0.01827  -0.00545  -0.02327  -1.88912
   D45        1.27559   0.00058  -0.02482  -0.00634  -0.03135   1.24424
   D46        0.06657   0.00008   0.00558  -0.01675  -0.01186   0.05471
   D47       -3.10565  -0.00022   0.00624  -0.00693  -0.00147  -3.10712
   D48       -3.07486   0.00013   0.01237  -0.01582  -0.00349  -3.07835
   D49        0.03611  -0.00017   0.01304  -0.00600   0.00690   0.04301
   D50        1.63572  -0.00080  -0.00515  -0.01524  -0.02145   1.61427
   D51       -1.47626  -0.00053  -0.00569  -0.02487  -0.03152  -1.50777
   D52       -1.53751   0.00023   0.05326   0.04662   0.10025  -1.43726
   D53       -0.62078  -0.00126   0.01210   0.01497   0.02908  -0.59170
   D54        2.82376   0.00374   0.06556   0.09594   0.15702   2.98078
   D55        0.86309   0.00095  -0.00087   0.00660   0.00258   0.86567
   D56       -1.18293   0.00026  -0.02016  -0.01185  -0.03680  -1.21973
   D57       -0.00182   0.00374  -0.12800   0.08920  -0.03054  -0.03236
         Item               Value     Threshold  Converged?
 Maximum Force            0.010023     0.000450     NO 
 RMS     Force            0.001989     0.000300     NO 
 Maximum Displacement     0.305887     0.001800     NO 
 RMS     Displacement     0.066774     0.001200     NO 
 Predicted change in Energy=-2.912732D-03
 GradGradGradGradGradGradGradGradGradGradGradGradGradGradGradGradGradGrad

                          Input orientation:                          
 ---------------------------------------------------------------------
 Center     Atomic      Atomic             Coordinates (Angstroms)
 Number     Number       Type             X           Y           Z
 ---------------------------------------------------------------------
      1          6           0        1.333243    0.201748   -0.432291
      2          8           0        2.591629    0.564610   -1.012675
      3          6           0        2.929634    0.021236   -2.174984
      4          7           0        4.033230    0.462807   -2.703785
      5          6           0        4.517288   -0.181337   -3.793620
      6          6           0        4.628110   -1.523308   -4.073603
      7          6           0        4.045469   -2.552253   -3.258839
      8          6           0        2.851676   -2.361962   -2.651848
      9          6           0        2.151201   -1.074299   -2.826163
     10          6           0        1.311811   -0.862889   -3.889350
     11         16           0        0.889562    0.938017   -4.083944
     12          6           0        1.286388    0.989642   -5.808594
     13          6           0        2.357132    1.598216   -6.352891
     14         16           0        3.601275    2.390483   -5.412234
     15         16           0        5.053979    0.809304   -5.143234
     16         16           0        0.776078   -1.947628   -5.068118
     17          1           0        1.307026    0.708420    0.532805
     18          1           0        1.259161   -0.879634   -0.293675
     19          1           0        0.502003    0.544354   -1.053909
     20          1           0        5.208618   -1.812586   -4.946080
     21          1           0        4.529539   -3.524354   -3.229175
     22          1           0        2.399875   -3.169758   -2.078271
     23          1           0        0.588900    0.468974   -6.457886
     24          1           0        2.493216    1.598829   -7.430288
     25          1           0        5.917909    1.722978   -4.627815
 ---------------------------------------------------------------------
                    Distance matrix (angstroms):
                    1          2          3          4          5
     1  C    0.000000
     2  O    1.432498   0.000000
     3  C    2.370238   1.326826   0.000000
     4  N    3.538046   2.224507   1.300977   0.000000
     5  C    4.645797   3.463850   2.276327   1.355350   0.000000
     6  C    5.204913   4.227995   2.979126   2.484942   1.375340
     7  C    4.788535   4.107766   3.007104   3.065750   2.475854
     8  C    3.715464   3.364422   2.431688   3.062366   2.972042
     9  C    2.833368   2.483694   1.493381   2.433045   2.707716
    10  C    3.617343   3.457014   2.517554   3.251024   3.278531
    11  S    3.751468   3.531170   2.940495   3.466023   3.807577
    12  C    5.433931   4.988502   4.103801   4.178820   3.983720
    13  C    6.168628   5.444377   4.502170   4.173061   3.792486
    14  S    5.893587   4.869222   4.067459   3.352345   3.173838
    15  S    6.033738   4.815036   3.734221   2.667002   1.758086
    16  S    5.140150   5.104330   4.109069   4.691408   4.329063
    17  H    1.090328   2.014793   3.230665   4.238871   5.460348
    18  H    1.092744   2.092432   2.672334   3.912319   4.832456
    19  H    1.093045   2.090131   2.724675   3.898500   4.914790
    20  H    6.280952   5.288797   4.029348   3.403944   2.113545
    21  H    5.650018   5.038650   4.030164   4.052137   3.390356
    22  H    3.900513   3.888157   3.236115   4.031705   4.044320
    23  H    6.077273   5.802619   4.901301   5.094774   4.790975
    24  H    7.229754   6.501158   5.504315   5.099218   4.526722
    25  H    6.398103   5.047296   4.223990   2.973539   2.506797
                    6          7          8          9         10
     6  C    0.000000
     7  C    1.435980   0.000000
     8  C    2.424963   1.352698   0.000000
     9  C    2.809412   2.441272   1.476187   0.000000
    10  C    3.386435   3.274810   2.479882   1.370998   0.000000
    11  S    4.476044   4.777294   4.097640   2.687594   1.859953
    12  C    4.526833   5.163216   4.862964   3.728625   2.667586
    13  C    4.482902   5.445184   5.442913   4.429735   3.635762
    14  S    4.261935   5.409719   5.546834   4.560174   4.259724
    15  S    2.601261   3.983479   4.595005   4.164481   4.286290
    16  S    4.000907   3.785232   3.212187   2.771286   1.689130
    17  H    6.101574   5.701546   4.685637   3.895302   4.693026
    18  H    5.104115   4.399246   3.208485   2.692048   3.596100
    19  H    5.515300   5.196811   4.064608   2.912177   3.267392
    20  H    1.087146   2.178717   3.334740   3.793009   4.147736
    21  H    2.174157   1.086363   2.121246   3.438267   4.227647
    22  H    3.414261   2.117317   1.088875   2.238779   3.128184
    23  H    5.095999   5.595496   5.255500   4.244041   2.982253
    24  H    5.056961   6.086211   6.216900   5.334843   4.471467
    25  H    3.536822   4.863921   5.476583   5.025813   5.333683
                   11         12         13         14         15
    11  S    0.000000
    12  C    1.770467   0.000000
    13  C    2.781680   1.346519   0.000000
    14  S    3.350731   2.734622   1.749404   0.000000
    15  S    4.298957   3.830139   3.059189   2.163986   0.000000
    16  S    3.050971   3.071852   4.089423   5.188387   5.089868
    17  H    4.641267   6.347665   7.021913   6.590630   6.802004
    18  H    4.219787   5.823167   6.637724   6.509901   6.385247
    19  H    3.079981   4.839481   5.712385   5.657621   6.124807
    20  H    5.192624   4.896969   4.663010   4.524007   2.633836
    21  H    5.821754   6.127609   6.381041   6.372811   4.766472
    22  H    4.814311   5.696996   6.403731   6.593554   5.680775
    23  H    2.438442   1.085893   2.100679   3.722900   4.667018
    24  H    3.769138   2.111264   1.085958   2.434554   3.522992
    25  H    5.118226   4.835598   3.958609   2.535285   1.358982
                   16         17         18         19         20
    16  S    0.000000
    17  H    6.221481   0.000000
    18  H    4.916227   1.790887   0.000000
    19  H    4.732755   1.786795   1.782971   0.000000
    20  H    4.436276   7.183040   6.173612   6.546479   0.000000
    21  H    4.467242   6.515632   5.129042   6.124313   2.517750
    22  H    3.615177   4.801281   3.119403   4.294865   4.237368
    23  H    2.794003   7.031557   6.345509   5.405201   5.369625
    24  H    4.594101   8.100045   7.654863   6.762770   5.018212
    25  H    6.332901   6.994395   6.874757   6.594998   3.620027
                   21         22         23         24         25
    21  H    0.000000
    22  H    2.446587   0.000000
    23  H    6.473011   5.975033   0.000000
    24  H    6.931304   7.168837   2.418379   0.000000
    25  H    5.605199   6.543363   5.772349   4.426939   0.000000
 Stoichiometry    C10H9NOS4
 Framework group  C1[X(C10H9NOS4)]
 Deg. of freedom    69
 Full point group                 C1      NOp   1
 Largest Abelian subgroup         C1      NOp   1
 Largest concise Abelian subgroup C1      NOp   1
                         Standard orientation:                         
 ---------------------------------------------------------------------
 Center     Atomic      Atomic             Coordinates (Angstroms)
 Number     Number       Type             X           Y           Z
 ---------------------------------------------------------------------
      1          6           0        2.968205   -0.313010   -2.317724
      2          8           0        1.850593   -1.161339   -2.029054
      3          6           0        1.193982   -0.973377   -0.891513
      4          7           0        0.128791   -1.702329   -0.728608
      5          6           0       -0.474889   -1.682279    0.484711
      6          6           0        0.050608   -1.724253    1.755007
      7          6           0        1.455193   -1.617924    2.034064
      8          6           0        2.249210   -0.811341    1.293285
      9          6           0        1.658341   -0.042684    0.180106
     10          6           0        1.099845    1.191734    0.389700
     11         16           0        0.091080    1.746522   -1.071131
     12          6           0       -1.334719    2.162219   -0.107362
     13          6           0       -2.494084    1.477945   -0.079899
     14         16           0       -2.758010   -0.013243   -0.955750
     15         16           0       -2.224432   -1.511326    0.511861
     16         16           0        1.083509    2.140894    1.786837
     17          1           0        3.382140   -0.693753   -3.251804
     18          1           0        3.717607   -0.362934   -1.524003
     19          1           0        2.648988    0.724128   -2.448847
     20          1           0       -0.638027   -1.869340    2.583632
     21          1           0        1.845387   -2.112826    2.918939
     22          1           0        3.302169   -0.703467    1.548801
     23          1           0       -1.230596    3.048646    0.511160
     24          1           0       -3.322940    1.836003    0.523504
     25          1           0       -2.715507   -2.467165   -0.320035
 ---------------------------------------------------------------------
 Rotational constants (GHZ):           0.4591254           0.3636603           0.3268362
 Standard basis: 6-31G(2df,p) (6D, 7F)
 There are   557 symmetry adapted cartesian basis functions of A   symmetry.
 There are   509 symmetry adapted basis functions of A   symmetry.
   509 basis functions,   863 primitive gaussians,   557 cartesian basis functions
    74 alpha electrons       74 beta electrons
       nuclear repulsion energy      1661.3819250430 Hartrees.
 NAtoms=   25 NActive=   25 NUniq=   25 SFac= 1.00D+00 NAtFMM=   60 NAOKFM=F Big=F
 Integral buffers will be    131072 words long.
 Raffenetti 2 integral format.
 Two-electron integral symmetry is turned on.
 One-electron integrals computed using PRISM.
 PrsmSu:  requested number of processors reduced to:  12 ShMem   1 Linda.
 NBasis=   509 RedAO= T EigKep=  1.79D-04  NBF=   509
 NBsUse=   509 1.00D-06 EigRej= -1.00D+00 NBFU=   509
 Initial guess from the checkpoint file:  "COC1dNC2dCCdCC1dC1SCdCS[SH]2S1.chk"
 B after Tr=     0.000000   -0.000000   -0.000000
         Rot=    0.998618    0.052002    0.000635    0.007584 Ang=   6.03 deg.
 ExpMin= 1.17D-01 ExpMax= 2.19D+04 ExpMxC= 3.30D+03 IAcc=2 IRadAn=         4 AccDes= 0.00D+00
 Harris functional with IExCor=  402 and IRadAn=       4 diagonalized for initial guess.
 HarFok:  IExCor=  402 AccDes= 0.00D+00 IRadAn=         4 IDoV= 1 UseB2=F ITyADJ=14
 ICtDFT=  3500011 ScaDFX=  1.000000  1.000000  1.000000  1.000000
 FoFCou: FMM=F IPFlag=           0 FMFlag=      100000 FMFlg1=           0
         NFxFlg=           0 DoJE=T BraDBF=F KetDBF=T FulRan=T
         wScrn=  0.000000 ICntrl=       500 IOpCl=  0 I1Cent=   200000004 NGrid=           0
         NMat0=    1 NMatS0=      1 NMatT0=    0 NMatD0=    1 NMtDS0=    0 NMtDT0=    0
 Petite list used in FoFCou.
 Requested convergence on RMS density matrix=1.00D-08 within 128 cycles.
 Requested convergence on MAX density matrix=1.00D-06.
 Requested convergence on             energy=1.00D-06.
 No special actions if energy rises.
 Integral accuracy reduced to 1.0D-05 until final iterations.
 Initial convergence to 1.0D-05 achieved.  Increase integral accuracy.
slurmstepd: error: *** JOB 27446540 ON lewis4-r630-hpc4rc-node352 CANCELLED AT 2023-05-16T08:07:55 DUE TO TIME LIMIT ***
